/*--------------------------------*- C++ -*----------------------------------*\
  =========                 |
  \\      /  F ield         | OpenFOAM: The Open Source CFD Toolbox
   \\    /   O peration     | Website:  https://openfoam.org
    \\  /    A nd           | Version:  11
     \\/     M anipulation  |
\*---------------------------------------------------------------------------*/
FoamFile
{
    format      ascii;
    class       volScalarField;
    location    "0.045";
    object      T;
}
// * * * * * * * * * * * * * * * * * * * * * * * * * * * * * * * * * * * * * //

dimensions      [0 0 0 1 0 0 0];

internalField   nonuniform List<scalar> 
880
(
500
500
500.0000000185516
500.0000018673105
500.0000000000001
500
500.0000001848433
500.0000440503087
500
500
500.0000064112643
500.0044133068177
500.0000000000001
500
499.9999905976181
500.0613517610215
500
500
500.0000000000002
500.0000000039433
500
500.0000000000319
500.0000000017727
500.0000000859609
500.0004846246888
500.0014796758794
500.0036299739066
499.9961078345766
500.8671426611677
503.101961117691
505.0497625430112
505.8642810712946
500.0000002390108
500.0000003408243
500.0000003654181
500.000000328324
500.0000140815355
500.0000217934057
500.000023327734
500.0000178884762
500.0197707734579
500.0230853514092
500.0233630110108
500.0233171039535
506.3112739326222
506.9086991052348
506.9067658635055
507.6611356738351
505.8556076942749
503.7439827511205
501.8683390519581
500.5625553853538
500.0401977214123
500.0330825401212
500.0176296625904
500.0048400859162
500.0000565604429
500.0000486348286
500.0000266655277
500.000006947829
500.0000009143678
500.0000007346993
500.0000003250458
500.0000000575516
500.0000000025807
500.0000000000028
499.9999999999968
500
500.0000005704044
500.0000000091297
499.9999999999149
499.9999999999876
500.0004583325059
500.0000089667027
500.0000000113659
499.9999999967769
500.0676473570786
500.002023771107
500.0000084345559
499.999999563794
499.9999997884849
499.9999999992186
500
500.0000000000001
499.9999961286015
499.9999996727673
499.999999997871
500.0000000000001
500.0029224132008
500.0000212403111
500.0000001521518
500.0000000064515
501.0074566761144
499.9960087222121
499.9997270840863
499.9999993563333
499.9999997033021
499.9999819620801
500.0281201716122
514.6447339317631
500.0000015484389
500.0001060248067
500.1087597022639
525.5313223996365
500.0000025537502
500.0001798756348
500.1734034784786
533.3435494233244
500.0000033156836
500.0002296187345
500.2086106546556
536.6648303170302
538.4715884961346
500.2422186648403
500.0002879639713
500.0000042850421
540.5399293653385
500.2876905490444
500.0003724373862
500.0000056616089
542.4074001038631
500.3342322247554
500.0004665276496
500.0000073808841
544.9109139807429
500.416514358247
500.0006574992554
500.0000106811626
500.0000101953514
500.0006248280321
500.4491780890552
548.1265779615361
500.0000129781155
500.0007849319829
500.5150244380475
548.8253671145152
500.0000162397182
500.0008904852686
500.5089508192081
542.9248678003482
500.0000084452358
500.0004986445256
500.2575340261361
524.0498548268318
499.9999243255892
499.9990332625575
500.2747625232821
510.5974155067084
499.9999796052736
499.9923493166569
499.8534776323664
502.9513274891855
499.999995520593
499.9969116298159
499.5763800841311
492.8822209350637
499.9999958527196
499.9964036346337
499.2788353741027
483.8197589635697
485.3544470607113
499.6098035229682
499.9983458276748
499.9999969363409
484.2834820770026
499.6429032151399
499.9985957071516
499.9999976460834
488.9617189313478
499.7777794888202
499.9991875740722
499.9999986730035
488.0639054253683
499.7416906743371
499.9991045802249
499.9999986385661
489.9608746670492
499.9187191058005
499.99977108472
499.9999996167365
495.2326569722749
499.9832887750795
499.9999707058273
499.9999999652493
498.412779263844
499.9941198688979
499.9999883966619
499.9999999853538
498.6069800063998
499.9928138797425
499.9999832010138
499.9999999727547
497.9514162860611
499.9649172061119
499.9998236236643
499.9999996063974
497.9423100475292
499.9649497209681
499.9998238492469
499.9999996067256
497.8912251530986
499.9648482155617
499.9998243019591
499.9999996069007
498.0272221469221
499.965361712688
499.9998267660792
499.9999996114903
498.606980006401
499.9928138797319
499.9999832010102
499.9999999727283
498.4127792638546
499.9941198688616
499.999988396625
499.999999985359
495.2326569722501
499.9832887750434
499.999970705804
499.9999999652392
489.9608746670602
499.9187191057641
499.9997710847213
499.999999616736
499.9999969363604
499.9983458277069
499.6098035230792
485.3544470605111
499.99999764608
499.998595707141
499.6429032150911
484.2834820767887
499.9999986730141
499.9991875740649
499.7777794887646
488.9617189312432
499.9999986385703
499.9991045802742
499.7416906743563
488.0639054254315
483.8197589634736
499.2788353740691
499.9964036346095
499.999995852727
492.8822209350249
499.5763800841245
499.9969116298443
499.9999955205969
502.951327489124
499.8534776323951
499.9923493166498
499.9999796052801
510.5974155067079
500.2747625232157
499.9990332625146
499.9999243256212
500.0000101953216
500.0006248280307
500.4491780891355
548.1265779617426
500.0000129781127
500.0007849320098
500.5150244380549
548.8253671146595
500.0000162396934
500.0008904852821
500.5089508192082
542.9248678003565
500.0000084452637
500.0004986444976
500.2575340261421
524.0498548268189
544.9109139808826
500.4165143582272
500.0006574992798
500.0000106812233
542.4074001039927
500.3342322246818
500.0004665276608
500.0000073808986
540.5399293654252
500.287690549146
500.0003724373759
500.0000056616082
538.4715884961461
500.242218664753
500.0002879639698
500.0000042850452
499.9999997033078
499.9999819621061
500.0281201715813
514.6447339317787
500.0000015484777
500.0001060248612
500.1087597022986
525.5313223996679
500.0000025537637
500.0001798755992
500.1734034784043
533.3435494232945
500.00000331568
500.0002296187618
500.2086106547806
536.664830317049
499.9999993563345
500.0000000064456
499.9999999999998
500.0000000000001
499.9997270840432
500.0000001521354
499.9999999978588
499.9999999999997
499.9960087221709
500.0000212403407
499.9999996727598
499.9999999992225
501.0074566760904
500.0029224132
499.9999961286495
499.9999997884837
500
499.9999999999848
499.999999996782
499.9999995638036
499.9999999999966
499.9999999999177
500.0000000113736
500.0000084345774
500.0000000000021
500.0000000091353
500.0000089666949
500.0020237710964
500.0000000025661
500.0000005704069
500.0004583325019
500.067647357061
500.0000009143584
500.0000565604058
500.0401977214161
505.8556076943087
500.0000007346483
500.0000486348718
500.0330825401431
503.7439827511037
500.0000003250619
500.0000266654951
500.0176296625689
501.8683390518983
500.0000000575505
500.0000069478199
500.0048400859324
500.5625553853545
507.66113567381
500.0233171039119
500.0000178884625
500.0000003285173
506.9067658634727
500.0233630110584
500.0000233277033
500.000000365677
506.9086991052444
500.0230853514324
500.0000217934175
500.0000003401708
506.3112739326237
500.0197707734639
500.0000140814785
500.0000002392688
505.8642810712807
499.9961078345901
500.000000085969
500.0000000039584
505.0497625430079
500.003629973889
500.0000000017323
500
503.1019611176902
500.0014796758771
500.00000000003
500
500.8671426611608
500.0004846246666
500.0000000000001
499.9999999999999
500.0000000000001
500
500.0000000185645
500.0000018673116
500
500
500.0000001848473
500.00004405033
500
500
500.0000064112713
500.0044133068226
500
500.0000000000001
499.9999905976036
500.0613517609665
500.0000081841609
500.000130627665
500.0231726773968
500.6767219279891
500.000130627634
500.0022604899356
500.1782875697392
503.266572771308
500.0231726774007
500.17828756975
502.2034329679267
512.2471422037625
500.6767219280562
503.2665727713842
512.2471422038707
533.4817562496443
558.180667561998
538.5991161163862
527.1522764562974
513.755867144955
554.9183352424084
549.4896814830123
546.2834635918837
536.9829291432446
553.0292168604166
552.1378010727155
552.2384663454372
549.2592955406111
554.8583671340135
554.9469187724105
556.4168648975515
555.3619583723058
557.375153698775
557.5915142324988
557.6677175629808
559.0089193266496
558.5137125830008
558.8443864800918
558.8561910144416
561.0809724661383
556.4641273615766
556.7717166583487
556.7379477422527
559.3115654214581
556.4102052404456
556.7738903632707
556.7504818554323
554.2544896654225
530.1032090773059
513.156060764628
506.389492129568
502.2001333369938
517.928583227725
505.7604314743662
504.2969812830504
502.0033914664247
507.2841372494372
505.4117992831457
505.2748629198418
502.7037879499592
487.2860082864431
502.0092104564328
503.4634063951265
501.3822915184169
500.3230870634168
500.0150474230309
500.0001336447118
499.9999964829298
500.4082888559067
500.0240116061788
500.0002304338017
499.9999973369221
500.5659355070605
500.0337022094825
500.0003186247417
499.999995542989
500.1410587036884
500.0028317721337
499.9999519459909
499.9999865183076
499.9999980337882
499.9999954951741
500.0792341659942
529.0378396434101
499.9999981520725
499.9999977511247
500.1667728719905
543.6329327338099
499.9999982723369
499.999999410363
500.3463924597752
550.2252035930698
499.9999987592832
500.0000000352221
500.9136193114132
551.8633529699598
614.3255317208121
627.4382651374843
642.3764960704312
647.9512690049896
632.7289957275742
631.6439438969348
638.8860542204305
644.6833153379421
637.4061730102135
629.1731030251329
634.559817349755
640.5266954731572
649.7843053230197
634.4751304492478
636.4258724590711
642.3942390105367
649.231044876331
650.1172180951105
650.7339978140176
651.720493756785
645.8782632671957
646.1104404088148
646.1462400932189
646.1800410706799
642.1579045832716
642.2785092131468
642.2167544670482
641.9428256789951
644.5838832039007
644.7855290654421
644.7272093035923
644.4558891631352
653.6664713814532
651.2959221424085
633.8187550277643
590.6602589626623
647.3327448459288
644.7309662372062
630.4404227072552
611.8196083988804
641.929726309525
639.1646044890648
628.4174362998423
629.4484461728822
644.0378611348369
642.0528867435461
634.9199286651252
630.7053938143173
548.6813594791836
509.9045423475517
400.1335429941702
359.4065953276907
560.6799261082505
468.1311038958148
364.8344340459917
322.6124731286303
513.6801200853162
435.6224925916157
338.1047097441021
301.193168315534
415.473422493029
356.6869065275536
322.6798298235113
299.2233603396032
360.9344029495292
360.0724270357249
362.9458577918701
349.2533749425115
317.5805794621504
320.6621096375568
327.7875161179464
318.6725885608507
295.801902333558
302.0185902378666
314.9603810041684
324.8426554625756
295.8415845364163
303.2276239354557
312.7580588716597
316.1017908043684
440.1440424397117
463.099463122234
469.9834114435843
471.5463912364192
432.4847187196866
453.2752972688961
455.7393663802899
467.1874574212547
410.8431802862199
459.391025895015
456.5665370708498
473.7846332776204
366.082937367626
429.3066025669995
449.5664630771986
461.6914359901126
469.6370195451739
458.9387557318463
452.4000036668091
437.688971636446
425.4482464307237
401.585507547662
420.6724367779755
411.2137320988128
394.2039171935922
284.5872740018444
312.8402473007625
353.6980501418001
329.9128239026765
224.5635748901953
248.3299433573597
279.3921825912511
301.7301911210496
313.4026873018493
312.7854341674648
318.0077349317116
369.2869431233365
370.3711243783486
357.7846912590991
337.6258453856698
393.4722749173519
376.8689462580765
350.6783073425889
324.0945100344262
421.6696918382593
406.1577652199548
390.2489351706313
381.0157106705366
318.0077349316914
337.625845385653
324.0945100344406
381.0157106705286
312.7854341674386
357.7846912590796
350.6783073426053
390.2489351706543
313.402687301851
370.3711243783438
376.868946258082
406.1577652199481
301.7301911210654
369.2869431233308
393.4722749173469
421.6696918382503
437.6889716364506
452.4000036668372
458.9387557318765
469.6370195451767
411.2137320988163
420.6724367779726
401.5855075476363
425.4482464307046
353.6980501418166
312.840247300784
284.5872740018876
394.2039171935829
279.3921825912856
248.3299433574069
224.5635748902423
329.912823902675
461.6914359901048
449.5664630771797
429.3066025669986
366.0829373677149
473.7846332776102
456.5665370708389
459.3910258950012
410.8431802862842
467.1874574212445
455.739366380286
453.2752972688864
432.4847187196887
471.5463912364121
469.9834114435832
463.0994631222163
440.1440424397001
349.253374942516
362.9458577918297
360.0724270355529
360.9344029493938
318.6725885608979
327.787516117967
320.6621096375697
317.5805794621933
324.8426554626558
314.9603810042209
302.0185902379214
295.8019023336112
316.1017908044651
312.7580588717172
303.2276239355148
295.8415845364561
359.4065953276348
400.1335429934506
509.9045423471455
548.6813594792693
322.6124731286142
364.8344340456894
468.1311038956932
560.6799261082963
301.1931683155526
338.1047097438937
435.6224925913967
513.6801200854288
299.2233603396134
322.6798298233988
356.6869065274945
415.4734224931969
590.6602589626278
633.8187550277353
651.2959221424328
653.6664713815284
611.8196083988906
630.4404227072448
644.7309662372029
647.3327448459468
629.4484461728923
628.4174362998205
639.1646044890327
641.9297263094992
630.705393814368
634.9199286650817
642.0528867435036
644.0378611347942
651.7204937569186
650.7339978141729
650.1172180951753
649.2310448763906
646.1800410707167
646.1462400932804
646.110440408835
645.8782632672142
641.9428256789919
642.2167544670826
642.2785092131707
642.1579045832806
644.4558891631216
644.7272093036206
644.7855290654735
644.5838832039177
647.9512690049752
642.3764960704127
627.4382651375295
614.3255317208806
644.6833153379487
638.8860542203888
631.6439438969572
632.7289957276007
640.5266954731539
634.5598173497048
629.1731030251375
637.4061730101595
642.3942390105408
636.425872459017
634.4751304492369
649.7843053229172
529.0378396433854
500.0792341659705
499.9999954947224
499.9999980338056
543.6329327337733
500.1667728719041
499.9999977507808
499.9999981521264
550.2252035930254
500.346392459697
499.9999994102008
499.9999982724035
551.8633529698971
500.9136193113481
500.0000000351695
499.9999987593463
499.9999964829366
500.0001336447219
500.0150474230059
500.3230870634344
499.9999973369293
500.00023043381
500.0240116061252
500.4082888559304
499.9999955429892
500.0003186247502
500.0337022094197
500.5659355070928
499.9999865182933
499.9999519460026
500.0028317720552
500.1410587037253
502.20013333699
506.3894921295037
513.1560607646151
530.1032090773504
502.0033914663872
504.2969812830081
505.7604314743755
517.9285832277434
502.70378794991
505.2748629198267
505.4117992831716
507.2841372494165
501.3822915183517
503.463406395112
502.0092104564546
487.2860082864429
559.0089193266393
557.6677175629815
557.5915142325294
557.375153698816
561.0809724661024
558.856191014449
558.8443864801304
558.5137125830247
559.3115654213998
556.7379477422409
556.7717166583673
556.464127361591
554.2544896653541
556.7504818554065
556.7738903632703
556.4102052404492
555.3619583722722
549.2592955406243
536.9829291432895
513.7558671449942
556.4168648975448
552.2384663454632
546.2834635918841
527.1522764562674
554.9469187724488
552.137801072766
549.489681482973
538.5991161162923
554.8583671340443
553.0292168604736
554.9183352423775
558.1806675619658
499.3300902453955
499.993215128098
499.9999755105591
499.9999999543232
498.6988794147431
499.9861166042257
499.999943141441
499.9999998802469
498.3712431321034
499.9757764978192
499.9998887829202
499.9999997581182
497.3719829438049
499.9605773105139
499.9998221133898
499.9999996259646
499.9999996064246
499.9998236236697
499.9649172061097
497.9514162860239
499.9999996067078
499.999823849254
499.9649497209787
497.9423100475053
499.9999996069055
499.9998243019447
499.9648482155641
497.8912251530988
499.9999996115147
499.9998267660721
499.9653617127095
498.027222146921
499.9999996259282
499.9999997581332
499.9999998802657
499.9999999543094
499.9998221133681
499.9998887829191
499.9999431414392
499.9999755105713
499.9605773105056
499.9757764978077
499.9861166042527
499.9932151280946
497.3719829437779
498.3712431320756
498.6988794147655
499.3300902454084
)
;

boundaryField
{
    back
    {
        type            empty;
    }
    inlet
    {
        type            zeroGradient;
    }
    front
    {
        type            empty;
    }
    top
    {
        type            zeroGradient;
    }
    outlet
    {
        type            fixedValue;
        value           uniform 500;
    }
    bottom
    {
        type            zeroGradient;
    }
    wall
    {
        type            zeroGradient;
    }
}


// ************************************************************************* //
