/*--------------------------------*- C++ -*----------------------------------*\
  =========                 |
  \\      /  F ield         | OpenFOAM: The Open Source CFD Toolbox
   \\    /   O peration     | Website:  https://openfoam.org
    \\  /    A nd           | Version:  11
     \\/     M anipulation  |
\*---------------------------------------------------------------------------*/
FoamFile
{
    format      ascii;
    class       volVectorField;
    location    "3.75";
    object      U;
}
// * * * * * * * * * * * * * * * * * * * * * * * * * * * * * * * * * * * * * //

dimensions      [0 1 -1 0 0 0 0];

internalField   nonuniform List<vector> 
4455
(
(99.98348 -0.29992764 0)
(99.91428 -0.61542336 -1.8261945e-18)
(99.655098 -0.81930995 6.2719094e-18)
(99.420187 -0.73877768 2.3424443e-20)
(98.973485 -0.78893256 5.9364604e-18)
(98.536221 -0.48576935 -2.2333665e-17)
(97.65259 -0.062403656 9.9302156e-18)
(96.735084 0.71785568 0)
(94.712849 2.4797669 -6.0577622e-17)
(99.970786 -0.26669856 -1.2007389e-17)
(99.894668 -0.51887277 1.171275e-17)
(99.674245 -0.6540467 -1.4394943e-17)
(99.417121 -0.64106809 2.3970515e-17)
(99.008271 -0.63616029 -4.5951087e-17)
(98.396378 -0.30109774 5.0184867e-17)
(97.544008 0.036334173 -4.7958329e-18)
(96.586311 0.85431967 6.9939719e-18)
(94.313863 1.9275881 2.6344666e-16)
(99.963364 -0.22657826 -1.2697253e-17)
(99.887861 -0.42331284 1.6020311e-17)
(99.693378 -0.52885917 1.4078018e-17)
(99.435883 -0.48068649 -1.399988e-17)
(98.954937 -0.45171023 6.1538144e-17)
(98.426885 0.042923357 -3.4652733e-17)
(97.423619 0.33965214 4.4711618e-18)
(96.478557 1.2369043 -9.9103623e-17)
(94.182594 2.4057725 -1.8663277e-16)
(99.961548 -0.18619188 -8.6713453e-20)
(99.893765 -0.33140599 -1.6549962e-18)
(99.696234 -0.41014368 3.3689784e-17)
(99.461755 -0.28332638 4.5940364e-18)
(98.915354 -0.25075917 1.5994399e-19)
(98.4357 0.29779287 -6.6850245e-18)
(97.487223 0.71523187 7.4253175e-17)
(96.305564 1.730724 1.9851497e-16)
(93.681527 3.3733853 1.563054e-16)
(99.960786 -0.15019188 2.4550238e-17)
(99.9 -0.23634856 -2.742887e-17)
(99.705072 -0.2912044 3.5085066e-17)
(99.487259 -0.14283869 1.949786e-20)
(98.946797 -0.058849564 -4.2361713e-17)
(98.424396 0.58258597 -1.3007871e-17)
(97.481746 0.98851833 -5.8520377e-17)
(96.328157 2.1284593 -9.3476413e-17)
(93.330892 3.7286525 -4.6224975e-16)
(99.962045 -0.11364983 0)
(99.910553 -0.1543556 0)
(99.737727 -0.18074728 -6.0940566e-17)
(99.494867 -0.0049720696 -7.0328259e-17)
(98.986838 0.17308367 0)
(98.482233 0.8645629 -9.4526013e-17)
(97.427466 1.3892494 -7.9984635e-18)
(96.127217 2.7174599 -5.6246386e-18)
(92.699225 4.5574078 5.7229255e-16)
(99.964635 -0.0792741 0)
(99.923885 -0.087658417 -1.6631887e-18)
(99.754252 -0.091969552 1.8708479e-18)
(99.553716 0.11309076 6.8712387e-17)
(98.98878 0.33623942 -5.0661195e-18)
(98.562041 1.0981392 2.0158576e-16)
(97.538192 1.6463906 0)
(96.210234 3.1991011 0)
(92.466006 5.1043163 2.6486949e-16)
(99.972349 -0.049501108 4.717404e-17)
(99.944716 -0.039274456 0)
(99.788588 -0.0061934919 0)
(99.576779 0.28548478 0)
(99.068795 0.55771674 0)
(98.587123 1.3678891 -1.0078417e-16)
(97.507401 2.0466814 -1.0815249e-16)
(96.065933 3.8212667 1.5565214e-16)
(91.824451 5.9785597 3.2751781e-18)
(99.983239 -0.027776832 -4.6365964e-17)
(99.965052 0.004440497 -1.6071178e-18)
(99.801186 0.055888292 -1.8114462e-18)
(99.637711 0.353475 4.1164989e-18)
(99.084066 0.72933214 1.5866833e-16)
(98.747822 1.539031 1.786379e-16)
(97.639324 2.2664841 3.4493723e-16)
(96.25818 4.3519534 -1.5277349e-16)
(91.523884 6.7051338 -4.5571223e-16)
(99.991105 -0.012901233 0)
(99.997514 -0.0034280635 8.687054e-17)
(99.999374 0.0022448689 -8.6175436e-17)
(100.00066 0.0058993914 8.2919356e-17)
(100.00265 0.0077651733 -8.1062372e-17)
(100.00383 0.0080702035 1.6204927e-16)
(100.00412 0.0047022658 -1.5718035e-16)
(99.998424 0.00096396038 0)
(99.995523 -0.014489005 0)
(99.988442 0.045498239 0)
(100.00271 0.068301059 1.4992389e-18)
(100.01891 0.0886225 0)
(100.02679 0.095106936 4.2799337e-18)
(100.03819 0.10069937 8.7678536e-17)
(100.04738 0.098818934 -2.6223861e-16)
(100.05112 0.08984517 1.698389e-16)
(100.06564 0.086225126 -2.5908663e-18)
(100.06768 0.067159977 1.6425786e-16)
(99.823872 0.1304573 1.0837791e-16)
(99.843304 0.19700381 -2.1392761e-16)
(99.868502 0.24350828 2.0483228e-16)
(99.909728 0.28661598 -6.2309573e-18)
(99.935601 0.30786284 -9.7031096e-17)
(99.983001 0.32367884 -2.9577157e-18)
(100.00037 0.30951334 0)
(100.03406 0.29387358 5.6014771e-18)
(100.01209 0.23146985 -2.7324985e-18)
(99.665711 0.51220672 1.1308078e-16)
(99.745167 0.61828388 -2.300341e-16)
(99.784357 0.70338042 2.1943795e-16)
(99.859079 0.78549399 -1.06462e-16)
(99.902024 0.82648518 -6.6832733e-18)
(99.982954 0.87229724 3.2344719e-18)
(100.02917 0.89866297 0)
(100.16601 0.93405262 -3.0462359e-18)
(100.18451 0.8705108 1.8359287e-16)
(99.177804 0.89424366 -1.2745043e-16)
(99.266497 1.1323272 0)
(99.367198 1.2513639 -1.1881707e-16)
(99.485643 1.3957052 1.225018e-16)
(99.578067 1.4766651 -1.1111336e-16)
(99.696984 1.5547979 1.1480002e-16)
(99.755991 1.580075 0)
(99.897478 1.6022271 0)
(99.882663 1.522554 6.5069634e-18)
(98.753303 1.8238465 -1.5583182e-16)
(98.983127 2.1392977 -1.4980021e-16)
(98.996453 2.4301963 1.4399743e-16)
(99.279642 2.7049176 1.38614e-16)
(99.330173 2.9786642 -1.3361532e-16)
(99.628716 3.2421387 0)
(99.709683 3.4361345 2.4826446e-16)
(100.06305 3.7056487 -4.8892236e-19)
(100.14845 3.6157798 -4.6331094e-16)
(97.659352 2.6432297 -1.8285317e-16)
(97.826691 3.0986853 0)
(97.896321 3.4493297 0)
(98.105215 3.8708915 5.0565751e-18)
(98.250715 4.1188726 0)
(98.53609 4.454707 0)
(98.75444 4.603321 0)
(99.123115 4.9365518 0)
(99.240888 4.9340089 0)
(96.160427 5.0248501 7.1192221e-18)
(96.391603 6.3369716 0)
(96.63522 6.90473 6.4069033e-18)
(97.288986 8.067368 -1.195313e-17)
(97.702602 8.5903268 -1.8037526e-16)
(98.234074 9.8657781 -1.7098594e-16)
(98.481379 10.284182 3.2850286e-16)
(99.165546 11.161575 3.1697169e-16)
(99.579254 10.948851 -2.9981106e-16)
(91.011 7.6687892 8.6072211e-16)
(90.70669 9.1655479 -5.3341212e-16)
(90.707225 10.868077 4.9697549e-16)
(91.355687 12.747549 -4.6910603e-16)
(92.066441 13.778261 -6.6798338e-16)
(93.251241 14.340816 1.2561692e-15)
(94.38616 13.65547 -7.9335804e-16)
(95.966281 13.158184 -3.778786e-16)
(97.220314 12.74497 3.550096e-16)
(99.990391 -0.04359987 -2.1636653e-19)
(100.00538 -0.055187906 2.2224131e-16)
(100.02927 -0.060992209 -4.1149621e-20)
(100.05749 -0.064691981 -2.2391558e-16)
(100.09022 -0.065976626 2.1926577e-19)
(100.13038 -0.064286649 2.2555277e-16)
(100.17989 -0.05965489 -2.2665348e-16)
(100.24185 -0.052503744 -2.2168972e-19)
(100.3251 -0.037183827 -1.1424524e-16)
(100.12225 0.097372678 -2.3596076e-16)
(100.1299 0.16982698 2.3795021e-16)
(100.19786 0.20483704 -2.3813193e-16)
(100.20494 0.29212755 0)
(100.27792 0.32062936 2.4058995e-16)
(100.30694 0.42634696 4.1731306e-19)
(100.41966 0.45137872 6.1984703e-19)
(100.48179 0.59657314 -2.4243966e-16)
(100.64564 0.61211122 1.2224151e-16)
(100.05616 0.26833341 2.5296363e-16)
(100.05881 0.34920572 -2.5303929e-16)
(100.14624 0.38829069 -2.5516701e-16)
(100.17349 0.52784811 2.5594532e-16)
(100.32601 0.57861776 -2.5857536e-16)
(100.37052 0.76755687 2.577692e-16)
(100.56381 0.82025335 -2.6080958e-16)
(100.62576 1.042262 -4.3172847e-19)
(100.85493 1.0913394 2.6151061e-16)
(100.36435 1.0354382 -2.6891645e-16)
(100.34088 1.2874484 -1.0615197e-18)
(100.51988 1.4360462 1.0708108e-18)
(100.48044 1.6806598 0)
(100.66457 1.8211779 -4.5396176e-21)
(100.66217 2.1141996 -2.7568118e-16)
(100.85028 2.2609922 2.8035753e-16)
(100.98196 2.5778507 1.0963746e-18)
(101.10476 2.8080626 1.1013788e-18)
(100.06915 1.6722413 -1.1398801e-18)
(100.05688 1.9409755 -2.947556e-16)
(100.29753 2.0829181 -1.2003041e-18)
(100.30694 2.4234416 2.97828e-16)
(100.61832 2.5824955 3.0050814e-16)
(100.651 2.984222 -3.0210978e-16)
(101.00793 3.1390896 -1.1760564e-18)
(101.06796 3.5723795 -1.1816879e-18)
(101.45204 3.7019594 -1.1873577e-18)
(100.47385 3.9621212 3.1718431e-16)
(100.4938 4.5288158 0)
(100.73769 4.7890585 0)
(100.69831 5.2652946 3.2143876e-16)
(100.96641 5.5028918 -3.2575577e-16)
(100.98146 5.995279 -3.2774051e-16)
(101.3155 6.2427762 6.5657596e-16)
(101.37415 6.766519 -1.1324696e-19)
(101.76907 7.0273792 -6.6369296e-16)
(99.635042 5.2470636 -1.3810795e-18)
(99.864638 5.8086033 0)
(100.21027 6.075415 1.392679e-18)
(100.51912 6.6160711 3.6086222e-16)
(100.914 6.890147 -3.6304212e-16)
(101.22839 7.3668325 3.6458636e-16)
(101.64206 7.5780967 -3.6538575e-16)
(101.94023 8.0115734 -1.4234557e-18)
(102.33541 8.1600062 3.6937338e-16)
(99.996523 11.55405 -3.8539301e-16)
(100.32443 12.004851 3.9073069e-16)
(100.73194 12.376534 -3.9316929e-16)
(101.07285 12.726183 3.9111896e-16)
(101.48544 13.044159 -3.903467e-16)
(101.96941 13.367771 -4.7813372e-19)
(102.4579 13.621028 3.960764e-16)
(102.93367 13.834613 3.1247316e-18)
(103.38622 13.957361 1.9868227e-16)
(98.799045 13.471457 0)
(100.0059 14.011442 -4.4095782e-16)
(101.63191 14.603961 3.2121107e-18)
(102.54312 15.0292 4.8874185e-18)
(103.92744 15.659102 8.8207108e-16)
(104.7097 15.646124 -4.4106639e-16)
(106.14143 15.420944 -4.4080616e-16)
(106.87846 14.417669 4.4255783e-16)
(108.00346 13.570893 2.2292701e-16)
(108.05867 12.355281 -2.6046087e-16)
(108.45425 11.428432 0)
(108.18583 10.734046 2.6222283e-16)
(107.98187 10.414121 -2.621879e-16)
(107.39345 10.029887 0)
(107.04766 9.6580573 0)
(106.28548 8.7817882 0)
(105.77048 8.1933387 -2.7981492e-16)
(104.67767 7.0745733 2.7981854e-16)
(103.78178 14.035786 -2.2632409e-16)
(104.14148 14.070439 0)
(104.41644 14.16633 0)
(104.64719 14.216943 0)
(104.80036 14.282075 0)
(104.95666 14.355884 0)
(104.96468 14.405864 0)
(104.91612 14.478296 2.2950584e-16)
(104.76757 14.505354 -4.6126892e-16)
(102.57979 8.4810864 -1.077114e-20)
(102.98134 8.7888783 -4.0611877e-16)
(103.1915 9.0448965 0)
(103.5768 9.3231252 -2.0333887e-16)
(103.71989 9.5750334 2.0333845e-16)
(104.09841 9.8386318 0)
(104.17222 10.083372 0)
(104.50835 10.347187 0)
(104.5098 10.596834 0)
(101.84046 7.538386 3.5705765e-16)
(102.28778 7.8685925 0)
(102.35476 8.3391859 1.7828464e-16)
(102.80216 8.6562379 -3.5652506e-16)
(102.88132 9.1383119 1.7823816e-16)
(103.348 9.4354321 0)
(103.4632 9.9525559 0)
(103.8909 10.227297 0)
(104.02596 10.776031 1.7816606e-16)
(101.51353 4.1534881 0)
(101.93191 4.3202819 3.2246478e-16)
(102.0159 4.8097219 -4.836011e-16)
(102.49077 4.9781743 1.6117387e-16)
(102.59491 5.5015869 1.6100134e-16)
(103.10943 5.6740655 -9.1406155e-20)
(103.22059 6.22103 -3.2178672e-16)
(103.73896 6.4055025 3.2162529e-16)
(103.86644 6.9888058 -1.6076842e-16)
(101.37924 3.1057809 0)
(101.45437 3.4104634 1.4586885e-16)
(101.83551 3.6670675 -1.4586892e-16)
(101.90085 3.9898109 0)
(102.29174 4.3295482 -2.9111832e-16)
(102.46453 4.5587221 2.9105043e-16)
(102.86858 4.995085 1.4519449e-16)
(103.10761 5.1953641 -2.902622e-16)
(103.56185 5.6136802 1.4503379e-16)
(100.93403 1.3529905 0)
(101.22308 1.4213445 0)
(101.32869 1.7425884 0)
(101.6862 1.8199341 -1.3398135e-16)
(101.81943 2.2063358 2.678586e-16)
(102.24409 2.2921797 -2.6768316e-16)
(102.37646 2.6790152 1.3378167e-16)
(102.86715 2.8518634 -1.3343204e-16)
(103.03822 3.2088468 2.6667218e-16)
(100.74037 0.78641145 -2.479702e-16)
(100.94193 0.82044594 9.2898901e-20)
(101.06181 0.98793004 1.2387765e-16)
(101.35179 1.0353462 -1.236532e-16)
(101.48769 1.2150852 1.2362217e-16)
(101.83218 1.2755223 0)
(102.0322 1.4955161 1.2314057e-16)
(102.46242 1.4988516 -2.4606982e-16)
(102.69521 1.7607262 1.2296258e-16)
(100.37774 -0.0098841612 6.5753625e-20)
(100.50059 -0.01031028 1.1566814e-16)
(100.61999 0.086213163 1.1556331e-16)
(100.81408 0.091524222 -1.1556332e-16)
(100.95233 0.18442251 0)
(101.18961 0.2228936 0)
(101.33993 0.29316024 -1.151281e-16)
(101.66371 0.34136188 2.3010826e-16)
(101.85534 0.42464868 -1.1499339e-16)
(102.25593 0.48637582 0)
(102.54218 0.59476395 -1.1435276e-16)
(103.01937 0.66180262 2.8444106e-19)
(103.37403 0.78002856 3.2523166e-19)
(103.95944 0.87546616 3.6570428e-19)
(104.38771 0.99210391 1.1337738e-16)
(105.06188 1.0877712 1.1249309e-16)
(105.60824 1.2252844 -1.124931e-16)
(106.38367 1.3297948 0)
(103.21456 1.8148363 0)
(103.48919 2.0343865 0)
(104.10697 2.0899579 -1.217899e-16)
(104.44149 2.403775 3.8696466e-19)
(105.14209 2.4391466 4.2268039e-19)
(105.53754 2.7214462 1.2101409e-16)
(106.34362 2.8356557 1.1999555e-16)
(106.81596 3.1519832 -1.1999552e-16)
(107.68265 3.2049329 0)
(103.59228 3.4467964 -1.3322927e-16)
(103.80501 3.7586022 0)
(104.39815 4.1204845 0)
(104.71845 4.3617387 -1.3208211e-16)
(105.25608 4.8186132 2.6378135e-16)
(105.80549 5.0200947 -4.2573693e-19)
(106.20316 5.6075257 -4.8574727e-19)
(107.027 5.7541683 -1.3078775e-16)
(107.35003 6.3958515 0)
(103.82331 5.8176178 -1.4459962e-16)
(104.30014 6.2997114 1.4459957e-16)
(104.61662 6.4967848 0)
(105.16565 6.994577 0)
(105.47179 7.2731698 1.434382e-16)
(106.13608 7.8006472 -1.4343818e-16)
(106.47588 8.1188253 1.4262185e-16)
(107.19184 8.7417878 -7.1554045e-17)
(107.58648 9.0924266 -7.1068963e-17)
(104.40761 7.2140144 -1.6061506e-16)
(104.50276 7.8366294 1.6059366e-16)
(105.14365 8.1278368 0)
(105.19483 8.8178518 0)
(105.85347 9.1423278 0)
(105.92017 9.9303671 0)
(106.58527 10.288682 0)
(106.72554 11.208986 0)
(107.31412 11.575812 0)
(104.43507 11.054115 -1.7816454e-16)
(104.54534 11.636496 1.7837797e-16)
(104.91073 11.944217 -1.783762e-16)
(104.99088 12.565361 1.7871864e-16)
(105.34171 12.889318 -1.7871661e-16)
(105.43583 13.586892 0)
(105.74686 13.956352 0)
(105.87355 14.759442 0)
(106.19161 15.191283 0)
(104.7638 10.885577 0)
(104.63694 11.171606 -2.0682134e-16)
(104.82988 11.557787 2.0674545e-16)
(104.58453 11.898916 0)
(104.74695 12.405218 2.0950133e-16)
(104.36343 12.828399 -2.0953049e-16)
(104.53084 13.465489 0)
(104.02021 14.017254 1.0632131e-16)
(104.24272 14.796281 -2.1311422e-16)
(104.58811 14.604559 2.3160341e-16)
(104.15214 14.695963 2.3535048e-16)
(103.86117 14.830394 -2.3551647e-16)
(103.21843 14.978031 2.3993127e-16)
(102.87628 15.246016 -4.8207267e-16)
(102.04134 15.629792 4.869514e-16)
(101.68885 16.154014 -4.9241774e-16)
(100.7309 16.752843 2.4751508e-16)
(100.41227 17.362422 0)
(104.05103 6.5626111 -2.8869846e-16)
(102.79627 5.792252 2.8869786e-16)
(102.14395 5.5644135 0)
(100.80508 5.4757314 0)
(100.07192 5.7102072 0)
(98.533753 6.2442467 0)
(97.666873 6.7752765 0)
(96.002945 7.4633681 -1.6093472e-16)
(95.022549 7.9260481 1.6093258e-16)
(93.36935 8.5747032 1.6597527e-16)
(99.412222 18.131726 0)
(103.62337 15.510393 1.0680175e-16)
(106.24521 16.099978 0)
(107.633 12.602152 0)
(108.43864 9.7409188 0)
(108.31733 6.6482749 6.4478568e-17)
(108.30165 3.6269708 5.8994696e-17)
(107.04063 1.4805933 5.5330798e-17)
(92.239442 9.0794678 -1.6597181e-16)
(99.047611 18.876593 0)
(103.94845 16.405294 0)
(106.6638 16.602717 8.9826965e-17)
(108.08617 13.021936 0)
(108.81877 10.255936 -7.0108014e-17)
(108.7131 7.2465642 -1.2860431e-16)
(109.21118 3.6660134 -1.1757419e-16)
(107.94517 1.5964908 -1.1027201e-16)
(90.663627 10.044662 0)
(97.858224 19.947162 0)
(103.27599 17.34428 1.0811264e-16)
(106.69496 17.652926 -8.9830602e-17)
(108.64204 14.058808 0)
(109.85709 10.850694 7.0108001e-17)
(109.7913 7.5863333 6.411179e-17)
(109.99984 4.1343517 5.8579486e-17)
(108.72855 1.7626242 5.4941201e-17)
(89.278817 11.251297 1.7338101e-16)
(97.54049 20.906582 0)
(103.6633 18.341793 -2.1665354e-16)
(107.18129 18.225856 0)
(109.04371 14.557903 0)
(110.25448 11.515116 -6.9220065e-17)
(110.25031 8.2089095 -6.3211692e-17)
(110.92903 4.2249602 0)
(109.76909 1.888098 -5.4012751e-17)
(87.416734 12.843794 -1.7338149e-16)
(96.289924 22.371249 -1.3239848e-16)
(102.96609 19.54014 1.0850564e-16)
(107.26403 19.467036 0)
(109.65681 15.674806 0)
(111.44066 12.124654 6.9220044e-17)
(111.47767 8.6160572 6.3211666e-17)
(111.93658 4.6592609 0)
(110.69362 2.0608611 5.4012743e-17)
(86.183407 14.466521 0)
(96.135609 23.542041 1.3241368e-16)
(103.44304 20.599563 -1.089761e-16)
(107.84414 20.106832 0)
(110.25994 16.163843 0)
(111.897 12.841179 -6.8073005e-17)
(112.01663 9.2393821 -6.2087158e-17)
(112.88217 4.8526899 0)
(111.86317 2.2091074 -5.2854599e-17)
(84.01164 16.420459 0)
(94.925813 25.305843 0)
(102.79158 22.085829 1.0897598e-16)
(108.0337 21.549573 -4.4372789e-17)
(110.76637 17.466339 -3.8769646e-17)
(113.21235 13.591602 1.0176701e-16)
(113.39254 9.6985308 9.27976e-17)
(114.10486 5.2815003 0)
(112.95107 2.3808758 7.8944882e-17)
(83.142146 18.197989 0)
(94.990388 26.650287 -6.7123611e-17)
(103.44008 23.218713 0)
(108.72514 22.252929 4.4358947e-17)
(111.61373 17.95931 3.8756438e-17)
(113.78679 14.227575 -3.81566e-19)
(114.0288 10.34678 -6.1054889e-17)
(115.0876 5.5362381 0)
(114.26349 2.5280623 -2.6090287e-17)
(81.23454 20.377419 -9.0937593e-17)
(93.838707 28.67303 6.7106988e-17)
(102.88511 25.180554 0)
(109.06611 23.978773 0)
(112.22358 19.515254 0)
(115.20398 15.162377 -6.6186209e-17)
(115.56617 10.842667 4.1616323e-19)
(116.51188 5.9418098 0)
(115.49037 2.6964628 0)
(117.13844 2.8595881 0)
(117.56292 6.265553 0)
(116.35311 11.538954 -1.3818236e-18)
(115.8894 15.763034 3.449822e-17)
(113.1544 19.851584 0)
(109.9053 24.633554 -5.5975446e-18)
(103.87179 26.186865 -6.3353668e-19)
(94.259868 30.212648 -5.5872567e-17)
(80.924689 22.876683 1.6977689e-16)
(118.69589 2.9774005 -1.2324808e-17)
(119.17682 6.4709857 -1.6866909e-18)
(118.11287 11.745984 1.5052622e-17)
(117.47694 16.492913 -7.4671914e-20)
(114.27688 21.245005 -1.6164607e-17)
(110.48505 26.388097 2.1089644e-17)
(103.81628 28.445809 -6.8784187e-18)
(93.595263 33.034806 7.248704e-17)
(80.208415 28.176959 -8.6575252e-17)
(120.28594 3.0704453 2.4615756e-17)
(120.30291 6.8301523 0)
(119.07592 12.508774 2.9141231e-17)
(118.31554 17.053893 -1.585401e-17)
(115.36833 21.586683 1.6328259e-17)
(111.76176 26.952739 -3.9885163e-17)
(105.58464 29.337036 -3.2921874e-17)
(95.391426 34.403136 1.6504902e-17)
(83.174626 30.777678 1.846533e-18)
(121.97497 3.1569837 -1.230611e-17)
(122.16841 6.8961195 -1.654877e-18)
(121.06771 12.637656 -1.2816268e-17)
(120.14023 17.820009 1.8120856e-17)
(116.97437 23.003177 6.8636492e-18)
(112.75203 28.896727 2.1399373e-17)
(106.07527 31.879039 2.6516215e-17)
(95.656497 37.352345 8.7405011e-18)
(83.484816 35.266061 -1.0010326e-17)
(123.77536 3.2435992 2.940732e-18)
(123.40675 7.3271178 -3.1807326e-18)
(122.18185 13.418119 -1.7986818e-18)
(121.15814 18.258529 5.8374436e-18)
(118.22568 23.291035 -6.903357e-18)
(114.33893 29.271465 -7.7760599e-18)
(108.282 32.54706 -6.8543434e-18)
(97.859798 38.465767 7.7402585e-18)
(86.361332 36.842268 -1.1652869e-17)
(125.6678 3.3252072 -2.9750692e-18)
(125.47854 7.3467101 3.218977e-18)
(124.39052 13.478672 -1.7732645e-18)
(123.21772 19.080437 -1.0485992e-20)
(120.10349 24.742754 -2.1931637e-18)
(115.63279 31.2529 5.2889144e-18)
(109.11845 35.126439 -6.8131918e-18)
(98.398089 41.291657 7.7127474e-18)
(86.727078 40.663228 0)
(127.63488 3.3977498 -2.8056123e-18)
(126.87575 7.7472507 -1.5768887e-18)
(125.62716 14.16386 -1.6882485e-18)
(124.4396 19.278409 -1.9736182e-18)
(121.59378 24.81536 -2.2166256e-18)
(117.36757 31.441026 5.4638224e-18)
(111.48279 35.526656 -1.2870775e-17)
(100.73418 42.03573 1.6316175e-17)
(89.490032 41.755028 -9.995667e-18)
(129.66501 3.4496713 8.2893703e-18)
(129.06752 7.7580962 5.975636e-18)
(128.04046 14.141824 8.3618017e-18)
(126.61216 20.221612 9.2444626e-18)
(123.61277 26.32002 6.6939393e-18)
(119.01709 33.37435 -2.4873939e-18)
(112.62093 38.018809 -6.6862184e-18)
(101.60721 44.679768 -9.8393092e-19)
(90.311565 45.332454 -1.1040994e-17)
(131.75945 3.4763371 -1.6060953e-17)
(130.61312 8.1002227 -6.0501486e-18)
(129.38357 14.743484 -2.1312511e-17)
(128.17199 20.095566 -5.6744052e-18)
(125.28255 26.158646 1.4625035e-17)
(120.8514 33.386396 7.7466198e-18)
(115.09034 38.164658 -3.7184426e-17)
(104.12203 45.083843 7.5277757e-18)
(93.247787 46.211985 2.1570506e-17)
(94.391226 49.806017 -2.1135757e-17)
(105.31293 47.647105 8.4315955e-18)
(116.52379 40.593775 5.5150579e-17)
(122.82271 35.242978 -7.5905469e-18)
(127.56486 27.590495 3.489735e-18)
(130.24771 21.109917 1.0415175e-17)
(131.95786 14.681464 1.4722578e-17)
(132.91144 8.0884216 -7.1315368e-19)
(133.91516 3.4758012 2.1478756e-17)
(97.397822 50.471561 8.2649335e-17)
(108.07701 47.794554 7.3082067e-18)
(119.1023 40.489294 -7.8280977e-17)
(124.88924 34.973184 -2.3339992e-18)
(129.28922 27.272728 -1.4584416e-17)
(132.25387 20.714665 -1.2530954e-17)
(133.42808 15.019747 -2.5795371e-17)
(134.55599 8.3074582 0)
(136.12399 3.446791 -1.0270624e-17)
(98.839864 53.908296 -1.0588457e-16)
(109.57666 50.43835 7.4247472e-17)
(120.87669 42.87606 4.2028138e-17)
(127.05257 36.815852 -2.2664857e-18)
(131.89874 28.505219 3.089691e-17)
(134.25528 21.611899 7.6514568e-20)
(136.15271 14.915719 4.2658954e-18)
(136.92937 8.2346305 1.9536339e-17)
(138.36408 3.3891131 1.8506084e-17)
(101.82712 54.268218 -2.0632447e-17)
(112.56615 50.390449 1.2178855e-17)
(123.56669 42.482099 -6.0613507e-18)
(129.38252 36.151257 0)
(133.68399 27.999092 -3.1317315e-17)
(136.47946 21.078446 0)
(137.63678 14.972354 2.2208227e-17)
(138.62518 8.4206125 -3.9845425e-17)
(140.62066 3.2959608 -1.2098489e-18)
(103.41785 57.411641 -9.4248459e-18)
(114.4137 53.139365 -5.7861598e-17)
(125.71887 44.790618 5.8741097e-18)
(131.76382 37.944746 0)
(136.53479 29.055325 -3.0071419e-17)
(138.71297 21.756273 2.4115417e-17)
(140.52029 14.856766 1.3924056e-18)
(141.04413 8.2169574 3.9239981e-17)
(142.87364 3.1686625 -1.7719708e-17)
(106.44433 57.389441 -8.9890756e-17)
(117.54628 52.812765 -4.7392945e-17)
(128.48141 44.057581 -6.3708841e-19)
(134.17806 36.899642 -4.4066355e-18)
(138.39385 28.220195 2.3623694e-19)
(140.7351 21.008776 -4.7161287e-17)
(142.02668 14.598036 1.3217508e-18)
(142.76761 8.2786584 -1.9252105e-17)
(145.10276 3.0018683 0)
(108.38385 60.312829 6.1844848e-17)
(119.79009 55.521053 6.9317369e-17)
(131.04432 46.208136 -6.2982824e-19)
(136.92057 38.499414 -4.193011e-18)
(141.46186 29.058637 2.5766698e-17)
(143.44704 21.421973 2.4617603e-17)
(144.85877 14.311195 1.2108344e-18)
(145.17348 7.969992 -1.1094956e-18)
(147.27765 2.792041 0)
(111.46719 59.930949 0)
(123.04651 54.831507 -6.0525345e-18)
(133.84802 45.071126 5.1600976e-18)
(139.27622 37.136396 -5.4895899e-17)
(143.32397 27.909185 -1.595358e-18)
(145.05625 20.495559 3.8910283e-17)
(146.4008 13.843958 -3.4012948e-17)
(146.86774 7.895491 3.1405008e-17)
(149.37097 2.5285843 2.6257633e-17)
(113.85466 62.732041 1.385386e-16)
(125.66341 57.426221 1.0602743e-16)
(136.84384 47.014155 -4.8654617e-18)
(142.32422 38.401051 5.7888717e-17)
(146.5251 28.495692 -1.403602e-18)
(148.14679 20.493327 -3.9616447e-17)
(149.12617 13.369277 3.6773765e-17)
(149.22972 7.4447215 -3.2808199e-17)
(151.37242 2.1943881 -2.5601326e-18)
(153.15767 1.814039 -2.3826059e-17)
(150.83488 7.1388419 2.5795764e-17)
(150.56389 12.613626 0)
(149.5538 19.419494 -2.2319574e-18)
(148.43576 26.963751 4.046851e-17)
(144.70315 36.646758 4.4555444e-17)
(139.66994 45.282973 0)
(129.29723 56.235667 -8.9617952e-18)
(117.27794 61.875552 -1.353347e-16)
(154.80312 1.4028826 0)
(153.15095 6.4719886 -2.6689896e-17)
(153.26473 11.938236 0)
(152.69882 18.964788 -2.0332926e-18)
(151.86279 26.935152 -7.1068663e-17)
(148.39656 37.36579 -4.8652041e-17)
(143.59612 46.846044 5.5317451e-17)
(132.63927 58.540493 -7.7724051e-17)
(121.11234 65.025416 1.0017102e-16)
(156.28466 0.98429958 0)
(154.4738 5.9889711 0)
(154.52847 10.854461 -2.3937763e-17)
(154.12864 17.321313 0)
(153.71885 24.980389 3.522026e-17)
(150.72532 35.100314 -3.5357968e-17)
(146.39131 44.43192 -5.0341144e-17)
(137.11511 56.917381 -3.8536326e-18)
(125.26364 63.281133 -2.2128406e-17)
(157.55064 0.57570485 0)
(156.56668 5.2756967 0)
(157.04509 10.056514 2.4434681e-17)
(156.87749 16.780026 2.2227106e-17)
(157.0539 24.539997 2.6736143e-17)
(154.48746 35.219553 3.8416442e-17)
(150.69546 45.407063 0)
(140.52312 58.32988 5.2568498e-17)
(130.20862 66.158796 -1.1007061e-16)
(158.57983 0.18041925 2.3995378e-19)
(157.52283 4.5648059 -2.6369818e-19)
(158.03083 8.716121 0)
(158.24677 14.72395 -3.6062413e-18)
(158.67905 22.145152 -5.1985979e-17)
(156.85196 32.495496 1.7633456e-18)
(153.24457 42.416296 3.4116856e-17)
(144.97749 56.180184 -5.8286115e-17)
(134.70978 63.545417 8.1944427e-17)
(159.36347 -0.21431354 -2.0928974e-19)
(159.32318 3.8312609 2.3037154e-19)
(160.18399 7.8094639 0)
(160.59648 13.96307 -2.2502294e-17)
(161.71698 21.350835 2.6198563e-17)
(160.39175 32.132909 -1.4640257e-18)
(157.55009 42.838269 -3.5290931e-17)
(148.11631 56.690457 0)
(141.06566 65.850148 -8.0416128e-17)
(159.90191 -0.58949873 1.8111051e-19)
(159.81553 2.9766987 1.2555264e-17)
(160.86696 6.3292366 -4.7247439e-19)
(161.64838 11.626261 1.4563373e-17)
(163.03852 18.536559 1.6817707e-17)
(162.484 28.879231 0)
(160.28148 39.353831 0)
(152.00705 54.015389 -3.2761872e-17)
(145.93065 62.044467 0)
(160.27876 -0.66648687 0)
(161.22645 2.2215546 -1.301977e-17)
(162.51217 5.366449 0)
(163.4424 10.798762 -1.6256654e-17)
(165.47901 17.459091 -1.5167822e-17)
(165.73096 27.951584 9.3849993e-18)
(164.36147 39.236624 0)
(154.47454 53.677344 3.5378818e-17)
(153.32227 63.436734 -1.6546743e-18)
(160.25149 -1.2199773 0)
(161.26146 1.3146647 0)
(162.86709 3.7671737 -3.2525025e-19)
(164.28585 8.2535542 -3.0242922e-19)
(166.44726 13.622046 7.4232521e-19)
(167.65548 23.261814 -9.687023e-18)
(168.28354 34.101351 0)
(158.0765 49.575357 0)
(157.54815 58.481432 5.917863e-20)
(160.01185 -1.4445155 -2.2507138e-19)
(162.13201 0.52974814 -2.1636949e-21)
(164.04146 2.8801119 7.5712005e-18)
(165.40501 7.4565544 0)
(168.05655 14.063093 0)
(169.57178 23.450931 7.0279033e-20)
(171.0744 35.934812 1.0938876e-17)
(158.25908 51.94827 3.0668234e-19)
(163.21731 59.30678 0)
(159.5499 -1.6676824 -1.8850785e-19)
(161.92589 -0.13464537 1.2180848e-20)
(164.24188 2.1043901 -6.8299293e-18)
(166.76565 6.7392543 0)
(169.11762 12.831983 0)
(171.68361 23.561902 -5.9604508e-19)
(174.14456 37.662997 -5.7922441e-17)
(158.07333 53.437963 -7.6198769e-20)
(157.36373 58.00473 -8.0584012e-17)
(158.86913 -1.8894358 0)
(162.43565 -1.1528581 9.6646745e-18)
(165.22652 1.1777296 0)
(167.86767 5.6796583 8.8906217e-20)
(171.13745 13.013884 -9.698702e-20)
(173.34471 23.269789 1.0581827e-18)
(178.01081 39.030139 1.1211017e-16)
(155.33877 56.715781 -1.5707318e-19)
(141.26761 57.497396 7.632325e-17)
(157.94593 -2.1055683 9.4946552e-18)
(162.0038 -1.8730404 -9.2171622e-18)
(164.90336 0.15816167 4.869895e-18)
(169.06623 4.4688203 -3.2057082e-18)
(172.2203 11.290139 1.001345e-17)
(175.55279 23.154877 -2.65068e-17)
(180.66643 40.018622 -6.623727e-17)
(151.28249 57.731819 2.2797887e-17)
(119.28694 65.830171 0)
(156.78416 -2.3153973 -1.8866188e-17)
(162.28901 -3.2197862 5.5166425e-18)
(165.64411 -0.95917223 -4.7110017e-18)
(170.13264 2.8964394 -4.8968975e-18)
(174.47108 11.147644 -9.8716868e-18)
(177.25717 22.384822 -8.3550391e-18)
(182.33773 41.597083 0)
(146.61493 64.014578 -2.1243938e-17)
(86.013762 75.059025 0)
(155.39389 -2.5188348 1.8941099e-17)
(161.63096 -3.9293796 -5.2401691e-18)
(165.06308 -2.081365 6.9991396e-19)
(171.22549 1.4562406 7.8512381e-18)
(175.81302 9.1110223 8.5985977e-19)
(179.42457 22.094571 3.3015327e-17)
(183.30289 43.723344 -1.0373305e-16)
(136.38454 64.335183 -9.4542528e-18)
(27.7902 24.416666 4.4155541e-17)
(153.80016 -2.7201206 -9.6404023e-18)
(161.45072 -5.3522667 1.3909242e-19)
(165.56685 -3.4144125 -8.2845668e-19)
(172.32632 -0.24573279 -5.8877394e-19)
(177.73038 8.6280877 6.3514332e-19)
(181.09878 21.297608 5.1469384e-17)
(181.7093 44.035777 2.130707e-16)
(113.7541 59.27544 8.1950701e-18)
(-2.3396397 12.352837 -4.1850166e-17)
(152.00174 -2.909477 -1.0486052e-19)
(160.33435 -6.1367637 1.1294053e-19)
(164.5968 -4.6661948 -1.3892878e-18)
(172.49853 -2.1986526 -1.8336193e-17)
(179.06036 6.4406856 3.4460097e-17)
(182.51372 20.135664 -1.0880162e-16)
(178.39217 44.500493 -2.2977168e-16)
(87.522485 55.997659 -3.1904753e-17)
(-5.1657357 21.617525 5.6992081e-17)
(150.04057 -3.0764472 1.231753e-17)
(159.70184 -7.4471833 -1.0361958e-20)
(164.57003 -6.2835295 -5.3061606e-19)
(173.8086 -3.7222953 1.7781878e-17)
(180.58471 5.4942574 -3.1880591e-17)
(183.25385 19.183196 5.8330107e-17)
(171.1701 44.590717 1.1437733e-16)
(62.290202 45.095228 2.92266e-17)
(-12.744332 23.473282 -5.4310104e-17)
(-17.326801 24.17909 -1.1235921e-16)
(41.514839 38.408694 -6.4645965e-19)
(166.20171 45.486733 2.0624207e-18)
(183.27323 17.850239 -1.7699052e-18)
(181.36408 3.2801203 0)
(173.09587 -6.0208019 2.0660861e-19)
(163.6487 -7.2638729 4.1120763e-18)
(158.12227 -8.2234243 -3.9662629e-18)
(148.02514 -3.1651698 -2.5988784e-17)
(-19.286256 24.172122 1.0888136e-16)
(26.783576 30.775467 0)
(160.95031 44.307315 0)
(184.37634 15.270925 1.9583732e-16)
(182.26102 1.2314728 0)
(173.6807 -7.8970532 -5.0939871e-17)
(162.74695 -9.2688393 -6.9010618e-18)
(157.03835 -9.4000608 3.8142701e-18)
(145.88992 -3.2042028 -1.7111017e-17)
(-22.030317 24.342641 9.1939697e-19)
(13.222292 26.683164 -7.4075843e-19)
(153.26349 44.247341 0)
(183.79202 14.092511 -1.9151468e-16)
(182.77996 -0.89371763 0)
(172.94042 -9.9902525 5.0279144e-17)
(161.87361 -10.076535 4.4370157e-18)
(155.00759 -10.028729 -1.1577284e-19)
(143.60015 -3.201752 3.0502693e-17)
(-23.363195 23.216883 2.441563e-16)
(3.6214664 25.430379 -2.1158243e-16)
(147.11018 41.581591 1.8859423e-18)
(184.18759 11.332557 0)
(183.02705 -3.0407085 -1.2086617e-16)
(172.82871 -12.084213 0)
(160.41819 -12.135204 4.5012267e-20)
(153.57589 -11.088802 -1.4330952e-19)
(141.17613 -3.2307257 9.3302766e-20)
(-24.622636 23.883707 -2.3316353e-16)
(-1.3462103 28.421411 -1.7177224e-17)
(138.33019 41.552273 3.266602e-16)
(183.01449 10.174041 -1.94972e-18)
(183.18185 -5.3902603 -5.8164033e-18)
(171.82448 -14.101822 0)
(159.2557 -12.89095 -6.4996353e-19)
(151.08659 -11.63376 0)
(138.63805 -3.2174442 0)
(-24.827918 23.787408 1.0050645e-18)
(-0.99492369 36.040352 2.1050297e-16)
(132.32921 38.716286 -6.4091904e-16)
(182.70663 7.2004054 2.3930155e-16)
(182.88358 -7.5483266 1.2216996e-16)
(171.32122 -16.068065 5.0699465e-17)
(157.44646 -14.906287 5.4701061e-19)
(149.33641 -12.576075 -2.0926223e-19)
(136.00543 -3.263905 4.3460635e-17)