/*--------------------------------*- C++ -*----------------------------------*\
  =========                 |
  \\      /  F ield         | OpenFOAM: The Open Source CFD Toolbox
   \\    /   O peration     | Website:  https://openfoam.org
    \\  /    A nd           | Version:  11
     \\/     M anipulation  |
\*---------------------------------------------------------------------------*/
FoamFile
{
    format      ascii;
    class       volScalarField;
    location    "6.1";
    object      p;
}
// * * * * * * * * * * * * * * * * * * * * * * * * * * * * * * * * * * * * * //

dimensions      [0 2 -2 0 0 0 0];

internalField   nonuniform List<scalar> 
5472
(
102.54607
100.55358
98.552739
96.580696
94.634403
92.744124
90.907801
89.145942
87.484692
85.93357
84.47486
83.167946
81.949344
80.898962
79.975493
79.22101
78.701029
78.27949
78.047643
103.13082
101.31159
99.447286
97.596457
95.759183
93.946156
92.184518
90.479256
88.839663
87.312025
85.889988
84.563041
83.356081
82.301
81.366599
80.596915
80.000412
79.534014
79.266215
103.66871
101.99559
100.29108
98.569832
96.842229
95.123509
93.411503
91.761883
90.167789
88.665268
87.256672
85.933331
84.747434
83.668273
82.734685
81.945814
81.321814
80.849896
80.556607
104.14873
102.59661
101.05264
99.483769
97.864285
96.229194
94.593927
92.998846
91.46588
89.982782
88.585518
87.303112
86.101214
84.996322
84.065349
83.261549
82.625581
82.143725
81.843068
104.52083
103.1461
101.74413
100.28238
98.771521
97.230721
95.68943
94.176706
92.67768
91.23338
89.887082
88.60199
87.405369
86.313205
85.36893
84.55125
83.90977
83.415928
83.068241
104.86279
103.6351
102.35487
101.01139
99.610329
98.169235
96.714965
95.255387
93.82731
92.451803
91.101064
89.837647
88.67301
87.58384
86.643163
85.825411
85.178493
84.668963
84.328942
105.13249
104.03021
102.86424
101.64866
100.36222
99.022405
97.648788
96.271564
94.912177
93.570745
92.26927
91.041059
89.873239
88.804415
87.869204
87.056161
86.397506
85.871263
85.52811
105.38011
104.36851
103.30103
102.19959
101.03298
99.799802
98.511607
97.208769
95.918795
94.643167
93.388148
92.178191
91.036506
89.992152
89.051852
88.247987
87.589676
87.079564
86.706584
105.57537
104.6448
103.68443
102.68537
101.6037
100.45973
99.275277
98.069976
96.849322
95.630744
94.426395
93.258306
92.146874
91.122217
90.195641
89.399566
88.732484
88.215612
87.841075
105.71155
104.87279
104.02173
103.11838
102.14296
101.08884
99.976809
98.846971
97.700668
96.550247
95.39716
94.25936
93.185078
92.19013
91.289984
90.508476
89.847819
89.340466
88.947191
105.78894
105.06119
104.29907
103.46379
102.57979
101.62416
100.6138
99.565492
98.495078
97.412225
96.309895
95.217918
94.17397
93.200889
92.321479
91.547159
90.901075
90.390841
90.008594
105.87696
105.23937
104.5533
103.80131
102.97737
102.08208
101.15278
100.18911
99.206698
98.17841
97.141082
96.107029
95.10378
94.171157
93.320426
92.5593
91.918116
91.406881
91.021243
105.9138
105.34805
104.7262
104.07233
103.34862
102.53933
101.67564
100.76912
99.849394
98.88588
97.901363
96.909956
95.956454
95.061428
94.242404
93.503906
92.880597
92.37487
91.9854
105.98757
105.45848
104.88942
104.27729
103.60577
102.88927
102.11644
101.29146
100.43527
99.542765
98.617185
97.677916
96.760662
95.894203
95.106738
94.391482
93.782582
93.283597
92.89756
105.98581
105.54154
105.06298
104.51362
103.89108
103.22132
102.49609
101.73786
100.94738
100.11953
99.250629
98.372733
97.503236
96.679671
95.922343
95.228573
94.635854
94.149695
93.778343
105.99027
105.57066
105.1379
104.6627
104.11757
103.50988
102.85553
102.16126
101.42368
100.64514
99.824864
99.000517
98.174475
97.391003
96.663572
95.995905
95.419519
94.943722
94.568237
106.01364
105.65702
105.26568
104.80946
104.30007
103.73851
103.14701
102.51864
101.8452
101.11516
100.35134
99.575669
98.798043
98.057108
97.358537
96.71921
96.160444
95.704592
95.345298
105.99149
105.6902
105.3486
104.95041
104.49272
103.97623
103.42415
102.84043
102.21411
101.53237
100.81763
100.08335
99.355792
98.64769
97.982591
97.368376
96.827394
96.385176
96.037553
106.01887
105.73465
105.41773
105.05395
104.63726
104.17016
103.66694
103.13112
102.55018
101.92033
101.25012
100.56134
99.87325
99.198988
98.561194
97.965637
97.446918
97.013281
96.679498
106.03699
105.79383
105.51287
105.17789
104.78365
104.34928
103.88267
103.37989
102.83716
102.24651
101.61936
100.97635
100.32643
99.693401
99.083166
98.511048
98.009144
97.582247
97.248756
106.0474
105.8272
105.57618
105.27573
104.92171
104.52881
104.09948
103.63067
103.12217
102.56248
101.96531
101.35258
100.73129
100.12731
99.547274
99.011974
98.542531
98.14454
97.822559
106.10356
105.90027
105.66151
105.37863
105.04432
104.67228
104.27223
103.84051
103.36829
102.84657
102.28791
101.69819
101.09391
100.49284
99.904731
99.36437
98.891777
98.500063
98.207742
106.12444
105.96077
105.75707
105.50314
105.19732
104.85014
104.46583
104.04621
103.59079
103.09812
102.57798
102.03605
101.48793
100.94904
100.41326
99.900245
99.435809
99.026533
98.698505
106.16326
106.0154
105.83407
105.6089
105.33675
105.02095
104.66426
104.26307
103.81639
103.316
102.77472
102.20295
101.61858
101.04443
100.50431
100.01757
99.568316
99.210188
98.940465
106.22104
106.09422
105.93361
105.73377
105.48707
105.1973
104.8721
104.51435
104.11842
103.68155
103.20624
102.69311
102.15616
101.59367
101.02437
100.48646
100.01803
99.614816
99.286509
106.24772
106.15733
106.02806
105.85345
105.6252
105.34297
105.00702
104.62439
104.19322
103.71962
103.20747
102.66578
102.11018
101.56218
101.03395
100.52912
100.08035
99.709294
99.412658
106.28534
106.24919
106.17302
106.05671
105.89793
105.68806
105.42345
105.10017
104.71915
104.28364
103.79342
103.2549
102.66245
102.03324
101.41184
100.83094
100.32695
99.903711
99.569148
77.889606
77.94333
78.117155
78.48396
78.949097
79.52465
80.162923
80.925381
81.646702
82.422294
83.224921
83.981193
84.785687
85.512606
86.215735
86.866679
87.371583
87.773685
88.027925
79.125504
79.207348
79.400309
79.782097
80.28791
80.917005
81.603902
82.420888
83.188172
84.051096
84.881331
85.713644
86.514941
87.255001
87.946679
88.557232
89.045619
89.444635
89.687964
80.427077
80.43801
80.678419
81.054199
81.619412
82.277328
83.038908
83.871181
84.729542
85.635038
86.51188
87.383039
88.208702
88.970328
89.681525
90.308539
90.830524
91.270879
91.575533
81.660518
81.685402
81.919621
82.315551
82.924412
83.61884
84.431621
85.299973
86.233975
87.155282
88.069818
88.948572
89.800851
90.578841
91.332565
91.9868
92.587381
93.11274
93.540701
82.891098
82.899819
83.136331
83.590614
84.196773
84.948135
85.795586
86.715365
87.65568
88.599502
89.532254
90.43402
91.300624
92.123822
92.911577
93.633032
94.317454
94.944236
95.526318
84.108208
84.093711
84.367209
84.821124
85.44489
86.244819
87.1198
88.076459
89.025292
90.010206
90.961921
91.881294
92.789415
93.649066
94.485707
95.286037
96.051197
96.806168
97.537866
85.274072
85.293048
85.539224
86.005643
86.678107
87.50582
88.415994
89.387719
90.3598
91.373439
92.332261
93.295162
94.239336
95.142202
96.045629
96.913985
97.780566
98.635293
99.451757
86.441113
86.447144
86.68403
87.202593
87.880807
88.735367
89.668632
90.651743
91.660736
92.687324
93.67428
94.683066
95.644194
96.609627
97.555639
98.48931
99.416652
100.31874
101.16649
87.57277
87.552139
87.805481
88.330295
89.035266
89.915779
90.861702
91.874968
92.905403
93.948141
94.972127
95.99853
96.993324
97.998001
98.96892
99.944592
100.86169
101.76705
102.58136
88.669372
88.629143
88.914701
89.430565
90.17154
91.059967
92.026807
93.060255
94.110559
95.171172
96.214663
97.259434
98.277285
99.291988
100.2713
101.21462
102.10635
102.95982
103.67806
89.713921
89.678186
89.973294
90.47435
91.262454
92.139398
93.140135
94.184409
95.252789
96.323176
97.380846
98.430629
99.450123
100.44463
101.38508
102.27949
103.09669
103.8218
104.41531
90.717443
90.703378
90.978608
91.521716
92.303093
93.186475
94.21246
95.251704
96.339517
97.410703
98.466744
99.499465
100.48702
101.43687
102.32398
103.12054
103.80924
104.38128
104.79945
91.680984
91.670235
91.938039
92.502564
93.268498
94.179182
95.20482
96.252813
97.350343
98.396604
99.438974
100.43861
101.3839
102.26062
103.03951
103.71996
104.2734
104.70497
105.00607
92.596283
92.582358
92.854841
93.433326
94.189241
95.124633
96.141352
97.194764
98.2636
99.28875
100.31006
101.24565
102.12393
102.90028
103.56354
104.11673
104.54973
104.89207
105.13051
93.475004
93.4525
93.722077
94.29644
95.056955
96.009216
97.009095
98.059465
99.096958
100.09558
101.04836
101.91359
102.71416
103.37896
103.93916
104.36942
104.71834
104.98944
105.1844
94.267606
94.252462
94.532214
95.106689
95.882756
96.827376
97.803601
98.834256
99.825315
100.77347
101.65954
102.45647
103.15041
103.70448
104.1689
104.49334
104.76011
104.94858
105.05594
95.046001
95.006554
95.292262
95.864423
96.648464
97.56417
98.530973
99.533028
100.46781
101.36129
102.17385
102.88194
103.45723
103.91781
104.27053
104.49627
104.66167
104.67691
104.62007
95.746874
95.704928
96.001962
96.566238
97.341352
98.225474
99.173962
100.11822
100.99684
101.83261
102.55558
103.16055
103.62945
103.9925
104.21468
104.32326
104.33459
104.21639
104.02925
96.392088
96.357267
96.64638
97.197045
97.965819
98.838256
99.763091
100.64021
101.46928
102.2261
102.84976
103.34902
103.70999
103.95647
104.05166
104.04994
103.95182
103.79632
103.60233
96.965605
96.940833
97.218165
97.769319
98.516563
99.351403
100.23032
101.06348
101.83814
102.49578
103.02331
103.41718
103.68122
103.82164
103.83126
103.77358
103.66197
103.55305
103.47145
97.518133
97.46842
97.742755
98.292403
99.027839
99.861653
100.68972
101.45899
102.14299
102.70301
103.15007
103.44524
103.61985
103.68145
103.65591
103.59265
103.52851
103.48877
103.45576
97.950616
97.919816
98.194804
98.723076
99.427474
100.21307
101.00235
101.72778
102.34402
102.83512
103.20389
103.42353
103.53721
103.56333
103.5455
103.51608
103.4901
103.47485
103.44216
98.381938
98.334928
98.60453
99.148036
99.878231
100.65241
101.37236
102.00275
102.5397
102.96492
103.24719
103.40938
103.47862
103.48237
103.46814
103.45624
103.43031
103.38158
103.28766
98.67821
98.647307
98.910423
99.432102
100.10259
100.82773
101.52119
102.16142
102.67273
103.03885
103.27282
103.40039
103.45314
103.47749
103.46874
103.41278
103.33337
103.19478
102.95044
98.972937
98.932925
99.231568
99.811483
100.53545
101.26054
101.91077
102.44659
102.86966
103.15817
103.31654
103.37708
103.3737
103.33744
103.24276
103.10052
102.91931
102.64371
102.28765
99.130422
99.088529
99.376732
99.928511
100.6103
101.31394
101.96054
102.52298
102.9414
103.20374
103.34403
103.41771
103.42619
103.3469
103.18148
102.931
102.57507
102.13061
101.67135
99.247338
99.22794
99.638017
100.31949
101.08434
101.81885
102.43862
102.89522
103.1859
103.32556
103.34295
103.26012
103.08749
102.82668
102.496
102.09539
101.65799
101.22576
100.83157
88.055342
87.914869
87.54119
86.904387
85.983572
84.770025
83.168913
81.231285
78.870973
76.138765
72.854367
69.276752
65.288456
61.144401
57.413696
54.252533
52.679093
53.156832
56.097325
89.72131
89.634607
89.391769
88.91189
88.268769
87.419698
86.283383
84.837943
83.305876
81.416082
79.117057
76.702018
74.143738
71.69854
69.35244
67.656782
66.80249
67.045722
69.142916
91.731571
91.757421
91.619152
91.273312
90.823905
90.230863
89.329169
88.380404
87.326926
85.83766
84.350031
82.698593
80.888101
79.199971
77.601035
76.444058
75.855902
76.438451
78.120916
93.867799
94.034009
94.04847
93.833209
93.53593
93.151917
92.534513
91.930132
91.160104
90.235577
89.090755
87.710536
86.534318
85.198796
83.761474
82.629965
81.839458
81.817788
82.879174
96.023968
96.361379
96.465235
96.385411
96.284269
96.032284
95.712257
95.403032
94.868389
94.083604
93.091552
92.042426
90.732388
89.081109
87.544065
86.099014
84.716438
83.722663
83.218381
98.176389
98.616496
98.795958
98.829
98.816972
98.701638
98.587178
98.321662
97.856907
97.128852
96.159692
94.856195
93.289112
91.583729
89.445202
86.841848
84.290385
82.209047
80.615701
100.18129
100.66281
100.86466
100.9463
100.994
101.00251
100.96336
100.77717
100.32656
99.546827
98.496502
97.10438
95.410571
93.05347
89.792965
86.084614
82.316889
78.670705
75.246979
101.89913
102.38831
102.58985
102.73863
102.86207
102.99788
103.03608
102.8621
102.40658
101.71771
100.60441
99.025527
96.702873
93.213594
88.633074
83.264868
77.232106
70.579869
63.812287
103.28626
103.74075
103.96458
104.17072
104.37731
104.5968
104.66126
104.5341
104.173
103.38018
101.96922
99.971194
96.709406
91.881537
86.096666
79.524378
71.49851
61.871621
50.906044
104.31701
104.69816
104.93326
105.1458
105.38892
105.57978
105.63704
105.53885
105.11048
104.19545
102.72896
100.61743
97.224732
92.601959
87.124591
80.71103
72.825625
63.476732
52.672051
104.91133
105.20976
105.41603
105.58459
105.76904
105.85925
105.84926
105.68353
105.19008
104.42716
103.17061
101.44071
98.725393
95.115323
90.653223
85.285616
78.923957
71.69113
63.747761
105.16501
105.40787
105.56542
105.6728
105.77795
105.79757
105.71211
105.50901
105.19876
104.67991
103.73462
102.4337
100.44483
97.682522
94.242121
90.133631
85.447848
80.488697
75.507933
105.30286
105.5235
105.65429
105.75973
105.85655
105.85634
105.79393
105.66778
105.40048
104.78973
104.31222
102.85265
100.94607
98.524152
95.750813
92.773382
89.629287
86.572907
84.082207
105.41337
105.6104
105.71238
105.84208
105.90844
105.88478
105.71573
105.24424
105.12857
104.55926
103.25963
101.3344
98.990132
96.467455
94.006157
91.783416
89.789096
88.067859
86.899032
105.41636
105.54716
105.66236
105.76222
105.73858
105.54286
105.04644
104.64532
103.16541
101.35708
99.232505
96.652158
93.819136
90.962939
88.707191
87.163692
86.292332
86.24605
86.749968
105.13344
105.23194
105.39464
105.50322
105.45756
105.2458
104.5711
103.3707
100.55475
96.848433
93.083379
89.020734
84.99567
81.338081
78.893001
78.335965
79.356811
81.242648
83.448695
104.49211
104.53446
104.65754
104.67065
104.56595
104.34007
103.83381
102.98394
100.89748
96.89215
90.654278
83.030787
74.729885
66.593008
59.681854
55.776798
55.978936
60.206555
66.986524
103.70649
103.66817
103.63625
103.46678
103.10709
102.5296
101.58724
100.0934
97.465393
92.917547
86.604655
79.111428
70.980135
63.64655
57.95023
54.738245
55.253662
59.566152
66.880017
103.3469
103.28459
103.183
102.97389
102.58716
102.05783
101.29846
100.22866
98.607195
96.169075
92.78493
88.597051
83.968683
79.326277
75.209947
72.276771
71.332523
72.711235
76.084338
103.4002
103.38939
103.37423
103.2784
103.10487
102.84957
102.5393
102.05298
101.33096
100.34971
98.91345
97.022667
94.712474
92.02637
89.32145
87.036768
85.438293
84.889148
85.399786
103.53304
103.62027
103.66846
103.66221
103.69071
103.70758
103.70464
103.61039
103.39032
103.01329
102.43571
101.52598
100.19155
98.662932
97.246916
95.825211
94.119359
92.362665
90.971811
103.55504
103.65763
103.71426
103.82338
103.96018
104.09239
104.19681
104.23539
104.30761
104.23678
103.72224
102.67604
101.47118
100.44444
99.03293
96.7439
94.072269
91.411268
88.666923
103.31619
103.3818
103.46722
103.60349
103.73088
103.84306
103.98164
104.02513
104.00062
103.70114
103.13362
102.79114
102.4264
101.27
99.26927
96.591571
93.543343
90.127467
86.89737
102.76131
102.80068
102.96364
103.06774
103.16819
103.26274
103.35118
103.32615
103.20381
103.23165
102.15229
101.30799
100.61573
99.544723
98.312172
96.801212
95.085352
93.293003
91.663431
101.95287
102.01492
102.14265
102.20914
102.26802
102.27729
102.27533
102.23975
101.93245
101.77955
100.8861
98.736479
97.054475
95.963361
95.29038
95.007266
94.957111
95.150832
95.607871
101.25505
101.19104
101.20392
101.21182
101.18899
101.1426
101.11373
101.05143
100.95992
100.69383
100.30339
100.03601
99.368634
98.395036
97.175239
96.166037
95.82643
96.029277
96.670587
100.47709
100.44681
100.40769
100.33982
100.24824
100.14324
100.02053
99.826485
99.606219
99.24067
98.467416
97.9431
97.404231
96.78052
96.290871
96.10082
96.320763
96.921873
97.808041
61.615777
69.621635
78.977624
88.673909
98.139728
106.04013
112.37419
117.64118
120.2021
120.21075
117.71124
114.96042
111.82604
108.56653
105.54844
102.49911
99.77716
97.158351
94.65235
73.370175
79.1976
86.13654
93.718267
101.33774
107.94514
113.41596
117.7292
120.0335
120.6787
119.62407
117.5152
114.83886
111.84507
109.0178
106.22486
103.57903
101.15179
98.697213
81.039177
85.166113
90.346933
96.243175
102.43382
108.29579
113.46993
117.38694
119.32039
119.48695
118.99251
117.54519
115.89228
113.72851
111.38551
109.07858
106.73282
104.57189
102.32098
84.605252
87.195841
90.845381
95.493936
100.75905
106.00448
110.71608
114.49467
116.6322
117.33878
117.45223
116.37372
115.33525
113.94532
112.29676
110.52351
108.63262
106.81171
104.89134
83.452177
84.945214
87.69212
91.464409
95.792424
100.40938
105.11537
109.32186
112.30507
114.22354
115.15552
115.01998
114.33602
113.31934
112.13273
110.79217
109.31969
107.8563
106.29106
79.81706
79.848304
80.829878
82.920291
86.346999
91.055008
96.300786
101.49893
105.88798
109.31406
111.34396
112.19303
111.93696
111.96062
111.27971
110.37391
109.2557
108.1347
106.91468
72.166664
69.800854
68.728527
69.512738
72.214986
76.750109
82.921979
89.842184
96.201671
101.3477
105.04772
107.60461
109.25086
110.03687
110.05254
109.52649
108.72901
107.86399
107.00244
57.418747
52.147226
48.731174
48.429347
51.700576
57.650474
65.380802
74.648091
84.019082
92.317933
98.743768
102.64689
105.65348
107.60039
108.15165
108.09883
107.6423
107.01908
106.46158
38.855849
26.670115
17.333818
14.518173
19.057716
29.649857
42.959493
57.693366
71.72798
83.954592
94.075408
98.922234
102.37454
104.41066
105.47338
105.92992
105.87351
105.60407
105.30879
40.557078
27.667895
16.929603
12.138153
13.876965
21.662492
33.737972
48.281005
62.711315
75.107551
84.984668
91.827262
96.755382
100.0047
101.99498
103.15505
103.65094
103.79032
103.8724
55.510651
47.671518
41.854247
39.81863
41.684423
46.722051
54.433816
63.321476
72.147298
80.022874
86.543646
91.542882
95.382756
98.13918
100.05739
101.34437
102.06965
102.3995
102.69527
70.828909
67.045283
64.937058
65.063712
67.474796
71.072672
75.257572
80.050202
84.652473
88.822198
92.308488
95.077823
97.220113
98.901824
100.16352
101.09117
101.6787
101.98082
102.24591
82.079434
80.665206
80.116774
80.334904
81.561302
84.037794
86.829479
89.733417
92.367297
94.655946
96.60214
98.150684
99.329282
100.30138
101.04861
101.64356
102.02085
102.21627
102.34717
86.740241
87.23125
87.737338
88.58272
90.061843
91.818604
93.458308
95.080898
96.725121
98.084373
99.271403
100.22983
100.91983
101.51288
101.95197
102.3256
102.59484
102.71379
102.7205
87.592567
88.931027
90.437717
91.978539
93.620061
95.406086
96.927818
98.097058
99.226365
100.18158
100.95912
101.62254
102.09345
102.46625
102.76471
102.96077
103.14084
103.24061
103.19827
85.786919
88.2359
90.605288
92.739506
94.712458
96.701647
98.374681
99.529788
100.50226
101.39435
102.08906
102.60797
102.97409
103.21289
103.40994
103.54247
103.62567
103.66144
103.56992
74.334229
81.185141
86.824379
90.991098
94.04077
96.843486
99.332242
100.74509
101.61175
102.41353
103.05259
103.51994
103.82327
103.9928
104.07782
104.11247
104.13602
104.09594
103.95682
74.598048
81.678759
87.846419
92.731564
96.254332
98.556213
99.889506
101.13846
102.59448
103.72343
104.32864
104.5689
104.68745
104.73593
104.71878
104.62741
104.57859
104.50155
104.31766
80.513423
85.246971
89.827993
93.80835
97.018798
99.684944
101.98292
103.3619
103.42949
103.37814
104.03801
104.77597
105.06176
105.11013
105.02838
104.90884
104.76574
104.6699
104.51186
86.717682
88.616714
90.843826
93.168388
95.330767
97.381642
99.1794
100.53697
101.67666
103.06872
104.55849
104.80486
104.99163
105.09163
105.04213
104.91875
104.73246
104.57424
104.4444
90.263665
90.279639
90.89706
92.039066
93.270556
94.582513
95.799325
96.889391
98.83156
101.50391
103.55531
104.06632
104.46526
104.53261
104.51594
104.4248
104.26661
104.09183
103.9823
85.991547
83.759023
82.556057
82.778925
84.908185
88.723785
92.889752
96.698736
100.00329
102.0561
103.11079
103.44431
103.58559
103.62018
103.63421
103.60407
103.53177
103.42294
103.36203
84.186921
82.335367
82.094481
82.79725
84.246675
86.448892
89.482046
93.090455
96.532515
99.247837
100.84827
101.70696
102.20262
102.52098
102.69926
102.80273
102.82242
102.81826
102.84378
90.492251
90.100051
90.707616
92.142534
93.968536
95.987408
97.973676
99.644722
100.86939
101.62519
102.0692
102.29128
102.4066
102.5008
102.53071
102.58256
102.56608
102.52167
102.54581
96.370788
97.585642
99.183734
100.96772
102.44486
103.23509
103.53654
103.40661
103.09681
102.84542
102.64684
102.54957
102.48482
102.45618
102.42724
102.40133
102.37396
102.33765
102.32224
97.505207
98.255643
98.752441
99.069387
99.523962
100.04938
100.45572
101.21277
102.14059
102.489
102.57976
102.5649
102.44399
102.29985
102.19779
102.11448
102.01472
101.85149
101.74469
98.914692
100.04822
101.0217
101.76928
102.30676
102.64681
102.97221
103.28437
103.19585
102.77598
102.47035
102.21968
101.97336
101.78276
101.62325
101.51562
101.42779
101.29718
101.17409
92.434764
90.162985
88.120609
86.188869
84.349557
82.711606
81.114145
79.73305
78.479288
77.358389
76.405689
75.532007
74.817437
74.218734
73.752625
73.404959
73.210607
73.171104
73.298911
96.378987
94.02599
91.817164
89.757299
87.761248
85.936973
84.152571
82.542429
81.068405
79.72086
78.54069
77.472497
76.572127
75.82793
75.243784
74.821987
74.569329
74.506355
74.621536
99.990242
97.630754
95.313654
93.138845
91.000257
89.003798
87.069405
85.267055
83.596192
82.058737
80.686859
79.43676
78.361197
77.473633
76.773548
76.263535
75.948408
75.853325
75.968973
102.73591
100.52618
98.254991
96.057826
93.885636
91.778036
89.756379
87.822621
86.016904
84.323461
82.785326
81.392909
80.164813
79.13738
78.322169
77.713553
77.32903
77.193192
77.301321
104.4822
102.56834
100.51643
98.42142
96.323688
94.218579
92.173263
90.175489
88.2673
86.478748
84.806433
83.295903
81.948469
80.789726
79.858644
79.169948
78.714211
78.523144
78.623182
105.47547
103.88512
102.13671
100.27
98.331292
96.335286
94.32036
92.334584
90.379454
88.524031
86.761787
85.137882
83.686424
82.424586
81.383611
80.608591
80.098591
79.864257
79.938465
105.92288
104.67656
103.24645
101.64833
99.918431
98.099893
96.19146
94.253719
92.318693
90.425225
88.618416
86.911307
85.368491
84.017614
82.892793
82.025234
81.450595
81.1831
81.235262
105.82922
104.98257
103.89721
102.60317
101.12596
99.503619
97.77529
95.93927
94.066834
92.180597
90.360491
88.607527
86.993944
85.563476
84.361982
83.435052
82.801483
82.47453
82.526051
105.16516
104.76684
104.0886
103.11495
101.95029
100.55995
99.033159
97.366807
95.604231
93.772584
91.96324
90.204172
88.539769
87.047674
85.776567
84.782575
84.127196
83.74805
83.775477
104.122
104.11003
103.86077
103.24671
102.41744
101.30257
99.991264
98.520381
96.911441
95.189243
93.421774
91.679027
90.004775
88.472065
87.158034
86.097842
85.407319
85.007204
84.984406
103.12577
103.33059
103.35068
103.07858
102.56069
101.74936
100.69604
99.430353
97.987078
96.409305
94.731781
93.029307
91.369686
89.811944
88.462365
87.359705
86.609441
86.222911
86.170157
102.58008
102.7422
102.8351
102.77566
102.48444
101.94402
101.16224
100.11934
98.861727
97.439014
95.879392
94.249648
92.629367
91.079391
89.698163
88.582845
87.778096
87.385749
87.320697
102.48367
102.50528
102.53528
102.51804
102.34033
101.98984
101.42248
100.60623
99.561719
98.303223
96.865868
95.326248
93.771691
92.265746
90.86606
89.735002
88.893772
88.475128
88.424646
102.68458
102.58658
102.5041
102.43168
102.26304
102.00035
101.56137
100.93313
100.08889
99.014927
97.715162
96.279069
94.793278
93.336918
91.962495
90.827405
89.975469
89.514345
89.478352
103.02437
102.83033
102.6681
102.5151
102.30932
102.05978
101.67211
101.1592
100.46701
99.579118
98.437604
97.116414
95.705742
94.314361
92.97529
91.842235
91.011109
90.507038
90.457974
103.37841
103.16772
102.94027
102.71785
102.46129
102.19276
101.82474
101.37391
100.77782
100.01619
99.01876
97.839336
96.511071
95.184691
93.907345
92.771476
91.963084
91.469637
91.386065
103.69007
103.49293
103.25713
102.99702
102.69603
102.39415
102.02604
101.60114
101.07071
100.38917
99.520969
98.450357
97.237924
95.970317
94.762846
93.65171
92.824749
92.364721
92.261725
103.97844
103.78125
103.53793
103.27677
102.96814
102.64236
102.26212
101.84343
101.35845
100.71649
99.940579
98.951193
97.877582
96.675411
95.511828
94.462978
93.62274
93.174815
93.081611
104.22558
104.03872
103.79096
103.53252
103.24106
102.91623
102.53874
102.10995
101.65025
101.03587
100.33091
99.436135
98.437112
97.337347
96.194827
95.190588
94.384303
93.91794
93.840196
104.28766
104.17864
103.97812
103.72924
103.46655
103.15356
102.80558
102.37957
101.91037
101.33423
100.66195
99.874623
98.902311
97.88392
96.80044
95.821431
95.055217
94.59334
94.525376
104.054
104.07855
104.00677
103.84922
103.64624
103.36427
103.04487
102.65589
102.19052
101.66075
101.0138
100.28381
99.371562
98.389891
97.3874
96.427332
95.686206
95.229891
95.156672
103.58939
103.75286
103.85681
103.83009
103.71759
103.51702
103.23011
102.88261
102.44381
101.93004
101.29336
100.58911
99.755604
98.800768
97.837821
96.920955
96.189322
95.756668
95.683484
103.07122
103.27179
103.48381
103.60849
103.61251
103.53431
103.3506
103.07357
102.69699
102.23135
101.67852
100.97085
100.18058
99.288273
98.320226
97.435981
96.713104
96.27029
96.197451
102.72417
102.94003
103.15823
103.37507
103.50394
103.52331
103.43199
103.21576
102.89048
102.43512
101.86913
101.18711
100.40016
99.527782
98.614364
97.749618
97.059833
96.632016
96.551221
102.40144
102.62449
102.81729
102.99497
103.16455
103.28473
103.32207
103.24298
103.03966
102.70527
102.24513
101.6515
100.91254
100.0431
99.115448
98.213387
97.482928
97.021817
96.923961
102.00602
102.34756
102.65113
102.92676
103.13339
103.28255
103.36243
103.34457
103.1942
102.87784
102.38896
101.75646
101.03035
100.1783
99.237403
98.344899
97.645784
97.208311
97.096292
101.49183
101.71982
102.00299
102.3023
102.59997
102.85837
103.07093
103.20552
103.21839
103.13456
102.84809
102.32966
101.64118
100.80366
99.834658
98.821032
97.985234
97.425391
97.286922
73.659782
74.155212
74.720354
75.463261
76.393882
77.503532
78.718866
80.116741
81.638211
83.261454
84.988469
86.819817
88.72246
90.704309
92.747654
94.826594
96.923922
99.053884
101.17546
74.94309
75.385886
76.043039
76.857456
77.796803
78.904962
80.125482
81.508949
83.021443
84.624376
86.330313
88.120572
89.965482
91.877639
93.831727
95.779764
97.740034
99.743909
101.71065
76.287712
76.762931
77.386976
78.21403
79.174596
80.280262
81.513453
82.87833
84.377387
85.971295
87.647209
89.388138
91.173783
93.005113
94.843834
96.687533
98.546609
100.40633
102.20139
77.617095
78.104188
78.737114
79.55744
80.535103
81.636037
82.876827
84.238129
85.706851
87.275879
88.921681
90.616908
92.333317
94.079546
95.821034
97.566785
99.301377
100.99132
102.64643
78.946102
79.419993
80.085466
80.892912
81.865995
82.971416
84.193767
85.547718
86.995674
88.534691
90.138598
91.786062
93.433868
95.079239
96.710819
98.342591
99.971436
101.52374
103.01513
80.273778
80.75244
81.402773
82.213764
83.169165
84.272308
85.487253
86.819135
88.238086
89.750439
91.302347
92.890721
94.469237
96.014621
97.55299
99.056055
100.53704
101.96965
103.35358
81.562609
82.05111
82.68865
83.502324
84.458077
85.544706
86.73559
88.0445
89.435456
90.896359
92.405241
93.919392
95.421891
96.878098
98.299122
99.671987
101.04772
102.37926
103.62044
82.83812
83.321883
83.963385
84.760143
85.704764
86.772854
87.939904
89.222274
90.585604
91.984221
93.433273
94.868155
96.282902
97.645552
98.974044
100.267
101.51175
102.6991
103.83425
84.089117
84.557944
85.192331
85.975364
86.904916
87.954172
89.112063
90.344177
91.660897
93.016012
94.400292
95.763961
97.099547
98.367066
99.587228
100.76492
101.89851
102.99584
104.0216
85.308789
85.763737
86.388755
87.147648
88.071677
89.094472
90.223793
91.413803
92.678974
93.975715
95.292205
96.58644
97.818346
98.993113
100.12161
101.22042
102.25392
103.24331
104.1714
86.495867
86.927929
87.537663
88.293684
89.193954
90.187562
91.274711
92.428744
93.639948
94.877811
96.108799
97.327697
98.487351
99.593692
100.61987
101.59606
102.54575
103.45136
104.28406
87.636055
88.062423
88.656758
89.393483
90.253274
91.219835
92.271115
93.387232
94.535758
95.718221
96.876092
98.015538
99.092068
100.09717
101.04485
101.94729
102.80656
103.62102
104.37676
88.727946
89.146201
89.708309
90.411642
91.25027
92.20124
93.212138
94.286528
95.373772
96.485228
97.569318
98.6224
99.621733
100.55695
101.43809
102.26004
103.03658
103.76217
104.43548
89.773074
90.179753
90.722844
91.43093
92.233632
93.13827
94.102546
95.109344
96.134892
97.16807
98.18883
99.177484
100.11573
100.97998
101.78694
102.53342
103.2303
103.87714
104.47973
90.75539
91.148544
91.672074
92.336994
93.11001
93.977197
94.911594
95.869205
96.850481
97.82405
98.786834
99.704431
100.55824
101.3375
102.06909
102.7501
103.38657
103.98157
104.53018
91.682725
92.065317
92.576567
93.210807
93.961449
94.788022
95.683608
96.59154
97.508972
98.411978
99.290409
100.13394
100.92782
101.66021
102.34103
102.96396
103.53058
104.06771
104.55508
92.555207
92.917219
93.411583
94.02008
94.734021
95.522614
96.369912
97.229326
98.08721
98.929448
99.752898
100.54982
101.29392
101.97499
102.58903
103.14382
103.65039
104.12943
104.56386
93.363515
93.715169
94.188356
94.775085
95.4581
96.208323
97.007835
97.822776
98.635162
99.42697
100.18938
100.92753
101.61068
102.22556
102.77812
103.28496
103.75582
104.19858
104.59342
94.111756
94.451062
94.903528
95.464939
96.113769
96.824393
97.584168
98.357855
99.117639
99.857902
100.56051
101.2398
101.87627
102.45362
102.97527
103.44779
103.87687
104.27039
104.6279
94.78703
95.114816
95.55153
96.088017
96.708958
97.392387
98.114717
98.844375
99.554683
100.24772
100.91163
101.54847
102.14331
102.6784
103.15833
103.59062
103.97899
104.33238
104.65835
95.408059
95.722395
96.14411
96.661865
97.26089
97.915441
98.588187
99.276724
99.951091
100.60228
101.22932
101.82566
102.37791
102.87528
103.31625
103.71088
104.07827
104.4158
104.71156
95.935277
96.238066
96.649007
97.152476