/*--------------------------------*- C++ -*----------------------------------*\
  =========                 |
  \\      /  F ield         | OpenFOAM: The Open Source CFD Toolbox
   \\    /   O peration     | Website:  https://openfoam.org
    \\  /    A nd           | Version:  11
     \\/     M anipulation  |
\*---------------------------------------------------------------------------*/
FoamFile
{
    format      ascii;
    class       surfaceScalarField;
    location    "6.1";
    object      phi;
}
// * * * * * * * * * * * * * * * * * * * * * * * * * * * * * * * * * * * * * //

dimensions      [0 3 -1 0 0 0 0];

internalField   nonuniform List<scalar> 
10792
(
0.071433353
-0.043276914
-0.072011856
0.043855417
0.070712058
-0.041156073
0.041877368
0.069986323
-0.039062384
0.039788119
0.069199218
-0.036916294
0.037703399
0.068422016
-0.034739118
0.03551632
0.067495358
-0.032385361
0.033312018
0.066682877
-0.030080491
0.030892973
0.065801681
-0.02777499
0.028656186
0.064984567
-0.025305696
0.02612281
0.064142594
-0.022851096
0.023693069
0.063404023
-0.020347911
0.021086482
0.062760817
-0.017904171
0.018547377
0.062067526
-0.015242903
0.015936194
0.061658104
-0.012758422
0.013167844
0.06108579
-0.010096101
0.010668415
0.060830554
-0.0074556322
0.0077108675
0.060398301
-0.0047310934
0.0051633463
0.060348257
-0.0021709818
0.0022210261
0.00063083195
0.060487193
-0.00076976863
0.075446939
-0.042628206
-0.076095647
0.074731072
-0.040440206
0.074024638
-0.03835595
0.07330492
-0.036196576
0.072470906
-0.033905103
0.07161295
-0.031527405
0.070830547
-0.029298089
0.069934002
-0.026878445
0.069096686
-0.02446838
0.068301088
-0.022055499
0.067610955
-0.019657778
0.066861986
-0.017155202
0.066317643
-0.01469856
0.065820526
-0.012261305
0.065318931
-0.0095945054
0.065090025
-0.0072267269
0.064762312
-0.0044033805
0.064803596
-0.0022122655
0.00077610017
0.064658328
0.080198637
-0.041994777
-0.080832066
0.079620204
-0.039861773
0.07895827
-0.037694015
0.078125353
-0.035363659
0.077282508
-0.033062258
0.07648115
-0.030726047
0.075574449
-0.028391388
0.074642481
-0.025946476
0.073834592
-0.023660491
0.073062876
-0.021283783
0.07226881
-0.018863712
0.071587844
-0.016474236
0.071037887
-0.014148603
0.070440792
-0.011664211
0.07006713
-0.0092208427
0.069666542
-0.0068261398
0.069467882
-0.0042047205
0.069248435
-0.0019928184
0.00078626247
0.069238273
0.084914799
-0.04143213
-0.085477447
0.084235139
-0.039182113
0.083370012
-0.036828888
0.082546503
-0.034540151
0.081729162
-0.032244917
0.080880823
-0.029877708
0.07999715
-0.027507715
0.079233244
-0.025182571
0.07846855
-0.022895797
0.07766472
-0.020479952
0.076991731
-0.018190723
0.076365826
-0.015848332
0.075733298
-0.013516075
0.075231333
-0.011162245
0.074782265
-0.0087717755
0.074426243
-0.0064701177
0.074222739
-0.0040012164
0.07402341
-0.0017934898
0.00070408371
0.074105589
0.090227815
-0.040653546
-0.091006398
0.08946754
-0.038421837
0.088700971
-0.036062319
0.087954107
-0.033793287
0.087161199
-0.031452009
0.086336422
-0.029052931
0.085543818
-0.026715112
0.084790043
-0.024428796
0.083939163
-0.022044917
0.083189503
-0.019730292
0.082449651
-0.017450871
0.081702656
-0.015101337
0.081048644
-0.012862063
0.080467064
-0.010580666
0.080034012
-0.0083387233
0.079650292
-0.0060863974
0.079437358
-0.0037882826
0.079324876
-0.0016810081
0.00069345729
0.079335502
0.095582641
-0.039877895
-0.096358292
0.094889677
-0.037728873
0.094079359
-0.035252001
0.093273281
-0.03298721
0.092391206
-0.030569933
0.091621844
-0.02828357
0.090801433
-0.025894701
0.089947176
-0.023574539
0.08912102
-0.021218762
0.088362009
-0.018971281
0.087543757
-0.016632619
0.086862258
-0.014419838
0.086242785
-0.012242589
0.085736046
-0.010073927
0.085330518
-0.007933195
0.08497715
-0.0057330298
0.08480862
-0.0036197521
0.084635277
-0.0015076658
0.00057182066
0.084756914
0.10192456
-0.039219067
-0.10258339
0.10109395
-0.036898263
0.10028885
-0.034446908
0.099532098
-0.032230455
0.098738592
-0.029776427
0.097911987
-0.027456965
0.097007022
-0.024989736
0.096155374
-0.02272289
0.09530649
-0.020369878
0.094499554
-0.018164345
0.093713809
-0.015846874
0.093060823
-0.013766852
0.092414954
-0.01159672
0.091939315
-0.0095982884
0.091475786
-0.0074696663
0.091126748
-0.0053839923
0.090890614
-0.0033836177
0.090781798
-0.0013988502
0.00050823999
0.090845379
0.10813974
-0.038383379
-0.10897543
0.10721471
-0.035973229
0.10642309
-0.033655283
0.1055609
-0.031368269
0.10467685
-0.02889238
0.10380133
-0.026581445
0.10288308
-0.024071479
0.10202298
-0.021862789
0.10119818
-0.019545082
0.10044811
-0.01741427
0.09976651
-0.015165279
0.099087544
-0.013087886
0.098428233
-0.010937409
0.097896034
-0.0090660892
0.097414278
-0.0069879106
0.097132123
-0.0051018372
0.096872725
-0.0031242198
0.096797164
-0.0013232898
0.00044812915
0.096857275
0.11536609
-0.037630812
-0.11611866
0.11445992
-0.035067056
0.11362018
-0.032815545
0.1126706
-0.030418686
0.1117806
-0.028002378
0.11081919
-0.025620041
0.10992824
-0.023180521
0.10908069
-0.02101524
0.10825263
-0.018717028
0.10746613
-0.016627763
0.10668011
-0.014379266
0.1059654
-0.012373176
0.10532265
-0.01029466
0.10481276
-0.0085561972
0.10439526
-0.0065704071
0.10415367
-0.0048602485
0.10394037
-0.0029109166
0.10391003
-0.0012929505
0.00047332553
0.10388483
0.12261209
-0.036478793
-0.12376411
0.12153999
-0.033994953
0.12053403
-0.031809588
0.11949186
-0.029376516
0.11861173
-0.027122244
0.11769598
-0.024704292
0.1169
-0.022384539
0.11601678
-0.020132024
0.11518132
-0.017881568
0.1143682
-0.015814641
0.113634
-0.013645066
0.11294534
-0.011684512
0.1123432
-0.0096925216
0.11177501
-0.0079880141
0.11133563
-0.0061310251
0.11104845
-0.0045730626
0.11087365
-0.0027361243
0.11086342
-0.0012827138
0.00038947198
0.11094727
0.13081005
-0.035246678
-0.13204217
0.12984436
-0.03302926
0.12878745
-0.030752686
0.12775462
-0.028343677
0.12679397
-0.0261616
0.12577345
-0.023683775
0.12488096
-0.021492043
0.12392663
-0.019177697
0.12312356
-0.017078497
0.12233104
-0.015022124
0.12165159
-0.012965613
0.12098251
-0.011015431
0.1203919
-0.0091019185
0.11981219
-0.0074083026
0.11936861
-0.0056874423
0.11900998
-0.0042144306
0.11884342
-0.0025695665
0.11877786
-0.0012171555
0.0002695233
0.11889781
0.13928644
-0.033985365
-0.14054775
0.13823657
-0.031979389
0.13705701
-0.029573132
0.13612391
-0.027410576
0.13506212
-0.025099804
0.13406813
-0.022689792
0.13305562
-0.020479532
0.1320344
-0.018156475
0.13112246
-0.016166552
0.13023579
-0.014135461
0.12950003
-0.012229845
0.12881223
-0.010327637
0.12829042
-0.0085801104
0.12775176
-0.0068696419
0.1273676
-0.0053032798
0.12703531
-0.0038821401
0.12690143
-0.0024356919
0.12687328
-0.0011889991
0.00012899934
0.1270138
0.14897536
-0.032704114
-0.15025661
0.14765961
-0.030663645
0.14626757
-0.028181088
0.14516591
-0.02630892
0.14399722
-0.023931114
0.14310766
-0.021800234
0.14214408
-0.019515944
0.14128008
-0.017292483
0.1403613
-0.015247772
0.13950399
-0.013278144
0.1387044
-0.011430257
0.137999
-0.0096222369
0.13738985
-0.007970965
0.13679033
-0.006270123
0.13639699
-0.0049099364
0.13602067
-0.0035058224
0.13585645
-0.0022714704
0.13580148
-0.0011340276
2.0072871e-05
0.13591041
0.15888082
-0.031486834
-0.1600981
0.15761737
-0.029400197
0.15646269
-0.027026414
0.15520245
-0.025048674
0.15392213
-0.0226508
0.15283968
-0.020717779
0.15175816
-0.01843443
0.15086916
-0.016403478
0.14989579
-0.014274399
0.14903119
-0.012413552
0.14814772
-0.01054678
0.14741816
-0.0088926801
0.14676883
-0.0073216365
0.14623356
-0.0057348538
0.14581377
-0.0044901472
0.14550355
-0.0031955961
0.14533175
-0.00209967
0.14529998
-0.0011022608
-6.8057142e-05
0.14538811
0.16979195
-0.029832742
-0.17144604
0.16809774
-0.027705984
0.16688529
-0.025813971
0.16554536
-0.02370874
0.16439335
-0.021498788
0.16317682
-0.019501254
0.16202634
-0.017283943
0.16098737
-0.015364514
0.15998466
-0.013271687
0.15912811
-0.011557001
0.15827302
-0.0096916906
0.15752798
-0.0081476388
0.15681543
-0.0066090851
0.15627128
-0.0051907064
0.1558072
-0.004026069
0.15551465
-0.002903049
0.15534066
-0.0019256716
0.15532487
-0.0010864733
-0.0001396386
0.15539645
0.18181678
-0.028280341
-0.18336918
0.18010757
-0.025996771
0.17858655
-0.024292952
0.17697256
-0.02209475
0.17574674
-0.020272971
0.17438737
-0.018141875
0.1732851
-0.016181673
0.17217006
-0.014249478
0.17126296
-0.012364585
0.17034497
-0.01063901
0.16952484
-0.0088715643
0.16881444
-0.007437234
0.16815888
-0.0059535265
0.1676425
-0.0046743269
0.16716391
-0.0035474838
0.16684313
-0.002582263
0.16661949
-0.0017020313
0.16656353
-0.0010305221
-0.00019282116
0.16661672
0.19405331
-0.026508965
-0.19582469
0.19246193
-0.024405385
0.19081892
-0.022649941
0.18924421
-0.020520038
0.1877994
-0.01882816
0.18635809
-0.016700569
0.18516989
-0.014993477
0.18390377
-0.012983355
0.18288916
-0.011349975
0.18178868
-0.0095385313
0.18098757
-0.0080704551
0.18015906
-0.0066087223
0.17952963
-0.0053240989
0.17898095
-0.0041256404
0.17853019
-0.0030967295
0.17820735
-0.0022594179
0.17798957
-0.0014842569
0.17790937
-0.00095031945
-0.00027906716
0.17799562
0.20751088
-0.024569966
-0.20944988
0.20583337
-0.022727867
0.20407756
-0.020894136
0.20256685
-0.01900933
0.20100155
-0.017262855
0.19959606
-0.015295084
0.19827404
-0.013671451
0.19708025
-0.011789573
0.19601795
-0.010287676
0.19500202
-0.0085225959
0.19417185
-0.0072402816
0.19331636
-0.0057532336
0.19272376
-0.0047314999
0.19213013
-0.0035320151
0.19172558
-0.0026921815
0.19136231
-0.0018961393
0.19120235
-0.0013242968
0.1911053
-0.00085327139
-0.00037765816
0.19120389
0.22151682
-0.022735321
-0.22335147
0.21977181
-0.02098285
0.21806248
-0.019184809
0.21647956
-0.017426406
0.21486306
-0.015646355
0.21342691
-0.013858937
0.21201661
-0.012261149
0.21078508
-0.010558045
0.20955159
-0.0090541858
0.20852741
-0.0074984129
0.20749309
-0.006205966
0.20665499
-0.004915134
0.20593763
-0.0040141433
0.20534537
-0.002939749
0.2049208
-0.0022676174
0.20453911
-0.0015144429
0.20433306
-0.0011182544
0.20417346
-0.00069366885
-0.00047221631
0.20426802
0.23709329
-0.020593151
-0.23923546
0.23509571
-0.018985275
0.23326737
-0.017356469
0.2315414
-0.015700434
0.22993033
-0.014035286
0.22846432
-0.01239293
0.22708892
-0.010885743
0.22584375
-0.0093128714
0.22467336
-0.0078837956
0.22367031
-0.0064953635
0.22267847
-0.005214132
0.22188435
-0.0041210076
0.22110182
-0.0032316141
0.2205627
-0.0024006366
0.22010262
-0.0018075326
0.21980311
-0.0012149367
0.21956162
-0.00087676212
0.21939991
-0.00053195777
-0.0004130774
0.21934077
0.25350973
-0.018616803
-0.25548608
0.25150642
-0.016981966
0.24956837
-0.015418422
0.2477233
-0.013855356
0.24597618
-0.012288171
0.24434024
-0.010756989
0.24284239
-0.0093878968
0.24149048
-0.0079609585
0.24027314
-0.0066664562
0.23917527
-0.0053974927
0.2382159
-0.0042547576
0.23736978
-0.0032748867
0.23658306
-0.0024448941
0.23602818
-0.0018457647
0.23557881
-0.0013581569
0.23531445
-0.00095058233
0.23511011
-0.00067241808
0.23506902
-0.00049087303
-0.00035460081
0.23501055
0.27072965
-0.01641819
-0.27292826
0.26872774
-0.014980059
0.26680771
-0.013498388
0.2650146
-0.012062248
0.26328853
-0.010562097
0.26170853
-0.0091769926
0.26023372
-0.0079130864
0.25890606
-0.006633298
0.2577334
-0.0054937959
0.25665336
-0.0043174495
0.25574987
-0.0033512677
0.25492558
-0.002450599
0.25418218
-0.0017014961
0.25353268
-0.0011962676
0.25304208
-0.0008675596
0.2526822
-0.00059070044
0.2524774
-0.00046761477
0.25238246
-0.00039592922
-0.00035525734
0.25238311
0.289588
-0.013941827
-0.29206436
0.28732494
-0.012717006
0.28521835
-0.011391794
0.28327374
-0.010117638
0.28151572
-0.0088040737
0.27988614
-0.0075474159
0.2783765
-0.0064034505
0.27702668
-0.005283473
0.27586545
-0.0043325659
0.27490362
-0.0033556223
0.27401951
-0.0024671611
0.27331117
-0.0017422592
0.27269423
-0.0010845468
0.27217432
-0.00067636615
0.27172376
-0.00041699518
0.27138679
-0.00025373087
0.27118663
-0.00026745266
0.27101983
-0.00022913479
-0.00033866761
0.27100324
0.30996783
-0.011422513
-0.31248714
0.3075852
-0.010334377
0.30536353
-0.009170124
0.30331546
-0.0080695695
0.30143765
-0.0069262613
0.2997825
-0.0058922612
0.29825579
-0.0048767432
0.29690444
-0.0039321287
0.29571604
-0.0031441654
0.29467495
-0.0023145325
0.29386588
-0.0016580841
0.29316232
-0.0010386991
0.29263106
-0.00055329128
0.29216343
-0.0002087355
0.29173576
1.0671977e-05
0.2914368
4.5231861e-05
0.29116474
4.6081221e-06
0.29106646
-0.00013085058
-0.00030252829
0.29103032
0.33211575
-0.0082240316
-0.33531423
0.32923557
-0.0074541967
0.32666519
-0.0065997396
0.32439031
-0.0057946917
0.3223746
-0.0049105474
0.32062697
-0.0041446324
0.31911586
-0.0033656412
0.31784815
-0.0026644107
0.3167743
-0.0020703241
0.31588824
-0.0014284699
0.31522052
-0.00099036163
0.31469899
-0.0005171655
0.31436074
-0.00021504885
0.31413767
1.4342899e-05
0.31395053
0.00019780883
0.31377617
0.00021959196
0.31358039
0.00020038423
0.31344393
5.6103376e-06
-0.00014571481
0.31328712
0.35665622
-0.0043956354
-0.36048461
0.35322264
-0.0040206165
0.35023616
-0.0036132613
0.34758293
-0.0031414632
0.34533287
-0.0026604849
0.34339649
-0.0022082519
0.34179309
-0.001762245
0.34050065
-0.0013719673
0.33943943
-0.0010091043
0.3386854
-0.00067444545
0.33811458
-0.00041953481
0.337776
-0.00017858704
0.33755516
5.7929247e-06
0.33744119
0.00012830623
0.33741975
0.00021925104
0.33735207
0.00028727327
0.33733362
0.00021883509
0.33720393
0.00013530245
-3.2629461e-05
0.33709084
0.38413607
-0.3885317
0.38011545
0.37650219
0.37336073
0.37070024
0.36849199
0.36672974
0.36535778
0.36434867
0.36367423
0.36325469
0.36307611
0.3630819
0.3632102
0.36342946
0.36371673
0.36393556
0.36407087
0.36403824
0.060552141
0.0031930754
-0.0032580231
0.061009885
0.0060147449
-0.0064724896
0.061495258
0.008574959
-0.0090603318
0.06244498
0.011277157
-0.01222688
0.063405503
0.014027766
-0.014988289
0.064786131
0.016689902
-0.01807053
0.066195169
0.019375978
-0.020785016
0.068009701
0.022135653
-0.023950186
0.069861572
0.024699539
-0.02655141
0.07214426
0.027496012
-0.029778699
0.074502016
0.030112263
-0.032470019
0.077149884
0.032902541
-0.035550409
0.080048423
0.035420958
-0.038319497
0.083147206
0.037943174
-0.041041957
0.086617412
0.040393883
-0.043864089
0.090424053
0.042796859
-0.0466035
0.094715363
0.044937604
-0.049228914
0.099434045
0.04746234
-0.052181022
0.049292975
0.10469131
-0.054550245
0.064841748
0.0030096546
0.065198375
0.0056581181
0.065898384
0.0078749501
0.066819234
0.010356307
0.068071894
0.012775106
0.069548474
0.015213322
0.071224537
0.017699915
0.073185833
0.020174357
0.075286568
0.022598804
0.07771098
0.025071599
0.080266333
0.02755691
0.083181201
0.029987673
0.086241165
0.032360994
0.089616014
0.034568325
0.093161046
0.036848851
0.097098762
0.038859143
0.10146556
0.040570809
0.10610692
0.04282098
0.043916642
0.11148325
0.069356302
0.0028916252
0.069717014
0.0052974064
0.070481836
0.0071101275
0.071359564
0.0094785796
0.072770363
0.011364307
0.074144047
0.013839638
0.076066406
0.015777556
0.077978815
0.018261948
0.080397506
0.020180113
0.08276439
0.022704715
0.085682825
0.024638475
0.088612052
0.027058446
0.092089992
0.028883054
0.095498766
0.031159551
0.099432754
0.032914863
0.10346342
0.034828475
0.10794161
0.036092622
0.11275977
0.038002817
0.03867652
0.11799989
0.07422486
0.0027723544
0.074745974
0.0047762919
0.075520325
0.0063357766
0.076622398
0.0083765066
0.078007005
0.0099796996
0.079612618
0.012234024
0.081578814
0.013811361
0.083650274
0.016190487
0.086070269
0.017760118
0.088571502
0.020203482
0.091516354
0.021693623
0.094535526
0.024039274
0.097966894
0.025451686
0.10148951
0.027636934
0.10546662
0.028937758
0.10948946
0.030805633
0.11394755
0.031634531
0.11853604
0.033414322
0.033538589
0.12367397
0.079518819
0.0025890372
0.080008642
0.0042864696
0.080791539
0.0055528788
0.081892687
0.0072753593
0.083211153
0.008661233
0.08494151
0.010503668
0.086803196
0.011949674
0.089081836
0.013911847
0.091465161
0.015376793
0.094212455
0.017456188
0.097150983
0.018755095
0.10027923
0.020911027
0.10357435
0.022156568
0.1072046
0.024006681
0.1108674
0.025274957
0.11489319
0.02677984
0.11885052
0.027677209
0.12325273
0.029012105
0.029321847
0.12746948
0.084928232
0.002417719
0.085540063
0.0036746387
0.086392477
0.0047004648
0.087597071
0.0060707652
0.089091258
0.0071670464
0.090932001
0.0086629238
0.092931281
0.0099503949
0.095324275
0.011518853
0.097691879
0.013009189
0.10054736
0.014600705
0.10329552
0.016006932
0.10641113
0.017795417
0.10957919
0.018988508
0.11292355
0.020662322
0.11637766
0.021820853
0.11998155
0.023175951
0.12347035
0.024188406
0.12717714
0.025305313
0.026142496
0.13035649
0.090987889
0.0022752086
0.091700377
0.0029621507
0.092513658
0.0038871836
0.093859087
0.0047253358
0.095293261
0.0057328722
0.097178977
0.0067772084
0.099173197
0.0079561741
0.10154176
0.0091502879
0.10395228
0.01059867
0.10678789
0.011765094
0.10941117
0.013383654
0.11252104
0.014685549
0.11530986
0.01619968
0.11845802
0.017514164
0.12135744
0.018921434
0.12433393
0.020199457
0.12701073
0.021511606
0.1293669
0.022949146
0.023939774
0.13156962
0.097214134
0.0019183494
0.097850716
0.0023255682
0.098732723
0.0030051763
0.10011061
0.0033474493
0.10159192
0.0042515597
0.10361065
0.0047584844
0.10561893
0.0059478881
0.10804918
0.0067200386
0.11039502
0.008252832
0.11307708
0.0090830357
0.11558234
0.01087839
0.11844193
0.011825963
0.12090833
0.013733279
0.1236489
0.014773588
0.12577501
0.016795332
0.1281438
0.017830661
0.12947619
0.020179219
0.13084275
0.021582584
0.023638697
0.13114383
0.10420287
0.0016003126
0.10470318
0.0018252599
0.10578793
0.0019204189
0.1070848
0.0020505814
0.10874837
0.0025879911
0.11070738
0.0027994721
0.11275244
0.0039028292
0.11505282
0.0044196586
0.11730122
0.0060044271
0.11972677
0.0066574927
0.12193809
0.0086670631
0.12432112
0.0094429354
0.12623744
0.011816958
0.12817375
0.012837279
0.12932477
0.015644312
0.13045373
0.016701698
0.13043654
0.020196413
0.1305327
0.021486419
0.025433117
0.12873829
0.11140204
0.0011455429
0.11194435
0.0012829491
0.1131577
0.00070707035
0.11430507
0.00090320976
0.1161317
0.00076136558
0.11785786
0.0010733106
0.11998239
0.0017782981
0.1220385
0.0023635496
0.1242571
0.0037858241
0.12635337
0.0045612265
0.12839377
0.0066266603
0.13015088
0.0076858236
0.13146817
0.010499671
0.13249972
0.011805727
0.13274722
0.015396815
0.13243589
0.01701302
0.1309563
0.021676002
0.12894749
0.023495229
0.029257025
0.12512359
0.11916103
0.0008823248
0.11983564
0.00060833408
0.12094613
-0.0004034167
0.12212855
-0.00027921512
0.12396049
-0.0010705734
0.12547639
-0.00044258691
0.12758066
-0.00032597187
0.12916664
0.00077757283
0.13123718
0.0017152845
0.1327819
0.0030164988
0.13437464
0.0050339219
0.13518586
0.0068746095
0.13581297
0.0098725608
0.1356158
0.012002892
0.13491323
0.016099388
0.13315412
0.018772128
0.13055001
0.024280107
0.12681362
0.027231623
0.034335123
0.12173552
0.12727546
0.00062066559
0.12813231
-0.00024851125
0.12907971
-0.0013508247
0.13048341
-0.0016829124
0.13203716
-0.0026243209
0.13364335
-0.0020487754
0.13556144
-0.0022440607
0.13696889
-0.00062988513
0.13880537
-0.0001211966
0.13974602
0.0020758523
0.14080839
0.0039715559
0.14086783
0.0068151601
0.14063682
0.010103576
0.13911611
0.013523603
0.13713322
0.018082278
0.13389999
0.02200536
0.13024805
0.027932049
0.12539839
0.032081277
0.039707966
0.12002555
0.13617351
0.00035755804
0.13701786
-0.0010928537
0.13793484
-0.0022678134
0.13939768
-0.0031457491
0.14061586
-0.0038425052
0.14220825
-0.003641157
0.14360138
-0.0036371979
0.14486547
-0.0018939735
0.14594554
-0.0012012678
0.14627474
0.0017466574
0.14666656
0.0035797348
0.14576686
0.0077148607
0.14471633
0.011154106
0.14232322
0.015916706
0.13956794
0.020837563
0.13541395
0.026159352
0.13101445
0.032331546
0.12561601
0.037479716
0.045498701
0.11982527
0.14567476
7.0906916e-05
0.14651488
-0.00193297
0.14742152
-0.0031744547
0.14872123
-0.0044454667
0.14977957
-0.0049008393
0.15127809
-0.0051396796
0.15226437
-0.0046234773
0.15344118
-0.0030707819
0.1538442
-0.0016042904
0.153753
0.0018378528
0.15294542
0.00438732
0.15112396
0.0095363238
0.14930608
0.012971982
0.14600635
0.019216435
0.1426666
0.024177315
0.13783871
0.030987245
0.13329032
0.036879928
0.12728896
0.043481079
0.051363331
0.12142433
0.15577993
-0.0003125729
0.15645954
-0.0026125773
0.15733481
-0.0040497231
0.15848507
-0.0055957269
0.15945044
-0.0058662166
0.16064466
-0.0063338953
0.16123441
-0.0052132307
0.1620184
-0.0038547745
0.16170932
-0.0012952051
0.1611968
0.0023503697
0.15953823
0.0060458905
0.1576253
0.011449253
0.15481676
0.01578052
0.15087519
0.023158008
0.14689483
0.02815767
0.14170296
0.036179117
0.1372547
0.041328187
0.13145201
0.049283772
0.055862523
0.12695282
0.16704635
-0.00074220627
0.16760796
-0.0031741865
0.1684941
-0.0049358685
0.16941099
-0.0065126122
0.17026085
-0.0067160772
0.17099148
-0.0070645256
0.1711417
-0.0053634509
0.1711697
-0.0038827748
0.17009122
-0.00021672129
0.16903839
0.0034031924
0.16680884
0.0082754443
0.16455185
0.013706239
0.16081456
0.019517812
0.15714514
0.026827432
0.15308117
0.032221634
0.14894107
0.040319221
0.1456526
0.044616654
0.1422995
0.052636872
0.05561011
0.14255191
0.17843214
-0.0011787306
0.17892415
-0.0036661987
0.17966748
-0.0056791925
0.18035112
-0.0071962606
0.18115626
-0.0075212105
0.18151557
-0.0074238378
0.18143021
-0.0052780939
0.18089213
-0.003344695
0.17956531
0.0011100994
0.17807492
0.0048935811
0.17532709
0.011023273
0.17251658
0.016516757
0.16860588
0.023428508
0.16573995
0.02969336
0.16240425
0.035557334
0.16074427
0.041979205
0.16016552
0.045195406
0.16240306
0.050399328
0.048328086
0.16968508
0.19157416
-0.0015490064
0.1919812
-0.0040732339
0.19237652
-0.0060745124
0.19265364
-0.0074733829
0.19303113
-0.0078986993
0.19284053
-0.0072332378
0.1924357
-0.0048732629
0.19131699
-0.0022259901
0.18981229
0.002614805
0.1877813
0.0069245686
0.18500117
0.013803407
0.18238699
0.01913093
0.17956897
0.026246527
0.17822173
0.031040605
0.17726143
0.03651763
0.17949712
0.039743518
0.18344432
0.041248206
0.1920355
0.041808145
0.036735662
0.20362793
0.20454694
-0.0018279308
0.20496175
-0.0044880374
0.20541872
-0.0065314891
0.20571567
-0.0077703263
0.20569291
-0.0078759403
0.20508267
-0.0066230025
0.20444617
-0.0042367552
0.20299561
-0.00077543227
0.20137513
0.0042352863
0.19889875
0.0094009453
0.19652431
0.016177844
0.19462786
0.02102738
0.19363541
0.027238975
0.19433209
0.030343926
0.1967292
0.034120522
0.20262531
0.033847407
0.21024555
0.033627967
0.22152449
0.030529202
0.026201916
0.23205824
0.21948879
-0.0019759498
0.21976204
-0.0047612881
0.21993673
-0.0067061798
0.21994707
-0.0077806701
0.2196282
-0.0075570695
0.21894566
-0.0059404557
0.21789871
-0.0031898064
0.2161645
0.00095877643
0.21451343
0.0058863508
0.21228435
0.011630025
0.21130257
0.017159626
0.21083537
0.021494585
0.21232616
0.025748185
0.21550402
0.027166061
0.22114009
0.028484452
0.22897421
0.026013285
0.23766857
0.024933608
0.24745021
0.02074757
0.019873298
0.25377883
0.23517942
-0.0021448259
0.23521653
-0.0047983995
0.23515493
-0.0066445706
0.23485151
-0.0074772494
0.23414378
-0.0068493422
0.23313494
-0.004931614
0.23177067
-0.0018255403
0.23020912
0.0025203269
0.22855098
0.0075444917
0.22734693
0.012834077
0.22773143
0.016775122
0.22888481
0.020341209
0.23270419
0.021928805
0.23767564
0.022194607
0.24471939
0.021440702
0.25212804
0.018604639
0.25940705
0.017654593
0.265016
0.015138622
0.0183198
0.2665695
0.2524278
-0.0021895175
0.25221251
-0.0045831039
0.2520405
-0.0064725666
0.25151039
-0.0069471388
0.25085567
-0.006194618
0.24992887
-0.0040048153
0.24862878
-0.00052545384
0.24732961
0.0038195032
0.2463566
0.0085174966
0.24680151
0.012389175
0.24842461
0.015152017
0.25163995
0.017125869
0.25652479
0.01704397
0.2618572
0.01686219
0.26844417
0.014853737
0.27369495
0.013353854
0.27749031
0.013859231
0.2780201
0.014608831
0.021179593
0.27516031
0.27078592
-0.0019721947
0.2704645
-0.0042616801
0.26985158
-0.0058596487
0.26879759
-0.0058931515
0.26751874
-0.0049157639
0.2661105
-0.0025965754
0.26511132
0.00047372144
0.26440637
0.0045244562
0.26468215
0.0082417133
0.26629283
0.010778498
0.26902652
0.012418327
0.27341381
0.012738581
0.27811769
0.012340087
0.28340206
0.011577827
0.28801624
0.010239555
0.28990043
0.011469658
0.2902097
0.013549966
0.28741543
0.017403097
0.024885023
0.28371
0.29092744
-0.0018693183
0.29064017
-0.0039744077
0.28997413
-0.0051936145
0.28927261
-0.0051916283
0.28832894
-0.0039720943
0.28734945
-0.0016170882
0.28664824
0.0011749334
0.28676774
0.0044049566
0.2880694
0.006940054
0.29044296
0.0084049455
0.29376968
0.009091601
0.29749016
0.0090181015
0.30132449
0.0085057569
0.30498055
0.0079217736
0.30616171
0.0090583859
0.30572107
0.011910305
0.30445719
0.014813844
0.30221876
0.019641523
0.024035634
0.30306815
0.31279671
-0.001378906
0.31186466
-0.003042359
0.31046443
-0.003793391
0.30871689
-0.0034440854
0.30713908
-0.002394281
0.30633047
-0.00080847802
0.30617849
0.0013269128
0.3071235
0.0034599428
0.30917503
0.0048885264
0.31203955
0.0055404225
0.31550237
0.005628788
0.31917675
0.0053437205
0.32246781
0.0052146918
0.32438124
0.0060083496
0.32499165
0.0084479704
0.32620688
0.010695079
0.32737799
0.013642735
0.3310706
0.015948918
0.01669394
0.33841229
0.33673029
-0.0010183581
0.33579159
-0.0021036611
0.33462053
-0.0026223212
0.33357523
-0.0023987913
0.33288798
-0.0017070303
0.33278503
-0.00070553005
0.33355903
0.00055291677
0.33534423
0.0016747397
0.33765443
0.0025783288
0.34027383
0.0029210267
0.34272994
0.0031726782
0.34468172
0.0033919387
0.34569297
0.0042034442
0.34665752
0.0050437986
0.34865653
0.0064489619
0.35209229
0.0072593209
0.35709342
0.0086415967
0.3652258
0.0078165412
0.0072334488
0.37468629
0.36301988
0.36091622
0.3582939
0.35589511
0.35418807
0.35348255
0.35403546
0.3557102
0.35828853
0.36120956
0.36438224
0.36777417
0.37197762
0.37702142
0.38347038
0.3907297
0.3993713
0.40718784
0.41442129
0.1035117
0.058452733
-0.057273117
0.1025207
0.060838793
-0.059847794
0.10186574
0.063006013
-0.062351052
0.10169189
0.064906235
-0.064732386
0.10170501
0.06766175
-0.06767487
0.10223958
0.068774483
-0.06930905
0.10330027
0.071029651
-0.072090347
0.10471805
0.072726867
-0.074144651
0.10712432
0.0743938
-0.076800062
0.10974445
0.074974414
-0.077594542
0.11313486
0.076795268
-0.08018568
0.11681974
0.077099671
-0.080784557
0.12073459
0.076847565
-0.080762408
0.12422593
0.076375052
-0.079866399
0.12642544
0.074422067
-0.076621569
0.12742804
0.071235586
-0.072238191
0.12614187
0.066171686
-0.064885519
0.12189801
0.060531861
-0.056287997
0.053943884
0.11407398
-0.046119854
0.11005173
0.05988425
0.10888703
0.0620035
0.1082642
0.063628836
0.1080361
0.065134334
0.10819861
0.067499244
0.10881669
0.0681564
0.11021247
0.069633878
0.11179269
0.071146644
0.11402594
0.072160546
0.11658624
0.072414115
0.12045061
0.072930898
0.12400231
0.073547973
0.12700324
0.073846638
0.13120979
0.0721685
0.13409998
0.071531872
0.13645497
0.068880599
0.13605052
0.066576138
0.13313323
0.063449152
0.059242276
0.12783483
0.11631196
0.061572186
0.11478644
0.063529015
0.11394035
0.064474932
0.11332469
0.065749992
0.11336506
0.067458868
0.11401154
0.067509927
0.11514108
0.068504336
0.11653117
0.069756554
0.11881733
0.069874384
0.12148632
0.069745127
0.12442349
0.069993726
0.12753504
0.070436424
0.13082057
0.070561105
0.13454221
0.068446862
0.13775511
0.068318973
0.1396938
0.066941911
0.1401153
0.066154643
0.13886599
0.064698457
0.062484819
0.13562345
0.12171801
0.063528146
0.12027346
0.064973572
0.1190436
0.065704785
0.11791045
0.066883149
0.11778849
0.067580823
0.11790417
0.067394249
0.11844176
0.06796675
0.11974535
0.068452959
0.12167008
0.067949658
0.12378195
0.067633257
0.12629125
0.067484424
0.12910388
0.067623788
0.13227569
0.067389295
0.13530488
0.065417676
0.13836576
0.065258089
0.14055598
0.064751693
0.14206386
0.064646764
0.1422425
0.064519821
0.064494834
0.14023248
0.12527943
0.065718195
0.12361128
0.066641715
0.12201325
0.067302814
0.12094323
0.06795317
0.12028586
0.068238191
0.11981103
0.067869085
0.11997564
0.067802142
0.12055849
0.067870106
0.12212104
0.066387111
0.12405944
0.065694853
0.12621318
0.065330687
0.12909558
0.064741384
0.13298349
0.063501391
0.13663941
0.061761753
0.1400243
0.061873199
0.14286621
0.061909778
0.14491317
0.062599804
0.14635172
0.063081272
0.064332335
0.14651422
0.12772434
0.068350345
0.12518433
0.069181725
0.12312307
0.069364077
0.12123256
0.069843681
0.12016757
0.069303181
0.11922716
0.068809492
0.11875912
0.068270178
0.11954088
0.067088355
0.1205242
0.06540379
0.12167969
0.06453936
0.12432337
0.062687003
0.12815811
0.060906647
0.13211252
0.059546982
0.13572852
0.058145748
0.14012747
0.057474248
0.14562892
0.056408327
0.15198713
0.056241595
0.15788838
0.057180022
0.060420988
0.16179973
0.12813756
0.071782411
0.12516153
0.072157755
0.12217563
0.072349978
0.11990133
0.072117976
0.11780468
0.071399834
0.11596766
0.07064651
0.11534611
0.068891726
0.11505484
0.067379633
0.11515537
0.065303254
0.11735863
0.0623361
0.1203544
0.059691238
0.1234706
0.057790443
0.12876002
0.054257566
0.13677595
0.050129812
0.14697087
0.047279327
0.15760475
0.045774449
0.16754379
0.04630256
0.17605678
0.048667031
0.053603777
0.18287399
0.12656228
0.076363958
0.12257491
0.076145131
0.1186712
0.076253688
0.115483
0.075306175
0.11198281
0.07490002
0.10978365
0.072845667
0.10744838
0.071226997
0.10641491
0.068413105
0.10701836
0.064699809
0.10775436
0.061600098
0.1089376
0.058507991
0.11440574
0.052322307
0.12410521
0.044558096
0.13421387
0.040021149
0.14335278
0.03814042
0.15172281
0.037404417
0.15968568
0.038339693
0.16756489
0.040787815
0.044932669
0.176236
0.12327155
0.081830689
0.1178385
0.081578187
0.11275239
0.081339796
0.10751048
0.080548084
0.10281909
0.079591413
0.098186517
0.077478238
0.093815979
0.075597535
0.090823806
0.071405278
0.087037464
0.06848615
0.084711408
0.063926154
0.085650522
0.057568878
0.089628196
0.048344633
0.092682491
0.041503801
0.092719965
0.039983675
0.090559241
0.040301145
0.088835529
0.039128129
0.089147917
0.038027304
0.091298204
0.038637528
0.040461739
0.095769134
0.11837186
0.088582417
0.11139302
0.088557023