/*--------------------------------*- C++ -*----------------------------------*\
  =========                 |
  \\      /  F ield         | OpenFOAM: The Open Source CFD Toolbox
   \\    /   O peration     | Website:  https://openfoam.org
    \\  /    A nd           | Version:  11
     \\/     M anipulation  |
\*---------------------------------------------------------------------------*/
FoamFile
{
    format      ascii;
    class       volScalarField;
    location    "0.0595";
    object      Ma;
}
// * * * * * * * * * * * * * * * * * * * * * * * * * * * * * * * * * * * * * //

dimensions      [0 0 0 0 0 0 0];

internalField   nonuniform List<scalar> 
880
(
1.443353270571932
1.443353270571932
1.443353270571932
1.443353277743583
1.443353270571932
1.443353270571932
1.443353270571934
1.44335340524769
1.443353270571932
1.443353270571933
1.443353270571932
1.443350602455712
1.443353270571932
1.443353270571932
1.443353270576875
1.443319764162691
1.443353270571932
1.443353270571932
1.443353270571933
1.443353270571551
1.443353270571932
1.443353270571932
1.443353270571935
1.443353270571932
1.443353271124175
1.443353265011952
1.443355795045444
1.443351567826354
1.440862861482642
1.431264764733446
1.423484745643329
1.422003616968605
1.443353268722501
1.443353267428488
1.443353266710332
1.443353269421658
1.443353219692712
1.443353212863243
1.443353209185962
1.443353202553287
1.443291027137669
1.443281558723544
1.443279018293661
1.443259428050639
1.42078004559053
1.420157850750707
1.420863933860405
1.414470798622234
1.428431389348853
1.441626898612536
1.448337887678505
1.447117542382228
1.44322676499401
1.44325314621312
1.443305194578067
1.443362178523362
1.443353097992349
1.443353141340143
1.443353217226073
1.443353279324444
1.443353258608481
1.443353257724311
1.44335326097564
1.443353266817253
1.443353270020311
1.44335327055348
1.443353270571932
1.443353270571932
1.44335327658473
1.443353270981726
1.443353270578362
1.443353270572032
1.443359553048835
1.44335374754014
1.443353276485542
1.44335327060125
1.444421235162917
1.443451654281167
1.44335521394661
1.443353268686648
1.44335326178658
1.443353270560964
1.44335327057042
1.443353270571932
1.443353267489407
1.44335327088504
1.443353270597177
1.443353270571087
1.443349384999155
1.443353046761657
1.443353261011044
1.443353270105962
1.443305002981941
1.443408874450254
1.443353979787444
1.443353270888349
1.443353273601289
1.443352862931124
1.443288176931572
1.381283230109915
1.443353266510965
1.443352850439785
1.442910839328104
1.308897485123765
1.443353252054076
1.443352657973484
1.44264089762773
1.285981770272301
1.443353244660381
1.443352489988534
1.442494188230164
1.282592167194414
1.276121998023035
1.442345113502517
1.44335228017875
1.443353237537377
1.270573492565731
1.442174876950374
1.443352027227477
1.443353225729166
1.260959273647143
1.44193360238135
1.443351617823034
1.443353215735002
1.253316418451212
1.441632075290414
1.44335109774263
1.44335318335965
1.443353190560445
1.44335128698036
1.441530151287711
1.242452112455952
1.443353175306699
1.443350725167893
1.441247662431985
1.240155161272098
1.443353148495345
1.443350274217698
1.441128715696197
1.252750915139568
1.443353177196787
1.443351374337934
1.441797509892306
1.322059001698144
1.44335321756448
1.443362349493278
1.444000884215354
1.437933056578822
1.443353708426407
1.443354405270391
1.442716950658463
1.432040026026461
1.443353262658611
1.443342035904616
1.439913135993325
1.351887753576307
1.443353242009892
1.443315533780169
1.435222669001848
1.262061118452274
1.251872224524458
1.437581542979532
1.443337915353067
1.443353260637775
1.273019737869254
1.438269222690057
1.443338296281792
1.443353258595169
1.302198713367329
1.440194572440903
1.443346713497013
1.443353267094638
1.282839714505176
1.439299070608246
1.443343644302321
1.443353263909164
1.353490523887204
1.441834730407458
1.443350385827932
1.443353268416933
1.415011497133763
1.443105981418893
1.443352982687513
1.443353270395323
1.440172330526533
1.443345122359552
1.443353276062372
1.443353270588353
1.446437165391511
1.443385106861302
1.443353359968903
1.443353270620294
1.421099978367309
1.442954736775498
1.443351180939197
1.443353265743884
1.421210697191746
1.442956455354181
1.443351182091587
1.443353265728803
1.42114702716085
1.442958740794997
1.443351176387896
1.443353265624345
1.419943072205248
1.442956434434156
1.443351176735211
1.443353265486276
1.446437165395812
1.443385106864832
1.443353359974039
1.443353270616329
1.440172330531507
1.443345122363856
1.443353276072431
1.443353270587307
1.415011497133337
1.443105981417002
1.443352982686809
1.443353270395215
1.35349052388134
1.441834730397591
1.443350385826956
1.443353268419471
1.443353260631088
1.443337915338655
1.43758154297615
1.251872224520808
1.443353258589696
1.443338296281025
1.438269222685155
1.273019737866901
1.443353267100382
1.443346713490838
1.440194572440518
1.302198713357853
1.443353263908517
1.44334364429949
1.43929907060073
1.282839714508807
1.262061118459122
1.435222669008642
1.443315533789229
1.443353242013215
1.351887753582172
1.439913135999306
1.443342035914372
1.44335326267025
1.432040026026718
1.442716950666242
1.443354405270687
1.443353708432989
1.437933056576904
1.444000884218099
1.443362349496009
1.443353217551467
1.443353190564045
1.443351286973022
1.441530151284309
1.242452112449736
1.443353175305405
1.443350725164054
1.441247662430819
1.240155161272046
1.44335314848859
1.443350274217765
1.441128715701748
1.252750915139915
1.44335317718536
1.443351374338119
1.441797509896088
1.322059001698866
1.253316418440922
1.441632075297229
1.443351097732445
1.443353183360804
1.260959273639467
1.441933602364235
1.443351617822482
1.443353215732857
1.270573492569757
1.442174876940262
1.443352027216456
1.443353225731139
1.276121998013591
1.442345113518079
1.443352280180449
1.443353237539268
1.443353273596068
1.44335286292399
1.443288176932791
1.381283230117169
1.44335326651609
1.443352850447328
1.442910839323251
1.308897485126973
1.443353252057022
1.443352657973286
1.442640897626715
1.285981770265675
1.443353244663923
1.443352489986178
1.442494188230461
1.282592167198267
1.443353270889475
1.44335327010393
1.443353270571134
1.443353270571932
1.443353979795871
1.44335326101206
1.443353270591999
1.443353270571314
1.443408874448181
1.443353046757982
1.44335327088878
1.443353270562853
1.443305002981772
1.443349384998653
1.443353267489145
1.443353261786179
1.443353270571934
1.443353270571826
1.443353270598891
1.443353268684447
1.443353270571932
1.44335327057971
1.443353276474115
1.443355213946535
1.443353270552775
1.443353270981659
1.443353747547296
1.443451654280287
1.443353270018919
1.443353276585762
1.443359553040616
1.444421235166186
1.4433532586161
1.443353097998998
1.443226764998227
1.42843138934987
1.443353257730709
1.443353141339671
1.443253146214202
1.441626898617847
1.443353260977927
1.443353217217647
1.443305194579935
1.448337887680312
1.443353266819088
1.443353279319705
1.443362178523981
1.44711754238762
1.414470798619623
1.443259428035617
1.443353202557525
1.443353269425305
1.420863933862532
1.443279018277166
1.44335320918758
1.443353266708444
1.420157850740781
1.443281558718321
1.443353212862404
1.443353267430677
1.420780045593286
1.443291027168239
1.443353219694333
1.443353268720534
1.422003616965515
1.443351567819288
1.443353270571932
1.44335327057154
1.423484745644918
1.443355795055482
1.443353270571932
1.443353270571933
1.431264764729688
1.443353265014485
1.443353270571932
1.443353270571933
1.440862861483619
1.443353271123728
1.443353270571932
1.443353270571934
1.443353270571932
1.443353270571933
1.443353270571932
1.443353277634284
1.443353270571931
1.443353270571932
1.443353270571932
1.443353405260831
1.443353270571932
1.443353270571932
1.443353270571932
1.443350602477477
1.443353270571932
1.443353270571932
1.443353270575805
1.443319764169968
1.443353788336777
1.443354535009986
1.443356559036263
1.443183692759796
1.443354534915706
1.443359286392444
1.443381624515367
1.439439728798879
1.443356559109733
1.443381624522299
1.442204727721687
1.409929990240946
1.44318369272911
1.439439728807538
1.409929990254831
1.249778070315665
1.086050948677895
1.182821114964528
1.332043342879343
1.402211760427699
1.139912420301469
1.165227516562957
1.234045382565145
1.298400235142736
1.198888035260548
1.229463096405829
1.256482916949135
1.285457982915587
1.226885617057911
1.281247174646468
1.288175655529475
1.29914617570678
1.306660185381353
1.310413016459792
1.311579223507351
1.297657625490767
1.307801400427911
1.315057132719509
1.316693425922894
1.314111628801239
1.3080036528555
1.31684998705181
1.318234651794322
1.378204951455596
1.233695092927008
1.236199261521718
1.236577206546144
1.477188625848776
1.424600196144098
1.52331162052642
1.503244196709398
1.467937175385458
1.525677223736367
1.637391822922811
1.538520936482925
1.483340564769416
1.666217939892891
1.624780248684136
1.550345882027372
1.49775807622198
1.260674966976424
1.258241486674405
1.322823546791166
1.387630260093008
1.448691628296168
1.44394834129656
1.443373770836688
1.443353417235488
1.455373054406458
1.444912640921917
1.443415645719991
1.443353836086062
1.464578297144016
1.446873335987936
1.443518058297883
1.443354863656541
1.423104210694679
1.440027864151232
1.443204467253165
1.443352476692749
1.443353254104967
1.443353282573582
1.443352144800712
1.377124074748437
1.44335326554201
1.443353277654031
1.443352694208162
1.279006398264099
1.443353282478935
1.44335327215867
1.4433530353032
1.17738552585955
1.443353256713519
1.443353267260203
1.443352340905205
1.019229654491242
0.9106561944088819
0.9658850377842307
1.001048450595741
1.018585898639226
0.7692031999689296
0.9128360139388086
0.9933457388039684
1.025346475806645
0.669024683588554
0.8609494716380933
0.9741857823816932
1.015395335515223
0.5890731058129116
0.7736444971919961
0.8642994547431689
0.9078992000969082
1.02269496009026
1.023004590333905
1.021213033856287
1.020821342972226
1.032460897965402
1.033443284244166
1.033185917541033
1.034209483402671
1.022758682312978
1.023577206147291
1.02370575155883
1.024528505853791
0.9249977900923978
0.9270346869798833
0.9269500776596021
0.9239726987100839
1.014842074490949
1.018886652790532
1.046262982692858
1.114204471367503
1.031116136978151
1.037800314930581
1.072182052770945
1.161935980273105
1.024274971863532
1.032518570333437
1.087788994444873
1.436423004532579
0.932794788371257
0.941266560604032
1.060194282595313
1.93843642260281
1.358694803919879
1.317707392461213
0.4907493219654203
0.1746481472833865
1.35014287179397
1.13568286738516
0.3997126446414597
0.2814411842834624
1.46754539261843
0.9132739829522495
0.3856354002110233
0.1646835482111284
1.056451391999818
0.3954296635169416
0.2993215964849939
0.1736143746224715
0.1551495923521491
0.1896225389865928
0.2541188843208896
0.2672940763771082
0.3066190446964769
0.2788873546246968
0.2534008343649416
0.411237355847479
0.1465391665016684
0.1673398688734845
0.3369017093478082
0.536564829976759
0.1591874826520203
0.1954549977680648
0.369410891684151
0.6174404524326343
1.231081233908064
1.373094535005934
1.448956510286409
1.484508761455224
0.8729606034616235
1.182639338612037
1.378814864917568
1.494199825327603
0.3608982993248311
0.7718200316426196
1.164739146761655
1.581437792463413
0.2205000546465456
0.5057882172387799
0.9499546403665475
1.9024432836619
1.629791704923289
1.953049570644523
1.523767708217671
1.133735082784084
1.837914568365371
2.424940622496318
2.340034296547528
1.357741803045791
1.9860309536291
2.474226437217531
2.301970501235103
1.283453367645492
1.56205127513918
1.455605625427941
1.527422335314809
0.9237289691281156
0.6406456322161331
0.6002188764578431
0.5932563693115321
0.3121830314163501
0.9091738239373659
0.9122507257026636
0.8578640644218402
0.4315883658076367
1.006725551200021
0.9033080753461719
0.7793828075813067
0.3245525145109402
0.9065422327566692
0.7706598796466461
0.6214541431534748
0.4788744802989058
0.312183031418013
0.4315883658078333
0.3245525145098285
0.4788744802963072
0.5932563693119673
0.8578640644233138
0.7793828075806882
0.6214541431529574
0.6002188764581416
0.9122507257028738
0.9033080753483093
0.7706598796478653
0.6406456322150342
0.9091738239356342
1.006725551201264
0.906542232758361
1.133735082785317
1.523767708220477
1.95304957065072
1.629791704932424
1.357741803047993
2.340034296541406
2.424940622497385
1.837914568370087
1.283453367643968
2.301970501233534
2.474226437221196
1.986030953631758
0.923728969126311
1.527422335313747
1.455605625427806
1.562051275139485
1.902443283663938
0.9499546403669371
0.5057882172388044
0.220500054645464
1.581437792466876
1.164739146764766
0.7718200316436182
0.3608982993222404
1.494199825331266
1.378814864922911
1.18263933861262
0.8729606034575239
1.484508761459284
1.448956510290837
1.373094535005804
1.231081233902139
0.2672940763744829
0.254118884315519
0.1896225389856596
0.1551495923519374
0.41123735584611
0.2534008343643726
0.2788873546244591
0.3066190446942541
0.5365648299770097
0.3369017093471081
0.1673398688728104
0.1465391664989354
0.6174404524330724
0.3694108916853022
0.1954549977672047
0.1591874826504314
0.1746481472871653
0.4907493219669697
1.31770739245283
1.358694803919771
0.2814411842727579
0.3997126446420916
1.135682867381517
1.350142871798599
0.1646835482012251
0.3856354002075363
0.9132739829484793
1.467545392622186
0.1736143746166138
0.2993215964828608
0.395429663514539
1.056451392002191
1.114204471368545
1.046262982691739
1.018886652789624
1.014842074486153
1.161935980274739
1.072182052770288
1.037800314928693
1.031116136974205
1.436423004535305
1.087788994445146
1.032518570331861
1.024274971862033
1.938436422606546
1.060194282598734
0.941266560608997
0.9327947883773808
1.020821342965462
1.021213033852972
1.023004590335135
1.022694960085072
1.034209483399389
1.033185917538472
1.033443284243829
1.032460897962489
1.024528505853059
1.023705751557032
1.023577206147056
1.022758682312107
0.9239726987159999
0.9269500776611975
0.9270346869802428
0.9249977900961028
1.018585898641559
1.001048450592205
0.9658850377866864
0.9106561944104506
1.025346475808254
0.9933457388014619
0.9128360139408519
0.7692031999694725
1.01539533551645
0.9741857823799724
0.8609494716392803
0.6690246835887972
0.9078992000971025
0.8642994547439101
0.7736444971926245
0.5890731058119306
1.37712407474862
1.443352144802132
1.443353282574144
1.443353254104416
1.279006398264307
1.443352694209175
1.443353277654834
1.443353265541682
1.17738552585944
1.44335303530353
1.443353272159274
1.443353282478489
1.019229654490836
1.443352340905967
1.443353267260387
1.443353256713564
1.443353417233864
1.443373770834477
1.443948341296452
1.448691628302407
1.443353836084332
1.443415645714049
1.444912640927712
1.45537305440424
1.443354863654744
1.443518058289717
1.446873335997302
1.46457829713875
1.443352476693891
1.443204467251375
1.440027864155132
1.423104210695709
1.467937175391101
1.503244196710461
1.523311620531685
1.424600196144174
1.483340564774871
1.538520936482891
1.637391822926377
1.525677223737625
1.497758076227077
1.550345882027009
1.624780248686908
1.666217939894555
1.387630260090404
1.322823546792762
1.258241486676519
1.260674966977641
1.297657625490677
1.311579223507406
1.310413016456109
1.306660185380896
1.314111628803583
1.31669342592139
1.315057132717202
1.307801400426509
1.378204951460917
1.318234651794242
1.316849987052336
1.308003652854534
1.477188625856807
1.236577206554668
1.236199261529229
1.233695092922302
1.299146175704077
1.285457982917792
1.29840023513984
1.402211760429221
1.288175655527508
1.256482916950186
1.234045382564605
1.33204334288324
1.281247174644236
1.229463096407937
1.165227516563953
1.182821114963709
1.226885617064443
1.198888035267469
1.139912420302288
1.086050948679884
1.442591737208229
1.443313186248123
1.443353071916745
1.443353270165388
1.437623062241554
1.443240061033984
1.443352715941671
1.443353269305181
1.424546025310887
1.443099260116996
1.443352054159878
1.443353267686833
1.412370339917712
1.442916827230295
1.443351178853904
1.443353265673112
1.443353265739979
1.44335118094118
1.442954736775249
1.421099978365629
1.443353265725801
1.443351182086974
1.442956455359916
1.42121069718854
1.443353265628336
1.443351176382213
1.442958740798052
1.42114702716726
1.443353265498119
1.443351176728795
1.44295643445385
1.419943072209698
1.443353265674549
1.443353267689033
1.443353269317903
1.443353270179099
1.443351178853041
1.443352054159937
1.443352715944378
1.443353071923781
1.442916827225643
1.443099260122206
1.443240061027458
1.443313186254021
1.412370339925266
1.424546025315931
1.43762306223979
1.442591737209297
)
;

boundaryField
{
    back
    {
        type            empty;
    }
    inlet
    {
        type            calculated;
        value           nonuniform List<scalar> 
16
(
1.443353270571932
1.443353270571932
1.443353270571932
1.443353270571932
1.443353270571932
1.443353270571932
1.443353270571932
1.44335327057155
1.443353270571539
1.443353270571932
1.443353270571932
1.443353270571933
1.443353270571932
1.443353270571932
1.443353270571932
1.443353270571932
)
;
    }
    front
    {
        type            empty;
    }
    top
    {
        type            calculated;
        value           uniform 0;
    }
    outlet
    {
        type            calculated;
        value           nonuniform List<scalar> 
16
(
1.443353264010627
1.443353263990808
1.443353263835893
1.443353263643801
1.44335326999314
1.443353268823715
1.443353266631156
1.443353263894682
1.443353264008121
1.443353263988814
1.443353263838407
1.443353263651422
1.443353263895613
1.443353266632382
1.443353268831759
1.44335327000203
)
;
    }
    bottom
    {
        type            calculated;
        value           uniform 0;
    }
    wall
    {
        type            calculated;
        value           uniform 0;
    }
}


// ************************************************************************* //
