/*--------------------------------*- C++ -*----------------------------------*\
  =========                 |
  \\      /  F ield         | OpenFOAM: The Open Source CFD Toolbox
   \\    /   O peration     | Website:  https://openfoam.org
    \\  /    A nd           | Version:  11
     \\/     M anipulation  |
\*---------------------------------------------------------------------------*/
FoamFile
{
    format      ascii;
    class       volVectorField;
    location    "0.0595";
    object      U;
}
// * * * * * * * * * * * * * * * * * * * * * * * * * * * * * * * * * * * * * //

dimensions      [0 1 -1 0 0 0 0];

internalField   nonuniform List<vector> 
880
(
(25 -7.768126373978579e-16 0)
(25 -6.236558261501387e-16 0)
(25 -3.897605933689231e-15 0)
(25.00000009364872 -9.611808976757915e-08 0)
(25 1.208452956066512e-15 0)
(25 -1.389873514974736e-15 0)
(25.00000000000002 -1.485849247097713e-13 0)
(25.00000529206241 -1.317093079646702e-05 0)
(25 0 0)
(25.00000000000001 1.70443568755117e-15 0)
(25 -1.966274766490386e-12 0)
(24.99998404812633 -6.265552704217469e-05 0)
(25 0 0)
(25 -1.058794152545905e-15 0)
(25.00000000007127 -4.30421088825956e-11 0)
(24.99938752710809 -0.0008639297568223904 0)
(25 -8.007266608220551e-16 0)
(25 -7.483164018318445e-16 0)
(25.00000000000001 -1.329527088858437e-14 0)
(25.00000000000002 8.641325851534586e-12 0)
(25 -1.305536433450773e-15 0)
(25 2.872056651074558e-15 0)
(25.00000000000003 9.307227643988843e-15 0)
(25 -1.149111377411349e-14 0)
(25.00000000923974 -7.688504271840856e-09 0)
(24.99999991062998 8.422208975179542e-08 0)
(25.00011086951262 0.0001983449540360104 0)
(24.99971029634163 -0.0008426805883660643 0)
(24.97050714572203 0.03385425417816875 0)
(24.86739838404587 0.1934480221802171 0)
(24.80359937343585 0.3969963816720618 0)
(24.81531581045482 0.5212454913517039 0)
(24.99999997550974 -2.150916398401069e-08 0)
(24.99999995619872 -3.506221045242075e-08 0)
(24.99999994546559 -4.183772652231526e-08 0)
(24.99999998474239 -1.835214002243326e-08 0)
(24.99999956309112 1.389838338596192e-06 0)
(24.99999968438242 2.221493823630898e-06 0)
(24.99999974884149 2.669169198007572e-06 0)
(24.99999920247521 1.072947318049178e-06 0)
(24.99959346678169 0.001864845916473839 0)
(24.99953210892938 0.002144921054299042 0)
(24.99957082985879 0.002436985207188701 0)
(24.99908439775185 0.001804220570779035 0)
(24.81634107475277 0.5871152916271418 0)
(24.82882176362032 0.6615366606505676 0)
(24.84684822356994 0.692824361779692 0)
(24.76080090790156 0.7418954983963776 0)
(24.98627792502504 0.7586058961992922 0)
(25.1437981550236 0.595177300683801 0)
(25.18686799450379 0.3177769171029325 0)
(25.10813599976077 0.1170480661901012 0)
(24.99953198330952 0.005013385090171244 0)
(24.99996814269457 0.005443153313947771 0)
(25.00040746851125 0.004400084978568248 0)
(25.00067156492756 0.001815482470501032 0)
(24.9999994169161 8.022249425614942e-06 0)
(25.00000026819049 8.648249088168009e-06 0)
(25.00000096490593 6.779427032527877e-06 0)
(25.0000009388766 2.781039870002164e-06 0)
(24.99999983482588 -1.235200354289157e-07 0)
(24.99999981744603 -1.253013844022189e-07 0)
(24.99999985917744 -8.541345671692284e-08 0)
(24.99999994273587 -3.003573475272173e-08 0)
(24.99999999121843 -4.173597717949464e-09 0)
(24.99999999968094 -1.568379243081304e-10 0)
(25 -3.078097990784687e-12 0)
(24.99999999999999 -3.720643567120082e-14 0)
(25.00000023759285 4.398734673420536e-07 0)
(25.00000001331539 1.876028667182889e-08 0)
(25.00000000011718 -4.903129804526713e-11 0)
(24.99999999998733 -6.038212594452579e-11 0)
(25.00020601139894 0.0003018311683228558 0)
(25.00001379314073 1.481168945206491e-05 0)
(25.00000015356002 1.13162884868612e-07 0)
(24.99999999471275 -2.247894399140768e-08 0)
(25.0286609913066 0.02437533065653954 0)
(25.00255999993356 0.001869225203148136 0)
(25.00004892891599 3.085324211643255e-05 0)
(24.99999980311778 -6.208080410265973e-07 0)
(24.99999974110947 -3.212810036514804e-07 0)
(24.9999999975018 -9.261859926922207e-09 0)
(24.99999999998109 -1.309675612951573e-11 0)
(25 2.029072377198499e-14 0)
(24.99999984898025 -5.557299278564573e-07 0)
(24.99999999731745 -3.021623624490368e-08 0)
(25.00000000007075 -1.252733238054619e-09 0)
(24.99999999999025 -1.874574723730306e-11 0)
(24.99993635625516 5.061069434046124e-05 0)
(24.99999782232556 5.722258707356608e-06 0)
(24.99999992414462 3.153835443082789e-07 0)
(24.99999999369224 -4.256136395216229e-09 0)
(25.00658559165659 0.0281294455556236 0)
(25.0006585486361 -0.0009584253009998659 0)
(25.00000380715001 -2.859996920272013e-05 0)
(24.99999999845538 -2.37338451590341e-08 0)
(25.00000004039116 -3.485022769800219e-08 0)
(24.99999131904097 -7.241988881177716e-06 0)
(24.99897183947378 -0.0004112877470370305 0)
(24.25227247429629 0.3363223167516613 0)
(24.99999995656058 -8.846055901215275e-08 0)
(24.99999437719047 4.49515284795407e-06 0)
(24.99477776500969 0.004595431762962973 0)
(23.36434566187475 1.284873824238506 0)
(24.99999975188534 -2.370343992919196e-07 0)
(24.99999460498028 1.417916028907484e-05 0)
(24.99322583513089 0.01114857186395418 0)
(23.21441337072748 2.221496648723553 0)
(24.99999964908615 -3.32139568335801e-07 0)
(24.99999362973412 1.945804587376935e-05 0)
(24.99242788883858 0.01479371944239716 0)
(23.27855811865427 2.632422232809366 0)
(23.20576231895077 2.806851722673195 0)
(24.99100641033677 0.01728227434775583 0)
(24.99999173025233 2.431701409712759e-05 0)
(24.99999955340668 -4.274345991895229e-07 0)
(23.14885835157079 2.962729277984533 0)
(24.98974327610373 0.02077556248857173 0)
(24.99999012041334 3.188594283005122e-05 0)
(24.99999939063193 -5.665525366278595e-07 0)
(23.00475107816478 3.103295903710157 0)
(24.98693078767997 0.02379212157624581 0)
(24.99998542871521 3.883087431042319e-05 0)
(24.99999926221028 -7.174905726955988e-07 0)
(22.90993914432456 3.317694193657378 0)
(24.98509428702546 0.03121106549889554 0)
(24.99998338121718 5.861458402019321e-05 0)
(24.99999881379961 -1.087655466632421e-06 0)
(24.99999890395616 -1.040608101008213e-06 0)
(24.99998436295738 5.17297565813297e-05 0)
(24.98377794875943 0.03192733603932756 0)
(22.75596062335928 3.604466011947392 0)
(24.99999870340783 -1.241782848369185e-06 0)
(24.99997870663579 6.289029406655128e-05 0)
(24.98117667770261 0.03698466436308813 0)
(22.7261686557036 3.740073710846953 0)
(24.99999835060114 -1.623207355343918e-06 0)
(24.99997593275793 7.820695182849839e-05 0)
(24.98032260938636 0.040304407517078 0)
(22.89405944868016 3.593905232572729 0)
(24.99999870005366 -1.169221460544369e-06 0)
(24.99998108902124 5.367241245858187e-05 0)
(24.98108699852528 0.02869636794391721 0)
(23.82386533601536 2.563868929750327 0)
(24.99999294267139 -2.07420781736296e-05 0)
(25.00023639811958 -3.283824905584422e-05 0)
(25.03328589879033 0.02774074752189351 0)
(25.49545142767304 1.344400109165868 0)
(25.00000082059296 -5.056798996588028e-06 0)
(24.99965989921504 -0.0006042373810173468 0)
(24.99251147036952 -0.02868320704981789 0)
(25.11488486251718 -0.6512454778862736 0)
(24.99999928777504 -1.265583059621644e-06 0)
(24.99943548503008 -0.0005939353467661084 0)
(24.92861387377742 -0.05663513948892655 0)
(23.39152744133129 -1.388098934810384 0)
(24.9999991444737 -1.071638595755206e-06 0)
(24.99907980652628 -0.0005747725220145227 0)
(24.83340681423431 -0.051970271070887 0)
(21.62350294424683 -0.7647242412949901 0)
(21.36317662151117 -0.3630600710510105 0)
(24.88076951747628 -0.05090396149947706 0)
(24.99962233785696 -0.0003931435322921674 0)
(24.9999996162187 -7.497679758510749e-07 0)
(21.64636011010285 0.1366519248541044 0)
(24.89494610677121 -0.03256773692367086 0)
(24.99964963536357 -0.0002780545099979939 0)
(24.99999962973745 -5.491012295144421e-07 0)
(22.23667373193902 0.006766856761054736 0)
(24.93477724481425 -0.02798662643024525 0)
(24.99983734252369 -0.0001728501259680845 0)
(24.9999998552675 -3.0296603869187e-07 0)
(21.97749032612186 0.1599603974901249 0)
(24.91862466131134 -0.02746845914392805 0)
(24.99977628148351 -0.0001938559586971423 0)
(24.9999997892716 -3.425782972652002e-07 0)
(23.1687482220937 0.351841817537273 0)
(24.97030330229665 -0.009221723644246369 0)
(24.99993793347403 -4.636186740641118e-05 0)
(24.99999994071166 -8.013467275477531e-08 0)
(24.30767366395952 0.2089017392539887 0)
(24.99478965303753 -0.002297935660826745 0)
(24.99999318789511 -6.270959995386639e-06 0)
(24.99999999460366 -8.094336950373982e-09 0)
(24.86444906436957 -0.02096484463118188 0)
(24.99960770301229 -0.0006798860752525982 0)
(24.99999968882954 -1.310397102820796e-06 0)
(24.99999999983912 -1.501131241241084e-09 0)
(25.01129129678828 -0.1348017789967148 0)
(25.00032817625469 -0.0009644510965961635 0)
(25.0000010318965 -2.478038585281567e-06 0)
(24.99999999986883 -3.699743792418241e-09 0)
(24.55489386497531 -0.001813541437433476 0)
(24.99149888064704 -7.641851781919844e-06 0)
(24.99995224840645 -1.571157775761168e-08 0)
(24.9999998863531 -3.716173718329747e-13 0)
(24.55605141563348 -0.009000965619292773 0)
(24.99152632950528 -1.836891513080138e-05 0)
(24.99995226477085 8.299296069887711e-09 0)
(24.99999988600982 4.07343653269684e-10 0)
(24.55364198150549 -0.02613207059336713 0)
(24.99154991516139 -3.726978773952418e-05 0)
(24.99995208059195 1.516298339983225e-07 0)
(24.99999988332656 2.174669578971083e-09 0)
(24.5426592718648 -0.01409547953074287 0)
(24.99155016249397 0.0001940010587706211 0)
(24.99995203142128 1.001769933551488e-06 0)
(24.99999987999939 3.67928860625862e-09 0)
(25.01129129684435 0.1348017789903621 0)
(25.00032817629773 0.0009644511082292221 0)
(25.00000103195703 2.478044281617152e-06 0)
(24.99999999982268 3.719074466299284e-09 0)
(24.8644490644336 0.02096484464826764 0)
(24.99960770306421 0.0006798860724692569 0)
(24.99999968894798 1.31041867976803e-06 0)
(24.99999999982699 1.500201314883621e-09 0)
(24.3076736639655 -0.2089017391670009 0)
(24.99478965301923 0.002297935701484663 0)
(24.99999318788833 6.270990574473899e-06 0)
(24.99999999460215 8.092275134793844e-09 0)
(23.16874822200084 -0.3518418175840576 0)
(24.97030330218073 0.009221723641579437 0)
(24.99993793346154 4.636186116820404e-05 0)
(24.99999994073968 8.013217185390856e-08 0)
(24.99999961613192 7.497397191600848e-07 0)
(24.99962233769772 0.0003931436032337538 0)
(24.88076951740996 0.05090396145122184 0)
(21.36317662144865 0.3630600710867432 0)
(24.99999962967838 5.491517887928411e-07 0)
(24.99964963535575 0.0002780544990193188 0)
(24.89494610671544 0.03256773695557029 0)
(21.64636011006038 -0.1366519249220637 0)
(24.9999998553366 3.029752517207009e-07 0)
(24.99983734245199 0.0001728501045062148 0)
(24.93477724481418 0.02798662644874286 0)
(22.23667373185578 -0.006766856783904568 0)
(24.99999978926383 3.425612524971952e-07 0)
(24.99977628145254 0.0001938559767695264 0)
(24.9186246612224 0.0274684590836059 0)
(21.97749032613941 -0.1599603974168022 0)
(21.62350294431509 0.7647242412130586 0)
(24.83340681432042 0.05197027103540335 0)
(24.99907980661277 0.0005747724071486704 0)
(24.99999914451736 1.071604846271667e-06 0)
(23.39152744139764 1.388098934898101 0)
(24.92861387384697 0.05663513948891398 0)
(24.99943548514834 0.0005939353696926249 0)
(24.99999928790008 1.265575617913937e-06 0)
(25.11488486251903 0.6512454778984499 0)
(24.99251147046322 0.02868320707019866 0)
(24.9996598992196 0.0006042373789217468 0)
(25.00000082068123 5.056866137888714e-06 0)
(25.49545142764913 -1.344400109175411 0)
(25.033285898832 -0.02774074752215615 0)
(25.00023639814975 3.283827897826344e-05 0)
(24.99999294252199 2.07420800785804e-05 0)
(24.99999890399781 1.040604725236511e-06 0)
(24.99998436287331 -5.172976935041968e-05 0)
(24.98377794871347 -0.03192733604072871 0)
(22.75596062326869 -3.604466011935576 0)
(24.99999870339162 1.241776104896801e-06 0)
(24.99997870659474 -6.289029402077408e-05 0)
(24.98117667768642 -0.0369846643485416 0)
(22.72616865570809 -3.740073710840393 0)
(24.99999835052089 1.623205740093116e-06 0)
(24.99997593275819 -7.820693685419698e-05 0)
(24.98032260945547 -0.04030440749973781 0)
(22.89405944868701 -3.593905232575158 0)
(24.99999869991906 1.169206106792312e-06 0)
(24.99998108902393 -5.36723871125672e-05 0)
(24.98108699856764 -0.02869636793462986 0)
(23.82386533602362 -2.563868929749146 0)
(22.9099391441726 -3.317694193667935 0)
(24.98509428710907 -0.03121106547029314 0)
(24.99998338109865 -5.861460401188983e-05 0)
(24.99999881381163 1.087659205690114e-06 0)
(23.00475107805611 -3.103295903697014 0)
(24.98693078750419 -0.02379212157657363 0)
(24.99998542870449 -3.883088136693846e-05 0)
(24.99999926218314 7.174912732461554e-07 0)
(23.1488583516396 -2.962729277975657 0)
(24.9897432759672 -0.02077556251487563 0)
(24.99999012028875 -3.188595329825262e-05 0)
(24.9999993906571 5.665514017996852e-07 0)
(23.20576231878478 -2.806851722724804 0)
(24.99100641050178 -0.0172822743300122 0)
(24.99999173026528 -2.431702080645768e-05 0)
(24.99999955342949 4.274345575061067e-07 0)
(25.00000004032964 3.485137016123818e-08 0)
(24.99999131895158 7.241989306927052e-06 0)
(24.9989718394925 0.0004112877554710995 0)
(24.25227247439413 -0.3363223167567228 0)
(24.99999995662508 8.845803959769936e-08 0)
(24.99999437728315 -4.495153002090367e-06 0)
(24.9947777649391 -0.0045954317764005 0)
(23.36434566191394 -1.284873824218113 0)
(24.99999975191965 2.3703409338713e-07 0)
(24.9999946049736 -1.417916358068523e-05 0)
(24.99322583513772 -0.01114857187690601 0)
(23.21441337062996 -2.221496648740435 0)
(24.99999964912828 3.321394168894538e-07 0)
(24.99999362971187 -1.94580512565086e-05 0)
(24.99242788884796 -0.01479371942841667 0)
(23.27855811872719 -2.632422232777621 0)
(24.99999999846846 2.373380885725189e-08 0)
(24.99999999366772 4.257113463339339e-09 0)
(24.9999999999907 1.769347221353206e-11 0)
(25 -3.232884659829843e-14 0)
(25.00000380725353 2.859997698311681e-05 0)
(24.99999992415886 -3.153867410683176e-07 0)
(25.00000000000622 1.257559611428956e-09 0)
(24.99999999999118 1.295219087847238e-11 0)
(25.00065854861235 0.0009584252902177182 0)
(24.99999782227888 -5.722251319574417e-06 0)
(24.99999999736308 3.021164984804621e-08 0)
(24.9999999975259 9.256915781056003e-09 0)
(25.00658559165479 -0.02812944555397439 0)
(24.99993635624961 -5.061068863872455e-05 0)
(24.9999998489781 5.557292072856798e-07 0)
(24.99999974110514 3.212784153232354e-07 0)
(25.00000000000002 2.095416270820117e-14 0)
(24.99999999998543 6.093937752388627e-11 0)
(24.99999999468767 2.246324121480354e-08 0)
(24.99999980309116 6.208111053249237e-07 0)
(25 3.205280237270049e-12 0)
(25.00000000013227 4.839621485184657e-11 0)
(25.00000015342601 -1.131684183008239e-07 0)
(25.00004892891514 -3.085322674200561e-05 0)
(24.99999999967281 1.566244432899227e-10 0)
(25.00000001331546 -1.876026395831217e-08 0)
(25.00001379321629 -1.481165533315415e-05 0)
(25.00255999992228 -0.001869225215647227 0)
(24.99999999120187 4.174682185762651e-09 0)
(25.00000023760851 -4.398812338576408e-07 0)
(25.00020601130937 -0.0003018312086864765 0)
(25.02866099134183 -0.02437533061240432 0)
(24.99999983491738 1.235089690091424e-07 0)
(24.99999941699792 -8.022255838268726e-06 0)
(24.99953198336445 -0.005013385132372285 0)
(24.98627792503571 -0.758605896201127 0)
(24.99999981752085 1.252976369715414e-07 0)
(25.00000026818131 -8.64821826165641e-06 0)
(24.99996814270607 -0.005443153293988289 0)
(25.14379815509004 -0.5951773006999717 0)
(24.99999985920263 8.542493427455563e-08 0)
(25.00000096479978 -6.779417685294409e-06 0)
(25.0004074685327 -0.004400084976121185 0)
(25.18686799452697 -0.3177769170992089 0)
(24.99999994275577 3.004055818398306e-08 0)
(25.00000093881817 -2.781072139088476e-06 0)
(25.00067156492884 -0.001815482428192012 0)
(25.1081359998261 -0.1170480661959082 0)
(24.76080090785594 -0.7418954983546557 0)
(24.99908439759068 -0.001804220671104102 0)
(24.99999920252817 -1.072958393681478e-06 0)
(24.99999998478648 1.834198121053499e-08 0)
(24.84684822360638 -0.6928243617774507 0)
(24.99957082966552 -0.002436985227375768 0)
(24.99999974886144 -2.669165961997398e-06 0)
(24.99999994544313 4.184162822103942e-08 0)
(24.82882176351165 -0.6615366607268033 0)
(24.99953210883155 -0.002144920930084805 0)
(24.99999968438207 -2.221520796458675e-06 0)
(24.99999995622315 3.506626271135139e-08 0)
(24.81634107478259 -0.5871152916062866 0)
(24.99959346707529 -0.001864845575711997 0)
(24.99999956310272 -1.389818360648619e-06 0)
(24.99999997548728 2.150589954423688e-08 0)
(24.8153158104183 -0.5212454913452115 0)
(24.99971029636463 0.0008426802100098517 0)
(25 -4.691668198813875e-14 0)
(25.00000000000001 -8.558964217919272e-12 0)
(24.80359937344936 -0.3969963816780175 0)
(25.00011086958121 -0.0001983448050477364 0)
(25 5.786810595746405e-16 0)
(25.00000000000001 1.773601435554234e-14 0)
(24.86739838399345 -0.1934480221457925 0)
(24.99999991066237 -8.422567706877206e-08 0)
(25 2.7431923231772e-16 0)
(25.00000000000001 3.620572650642023e-15 0)
(24.97050714571717 -0.03385425412683136 0)
(25.00000000923111 7.683727140209508e-09 0)
(25 -1.568651541794309e-15 0)
(25.00000000000002 -5.123944739929399e-15 0)
(25 1.420908939734042e-15 0)
(25 2.110385697999055e-15 0)
(25 3.563241346283521e-15 0)
(25.00000009221553 9.7386269844795e-08 0)
(24.99999999999999 -2.843418720158383e-19 0)
(25 1.62886356227575e-15 0)
(25 1.273591504074784e-13 0)
(25.00000529227924 1.316965088994495e-05 0)
(25 -1.366459512028481e-15 0)
(25 -1.552137612469826e-15 0)
(25 2.05837999964853e-12 0)
(24.99998404853858 6.265547634849442e-05 0)
(25 -1.403266437102796e-15 0)
(25 -4.330051310386157e-16 0)
(25.00000000006185 4.560159329243533e-11 0)
(24.99938752721775 0.000863929720763054 0)
(25.00000728618757 1.590740082956609e-09 0)
(25.00001946622215 1.761633380067673e-05 0)
(25.00008405904711 0.0001596312613058082 0)
(25.00034528275099 -0.002376567921733721 0)
(25.00001946527689 -1.761614605087732e-05 0)
(25.00008214735869 -1.099995364649749e-09 0)
(25.00044302565379 -0.0007094266800093553 0)
(24.9459824210332 -0.04377669243631236 0)
(25.00008406000551 -0.000159629407637875 0)
(25.00044302537865 0.0007094264114756779 0)
(24.98496502485641 1.270144936555534e-09 0)
(24.56440588166361 -0.111844375444387 0)
(25.00034528237991 0.00237656833842463 0)
(24.94598242106667 0.04377669086190118 0)
(24.56440588205306 0.1118443762952855 0)
(22.40788142313083 -2.122038683480515e-10 0)
(20.17177922474767 2.420663079018868 0)
(21.26434489350325 3.019498206306106 0)
(23.63697946265437 1.939302150791685 0)
(24.54081765679759 0.7611317446272595 0)
(20.72754797463069 4.594385367418076 0)
(20.99313960944847 4.736022072982954 0)
(22.21380669252957 4.266385622003905 0)
(23.24023111870687 3.123493807428978 0)
(21.5303681196375 5.376788125333248 0)
(22.09375995741642 5.296561812086852 0)
(22.60792279109982 5.153775455784928 0)
(23.12985188661399 4.67562686299628 0)
(22.04773036370186 5.455465452774483 0)
(23.01916616018175 5.681765266424081 0)
(23.18158919964517 5.646850097056634 0)
(23.41681640370595 5.384392380025094 0)
(23.56544662308883 5.731332360567503 0)
(23.63586450349361 5.829178898185768 0)
(23.66142669680492 5.840608417650266 0)
(23.41557655183488 6.107596963355217 0)
(23.55690382416152 5.94427167679101 0)
(23.70774437871277 6.0199007639538 0)
(23.74625866699879 6.017560584544047 0)
(23.68639213389059 6.507526434247061 0)
(23.54100556843546 5.796191199519454 0)
(23.73016359234088 5.80797852291201 0)
(23.7655935620622 5.802334080077414 0)
(24.86370528773923 6.438726760832297 0)
(22.2048813732429 5.497285170161128 0)
(22.27849582405515 5.496561325943146 0)
(22.2955967160654 5.497508372431229 0)
(26.30759874874724 7.533329904605512 0)
(25.55471239215721 4.552110403278323 0)
(26.97770027909169 1.747730626099189 0)
(26.28742451356274 0.3190886754622094 0)
(25.53271399231746 0.0952294638683267 0)
(27.1406882034761 3.62835996598942 0)
(28.50544377745741 0.2887968970957715 0)
(26.75613097740035 -0.2726299264673541 0)
(25.76547362470663 -0.1263668481695802 0)
(29.23218927082323 2.132939913784735 0)
(28.05824822986314 -0.6026788297799548 0)
(26.951811543432 -0.5297391411181278 0)
(26.04638639014523 -0.2813453536940027 0)
(21.45373175650798 1.769949979253709 0)
(21.6811740373906 0.9580545119020478 0)
(23.01000442273141 -0.09091394056610637 0)
(24.12425776900951 -0.3583002787626618 0)
(25.12621134233867 0.04039624063897884 0)
(25.01413953197343 0.003904557538482248 0)
(25.00046696074777 3.071298475822932e-05 0)
(25.00000217710474 -3.031970975018878e-06 0)
(25.24171201704043 -0.01576484267397083 0)
(25.03200789615006 0.00213443569005769 0)
(25.0012386030728 4.136910507955757e-05 0)
(25.00000887887014 -4.490713855637501e-06 0)
(25.42510672647476 -0.1032665621132118 0)
(25.07103700959537 -0.01937535355688183 0)
(25.00320677814072 -0.001040657584565366 0)
(25.00002625519453 -1.578460991768449e-05 0)
(24.67458745925014 -0.1675146931121075 0)
(24.94158666167453 -0.0334147442397517 0)
(24.9969284454069 -0.002111081431779064 0)
(24.99997055087032 -2.674592374933204e-05 0)
(24.99999946935824 -8.143822872563107e-07 0)
(25.00000004283502 3.16893960055081e-07 0)
(24.99998425431972 -1.537308808599881e-05 0)
(24.28449876061168 1.358271646655937 0)
(24.99999945430747 -4.123372541689106e-07 0)
(24.99999995281863 2.351206894765333e-07 0)
(24.99999897724796 -3.58647680947596e-05 0)
(22.93151702283031 1.870999025936571 0)
(24.99999949578138 -8.122556772413996e-08 0)
(24.99999984211606 7.932621586483942e-08 0)
(25.00000419232585 -3.336045128553757e-05 0)
(21.45070802292708 1.368170515288542 0)
(24.99999943015629 4.488377624855175e-08 0)
(24.99999985438334 -9.57201075759959e-09 0)
(24.99999235146722 7.019831978510323e-06 0)
(18.71428628711553 -0.1214634901914048 0)
(16.61786390487908 6.834535782026797 0)
(17.21753591319997 8.886442257606767 0)
(17.7051965775207 10.13744915689018 0)
(17.94151866785744 10.81459709386991 0)
(13.74839463196679 7.218155731183105 0)
(15.90137554541167 9.346940280418529 0)
(17.1031161118155 10.71059342780339 0)
(17.61099894729517 11.39814011720669 0)
(11.80673416988837 6.707606609024879 0)
(14.68100947005912 9.269166130916227 0)
(16.5515881126185 10.71974769965706 0)
(17.27798326899029 11.34788122099117 0)
(11.12816119968277 4.745536858320994 0)
(13.52201959625858 7.930836159293286 0)
(14.3642602247393 10.01079152278787 0)
(15.17852370518629 10.54416185728166 0)
(17.98760218119856 10.99782513712076 0)
(18.00612916765141 11.02507758731313 0)
(17.96905420439096 11.04262154657619 0)
(17.97238160379166 11.06040668821926 0)
(17.72517537974173 11.57197450313462 0)
(17.76286410566816 11.57038081408115 0)
(17.7650977843761 11.56294590669115 0)
(17.80076415636893 11.54907521175007 0)
(17.40785559117327 11.51054042564122 0)
(17.42402134843651 11.52904688630951 0)
(17.42140300154366 11.53663431591058 0)
(17.43637395838867 11.53659079435657 0)
(15.60270875573848 10.63844145845884 0)
(15.66112579877649 10.64310322107362 0)
(15.66129071307016 10.63829659041617 0)
(15.60250815171515 10.60776471055714 0)
(17.81234729988724 11.13100561754724 0)
(17.90728090028654 11.08019697445335 0)
(18.64399293785308 10.48804759597081 0)
(20.3535628135435 8.472487765728182 0)
(17.79106314285651 11.49586374961113 0)
(17.97990302620247 11.37782291492201 0)
(18.83790495544262 10.94581336724134 0)
(20.89943320442699 10.32316739486054 0)
(17.45708209613645 11.50331598290421 0)
(17.6783392822311 11.38600215412058 0)
(18.90001227334826 11.22936980780046 0)
(25.11131629388379 14.6720639492131 0)
(15.80617070560193 10.63271163758941 0)
(16.03782407888263 10.55288021129252 0)
(18.33610062774615 11.32758443027482 0)
(33.52874630586103 19.46692890391182 0)
(25.01152001889306 4.247662261341214 0)
(23.0319007096327 -4.093939844522033 0)
(5.981277957925315 -4.644448964311246 0)
(2.438256234513883 -0.5171931813575257 0)
(24.90632150170048 4.320754849386574 0)
(18.19204542118272 -5.597068513291231 0)
(0.7202805919620979 -5.671393044828759 0)
(-3.552739651084265 -0.9312508299443414 0)
(25.58971858933162 1.098530388484158 0)
(11.11037196440537 -9.355953356328957 0)
(-1.393236736328721 -4.922781876428604 0)
(-1.672596117664148 -1.034577131940706 0)
(15.17030127168248 -6.518740447146802 0)
(4.55730669095974 -2.485882156833356 0)
(-2.927345288917224 -2.311639102150018 0)
(-1.777287722238719 -0.9053570104573702 0)
(2.230278280768804 -0.03386395473804275 0)
(2.695381248937176 0.3438203933350193 0)
(3.559709845255856 0.7447511416261353 0)
(2.44380144094329 2.786190163637592 0)
(-3.947804368936893 0.01625705941619903 0)
(-3.382745677087287 1.214406765229232 0)
(-1.519031391123501 2.924152812763454 0)
(-0.8223914922046012 5.193774002916309 0)
(-1.711489226648789 -0.06075165118522052 0)
(-1.251746817512864 1.528340832800642 0)
(0.1346691615299151 4.099593048415723 0)
(-0.1968771623080433 6.955688813854763 0)
(-1.796359884339488 -0.08189342381716389 0)
(-1.766254560558263 1.388072620370466 0)
(-0.6647838007164849 4.359087682139564 0)
(-0.3408783204758112 7.881531524726117 0)
(18.91310057953919 -5.581875120309826 0)
(22.33190434970255 -3.816266671334612 0)
(23.93412454792544 -3.047000168400141 0)
(24.8318732534548 -2.548301734628724 0)
(12.89263872476734 -5.545218716301139 0)
(18.76249881606673 -5.173792712262268 0)
(22.13796180940201 -4.675347228151091 0)
(24.8737353320949 -2.787843822293676 0)
(4.479870061448517 -3.515063679969887 0)
(12.45447614678068 -3.382898455266921 0)
(18.61477665639348 -5.111802175107345 0)
(26.63628054842037 -2.402732307123244 0)
(2.767235865322061 1.684607674671795 0)
(7.130734692758306 3.975187769696354 0)
(15.54929683520692 2.226237605806441 0)
(31.8007149188709 -0.6274082093988245 0)
(25.87790742512513 -5.689871447133669 0)
(28.46801243888601 -10.26465209115897 0)
(20.97411485774312 -11.55644859278181 0)
(13.97180935298482 -11.24849418779669 0)
(27.51245857873996 -9.055670539051944 0)
(30.91103639230112 -14.39806115007102 0)
(25.43101641018682 -16.09481293091874 0)
(12.2033467607402 -15.2668780436062 0)
(28.58903249295349 -9.693309522935255 0)
(26.77577710318219 -19.06796238469119 0)
(22.58792791501475 -14.39124172675135 0)
(10.00402068577556 -10.66448750978617 0)
(18.43582490879596 -11.36826103290812 0)
(9.701870086405329 -10.8459373516376 0)
(4.640022486634019 -13.72923248348955 0)
(1.262663970026801 -9.71045452033238 0)
(-0.03710445572924244 -7.029398367580704 0)
(-0.8747156860518953 -6.588998130219641 0)
(-1.174791812788253 -6.485915197047005 0)
(-1.334122943099995 -3.264078686011026 0)
(2.591243698474793 -10.65819097740762 0)
(-0.3793630436690578 -11.55942177376315 0)
(-0.6142760120812178 -11.1228234100153 0)
(-0.849201294504112 -5.834103592092556 0)
(6.844513818142112 -13.0479756062547 0)
(4.631078925950931 -12.36896264123551 0)
(2.820322295450147 -10.83021906870806 0)
(1.357412944687172 -4.317134116362246 0)
(10.00985731461551 -10.19162929888447 0)
(8.529762763625913 -8.532699276343026 0)
(7.655041058608262 -5.591418938944989 0)
(6.907690927719727 -1.330233170573901 0)
(-1.334122943098325 3.264078686032903 0)
(-0.8492012944891 5.834103592095413 0)
(1.357412944702739 4.31713411634078 0)
(6.907690927691287 1.330233170513256 0)
(-1.174791812788267 6.485915197057792 0)
(-0.6142760120703762 11.12282341003083 0)
(2.820322295472609 10.8302190686929 0)
(7.655041058616592 5.591418938918065 0)
(-0.8747156860525018 6.588998130224936 0)
(-0.3793630436589056 11.55942177377016 0)
(4.631078925974881 12.36896264125247 0)
(8.529762763641145 8.532699276345598 0)
(-0.0371044557218686 7.029398367570829 0)
(2.591243698467952 10.65819097739236 0)
(6.844513818167298 13.04797560625707 0)
(10.00985731463678 10.19162929888683 0)
(13.97180935298782 11.24849418780264 0)
(20.97411485778516 11.55644859274291 0)
(28.46801243895787 10.26465209113474 0)
(25.87790742522132 5.689871447162114 0)
(12.20334676074036 15.26687804362605 0)
(25.43101641011793 16.09481293089604 0)
(30.91103639231245 14.39806115004931 0)
(27.51245857878972 9.055670539043781 0)
(10.00402068576418 10.66448750977599 0)
(22.58792791499128 14.39124172672747 0)
(26.77577710319948 19.0679623846994 0)
(28.58903249297714 9.693309522934968 0)
(1.262663970025547 9.710454520317189 0)
(4.64002248663476 13.72923248348293 0)
(9.701870086375163 10.84593735165862 0)
(18.4358249087893 11.36826103290575 0)
(31.80071491889002 0.6274082094036592 0)
(15.54929683521841 -2.226237605778882 0)
(7.13073469279058 -3.975187769659842 0)
(2.767235865304566 -1.684607674677495 0)
(26.6362805484626 2.402732307118434 0)
(18.61477665644107 5.111802175117202 0)
(12.45447614679371 3.382898455318261 0)
(4.47987006142435 3.515063679936996 0)
(24.87373533214179 2.787843822282859 0)
(22.13796180947361 4.675347228174663 0)
(18.76249881607417 5.173792712321455 0)
(12.89263872470213 5.545218716274274 0)
(24.83187325350772 2.548301734617727 0)
(23.9341245479849 3.047000168411894 0)
(22.33190434970575 3.816266671407758 0)
(18.91310057944701 5.581875120276734 0)
(2.443801440964634 -2.786190163559921 0)
(3.559709845189974 -0.7447511416122728 0)
(2.695381248914821 -0.3438203934028775 0)
(2.230278280764207 0.0338639547371245 0)
(-0.8223914921834447 -5.193774002900533 0)
(-1.519031391158158 -2.924152812742743 0)
(-3.382745677078106 -1.214406765254951 0)
(-3.947804368909074 -0.01625705941929816 0)
(-0.196877162290412 -6.955688813865958 0)
(0.1346691615176042 -4.099593048410193 0)
(-1.251746817501382 -1.528340832802523 0)
(-1.711489226618183 0.06075165118693362 0)
(-0.3408783204780553 -7.881531524740819 0)
(-0.6647838007138227 -4.359087682154904 0)
(-1.766254560550912 -1.388072620366572 0)
(-1.796359884324069 0.08189342381854064 0)
(2.438256234572373 0.517193181282982 0)
(5.98127795788822 4.644448964373363 0)
(23.03190070949452 4.093939844549954 0)
(25.01152001888914 -4.247662261344638 0)
(-3.552739650942987 0.9312508298939628 0)
(0.7202805919409121 5.671393044831897 0)
(18.19204542112442 5.597068513251196 0)
(24.90632150177313 -4.320754849385694 0)
(-1.672596117545929 1.034577131904001 0)
(-1.393236736324694 4.922781876372158 0)
(11.11037196433866 9.355953356293552 0)
(25.58971858937065 -1.098530388522937 0)
(-1.777287722178347 0.9053570104349637 0)
(-2.927345288910417 2.311639102105597 0)
(4.557306690905152 2.485882156857004 0)
(15.17030127172368 6.51874044712208 0)