/*--------------------------------*- C++ -*----------------------------------*\
  =========                 |
  \\      /  F ield         | OpenFOAM: The Open Source CFD Toolbox
   \\    /   O peration     | Website:  https://openfoam.org
    \\  /    A nd           | Version:  11
     \\/     M anipulation  |
\*---------------------------------------------------------------------------*/
FoamFile
{
    format      ascii;
    class       surfaceScalarField;
    location    "4.725";
    object      phi;
}
// * * * * * * * * * * * * * * * * * * * * * * * * * * * * * * * * * * * * * //

dimensions      [0 3 -1 0 0 0 0];

internalField   nonuniform List<scalar> 
8667
(
15.885132
1.9608915
-0.068245448
13.978058
2.0466962
-0.13962261
12.064605
2.0983651
-0.18491204
10.151399
2.0882713
-0.17506478
8.2454943
2.0915686
-0.18566431
6.3475062
2.0216989
-0.12371081
4.4641777
1.9430262
-0.059697667
2.6351357
1.6989706
0.13007142
1.3516699
0.42399215
0.85947362
15.88635
3.8523199
13.975584
3.9574621
12.062699
4.0112497
10.145808
4.0051622
8.2394356
3.9979413
6.3365923
3.9245421
4.4579582
3.8216603
2.637057
3.5198718
3.137385
0.85134189
15.883993
5.7461053
13.97788
5.8635752
12.065193
5.9239364
10.145136
5.9252188
8.2288877
5.9141899
6.3264615
5.8269683
4.4457906
5.7023312
2.6288345
5.3368278
4.943001
0.82321852
15.884812
7.6390718
13.978633
7.7697534
12.063528
7.8390418
10.14535
7.843397
8.2242453
7.8352944
6.3185064
7.7327072
4.4289644
7.5918732
2.6102612
7.1555311
6.7427439
0.81051833
15.884994
9.5318535
13.981277
9.6734711
12.06671
9.7536088
10.148739
9.7613676
8.2239617
9.7600718
6.3126272
9.6440416
4.4149388
9.4895617
2.5962969
8.974173
8.5296776
0.80936318
15.886718
11.422913
13.986594
11.573595
12.070303
11.6699
10.149231
11.682439
8.2219669
11.687336
6.3046185
11.56139
4.4004388
11.393741
2.5731313
10.80148
10.319514
0.78329527
15.888653
13.312039
13.991218
13.47103
12.076009
13.585108
10.152957
13.605491
8.2228901
13.617403
6.2996026
13.484677
4.3871839
13.30616
2.5586096
12.630055
12.10277
0.775353
15.890598
15.199219
13.996308
15.36532
12.08406
15.497356
10.1592
15.530351
8.2251224
15.551481
6.296241
15.413559
4.3729086
15.229492
2.531165
14.471798
13.878399
0.75553624
15.892963
17.084034
14.001314
17.256969
12.092191
17.406479
10.16648
17.456061
8.2277371
17.490225
6.2926011
17.348695
4.3592353
17.162858
2.5088639
16.32217
15.650943
0.73631982
18.905385
15.956427
20.72389
15.959273
22.5385
15.963173
24.35073
15.965551
26.159392
15.969097
27.964787
15.972385
29.768738
15.973829
31.565551
15.980967
15.978576
33.364755
19.088112
14.125284
20.914583
14.132802
22.735923
14.141833
24.55068
14.150794
26.361448
14.158329
28.163158
14.170675
29.960887
14.1761
31.754574
14.187281
14.189342
33.543808
19.259228
12.272535
21.106999
12.285032
22.953407
12.295425
24.793472
12.310729
26.631748
12.320052
28.463716
12.338707
30.293548
12.346269
32.11985
12.360978
12.368253
33.940939
19.331779
10.396817
21.206284
10.410527
23.08143
10.420279
24.954655
10.437505
26.82521
10.449497
28.694545
10.469373
30.556217
10.484597
32.411883
10.505313
10.522957
34.257179
19.382879
8.5041627
21.283901
8.5095049
23.186877
8.5173021
25.097172
8.5272104
27.005938
8.5407304
28.924558
8.5507526
30.844295
8.56486
32.775579
8.5740283
8.5928939
34.705642
19.237793
6.6150645
21.142026
6.6052718
23.052293
6.6070351
24.978614
6.6008899
26.907147
6.6121968
28.845195
6.6127049
30.778515
6.6315403
32.714406
6.638137
6.6597936
34.647506
19.054509
4.7234139
20.972173
4.6876073
22.908761
4.670448
24.875665
4.6339858
26.86351
4.6243514
28.872288
4.6039271
30.89826
4.6055679
32.938385
4.5980126
4.6070061
34.991172
18.143005
2.902579
20.026133
2.8044784
21.963365
2.733216
23.941882
2.6554693
25.945915
2.6203184
27.975754
2.5740881
30.018879
2.5624427
32.080666
2.536226
2.5455724
34.142099
17.413475
1.1400469
19.396249
0.82170468
21.621421
0.50804378
23.914179
0.36271133
26.21849
0.31600758
28.543347
0.24923144
30.882585
0.22320437
33.226211
0.19259991
35.571649
0.20013426
33.269681
0.095074118
33.176387
0.093293552
33.092457
0.083930029
33.010626
0.081831339
32.93873
0.071895544
32.867619
0.071110763
32.807061
0.060558157
32.746421
0.060640105
0.049130092
32.697291
33.479679
0.15920276
33.41788
0.15509235
33.362741
0.13906911
33.308599
0.13597414
33.25937
0.12112404
33.213632
0.1168491
33.169864
0.10432566
33.132983
0.097521426
0.08935217
33.092761
33.884724
0.21541741
33.83727
0.20254649
33.783797
0.19254268
33.738522
0.1812486
33.68611
0.17353596
33.642882
0.16007767
33.591707
0.15550048
33.552215
0.13701361
0.13740271
33.504164
34.201115
0.27148198
34.150523
0.25313775
34.095626
0.24743981
34.046195
0.23068
33.993234
0.22649675
33.945341
0.20797095
33.895982
0.20485893
33.849317
0.18367919
0.18226542
33.804454
34.640219
0.33690448
34.576279
0.31707801
34.513546
0.31017254
34.451037
0.29318992
34.389644
0.28788897
34.328927
0.26868786
34.26972
0.26406596
34.211818
0.24158115
0.23854297
34.155541
34.587928
0.39648325
34.533043
0.3719625
34.480905
0.36231023
34.432902
0.34119313
34.386897
0.33389414
34.343682
0.31190259
34.302609
0.30513898
34.261063
0.28312737
0.2766033
34.223003
34.943108
0.44454772
34.899597
0.41547308
34.859641
0.40226688
34.820776
0.38005786
34.783157
0.3715133
34.741896
0.35316289
34.700367
0.34666793
34.652139
0.33135586
0.32874584
34.599996
34.204031
0.38261598
34.263768
0.35573572
34.334213
0.33182267
34.395571
0.31869989
34.468643
0.29844069
34.52499
0.29681583
34.573206
0.29845263
34.59335
0.31121175
0.33780506
34.584291
35.791805
0.16246015
35.97476
0.17278043
36.12363
0.18295288
36.230097
0.21223329
36.279123
0.24941414
36.26262
0.31331923
36.186892
0.37418004
36.034503
0.46360104
35.854202
0.51810596
35.746112
0.61897468
-0.5108846
35.478394
0.59344822
-0.32572993
35.142029
0.56496173
-0.22859705
34.779742
0.54216315
-0.17987608
34.416774
0.52094153
-0.15797363
34.047679
0.50959845
-0.14050309
33.674332
0.48600644
-0.11265957
33.297879
0.48772026
-0.11126771
0.46976246
32.923333
-0.095216377
34.652346
0.55091957
34.685064
0.56073017
34.683103
0.56692217
34.655922
0.56934424
34.605241
0.57162263
34.542986
0.57185311
34.455007
0.57398546
34.365827
0.5769009
0.57981593
34.255773
34.655477
0.49543923
34.709747
0.50646025
34.751372
0.52529719
34.7867
0.53401597
34.80739
0.55093293
34.820509
0.55873375
34.819565
0.5749293
34.813665
0.58280069
0.59975355
34.793728
34.301733
0.41670857
34.383949
0.42424505
34.459764
0.44948155
34.53763
0.4561504
34.607337
0.48122543
34.678611
0.4874605
34.740551
0.51298916
34.803931
0.51942016
0.5460177
34.857667
34.225785
0.34646478
34.299883
0.35014661
34.373939
0.37542611
34.451788
0.37830072
34.528361
0.40465285
34.608588
0.40723325
34.68596
0.4356173
34.766917
0.4384626
0.46845153
34.844484
33.886419
0.2645001
33.972781
0.26378459
34.060685
0.28752233
34.152418
0.28656684
34.245172
0.31189929
34.34271
0.30969575
34.441014
0.33731308
34.544628
0.33484881
0.36480027
34.648279
33.59597
0.17269418
33.67854
0.18121492
33.772967
0.19309475
33.860572
0.19896213
33.958843
0.21362846
34.054178
0.21436032
34.156712
0.23477931
34.261444
0.23011712
0.25629722
34.369947
33.190392
0.075063067
33.284174
0.087432774
33.386339
0.090929954
33.48593
0.099370716
33.595112
0.10444694
33.701101
0.10837156
33.817768
0.11811236
33.931216
0.11666856
0.13176561
34.055748
32.772354
32.859787
32.950717
33.050088
33.154534
33.262906
33.381018
33.497687
33.629453
33.756654
-0.12720152
33.900384
-0.14372959
34.040693
-0.14030931
34.196943
-0.15625037
34.350299
-0.15335582
34.520951
-0.17065229
34.688086
-0.16713419
34.874721
-0.18663521
-0.1840441
35.058765
34.177349
-0.24880298
34.310663
-0.27704354
34.440893
-0.27053882
34.584625
-0.2999826
34.724314
-0.29304538
34.87971
-0.32604803
35.031343
-0.31876725
35.200145
-0.35543726
-0.34816407
35.364265
34.482972
-0.36182771
34.600226
-0.39429779
34.721054
-0.39136654
34.848062
-0.4269911
34.979342
-0.42432575
35.116943
-0.46364913
35.259824
-0.46164803
35.410234
-0.50584748
-0.50424741
35.566318
34.757568
-0.47111725
34.866417
-0.50314615
34.981703
-0.50665275
35.096263
-0.54155136
35.218603
-0.54666563
35.340119
-0.58516518
35.470689
-0.59221827
35.600481
-0.63563924
-0.64432984
35.740564
34.927002
-0.55363534
35.005478
-0.58162252
35.089702
-0.59087667
35.168374
-0.62022334
35.254087
-0.63237817
35.335717
-0.66679528
35.42653
-0.68303158
35.514633
-0.72374278
-0.74405593
35.61436
34.914128
-0.61009592
34.961358
-0.62885255
35.013844
-0.64336251
35.05918
-0.66555984
35.112067
-0.68526545
35.15853
-0.71325815
35.213412
-0.73791386
35.265119
-0.77544905
-0.80346148
35.324524
34.772768
-0.58913618
34.739282
-0.59536617
34.708522
-0.61260281
34.666022
-0.62306022
34.629445
-0.64868811
34.581661
-0.66547417
34.54231
-0.69856256
34.496573
-0.72971268
-0.76488781
34.458
34.141407
-0.47476981
34.010256
-0.46421546
33.876879
-0.47922527
33.724275
-0.47045625
33.573326
-0.49773932
33.404514
-0.49666207
33.23851
-0.532559
33.052584
-0.54378657
-0.58900822
32.876705
32.548634
-0.10007073
32.182474
-0.098055389
31.811941
-0.10869202
31.451068
-0.10958322
31.086
-0.13267173
30.712927
-0.12358891
30.339913
-0.15954505
29.949436
-0.15330894
29.562965
-0.20253743
0.61161943
29.155157
-0.2038111
0.81461934
32.673705
0.8538102
34.418809
0.79301595
35.385319
0.69376302
35.713612
0.55377262
35.880554
0.38923143
35.730859
0.20429203
35.549205
35.263057
0.66695168
28.757102
-0.26889662
0.85336779
32.487289
0.88701395
34.385163
0.81714867
35.455184
0.70390843
35.826853
0.55209837
36.032364
0.38119342
35.901764
0.20136975
35.729028
35.464427
0.71621761
28.327944
-0.28706043
0.92260455
32.280902
0.95170543
34.356062
0.8762751
35.530614
0.76091674
35.942211
0.60764472
36.185636
0.42839299
36.081016
0.22565795
35.931763
35.690085
0.78040048
27.930272
-0.38272771
0.96953487
32.091767
0.98995132
34.335645
0.90307549
35.61749
0.7719683
36.073318
0.60487782
36.352726
0.41801572
36.267878
0.22146994
36.128309
35.911555
0.85407625
27.479294
-0.40309876
1.0584716
31.887372
1.0713821
34.322735
0.97517058
35.713701
0.8379085
36.21058
0.66651183
36.524123
0.46984568
36.464544
0.24801136
36.350143
36.159566
0.93911086
27.096985
-0.55680186
1.1180329
31.70845
1.1149946
34.325773
1.0030335
35.825663
0.84835242
36.365262
0.66103974
36.711436
0.4580747
36.667509
0.24447265
36.563746
36.404039
1.0393544
26.666205
-0.60857445
1.2269501
31.520854
1.2130515
34.339672
1.089533
35.949181
0.92428275
36.530512
0.72869164
36.907027
0.51282771
36.883373
0.27097989
36.805593
36.675019
1.1551542
26.363232
-0.85218099
1.3005299
31.375478
1.2643912
34.37581
1.1171053
36.096467
0.93101112
36.716606
0.71877595
37.119262
0.49742555
37.104723
0.26685421
37.036165
36.941873
1.31194
25.945199
-0.89390714
1.4376931
31.249725
1.3781796
34.435324
1.2182495
36.256397
1.0156107
36.919245
0.79234927
37.342523
0.55837066
37.338702
0.29604281
37.298493
37.237916
0.093666386
37.144249
0.23239071
37.159768
0.35940154
37.211691
0.47812949
37.223796
0.5885124
36.808862
0.67791171
36.166998
0.76398175
34.349254
0.80831047
31.205397
26.107529
0.64598002
0.076347386
37.067902
0.1868904
37.049225
0.31551915
37.083062
0.44157204
37.097743
0.54083428
36.7096
0.61366989
36.094162
0.63406153
34.328862
0.63181992
31.207638
26.186397
0.55295238
0.099618186
36.968284
0.23216644
36.916677
0.34785366
36.967375
0.45088546
36.994711
0.5338385
36.626647
0.587735
36.040266
0.61808274
34.298514
0.57782438
31.247897
26.369501
0.39472089
0.081932702
36.886351
0.19065924
36.80795
0.31089674
36.847138
0.42352926
36.882078
0.49496526
36.555211
0.52784541
36.007386
0.50673032
34.319629
0.43539144
31.319235
26.537155
0.26773709
0.110942
36.775409
0.2424063
36.676486
0.35139433
36.73815
0.43952427
36.793948
0.50214346
36.492591
0.53317442
35.976355
0.53091587
34.321888
0.43317927
31.416972
26.785406
0.18492777
0.097120356
36.678289
0.21464976
36.558957
0.33700489
36.615794
0.43714163
36.693812
0.48519079
36.444542
0.48767459
35.973871
0.43629054
34.373272
0.33716434
31.516098
26.875653
0.24691735
0.12765767
36.550631
0.26574672
36.420868
0.37966066
36.501881
0.46619043
36.607282
0.51257158
36.398161
0.51389327
35.972549
0.47565109
34.411514
0.36940604
31.622343
26.976619
0.26844088
0.12536243
36.425269
0.25690065
36.289329
0.38599508
36.372786
0.48528052
36.507996
0.51892184
36.36452
0.48930398
36.002167
0.39348188
34.507336
0.28237936
31.733446
26.915632
0.34336615
0.15668159
36.268587
0.31417362
36.131837
0.4391508
36.247809
0.52693165
36.420216
0.56422156
36.32723
0.53731499
36.029074
0.45952303
34.585128
0.32277923
31.87019
26.918323
0.32008782
-0.23152756
26.812344
0.33750721
-0.4004588
32.039121
-0.5342806
34.71895
-0.59401397
36.088807
-0.57148977
36.304706
-0.46902282
36.317749
-0.32353646
36.102323
-0.16413018
35.972431
36.104457
-0.29841536
26.852397
0.25836138
-0.51101197
32.251718
-0.6238073
34.831745
-0.67238561
36.137385
-0.63599564
36.268316
-0.53359572
36.215349
-0.38667958
35.955406
-0.19908814
35.78484
35.905369
-0.23840066
26.803523
0.28727538
-0.47371126
32.487028
-0.64249782
35.000532
-0.72231671
36.217204
-0.70048687
36.246486
-0.58429065
36.099152
-0.41644391
35.78756
-0.21700309
35.585399
35.688365
-0.34791412
26.929921
0.22151595
-0.61418179
32.753296
-0.77279186
35.159142
-0.83720746
36.28162
-0.78907047
36.198349
-0.66204823
35.97213
-0.48233129
35.607843
-0.25566401
35.358732
35.432701
-0.32467158
26.966099
0.28849318
-0.60607495
33.034699
-0.827637
35.380704
-0.9153951
36.369378
-0.8791522
36.162106
-0.73618392
35.829162
-0.5306843
35.402343
-0.28280431
35.110852
35.149897
-0.46942027
27.193994
0.2415252
-0.78652592
33.351805
-0.99887196
35.59305
-1.0643764
36.434882
-0.99191746
36.089647
-0.82414399
35.661389
-0.59727501
35.175474
-0.32097706
34.834554
34.82892
-0.46859528
27.334475
0.32811491
-0.81527086
33.69848
-1.0911969
35.868976
-1.1712157
36.514901
-1.1050231
36.023454
-0.91634254
35.472708
-0.66069426
34.919826
-0.35645986
34.530319
34.47246
-0.63871582
27.672139
0.30105169
-1.0396753
34.09944
-1.3080404
36.137341
-1.3545748
36.561435
-1.2351647
35.904044
-1.0107245
35.248268
-0.72929947
34.638401
-0.39266965
34.193689
34.079791
-0.67948353
28.004212
0.34740999
-1.1261969
34.546153
-1.4382727
36.449417
-1.4756045
36.598767
-1.3593585
35.787798
-1.1102763
34.999186
-0.79395782
34.322082
-0.425251
33.824983
33.65454
0.58488679
33.069653
1.1009746
33.308895
1.5729442
33.850113
1.9960749
34.576055
2.2989652
35.484908
2.3969785
36.500754
2.1038305
36.742565
1.3980852
35.251898
28.893916
0.50838217
0.62136762
32.448285
1.1685133
32.761749
1.6837639
33.334862
2.1383934
34.121425
2.4693225
35.153979
2.6458909
36.324186
2.3593179
37.029138
1.6077829
36.003433
29.925324
0.57637423
0.65186003
31.796425
1.2262136
32.187396
1.7796366
32.781439
2.2953962
33.605666
2.7067609
34.742614
2.9810331
36.049913
2.8165879
37.193583
2.0192769
36.800744
31.388536
0.55606495
0.6766126
31.119813
1.2826773
31.581331
1.8768893
32.187227
2.4225454
33.06001
2.8582855
34.306874
3.2142194
35.693979
3.1565737
37.251229
2.5039567
37.453362
33.290529
0.60196422
0.69587099
30.423942
1.3239265
30.953275
1.9528722
31.558282
2.5616759
32.451206
3.0864143
33.782136
3.5293265
35.251067
3.6560288
37.124527
3.1039661
38.005424
35.410204
0.98429084
0.70785079
29.716091
1.3588562
30.30227
2.0223096
30.894828
2.6543086
31.819207
3.1990118
33.237432
3.7399281
34.710151
3.998964
36.865491
3.7272992
38.277089
37.631724
1.5057792
0.70473159
29.011359
1.3796161
29.627385
2.07135
30.203094
2.766798
31.123759
3.3950712
32.609159
3.994651
34.110571
4.3860868
36.474055
4.3924761
38.2707
39.200161
2.8240385
0.71335403
28.298005
1.3910316
28.949708
2.1087408
29.485385
2.8222695
30.41023
3.472585
31.958844
4.1397759
33.44338
4.6277664
35.986065
5.0017305
37.896736
40.637232
3.56466
0.6843004
27.613705
1.3911835
28.242825
2.117107
28.759462
2.9016651
29.625672
3.6485455
31.211963
4.3623046
32.729621
5.0680546
35.280315
5.9644994
37.000291
41.629743
4.9719885
-0.74073059
28.354435
-1.4672426
28.969337
-2.2630963
29.555315
-3.188072
30.550648
-4.351845
32.375736
-5.840187
34.217963
-7.8240006
37.264128
-10.432564
39.608854
44.400595
-13.203416
-0.76122537
29.115661
-1.4728581
29.68097
-2.2398836
30.322341
-3.1045009
31.415265
-4.2699614
33.541197
-5.879536
35.827538
-8.0089809
39.393573
-10.538825
42.138698
45.681268
-11.819498
-0.78298905
29.89865
-1.4636128
30.361593
-2.1970762
31.055804
-3.0416736
32.259863
-4.2030883
34.702611
-5.872551
37.497
-8.1556697
41.676692
-10.286816
44.269845
41.713777
-6.3193253
-0.79578305
30.694433
-1.4778061
31.043616
-2.1699519
31.74795
-2.938632
33.028543
-4.1115809
35.87556
-5.8998717
39.285291
-8.1376411
43.914461
-9.7714913
45.903695
32.987499
-1.0452127
-0.85244531
31.546878
-1.4864435
31.677615
-2.1353781
32.396885
-2.8724244
33.765589
-4.0144098
37.017546
-5.8103915
41.081273
-7.8896659
45.993736
-9.2079823
47.222011
23.76414
0.015376796
-0.88213568
32.429014
-1.5174268
32.312906
-2.1205794
33.000037
-2.7608585
34.405868
-3.8893755
38.146063
-5.748082
42.939979
-7.7345048
47.980158
-8.4767812
47.964288
15.257206
0.030152565
-0.96266244
33.391676
-1.5518883
32.902132
-2.1116199
33.559769
-2.703184
34.997432
-3.7724327
39.215311
-5.5947147
44.762261
-7.5205489
49.905993
-7.8834981
48.327237
7.4341643
-0.060456342
-1.0129997
34.404676
-1.6027705
33.491902
-2.1125933
34.069591
-2.5813331
35.466172
-3.6310917
40.26507
-5.4570097
46.588179
-7.2840497
51.733033
-6.3660864
47.409274
0.90555913
0.16251878
-1.1337566
35.538433
-1.6776832
34.035829
-2.1344007
34.526309
-2.5448292
35.876601
-3.5383898
41.258631
-5.2199952
48.269785
-6.6742594
53.187297
-3.3050509
44.040065
-3.7329974
1.3335056
1.3231627
-5.9957141
0.93955409
2.9853177
42.37791
2.0251013
54.147513
1.1305192
49.164367
0.80849043
41.580659
0.96409117
35.721
0.95289698
34.537503
0.78812532
34.200601
36.326558
1.3285927
-7.9449351
0.62062838
2.7403344
40.966168
1.8366778
55.05117
1.0468315
49.954213
0.82785864
41.799632
1.0384397
35.510419
1.0716419
34.504301
0.91229634
34.359946
37.238854
1.329922
-9.5465053
0.27164817
2.5734597
39.722631
1.7009291
55.9237
0.91722336
50.737919
0.77545663
41.941399
1.1103269
35.175549
1.1819915
34.432636
0.97052421
34.571413
38.209379
1.3165225
-10.342082
-0.52094604
2.3283699
38.710783
1.5152018
56.736868
0.85080043
51.40232
0.83550932
41.95669
1.2180474
34.793011
1.3272334
34.32345
1.1175863
34.78106
39.326965
1.2437155
-10.9661
-0.61969734
2.1664706
37.788028
1.3826245
57.520714
0.72812321
52.056822
0.81376646
41.871047
1.3345535
34.272224
1.472428
34.185576
1.2006281
35.05286
40.527593
1.1323656
-11.670447
-0.42801809
1.9067918
37.013602
1.1920135
58.235493
0.66198497
52.58685
0.90144428
41.631587
1.466966
33.706702
1.6374721
34.01507
1.3493162
35.341016
41.876909
0.98578173
-12.840801
0.18457223
1.7483859
36.250998
1.0690732
58.914805
0.56243035
53.093493
0.91262909
41.281389
1.6211896
32.998141
1.8154688
33.82079
1.411638
35.744847
43.288547
0.78419514
-14.443909
0.8189129
1.4811711
35.554022
0.85144329
59.544533
0.48105647
53.46388
1.0293696
40.733076
1.7814327
32.246078
1.9840202
33.618203
1.5451761
36.183691
44.833723
0.52500337
-15.95984
0.99092739
1.2763353
34.80269
0.75139585
60.069473
0.42500302
53.790273
1.0732637
40.084815
1.9762326
31.343109
2.1848142
33.409621
1.6066881
36.761817
46.440411
-0.98974198
-14.105476
-0.86462138
-5.4227698
39.235718
-6.9508618
61.597565
-4.7891246
51.628536
-0.54422407
35.839914
2.642332
28.156553
3.8399327
32.212021
3.0770475
37.524702
49.517459
-1.8782729
-11.488693
-0.7385102
-6.3000121
43.657457
-7.2120221
62.509575
-4.0274195
48.443933
0.88614437
30.92635
4.5052422
24.537455
5.0058133
31.71145
3.155185
39.375331
52.672644
-2.3932372
-8.1958647
-0.89959135
-6.7074571
47.971677
-7.1152401
62.917358
-3.072931
44.401624
2.6486795
25.20474
5.6519734
21.534161
5.5035935
31.859829
3.2254359
41.653488
55.89808
-2.875659
-3.6147086
-1.7054971
-7.3521638
52.448182
-7.2785164
62.84371
-1.6228213
38.745929
4.8859241
18.695995
7.3165925
19.103493
6.190254
32.986168
2.7785121
45.06523
58.676592
-3.5271211
2.2938155
-2.3814029
-7.777745
56.698806
-6.6641765
61.730142
-0.1971818
32.278934
6.4858159
12.012997
7.9396508
17.649658
5.843554
35.082265
2.3226085
48.586176
60.999201
-3.8949099
8.9010365
-2.7123112
-8.1459195
60.949815
-6.3919803
59.976202
0.44724605
25.439708
6.9924368
5.4678061
8.6509714
15.991124
5.9046917
37.828544
1.7018713
52.788996
62.701072
-4.6950951
16.226423
-2.6302913
-8.3790561
64.633776
-5.6898882
57.287035
0.89574739
18.854072
7.2114633
-0.84790983
8.4135799
14.789007
4.6820438
41.56008
0.76669902
56.704341
63.467771
-4.9816596
22.446026
-1.2379435
-8.6325085
68.284625
-5.171971
53.826497
2.2016765
11.480425
7.9316967
-6.57793
8.5336882
14.187016
4.261803
45.831966
0.17497274
60.791171
63.642744
-5.8747652
-0.073900505
28.394692
-8.7826534
71.192513
-3.384825
48.428669
3.802489
4.2931107
7.9284392
-10.70388
7.4004774
14.714977
2.1753776
51.057065
-1.0456539
64.012203
62.59709
-2.0694836
-28.978712
0.62552336
30.422672
-1.4733577
-57.135632
56.539506
2.1328825
-19.819312
16.213072
4.6384103
31.307378
-33.812906
6.183923
52.240552
-53.786064
6.7186335
57.736232
-58.270943
7.032541
54.733996
-55.047903
8.0634578
17.074164
-18.105081
-17.690241
16.639114
-2.0565585
-27.549649
0.6274957
-1.5427892
-57.649402
1.8292833
-23.191384
4.2691355
28.867526
5.8677808
50.641906
6.4765194
57.127494
7.119211
54.091304
8.7207767
15.472599
-19.013384
-2.0191347
-26.16912
0.63860541
-1.5324761
-58.13606
1.6164842
-26.340345
3.9620992
26.521911
5.6052899
48.998716
6.3136004
56.419183
7.3706677
53.034237
9.6594232
13.183843
-20.660875
-1.9652129
-24.852991
0.64908426
-1.5007665
-58.600507
1.4277995
-29.268911
3.7105349
24.239176
5.3836677
47.325583
6.1918287
55.611022
7.7376312
51.488434
10.834932
10.086542
-22.661662
-1.8874482
-23.625071
0.65952779
-1.4401798
-59.047775
1.2337487
-31.942839
3.4708552
22.002069
5.1930001
45.603438
6.1570928
54.64693
8.3096229
49.335904
12.301353
6.0948124
-25.043125
-1.7722185
-22.512102
0.65924931
-1.2671301
-59.552863
1.1581021
-34.368072
3.3343964
19.825775
5.1156205
43.822214
6.2572772
53.505273
9.1524758
46.440706
14.097115
1.1501728
-27.802966
-1.6140131
-21.560298
0.66220945
-1.0216029
-60.145274
1.0879394
-36.477614
3.2101937
17.703521
5.0691519
41.963256
6.4516985
52.122726
10.248024
42.64438
16.125308
-4.7271117
-30.850111
-1.4562332
-20.774329
0.67026416
-0.79220948
-60.809297
1.0158763
-38.2857
3.1201134
15.599284
5.0462638
40.037105
6.7637075
50.405283
11.621145
37.786943
18.287144
-11.393111
-34.084639
-1.2907673
0.65805482
-20.141617
-0.57072663
-61.529338
0.98501618
-39.841443
3.1266078
13.457692
5.0612772
38.102436
7.2477283
48.218832
13.297032
31.737639
20.508125
-18.604204
-37.373825
3.7438698
34.95061
-3.0928803
-35.6016
0.29779506
12.600033
-9.1539603
-6.6052451
-63.027009
69.930051
-8.4401947
-83.356092
85.191042
-7.6695128
-73.75147
72.980788
-5.1582355
-57.060117
54.548839
-2.5116956
-42.73373
40.08719
0.39061139
-32.571404
29.669097
-26.945147
27.335758
4.1557267
34.082565
-3.2876817
1.5551114
15.200648
-5.1162111
-56.355686
-7.7137621
-80.758541
-7.9411382
-73.524094
-6.0914433
-58.909811
-3.8679162
-44.957257
-0.71050624
-35.728814
-27.655653
4.0761983
33.30441
-3.2980436
1.7678587
17.508987
-4.5591124
-50.028715
-7.2631802
-78.054473
-7.4039128
-73.383361
-5.6412948
-60.672429
-3.4573736
-47.141179
-0.9104739
-38.275714
-28.566127
4.2368117
32.338363
-3.2707648
2.525353
19.220446
-3.3121244
-44.191237
-6.5876009
-74.778996
-7.5678864
-72.403076
-6.379098
-61.861218
-4.1272937
-49.392983
-1.4896397
-40.913368
-30.055767
4.2032567
30.994358
-2.8592517
2.7901848
20.633518
-2.6355206
-38.765531
-5.8390176
-71.575499
-6.7068059
-71.535287
-5.9127767
-62.655247
-4.3544173
-50.951342
-2.1988906
-43.068894
-32.254657
4.1538117
28.430625
-1.5900781
3.2745099
21.51282
-1.4737616
-34.01726
-5.042489
-68.006772
-6.5859587
-69.991818
-6.0001579
-63.241048
-4.341555
-52.609945
-2.4207211
-44.989728
-34.675378
3.9547734
24.432491
0.043361043
3.5428711
21.924722
-0.68636492
-29.788024
-4.0326103
-64.660526
-5.5034787
-68.520949
-5.4689194
-63.275607
-4.2811842
-53.79768
-2.4661815
-46.804731
-37.14156
3.7603492
20.548838
0.12330438
4.0586463
21.626425
0.52427914
-26.253657
-3.0936222
-61.042625
-5.1271403
-66.487431
-5.3189742
-63.083773
-4.145918
-54.970736
-2.1803205
-48.770328
-39.32188
3.2506691
17.712294
-0.41412534
4.3665628
20.510531
1.5280722
-23.415166
-1.8108485
-57.703705
-3.7949178
-64.503362
-4.5415046
-62.337186
-3.9407017
-55.571539
-2.3788442
-50.332186
-41.700725
0.012014082
43.653733
-43.665747
-0.51608662
48.272056
-47.743955
-1.3214861
49.983892
-49.178492
-2.527035
52.657516
-51.451967
-3.8994766
52.830791
-51.45835
-4.962014
49.830564
-48.768027
-3.805422
36.12525
-37.281842
-0.73202697
0.99153256
-4.0649276
-12.163642
10.890559
0.54105581
0.083065032
43.570668
-0.370931
48.726052
-1.1816552
50.794616
-2.4139873
53.889848
-3.7920068
54.208811
-4.851894
50.890451
-3.4221776
34.695534
-0.45056882
-1.9800762
-13.211443
0.59723205
0.12389283
43.446775
-0.29605005
49.145995
-1.0622909
51.560857
-2.2736059
55.101163
-3.6998495
55.635054
-4.7455963
51.936198
-3.0850289
33.034967
-0.19658303
-4.868522
-14.069697
0.6616711
0.18806288
43.258712
-0.14351814
49.477576
-0.90199384
52.319333
-2.1408345
56.340004
-3.5740583
57.068278
-4.5872132
52.949353
-2.8155468
31.2633
-0.017323931
-7.6667448
-14.777244
0.69022375
0.22387755
43.034834
-0.072932958
49.774387
-0.79096294
53.037363
-1.9974862
57.546527
-3.4666999
58.537492
-4.458929
53.941582
-2.6505627
29.454934
0.066067734
-10.383375
-15.420127
0.70895012
0.28146581
42.753369
0.068749017
49.987103
-0.63232229
53.738434
-1.8621392
58.776344
-3.3204522
59.995805
-4.283294
54.904424
-2.6222618
27.793902
0.032629932
-13.038267
-16.086254
0.6987579
0.30882258
42.444546
0.12946993
50.166456
-0.51700624
54.38491
-1.711448
59.970786
-3.2075247
61.491882
-4.1634685
55.860368
-2.6307054
26.261139
-0.036975356
-15.631997
-16.721827
0.5985972
0.36494588
42.0796
0.25916903
50.272233
-0.36243061
55.00651
-1.5618524
61.170208
-3.0351684
62.965198
-3.9751393
56.800338
-2.5473578
24.833358
-0.037247503
-18.142107
-17.478519
0.71944545
0.37887548
0.3189226
-0.24610681
-1.4130853
-2.9512489
-3.854615
-2.4364232
-0.067998592
0.16577652
1.8030951
8.2729598
0.81450411
7.0845006
-9.3463332
8.5955941
-38.792936
7.09072
-47.263153
5.0756773
-49.443307
3.1577116
-49.534002
1.7147842
-47.735565
0.54766282
-46.576834
-43.118084
2.7454805
4.9760735
0.5514059
8.0231973
-14.62405
8.755021
-39.524759
7.099303
-45.607435
5.120602
-47.464606
3.2660698
-47.679469
1.8426476
-46.312143
0.63078424
-45.364971
-42.4873
3.5081998
0.79919259
0.66868115
8.7843849
-19.900235
8.817578
-39.557952
7.1370567
-43.926913
5.2271969
-45.554746
3.3907048
-45.842977
1.9460886
-44.867527
0.68927515
-44.108157
-41.798024
5.0808939
-4.8969364
0.61523506
9.4621485
-24.28149
8.8183998
-38.914204
7.1034022
-42.211916
5.2585799
-43.709924
3.4956761
-44.080074
2.0625242
-43.434375
0.77871407
-42.824347
-41.01931
7.438353
-12.286859
-0.048430333
9.6866844
-26.529821
8.7001878
-37.927707
7.0968938
-40.608622
5.3341423
-41.947172
3.5874287
-42.33336
2.1479138
-41.99486
0.83406091
-41.510494
-40.185249
8.3327248
-20.035993
-0.58359079
9.6756697
-27.872766
8.6147565
-36.866794
7.0400902
-39.033955
5.3399899
-40.247072
3.672562
-40.665932
2.2410124
-40.56331
0.91852457
-40.188006
-39.266725
8.9530512
-26.269636
-2.7194083
9.6930846
-28.6128
8.5075314
-35.681241
7.016394
-37.542818
5.3990689
-38.629747
3.752386
-39.019249
2.3139287
-39.124853
0.97643587
-38.850514
-38.290289
9.5006386
-28.022549
-7.7477254
9.5876692
-28.69983
8.3921407
-34.485712
6.9186272
-36.069305
5.3845855
-37.095705
3.8174594
-37.452123
2.3793175
-37.686711
1.0471668
-37.518363
-37.243122
9.6783254
-27.928336
-9.7725386
9.4202779
-28.441783
8.2823709
-33.347805
6.8743952
-34.661329
5.4077207
-35.629031
3.8636367
-35.908039
2.431272
-36.254346
1.097829
-36.18492
-36.145293
0.16763774
39.699539
-39.867177
0.31159629
38.695898
-38.839857
0.42807444
38.192044
-38.308522
0.51682694
37.366814
-37.455566
0.55673623
36.383852
-36.423761
0.55616115
34.533967
-34.533392
0.53240702
32.381598
-32.357844
0.48407514
28.608897
-28.560565
24.784074
-24.778814
0.47881536
0.2322328
39.467306
0.40244804
38.525683
0.52334128
38.07115
0.60099463
37.28916
0.60626959
36.378577
0.56821079
34.572026
0.50790905
32.441899
0.43567012
28.681136
24.853504
0.36624009
0.2838694
39.183437
0.49153414
38.318018
0.66255123
37.900133
0.78532368
37.166388
0.82497283
36.338928
0.80653103
34.590468
0.76002779
32.488403
0.6834293
28.757734
25.004884
0.53204921
0.35024935
38.833188
0.58989385
38.078374
0.76220997
37.727817
0.88405725
37.044541
0.91716707
36.305818
0.86780434
34.639831
0.79402871
32.562178
0.69701378
28.854749
25.275638
0.42625924
0.41100479
38.422183
0.69946788
37.789911
0.93321682
37.494068
1.1017599
36.875997
1.1697496
36.237828
1.1401844
34.669396
1.0771549
32.625208
1.0312693
28.900635
25.721707
0.58520021
0.47657421
37.945609
0.79961852
37.466866
1.0390233
37.254663
1.2180352
36.696986
1.2927213
36.163142
1.2409556
34.721162
1.1487741
32.717389
1.1285181
28.920891
26.327472
0.52275353
0.54269813
37.402911
0.91949235
37.090072
1.2225719
36.951584
1.4508113
36.468746
1.5787918
36.035161
1.5569187
34.743035
1.4159076
32.8584
1.5128298
28.823968
27.04648
0.7938217
0.58986845
36.813042
1.0189773
36.660963
1.3287986
36.641763
1.5679798
36.229565
1.7240426
35.879099
1.7203883
34.746689
1.5078281
33.070961
1.6745057
28.657291
27.703799
1.0171873
0.66774907
1.1437926
1.5312092
1.8527348
2.102803
2.1881631
1.9113184
2.1268263
1.902289
-0.023992199
-24.951022
0.19620066
0.076055735
-28.660613
0.096278495
-32.378066
0.093624108
-34.530738
0.051737845
-36.381875
0.029387465
-37.433216
0.011503145
-38.290637
0.0023353782
-38.830689
-39.864842
-0.09479514
-25.137677
0.28145035
0.0092536519
-28.764662
0.048172256
-32.416985
0.078308275
-34.560874
0.06971772
-36.373284
0.078089229
-37.441587
0.072898189
-38.285446
0.055447834
-38.813239
-39.809394
0.010734822
-25.342558