/*--------------------------------*- C++ -*----------------------------------*\
  =========                 |
  \\      /  F ield         | OpenFOAM: The Open Source CFD Toolbox
   \\    /   O peration     | Website:  https://openfoam.org
    \\  /    A nd           | Version:  11
     \\/     M anipulation  |
\*---------------------------------------------------------------------------*/
FoamFile
{
    format      ascii;
    class       surfaceScalarField;
    location    "1.425";
    object      phi;
}
// * * * * * * * * * * * * * * * * * * * * * * * * * * * * * * * * * * * * * //

dimensions      [0 3 -1 0 0 0 0];

internalField   nonuniform List<scalar> 
8667
(
15.882987
1.8939637
0.00082693228
13.984732
1.8963331
0.0019217632
12.067221
1.9148888
0.0026228153
10.165861
1.8969861
0.0043735432
8.2422901
1.9183623
0.0052085298
6.3532579
1.8817876
0.0072445761
4.4418495
1.9030726
0.0083358146
2.6013979
1.8291174
0.011334199
1.7906968
0.013325117
0.79737602
15.885156
3.786586
13.98107
3.8004186
12.06977
3.8261897
10.154764
3.8119919
8.2454266
3.8276995
6.337337
3.7898772
4.4417706
3.7986389
2.6012546
3.6696334
3.6163644
0.77558702
15.886801
5.6775631
13.979551
5.7076683
12.070569
5.7351718
10.152475
5.7300864
8.2375407
5.7426334
6.3316411
5.6957768
4.4311761
5.6991039
2.5915101
5.5092995
5.450983
0.75689142
15.885574
7.5697668
13.982043
7.6111991
12.066597
7.6506183
10.153828
7.6428551
8.2284986
7.6679633
6.3224705
7.6018049
4.414714
7.6068604
2.5720403
7.3519731
7.2881754
0.73484798
15.88525
9.4622928
13.984612
9.5118374
12.067095
9.568135
10.154111
9.5558392
8.229505
9.5925693
6.3148957
9.5164141
4.4047978
9.5169583
2.5572969
9.199474
9.1249256
0.72054674
15.885558
11.354513
13.988152
11.409243
12.073441
11.482846
10.156452
11.472828
8.2295953
11.519426
6.3059367
11.440073
4.3881753
11.43472
2.5343052
11.053344
10.9556
0.70363058
15.885612
13.246679
13.990334
13.304521
12.07909
13.39409
10.159386
13.392531
8.2307869
13.448025
6.3041051
13.366754
4.3791569
13.359668
2.5143183
12.918183
12.791788
0.67813099
15.887301
15.137156
13.991935
15.199887
12.085053
15.300972
10.16573
15.311855
8.2316191
15.382136
6.2972959
15.301078
4.3629753
15.293988
2.4894801
14.791678
14.622714
0.65855408
15.889334
17.025601
13.995736
17.093485
12.089047
17.207661
10.172023
17.228879
8.2371219
17.317037
6.2993369
17.238863
4.354658
17.238667
2.4637733
16.682563
16.465909
0.62057757
18.850354
15.953025
20.672054
15.956078
22.490796
15.959042
24.308236
15.96034
26.122534
15.963462
27.933777
15.966537
29.743594
15.967963
31.548
15.973374
15.970307
33.355474
18.92521
14.1213
20.754855
14.126432
22.581713
14.132184
24.404237
14.137816
26.22561
14.142088
28.041185
14.150962
29.851603
14.157545
31.657326
14.167651
14.167402
33.460231
19.056638
12.272324
20.902326
12.280744
22.745307
12.289203
24.581721
12.301403
26.415033
12.308776
28.243014
12.322981
30.073321
12.327238
31.901925
12.339047
12.341745
33.727582
19.094147
10.407056
20.95642
10.418471
22.821126
10.424497
24.68313
10.439399
26.545228
10.446677
28.40452
10.463689
30.261378
10.47038
32.114531
10.485893
10.494717
33.96156
19.206871
8.5172221
21.09981
8.5255315
22.995951
8.5283553
24.895199
8.5401512
26.794443
8.5474334
28.697306
8.5608265
30.597408
8.5702778
32.499744
8.5835571
8.5960978
34.398364
19.137509
6.6185757
21.047705
6.6153356
22.964032
6.6120287
24.892504
6.6116785
26.824178
6.6157599
28.765267
6.6197375
30.703517
6.6320272
32.647003
6.6400719
6.6576417
34.585459
19.147323
4.7099196
21.080005
4.682654
23.022776
4.6692577
24.997033
4.637421
26.983871
4.6289221
28.996562
4.6070467
31.012599
4.6159905
33.049234
4.603437
4.619932
35.086943
18.562431
2.8300514
20.507899
2.7371861
22.49373
2.683426
24.527922
2.6032298
26.57842
2.5784235
28.656258
2.5292087
30.740297
2.5319517
32.83806
2.505674
2.520749
34.937243
18.366251
0.92970979
20.454691
0.64874581
22.713311
0.42480611
25.025842
0.29069883
27.373351
0.23091497
29.702387
0.20017215
32.065491
0.16884846
34.40463
0.16653465
36.768623
0.15675625
33.247742
0.10773193
33.145489
0.1022527
33.044649
0.10083994
32.951371
0.093277849
32.859041
0.092330599
32.775817
0.083223816
32.692774
0.083042868
32.620183
0.072591494
0.072938865
32.547244
33.374548
0.19341499
33.296022
0.18077823
33.218578
0.17828407
33.148504
0.16335227
33.079378
0.16145615
33.0188
0.14380217
32.959914
0.14192886
32.910936
0.12156923
0.1219231
32.861952
33.657767
0.26323006
33.594153
0.24439193
33.53389
0.23854753
33.477556
0.21968633
33.424749
0.21426295
33.375562
0.19298882
33.329646
0.18784455
33.288049
0.1631668
0.15945173
33.25052
33.907234
0.317556
33.856672
0.29495405
33.809361
0.28585787
33.765187
0.26386009
33.724299
0.25515144
33.686716
0.23057215
33.652371
0.22218966
33.621638
0.19389925
0.18677632
33.594314
34.350683
0.36523681
34.307745
0.33789226
34.267476
0.32612668
34.230044
0.30129206
34.194708
0.29048714
34.162107
0.26317316
34.131295
0.25300207
34.10282
0.22237382
0.21379016
34.075806
34.554731
0.39596468
34.526678
0.36594497
34.504325
0.34848004
34.483879
0.32173783
34.466214
0.30815244
34.447339
0.28204833
34.430353
0.26998716
34.408982
0.24374513
0.23375998
34.389012
35.075405
0.40750267
35.063483
0.37786686
35.052171
0.35979286
35.037842
0.33606673
35.023768
0.32222623
35.003651
0.30216488
34.981803
0.29183586
34.949926
0.27562192
0.26933718
34.914349
35.021929
0.32281699
35.103496
0.29629988
35.189217
0.2740712
35.267852
0.25743164
35.341643
0.24843593
35.399557
0.24425018
35.440529
0.25086418
35.450795
0.26535646
0.29535257
35.424779
36.950222
0.14121753
37.099044
0.14747754
37.203233
0.16988266
37.270893
0.18977201
37.283347
0.23598195
37.236131
0.29146595
37.127873
0.35912221
36.941309
0.4519202
36.722958
0.51370379
36.56239
0.68878277
-0.52821536
36.267311
0.65368602
-0.35860627
35.887141
0.62873631
-0.24856673
35.499232
0.60292608
-0.21501732
35.091298
0.58636921
-0.17843484
34.693798
0.56422193
-0.16672164
34.276682
0.55420244
-0.13708693
33.878728
0.53789453
-0.13994051
0.53467261
33.462841
-0.11878529
35.493915
0.61964698
35.517012
0.63058914
35.509548
0.63619995
35.470279
0.64219536
35.410074
0.6465743
35.320721
0.65357423
35.215545
0.65937907
35.087829
0.66561054
0.67314603
34.949355
34.988503
0.5454932
35.056291
0.56280085
35.106579
0.58591161
35.146809
0.6019653
35.169091
0.62429217
35.183354
0.63931143
35.181452
0.66128102
35.170165
0.67689734
0.69973983
35.143572
34.48702
0.4474852
34.58777
0.46205114
34.678756
0.49492591
34.771673
0.50904772
34.853782
0.54218393
34.937692
0.55540104
35.010173
0.5888002
35.083295
0.60377523
0.63895049
35.144084
34.17524
0.34805123
34.278512
0.35877959
34.379875
0.39356274
34.484835
0.4040874
34.586657
0.44036196
34.69115
0.45090825
34.790571
0.48937901
34.89383
0.50051648
0.54159707
34.991183
33.696735
0.24562927
33.803756
0.25175949
33.914048
0.28327035
34.029168
0.28896751
34.146045
0.32348483
34.268148
0.32880557
34.390987
0.36653997
34.519846
0.3716574
0.41300685
34.648436
33.343684
0.15246514
33.442731
0.15271289
33.545887
0.18011485
33.655376
0.17947812
33.768604
0.21025657
33.888938
0.20847191
34.012779
0.24269921
34.144705
0.23973088
0.2779735
34.279738
32.949437
0.064979453
33.039195
0.062955738
33.138081
0.081228932
33.239099
0.078459323
33.351308
0.098047539
33.465569
0.094211314
33.592855
0.11541327
33.721703
0.11088273
0.13435164
33.865325
32.612223
32.675179
32.756408
32.834867
32.932915
33.027126
33.142539
33.253422
33.387774
33.517079
-0.12930551
33.672589
-0.15551005
33.82257
-0.14998046
34.001684
-0.17911434
34.174892
-0.17320829
34.380673
-0.20578065
34.58022
-0.19954695
34.816313
-0.23609361
-0.22973283
35.046046
34.009931
-0.27391162
34.171247
-0.31682578
34.333052
-0.31178622
34.513951
-0.36001271
34.69488
-0.35413748
34.897569
-0.40846999
35.099896
-0.40187373
35.327094
-0.46329132
-0.45601131
35.553372
34.424052
-0.41822478
34.570963
-0.46373721
34.728628
-0.46945071
34.888452
-0.5198371
35.060781
-0.52646625
35.234972
-0.58266169
35.423663
-0.59056387
35.61411
-0.65373858
-0.66310891
35.821207
34.784159
-0.55394782
34.918656
-0.59823434
35.061707
-0.61250195
35.202758
-0.66088803
35.354084
-0.6777922
35.502946
-0.73152371
35.664083
-0.75170066
35.822673
-0.81232806
-0.83622653
35.99579
35.093473
-0.65623775
35.188877
-0.6936382
35.2908
-0.71442523
35.385072
-0.75515968
35.487697
-0.78041744
35.582292
-0.82611805
35.687108
-0.85651674
35.783876
-0.90909634
-0.94511741
35.892767
35.206044
-0.71819747
35.254977
-0.74257076
35.306433
-0.76588176
35.344852
-0.79357911
35.387474
-0.82303876
35.417339
-0.85598314
35.453464
-0.89264172
35.477385
-0.93301739
-0.97736204
35.50963
35.11001
-0.68463592
35.064547
-0.69710738
35.012878
-0.71421302
34.951909
-0.73261034
34.885054
-0.7561841
34.811274
-0.78220242
34.732103
-0.81347117
34.648032
-0.84894567
-0.88872119
34.559391
34.78969
-0.52497049
34.622496
-0.52991339
34.435401
-0.52711794
34.243006
-0.54021588
34.031216
-0.54439364
33.815429
-0.56641497
33.580443
-0.57848524
33.342585
-0.61108833
-0.63265317
33.086517
33.071468
-0.13359718
32.658796
-0.11724177
32.27173
-0.14005253
31.857137
-0.12562235
31.46882
-0.15607621
31.04433
-0.14192542
30.647859
-0.18201394
30.203617
-0.16684643
29.790639
-0.21967566
0.67821573
29.317779
-0.20535558
0.93629302
32.82844
1.0281151
34.467569
1.0065598
35.531185
0.90548247
35.993844
0.73462162
36.166651
0.52570737
36.030122
0.27090095
35.808179
35.316947
0.71149428
28.882635
-0.27634969
0.98468126
32.555253
1.0796183
34.372632
1.0484116
35.562392
0.93328505
36.108971
0.74540693
36.354529
0.51762141
36.257907
0.26447356
36.061327
35.581421
0.77343773
28.37411
-0.26491366
1.0480743
32.280616
1.1445697
34.276136
1.1207199
35.586241
1.0129671
36.216724
0.82667437
36.540822
0.596875
36.487707
0.31106839
36.347133
35.892489
0.82140378
27.916199
-0.36349258
1.1054431
31.996577
1.2029131
34.178666
1.1681823
35.620972
1.044511
36.340395
0.83849663
36.746836
0.5876696
36.738534
0.30457034
36.630233
36.19706
0.90431973
27.374701
-0.36282148
1.187049
31.713848
1.2845152
34.0812
1.2533247
35.652163
1.1363812
36.457338
0.93086832
36.952349
0.6771305
36.992271
0.3565361
36.950827
36.553596
0.96970286
26.915511
-0.51051287
1.2540395
31.429511
1.3489366
33.986303
1.3048228
35.696276
1.1710095
36.591152
0.94299097
37.180368
0.66791573
37.267347
0.35155767
37.267185
36.905153
1.0714431
26.377943
-0.53387514
1.3569646
31.14399
1.4504438
33.892824
1.4059771
35.740743
1.2766983
36.720431
1.0475941
37.409472
0.76632634
37.548614
0.40676394
37.626747
37.311917
1.1594629
25.989123
-0.77064254
1.4335915
30.869861
1.5190106
33.807404
1.4597007
35.800053
1.3124116
36.86772
1.0590648
37.662819
0.75867071
37.849008
0.40551309
37.979905
37.71743
1.3113347
25.466935
-0.78914688
1.5664472
30.614749
1.6487005
33.725151
1.5864592
35.862294
1.4412941
37.012885
1.1813318
37.922781
0.86575087
38.164589
0.4617566
38.383899
38.179187
-0.078259169
38.257446
-0.068854647
38.374495
-0.036988878
38.132724
0.058530834
37.827261
0.18879843
36.882617
0.37550461
35.675588
0.58079756
33.519858
0.76943042
30.426116
25.622946
0.61341947
-0.11928251
38.376729
-0.15708052
38.412293
-0.14188917
38.117532
-0.057754929
37.743127
0.06449216
36.76037
0.24081077
35.49927
0.41709837
33.343571
0.56425176
30.278962
25.671772
0.51542562
-0.11261097
38.48934
-0.13664558
38.436327
-0.12366798
38.104555
-0.04651201
37.665971
0.061004349
36.652854
0.2265961
35.333678
0.39900187
33.171165
0.54769527
30.130269
25.687501
0.53196586
-0.15133177
38.640671
-0.22092964
38.505925
-0.23355708
38.117182
-0.17413118
37.606545
-0.068749318
36.547472
0.090372846
35.174556
0.25003391
33.011504
0.38930496
29.990998
25.695641
0.38116533
-0.14560851
38.78628
-0.19986734
38.560184
-0.20780303
38.125118
-0.14785317
37.546595
-0.055838434
36.455457
0.094948583
35.023769
0.25375228
32.8527
0.38854937
29.856201
25.700619
0.3835709
-0.18563804
38.971918
-0.28060917
38.655155
-0.31912827
38.163637
-0.2796478
37.507115
-0.1861425
36.361952
-0.040434469
34.878061
0.1103211
32.701944
0.24272847
29.723794
25.666697
0.27665069
-0.18270292
39.154621
-0.258663
38.731115
-0.28473843
38.189712
-0.23890316
37.46128
-0.15994568
36.282994
-0.022122593
34.740238
0.12790936
32.551912
0.25776571
29.593937
25.606672
0.31779045
-0.22278629
39.377407
-0.33061212
38.838941
-0.39532123
38.254421
-0.37260126
37.43856
-0.28985709
36.20025
-0.15583187
34.606212
-0.0086649697
32.404746
0.1354716
29.449801
25.501541
0.24060347
-0.21654393
39.593951
-0.30590343
38.928301
-0.35169382
38.300212
-0.31665819
37.403524
-0.2501844
36.133776
-0.12339791
34.479426
0.025451444
32.255896
0.16736516
29.307887
25.379521
0.2893843
-0.060549305
25.220881
0.21918936
0.10048409
29.146854
0.24826441
32.108116
0.37474914
34.352941
0.44973919
36.058786
0.46200801
37.391255
0.37293927
38.38928
0.25170646
39.049533
39.845658
-0.10427694
25.053921
0.27123705
0.050527646
28.992049
0.20246429
31.956179
0.32281114
34.232594
0.37446757
36.00713
0.40934418
37.356378
0.34575983
38.452865
0.24258062
39.152713
40.088238
-0.0097193206
24.856666
0.2069742
0.16737837
28.814951
0.31579801
31.80776
0.43795302
34.110439
0.50332902
35.941754
0.51152292
37.348185
0.4035696
38.560818
0.27319568
39.283087
40.361434
-0.062118625
24.658498
0.26028723
0.10150637
28.651326
0.2559433
31.653323
0.37226529
33.994117
0.4139602
35.900059
0.44648777
37.315657
0.37179257
38.635513
0.26059627
39.394283
40.62203
0.023960915
24.432885
0.20165145
0.209063
28.466224
0.35635246
31.506033
0.47615098
33.874319
0.53530499
35.840905
0.53621934
37.314743
0.41820416
38.753529
0.2853845
39.527102
40.907415
-0.041749473
24.218913
0.25572173
0.12693907
28.297536
0.28203404
31.350938
0.39677033
33.759582
0.43252282
35.805153
0.46262649
37.284639
0.3804074
38.835748
0.26833076
39.639179
41.175745
0.03268091
23.984877
0.20135533
0.22208493
28.108132
0.36777576
31.205247
0.48958895
33.637769
0.54107476
35.753667
0.53505795
37.290656
0.41398878
38.956817
0.28607862
39.767089
41.461824
-0.045088
23.776606
0.25335899
0.12388635
27.939157
0.27804738
31.051086
0.39385587
33.521961
0.42439539
35.723127
0.45190704
37.263144
0.3689427
39.039781
0.26349472
39.872537
41.725319
0.0095162438
23.56775
0.19933939
0.20239922
27.746274
0.34746847
30.906017
0.46990733
33.399522
0.51892981
35.674105
0.50546222
37.276612
0.38921992
39.156023
0.27404185
39.987715
41.999361
-0.098309796
42.09767
-0.087494196
39.9769
-0.052060027
39.120589
0.021616148
37.202936
0.093276009
35.602445
0.20297689
33.289821
0.31973897
30.789255
0.37656562
27.689448
23.52535
0.41896612
-0.088144386
42.185815
-0.081154109
39.969909
-0.070503157
39.109938
-0.042108172
37.174541
0.051534879
35.508802
0.16929644
33.172059
0.26770218
30.690849
0.34855857
27.608591
23.51195
0.36195828
-0.034259826
42.220075
-0.009357953
39.945008
0.0537991
39.046781
0.13476512
37.093575
0.20839912
35.435168
0.32698326
33.053475
0.4621701
30.555662
0.517495
27.553266
23.574878
0.45456737
-0.0018054351
42.22188
0.016477681
39.926724
0.059308456
39.00395
0.09521875
37.057664
0.19279872
35.337588
0.32299378
32.92328
0.44939252
30.429264
0.53955152
27.463107
23.699412
0.41501712
0.053866332
42.168014
0.1129309
39.86766
0.19628193
38.920599
0.29176674
36.962179
0.36858928
35.260765
0.49925312
32.792616
0.66544992
30.263067
0.74803989
27.380517
23.964993
0.48245954
0.089351651
42.078662
0.15458398
39.802428
0.22458698
38.850596
0.27887907
36.907887
0.38117001
35.158474
0.51605333
32.657733
0.67898653
30.100134
0.85471591
27.204788
24.373438
0.44627035
0.15617954
41.922482
0.25975637
39.698851
0.37969516
38.730658
0.49184855
36.795734
0.57467778
35.075645
0.70080827
32.531603
0.89737226
29.90357
1.1187183
26.983442
24.900009
0.59214728
0.2066212
41.715861
0.31491733
39.590555
0.42794794
38.617627
0.50423751
36.719444
0.60812726
34.971755
0.72703825
32.412692
0.88970927
29.740899
1.2723222
26.600829
25.463359
0.70897186
0.27290135
41.44296
0.4305617
39.432894
0.59685548
38.451333
0.73603532
36.580265
0.81906115
34.88873
0.92569336
32.306059
1.1004786
29.566113
1.5579843
26.143323
25.556992
1.4643519
-1.7534786
43.196439
-3.4450643
41.12448
-5.1011715
40.10744
-6.5633898
38.042483
-7.7924735
36.117813
-8.7269334
33.240519
-9.1893052
30.028485
-9.2748622
26.22888
25.389946
-9.1078168
-1.7557361
44.952175
-3.4923445
42.861088
-5.1841551
41.799251
-6.6633291
39.521657
-7.9399185
37.394403
-8.8407233
34.141324
-9.2719095
30.459672
-9.082186
26.039157
23.394802
-7.0870414
-1.7392637
46.691438
-3.4704401
44.592265
-5.1906598
43.519471
-6.7447649
41.075762
-8.0464153
38.696053
-8.9458285
35.040737
-9.2726036
30.786447
-8.47533
25.241883
17.136555
-2.2170836
-1.7290319
48.42047
-3.496791
46.360024
-5.2631126
45.285792
-6.8412621
42.653911
-8.1961294
40.05092
-9.0698779
35.914486
-9.1742302
30.890799
-7.9752933
24.042946
9.5063321
-0.34506991
-1.6967735
50.117244
-3.4653809
48.128631
-5.2520193
47.072431
-6.9224635
44.324356
-8.2951186
41.423575
-9.2062556
36.825623
-9.0470994
30.731643
-6.9299725
21.925819
2.5935419
-0.017182251
-1.6641491
51.781393
-3.4713215
49.935804
-5.2883913
48.889501
-7.0118103
46.047775
-8.4347693
42.846534
-9.3091291
37.699983
-8.6445655
30.067079
-4.4453384
17.726592
-2.4252078
0.57341133
-1.6125905
53.393983
-3.4365977
51.759811
-5.2412619
50.694165
-7.1029565
47.909469
-8.5135927
44.257171
-9.2436195
38.430009
-7.7802915
28.603751
-3.0703546
13.016655
-6.034126
0.53856361
-1.5393273
54.933311
-3.4470654
53.667549
-5.2677494
52.514849
-7.1889934
49.830713
-8.6211839
45.689361
-9.1884927
38.997318
-6.9684406
26.383699
-2.4161372
8.464352
-8.8994638
0.44920052
-1.47433
56.407641
-3.4003784
55.593597
-5.2023599
54.31683
-7.2494354
51.877789
-8.6859209
47.125847
-8.9107301
39.222127
-5.5597468
23.032716
-1.235687
4.1402922
-10.762266
0.62711551
0.42326239
-11.567809
0.38228043
2.810252
1.7533026
5.4608255
20.382142
5.5348353
39.148118
4.6219926
48.038689
3.2119761
53.287805
2.0159742
55.512832
0.74141088
56.868161
57.149052
0.28665841
-12.278206
0.42373854
2.5100179
-0.47005691
5.2750834
17.617077
5.5228985
38.900302
4.5636461
48.997942
3.0819468
54.769505
1.9191606
56.675618
0.67159525
58.115726
57.820647
0.36805457
-13.092789
0.44652864
2.4977821
-2.5997844
5.0521466
15.062712
5.4872134
38.465236
4.5606767
49.924478
3.0529946
56.277187
1.8438105
57.884802
0.58570809
59.373828
58.406355
0.51806356
-14.090783
0.47993047
2.6136642
-4.695385
4.9256621
12.750714
5.4568918
37.934006
4.4766838
50.904687
2.9122824
57.841588
1.737152
59.059933
0.51692026
60.59406
58.923275
0.56188689
-15.140716
0.48804627
2.564373
-6.6978711
4.7173679
10.597719
5.3937513
37.257622
4.4532679
51.84517
2.8664362
59.42842
1.64713
60.279239
0.43327656
61.807914
59.356552
0.54752017
-16.183432
0.49519519
2.45851
-8.608861
4.581211
8.4750184
5.3535706
36.485263
4.3423395
52.856401
2.7156555
61.055104
1.5335475
61.461347
0.3683758
62.973085
59.724928
0.51123764
-17.13841
0.4437405
2.2478218
-10.345445
4.295461
6.4273792
5.2744858
35.506238
4.2985821
53.832305
2.6552441
62.698442
1.4308826
62.685708
0.28824018
64.115728
60.013168
0.45160847
-18.136004
0.54598604
2.0593619
-11.953198
4.1304481
4.3562929
5.2046971
34.431989
4.1341657
54.902836
2.4854566
64.347151
1.3065895
63.864576
0.23339021
65.188927
60.246558
0.42772939
-18.690291
0.12655736
1.8854884
-13.410958
3.8741724
2.367609
5.0807775
33.225384
4.0995014
55.884112
2.445587
66.001065
1.209087
65.101076
0.17014981
66.227864
60.416708
3.3486076
-21.608513
-0.4303861
4.8476679
-14.910018
5.8441292
1.3711476
4.8627188
34.206794
2.0177974
58.729034
-0.22580201
68.244665
-1.1906024
66.065876
-1.5400297
66.577292
58.876678
3.538872
-25.172331
0.024946432
4.8533369
-16.224483
5.4662501
0.75823448
4.0227438
35.650301
1.1952129
61.556564
-1.0825003
70.522378
-1.9732774
66.956653
-2.0069731
66.610987
56.869705
3.6596577
-27.622502
-1.2094866
5.2470854
-17.81191
5.6544628
0.35085706
2.9923492
38.312414
-0.21931084
64.768225
-2.179944
72.483011
-2.5272086
67.303918
-2.1245914
66.20837
54.745113
3.7421041
-28.67044
-2.6941664
5.3651144
-19.434921
5.2116998
0.50427163
2.0270198
41.497094
-1.0690714
67.864316
-2.8462477
74.260187
-3.0740162
67.531686
-2.3701552
65.504509
52.374958
3.7281295
-28.80475
-3.5938191
5.5005918
-21.207383
4.9722185
1.032645
0.803628
45.665685
-2.5369699
71.204914
-3.7077623
75.43098
-3.4027156
67.22664
-2.2331376
64.334931
50.141821
3.6391893
-28.531061
-3.9128784
5.1926993
-22.760893
3.9610666
2.2642776
-0.12975461
49.756506
-3.184007
74.259166
-4.008209
76.255182
-3.6835011
66.901932
-2.2990538
62.950484
47.842767
3.4193643
-28.007086
-3.9433391
4.9591771
-24.300706
3.344998
3.8784567
-1.6153965
54.7169
-4.4731417
77.116911
-4.5729686
76.355009
-3.813707
66.14267
-1.9787508
61.115528
45.864016
3.2759671
-28.017477
-3.2655766
4.5416837
-25.566422
2.2970905
6.1230499
-2.3768052
59.390796
-4.7896054
79.529711
-4.6256873
76.191091
-3.900901
65.417884
-1.9205949
59.135222
43.943421
3.1487863
-2.115399
-29.050864
4.3046575
-26.722294
1.2491681
9.1785393
-4.3579434
64.997908
-6.1769776
81.348746
-5.1350662
75.149179
-3.9752753
64.258093
-1.4542027
56.614149
42.489219
-3.7697387
1.5833411
0.62938766
1.5570099
-8.0093
2.3222683
1.9172931
-12.535855
3.7389634
0.78759112
-15.468539
6.293235
-3.3605506
-14.263238
3.3645153
-4.5698159
-11.557809
-5.4419931
2.7365639
-9.3603887
-4.2839681
2.0865477
-2.1358015
-6.1685063
-1.056081
-6.2977551
-0.60950129
-3.7073668
4.6397681
0.65093984
-7.8196325
6.434534
-12.16373
8.0830611
-14.489121
8.6186261
-12.135635
1.0110294
-8.5345195
-9.0431091
-6.3885431
-6.4299446
0.12574072
-12.68279
-13.021711
-3.6804109
7.6412415
0.67893756
-7.5972987
10.351422
-11.635076
12.120839
-13.416724
10.400274
-10.680668
-1.7250275
-5.9752632
-13.748513
-1.58355
-10.821658
3.5911001
-17.85744
-17.407554
-3.5625233
10.477967
0.72579794
-7.1540053
13.942904
-10.801539
15.768372
-11.698267
11.297002
-8.4314075
-4.9918868
-3.9861244
-18.193797
0.94538
-15.753162
6.3069981
-23.219058
-21.789065
-3.4665249
13.179459
0.76503297
-6.7504857
17.226865
-9.9724043
18.990291
-9.8529271
11.177525
-5.5972603
-9.2475536
-1.196672
-22.594385
4.3775968
-21.327431
9.4162714
-28.257733
-25.163535
-3.2795804
15.651077
0.80796257
-6.2101274
20.157412
-9.11038
21.890544
-8.2745793
10.341724
-3.1432897
-14.378843
1.6331783
-27.370853
7.1406399
-26.834893
11.655357
-32.77245
-28.416604
-3.1682845
17.989752
0.82960868
-5.8320739
22.821201
-8.116655
24.175125
-6.2221655
8.4472347
-0.30898995
-20.292019
4.4608053
-32.140648
10.046096
-32.420184
14.245773
-36.972127
-31.103184
-2.9495886
20.073383
0.86595833
-5.2481354
25.119748
-7.0535225
25.980512
-4.2736955
5.6674077
2.2388212
-26.804536
7.2134373
-37.115264
12.494817
-37.701563
15.968785
-40.446095
-33.547926
-2.8109674
0.93496077
21.949389
-4.865906
27.174686
-6.2847255
27.399331
-2.5210497
1.9037319
4.827146
-34.152731
9.707981
-41.996099
14.663895
-42.657477
17.925689
-43.707889
-35.742474
3.4471799
30.156519
-2.3590815
-31.244618
4.3851859
26.949905
-27.887911
0.7465735
-8.7521237
12.390736
-4.8401603
-62.685925
68.272659
-5.9959072
-79.259326
80.415073
-4.9885989
-75.286971
74.279662
-3.9379724
-65.077154
64.026527
-1.4337977
-58.90524
56.401065
-43.849016
42.415218
3.617694
30.051288
-3.5124626
4.7294905
25.838109
1.946155
-5.9687881
-2.857936
-57.881834
-4.8031263
-77.314136
-4.5055984
-75.584499
-3.8375436
-65.745208
-1.8886564
-60.854127
-45.737672
3.7507147
30.401661
-4.1010877
5.1936365
24.395187
3.0422723
-3.817424
-2.1306429
-52.708919
-4.6002867
-74.844492
-4.5065784
-75.678207
-3.7623965
-66.48939
-1.9471959
-62.669328
-47.684868
3.9650296
30.482935
-4.0463041
5.4840584
22.876158
3.792495
-2.1258605
-0.60165541
-48.314769
-3.3798836
-72.066264
-3.962529
-75.095561
-3.6236545
-66.828265
-2.260775
-64.032207
-49.945643
4.0348005
30.120746
-3.6726115
5.8224856
21.088473
4.8604372
-1.1638122
0.38639898
-43.840731
-2.8074499
-68.872415
-3.7480308
-74.15498
-3.3799283
-67.196367
-2.2012668
-65.210869
-52.14691
4.0352008
28.758592
-2.6730462
5.6734215
19.450252
5.1270721
-0.61746278
1.6551339
-40.368792
-1.3650944
-65.852187
-2.9372418
-72.582833
-3.0680608
-67.065548
-2.3437078
-65.935222
-54.490617
3.9294531
25.977605
-1.1484669
5.6462961
17.733409
5.7607401
-0.73190681
2.6804123
-37.288465
-0.54407217
-62.627702
-2.3286863
-70.798219
-2.5683261
-66.825908
-2.1148821
-66.388666
-56.6055
3.7841723
22.158738
0.034695274
5.2488295
16.268752
5.614239
-1.0973162
3.7807825
-35.455008
0.91283833
-59.759758
-1.2609476
-68.624433
-2.0360152
-66.050841
-2.0098138
-66.414867
-58.615313
3.5486699
19.035125
-0.42505688
5.2184707
14.598951
6.0528241
-1.9316696
4.7041218
-34.106306
1.7577784
-56.813415
-0.41990751
-66.446747
-1.2834542
-65.187294
-1.562179
-66.136143
-60.177492
-0.71809184
57.06873
-56.350638
-1.9806978
56.968497
-55.705891
-3.1756514
55.699445
-54.504491
-4.6079303
53.670011
-52.237732
-5.5659849
48.511646
-47.553592
-5.512596
39.449368
-39.502757
-2.8071741
19.750892
-22.456314
-0.39283455
1.0364825
-3.450822
-11.629135
10.840987
0.39531348
-0.64769747
57.716428
-1.8806848
58.201484
-3.0408676
56.859628
-4.5405274
55.16967
-5.5474793
49.518598
-5.3095909
39.21148
-2.5627683
17.00407
-0.31392427
-1.2123615
-12.371185
0.42812628
-0.56283868
58.279266
-1.8026148
59.44126
-3.0061968
58.06321
-4.532131
56.695604
-5.5098645
50.496332
-5.1207644
38.822379
-2.6369056
14.520211
-0.43923523
-3.4100319
-13.259681
0.44926078
-0.49429403
58.77356
-1.6937925
60.640759
-2.861582
59.230999
-4.4393364
58.273359
-5.4720441
51.529039
-4.9959473
38.346283
-2.7353434
12.259607
-0.58380052
-5.5615748
-14.311143
0.46766093
-0.41234626
59.185907
-1.6023975
61.83081
-2.8105764
60.439178
-4.4097566
59.872539
-5.4071591
52.526442
-4.8017478
37.740871
-2.6700814
10.127941
-0.60381711
-7.6278391
-15.385911
0.47095162
-0.34820595
59.534112
-1.487643
62.970247
-2.6566876
61.608223
-4.2901645
61.506016
-5.3577693
53.594047
-4.6645402
37.047642
-2.5575562
8.0209566
-0.59009088
-9.5953044
-16.449119
0.47311695
-0.27031017
59.804423
-1.3848095
64.084746
-2.5917872
62.8152
-4.2393124
63.153541
-5.2752708
54.630005
-4.3950927
36.167464
-2.3557264
5.9815903
-0.54942049
-11.40161
-17.412155
0.41361521
-0.21684054
60.021263
-1.26015
65.128056
-2.4196719
63.974722
-4.0645642
64.798434
-5.1968021
55.762243
-4.2338605
35.204522
-2.1695513
3.9172812
-0.49556782
-13.075594
-18.435773
0.52805062
-0.15622913
-1.1643161
-2.3768877
-4.0252013
-5.076373
-3.9781563
-1.9925448
-0.46918744
0.13016383
1.1567714
9.0325768
0.65163846
5.514619
-7.8086696
8.9756356
-25.917331
8.7402508
-39.267372
7.253353
-46.066694
5.1770572
-50.161436
3.370965
-52.698399
1.4507009
-53.785627
-54.899937
2.3228303
6.220159
0.48958749
6.925246
-12.411085
9.2743866
-28.266472
8.6781487
-38.671134
7.1985849
-44.58713
5.246164
-48.209015
3.4219303
-50.874166
1.516749
-51.880445
-53.383188
3.0086309
2.6238423
0.58768581
7.7808519
-17.183306
9.3224581
-29.808078
8.5644847
-37.913161
7.1176623
-43.140307
5.2261245
-46.317477
3.4180118
-49.066053
1.5918314
-50.054265
-51.791357
4.3548744
-2.374392
0.64335985
8.6566146
-21.485046
9.3905472
-30.54201
8.4877748
-37.010388
7.028517
-41.68105
5.2749212
-44.563881
3.4529527
-47.244084
1.6474705
-48.248783
-50.143886
6.8681569
-9.2494588
0.0069099084
9.0769217
-23.693811
9.2822781
-30.747367
8.341906
-36.070016
6.9390041
-40.278148
5.2462912
-42.871168
3.4512815
-45.449075
1.6817704
-46.479272
-48.462116
7.9486506
-16.872498
-0.32561119
9.2063055
-24.951466
9.1388628
-30.679924
8.2445955
-35.175749
6.8626925
-38.896245
5.2611515
-41.269627
3.4850925
-43.673016
1.7170717
-44.711251
-46.745044
8.4485467
-23.140764
-2.1802807
9.3030897
-25.806009
9.0081088
-30.384943
8.0900962
-34.257736
6.7646183
-37.570767
5.1927525
-39.697762
3.4632446
-41.943508
1.7289531
-42.976959
-45.016091
9.0678082
-25.16551
-7.0430622
9.3027341
-26.040935
8.89562
-29.977829
7.9846387
-33.346755
6.6883667
-36.274495
5.1895529
-38.198948
3.4872376
-40.241192
1.7481242
-41.237846
-43.267967
9.2645694
-25.359832
-9.0702472
9.2183512
-25.994717
8.7800091
-29.539487
7.8334529
-32.400199
6.5853987
-35.02644
5.1085347
-36.722084
3.4438221
-38.57648
1.7473811
-39.541405
-41.520586
-0.10090604
42.198055
-42.097149
-0.093869067
40.070604
-40.077641
-0.064970923
39.20883
-39.237729
0.00049279497
37.274821
-37.340285
0.069331579
35.641959
-35.710797
0.177456
33.282315
-33.39044
0.29992607
30.732028
-30.854499
0.36384077
27.62469
-27.688604
23.490458
-23.536843
0.41022586
-0.090472095
42.288527
-0.088073636
40.068206
-0.083375361
39.204132
-0.061048862
37.252494
0.023955197
35.556954
0.13811116
33.16816
0.2412244
30.628915
0.33817336
27.527741
23.460516
0.36811515
-0.034885937
42.323413
-0.013143384
40.046463
0.043977971
39.147011
0.11568127
37.180791
0.18172732
35.490908
0.29561561
33.054271
0.43497451
30.489556
0.49933171
27.463383
23.516634
0.44321401
-0.0014640042
42.324877
0.01181448
40.033185
0.050369779
39.108455
0.076756779
37.154404
0.16343401
35.404231
0.28603136
32.931674
0.41449634
30.361091
0.52219436
27.355685
23.617863
0.42096505
0.055978855
42.268898
0.11251894
39.976645
0.19015312
39.030821
0.2759454
37.068612
0.34204997
35.338127
0.46264002
32.811084
0.62919366
30.194538
0.72146649
27.263413
23.8691
0.47023007
0.092554326
42.176344
0.15517356
39.914025
0.22068676
38.965308
0.26556139
37.023737
0.35366291
35.250025
0.47450557
32.690241
0.63445199
30.034591
0.82626747
27.071597
24.247535
0.44783266
0.16165584
42.014688
0.26482485
39.810856
0.37993704
38.850196
0.48255922
36.921115
0.5513055
35.181279
0.66105347
32.580493
0.85122769
29.844417
1.0783202
26.844505
24.748605
0.57725002
0.21302373
41.801664
0.32152105
39.702359
0.43164891
38.740068
0.49951387
36.85325
0.5866501
35.094143
0.68425811
32.482885
0.83589645
29.692779
1.2293309
26.45107
25.290061
0.68787494
0.2810781
0.44203224
0.60562045
0.73678676
0.80448884
0.88717513
1.040467
1.4968204
1.4270488
0.01570355
-23.75598
0.2034335
0.21859569
-27.891496
0.37078318
-31.006686
0.49364036
-33.513297
0.5375783
-35.754735
0.51946324
-37.32217
0.39826357
-39.116529
0.2781382
-39.957516
-41.819011
-0.037610534
-23.966392
0.24802237
0.13640106
-28.065508
0.29699609