/*--------------------------------*- C++ -*----------------------------------*\
  =========                 |
  \\      /  F ield         | OpenFOAM: The Open Source CFD Toolbox
   \\    /   O peration     | Website:  https://openfoam.org
    \\  /    A nd           | Version:  11
     \\/     M anipulation  |
\*---------------------------------------------------------------------------*/
FoamFile
{
    format      ascii;
    class       volVectorField;
    location    "1.6";
    object      U;
}
// * * * * * * * * * * * * * * * * * * * * * * * * * * * * * * * * * * * * * //

dimensions      [0 1 -1 0 0 0 0];

internalField   nonuniform List<vector> 
4455
(
(9.998393 0.003501583 0)
(9.9890789 0.0034341825 -1.4385274e-19)
(9.9698926 0.010437041 4.9379964e-19)
(9.9435045 0.0074483365 9.978376e-22)
(9.8969879 0.019233257 4.6325861e-19)
(9.8498366 0.014485955 -1.74109e-18)
(9.7591677 0.039930375 7.7337795e-19)
(9.6703818 0.016520368 0)
(9.5283741 0.071835713 -4.6462598e-18)
(10.000566 0.0058878453 -9.4039839e-19)
(9.9913381 0.014298758 9.1616244e-19)
(9.968815 0.024203962 -1.1261446e-18)
(9.9410475 0.022315382 1.8743041e-18)
(9.8926732 0.035043461 -3.5885388e-18)
(9.8415839 0.027527757 3.906214e-18)
(9.7412631 0.039764865 -3.7047406e-19)
(9.6563784 0.013640374 5.4066785e-19)
(9.4851689 -0.0020611078 2.0158161e-17)
(10.001098 0.0098188419 -9.8442586e-19)
(9.9924736 0.022986215 1.2433156e-18)
(9.9681456 0.038249097 1.1020941e-18)
(9.9408721 0.041028782 -1.0956789e-18)
(9.8915155 0.0576474 4.787847e-18)
(9.8383179 0.052513818 -2.6916126e-18)
(9.7389375 0.073157214 3.4777021e-19)
(9.6338561 0.018205768 -7.6101115e-18)
(9.4658527 0.061160535 -1.424874e-17)
(10.002202 0.013990303 2.3480312e-21)
(9.9937184 0.029760874 -1.3784197e-19)
(9.9701113 0.053684386 2.6164353e-18)
(9.9398749 0.05619519 3.5693956e-19)
(9.8940112 0.083087874 -2.6014199e-23)
(9.8348186 0.075752955 -5.1789231e-19)
(9.7321693 0.11608411 5.7126506e-18)
(9.6188092 0.043998364 1.5215244e-17)
(9.430565 0.10952982 1.182131e-17)
(10.004076 0.017604686 1.904145e-18)
(9.9944369 0.03539057 -2.1289632e-18)
(9.9730016 0.067862806 2.7089027e-18)
(9.9416116 0.073084586 1.0945849e-21)
(9.8988582 0.10771622 -3.283815e-18)
(9.8339794 0.097468317 -1.0032602e-18)
(9.7227006 0.14106366 -4.5022752e-18)
(9.596832 0.064102541 -7.1585326e-18)
(9.3832067 0.14478353 -3.4872179e-17)
(10.005788 0.01983433 0)
(9.9967308 0.042543074 0)
(9.9763551 0.078991937 -4.721962e-18)
(9.9430335 0.088257864 -5.4248505e-18)
(9.9037434 0.13077171 0)
(9.8382441 0.12796384 -7.2655611e-18)
(9.7208935 0.18044105 -6.1418532e-19)
(9.5768389 0.096786779 -4.2572407e-19)
(9.3379637 0.19576717 4.3046545e-17)
(10.0085 0.021809381 0)
(9.9966902 0.047033831 -1.2812124e-19)
(9.9795974 0.089180284 1.4420594e-19)
(9.9498281 0.10300073 5.3022665e-18)
(9.9087295 0.14757064 -3.8932177e-19)
(9.8399608 0.14776779 1.5474198e-17)
(9.7205194 0.20965926 0)
(9.5583467 0.12533146 0)
(9.2814426 0.25451716 1.9726831e-17)
(10.009943 0.02320013 3.6063943e-18)
(9.9998499 0.050624569 0)
(9.9825474 0.096886101 0)
(9.9558165 0.11846432 0)
(9.9194032 0.1726149 0)
(9.8474324 0.17800972 -7.7256549e-18)
(9.719654 0.24931233 -8.244087e-18)
(9.5447543 0.16534238 1.1812988e-17)
(9.2337235 0.31576708 1.1612447e-19)
(10.011696 0.023047633 -3.551216e-18)
(10.001124 0.053631658 -1.2338738e-19)
(9.9869673 0.10211525 -1.3910585e-19)
(9.9610846 0.12564276 3.1547932e-19)
(9.9274991 0.18376702 1.2128467e-17)
(9.8562827 0.19631794 1.3635011e-17)
(9.7286812 0.28010041 2.626985e-17)
(9.5256339 0.20206427 -1.1602645e-17)
(9.1744958 0.38718228 -3.3989549e-17)
(10.01289 0.022860146 0)
(10.012728 0.022077164 6.5995528e-18)
(10.013289 0.020411467 -6.5507117e-18)
(10.012285 0.018856651 6.2817414e-18)
(10.01269 0.016414213 -6.1401698e-18)
(10.010703 0.013424333 1.2268186e-17)
(10.01025 0.010224498 -1.1910395e-17)
(10.006662 0.0055896299 0)
(10.003225 0.0010926261 0)
(10.003165 0.054752146 0)
(10.006021 0.055519382 1.1426417e-19)
(10.007102 0.053536199 0)
(10.00985 0.051375237 3.2514239e-19)
(10.011067 0.04780563 6.6427819e-18)
(10.01347 0.044697794 -1.9846889e-17)
(10.014088 0.039453729 1.2848328e-17)
(10.020304 0.036494815 -1.9588081e-19)
(10.020305 0.024801123 1.2410788e-17)
(9.9916061 0.1092597 8.2854566e-18)
(9.9965278 0.11314835 -1.6330767e-17)
(10.002834 0.11531199 1.5600703e-17)
(10.007613 0.11582618 -4.8680137e-19)
(10.013205 0.11189154 -7.3664362e-18)
(10.01883 0.10887835 -2.2394702e-19)
(10.021184 0.10019101 0)
(10.025948 0.094024966 4.2386419e-19)
(10.024799 0.074187177 -2.0629375e-19)
(9.9699735 0.13899481 8.6327365e-18)
(9.9780141 0.14899596 -1.7539988e-17)
(9.9881335 0.1550716 1.6696133e-17)
(9.9980338 0.16148076 -8.0918718e-18)
(10.007242 0.16157889 -5.0642625e-19)
(10.02103 0.1640075 2.4476803e-19)
(10.028759 0.16025948 0)
(10.047851 0.16100999 -2.3062149e-19)
(10.050255 0.14704244 1.3896593e-17)
(9.9375082 0.20454822 -9.7401401e-18)
(9.9518376 0.22393258 0)
(9.9621441 0.23702158 -9.0216354e-18)
(9.9796548 0.25010758 9.3030042e-18)
(9.9889373 0.25765369 -8.4081372e-18)
(10.009067 0.26571123 8.6888078e-18)
(10.017855 0.26499473 0)
(10.038271 0.26902183 0)
(10.045156 0.25384136 4.9176049e-19)
(9.8636928 0.22263847 -1.1895163e-17)
(9.8809443 0.2562187 -1.1381113e-17)
(9.8904696 0.2770319 1.0940677e-17)
(9.9120953 0.30757822 1.0492305e-17)
(9.9258906 0.32144754 -1.0115402e-17)
(9.950789 0.34852073 0)
(9.9700536 0.35266882 1.8739848e-17)
(9.9975023 0.37844835 -4.5229885e-20)
(10.018106 0.36502191 -3.4989607e-17)
(9.728838 0.31548526 -1.3918128e-17)
(9.7469586 0.37353414 0)
(9.760442 0.3976533 0)
(9.7825523 0.45146873 3.8144004e-19)
(9.809774 0.46763474 0)
(9.8370621 0.52066121 0)
(9.8735067 0.52844903 0)
(9.9012385 0.57897666 0)
(9.9407911 0.56929616 0)
(9.5178407 0.24973704 5.3281773e-19)
(9.4963035 0.34490492 0)
(9.509772 0.40514834 4.7788439e-19)
(9.5076352 0.50825242 -8.9630088e-19)
(9.5488339 0.55580482 -1.3582171e-17)
(9.5724048 0.64778072 -1.2888827e-17)
(9.6263618 0.67779856 2.4746243e-17)
(9.6660799 0.75617616 2.3924265e-17)
(9.7262294 0.77000514 -2.2631388e-17)
(9.1086214 0.46660109 6.3699731e-17)
(9.0308182 0.68251024 -3.9485448e-17)
(9.0365048 0.81273437 3.6672277e-17)
(9.0757106 1.0337375 -3.4636371e-17)
(9.1548952 1.1266381 -4.9267038e-17)
(9.2440566 1.3016217 9.272088e-17)
(9.3423967 1.3543878 -5.8575464e-17)
(9.43841 1.4974367 -2.7920922e-17)
(9.5358571 1.5018069 2.6252227e-17)
(10.003911 -0.0012627098 -1.6356429e-20)
(10.008248 -0.0014981514 1.681624e-17)
(10.014784 -0.00051441097 -7.7657741e-21)
(10.022365 0.00068735397 -1.6938244e-17)
(10.030853 0.0016281132 1.6572744e-20)
(10.040725 0.002451213 1.703887e-17)
(10.052284 0.0033088374 -1.7122027e-17)
(10.065587 0.0038432551 -1.6722081e-20)
(10.081904 0.0045282316 -8.6118901e-18)
(10.028229 0.032438816 -1.7816115e-17)
(10.035753 0.042288081 1.7926589e-17)
(10.045672 0.05040458 -1.7929618e-17)
(10.053729 0.056415047 0)
(10.066114 0.062878962 1.8089161e-17)
(10.077406 0.072900996 1.7470085e-20)
(10.090822 0.079549729 3.3004242e-20)
(10.105782 0.088232061 -1.8205628e-17)
(10.1266 0.094320634 9.1599773e-18)
(10.033555 0.079368559 1.901559e-17)
(10.037372 0.091291079 -1.9079115e-17)
(10.051022 0.098380736 -1.9207791e-17)
(10.056305 0.11218517 1.9253194e-17)
(10.073867 0.11699004 -1.9414029e-17)
(10.082605 0.13235124 1.9349445e-17)
(10.100465 0.14086404 -1.9540273e-17)
(10.113368 0.15633053 -1.0270759e-20)
(10.13609 0.16628888 1.9572838e-17)
(10.070151 0.15922132 -2.0307168e-17)
(10.07677 0.18391421 -7.9909846e-20)
(10.095488 0.19151502 8.0369594e-20)
(10.102627 0.21575527 0)
(10.120061 0.22399961 -1.5341119e-22)
(10.132231 0.25217445 -2.0660547e-17)
(10.152641 0.26072504 2.100554e-17)
(10.172703 0.2916729 8.1803248e-20)
(10.190394 0.30181947 8.2061087e-20)
(10.061588 0.26953845 -8.5761749e-20)
(10.070216 0.29892274 -2.2088619e-17)
(10.079321 0.31123424 -6.8126988e-20)
(10.091762 0.3373462 2.2293147e-17)
(10.099003 0.35224982 2.2447425e-17)
(10.121124 0.37598341 -2.2561781e-17)
(10.126766 0.39969049 -8.7890408e-20)
(10.156245 0.41748696 -8.8211705e-20)
(10.163205 0.44927932 -8.8533119e-20)
(10.039041 0.39565327 2.3929857e-17)
(10.05998 0.43276044 0)
(10.064807 0.45480709 0)
(10.089901 0.48314973 2.4111413e-17)
(10.092235 0.51181929 -2.4434047e-17)
(10.123769 0.53976928 -2.4498455e-17)
(10.130795 0.57030009 4.903445e-17)
(10.169312 0.59912483 -4.6633892e-20)
(10.179495 0.62766849 -4.9404705e-17)
(9.9559478 0.61282125 -1.0336188e-19)
(9.9816779 0.65873231 0)
(9.9885316 0.68121989 1.0409468e-19)
(10.010897 0.72149949 2.674628e-17)
(10.021406 0.74478063 -2.6907921e-17)
(10.053621 0.78205878 2.697363e-17)
(10.071996 0.79916398 -2.7030138e-17)
(10.11004 0.83462964 -1.0578149e-19)
(10.125312 0.85228907 2.7194731e-17)
(9.7710078 0.82697204 -2.90704e-17)
(9.8177939 0.88504183 2.947448e-17)
(9.8587206 0.92486998 -2.9581571e-17)
(9.9080862 0.97666908 2.9429861e-17)
(9.9561595 1.0051209 -2.9290357e-17)
(10.010643 1.0452487 6.692106e-22)
(10.060306 1.0726649 2.9683453e-17)
(10.117957 1.0994847 2.3255928e-19)
(10.171001 1.1129706 1.4816799e-17)
(9.629654 1.6077667 0)
(9.6949417 1.6378793 -3.260047e-17)
(9.7772396 1.7190752 1.9343448e-19)
(9.8485299 1.7219167 3.1754923e-19)
(9.9394591 1.7711648 6.5418333e-17)
(10.003137 1.739252 -3.2728931e-17)
(10.106602 1.7408231 -3.2736071e-17)
(10.170721 1.6377611 3.2859585e-17)
(10.287422 1.5680184 1.6494119e-17)
(10.345802 1.3917979 -1.9279769e-17)
(10.386514 1.2997234 0)
(10.395588 1.1956017 1.9179573e-17)
(10.381231 1.1447222 -1.9173949e-17)
(10.330358 1.0428818 0)
(10.276517 1.0045047 0)
(10.176872 0.92529126 0)
(10.124872 0.89076568 -1.9673184e-17)
(10.015637 0.82549919 1.9673225e-17)
(10.209259 1.1332683 -1.6878451e-17)
(10.245685 1.1517583 0)
(10.279609 1.1543745 0)
(10.303893 1.1581674 0)
(10.319058 1.1558446 0)
(10.329393 1.1598801 0)
(10.327852 1.1618995 0)
(10.3222 1.1697814 1.6667573e-17)
(10.302638 1.171352 -3.3390154e-17)
(10.160139 0.88500886 -5.7091945e-20)
(10.176313 0.90325353 -2.9854449e-17)
(10.211151 0.92758726 0)
(10.225282 0.94443576 -1.4850252e-17)
(10.249545 0.97186784 1.4850067e-17)
(10.2658 0.98834541 0)
(10.278652 1.0191876 0)
(10.296197 1.0366297 0)
(10.294436 1.063876 0)
(10.219092 0.65721285 2.6558728e-17)
(10.230193 0.69614271 0)
(10.273545 0.71965732 1.3199336e-17)
(10.285743 0.75299561 -2.6371655e-17)
(10.330668 0.7824927 1.3172323e-17)
(10.343578 0.80889954 0)
(10.378675 0.85035589 0)
(10.406888 0.87067596 0)
(10.430006 0.92203951 1.3040562e-17)
(10.19493 0.4596387 0)
(10.204855 0.49534913 2.3901209e-17)
(10.240397 0.50608803 -3.583139e-17)
(10.250219 0.54405116 1.1929275e-17)
(10.287037 0.55369999 1.1883713e-17)
(10.299701 0.59234856 -2.449964e-20)
(10.343308 0.60170635 -2.3687138e-17)
(10.356586 0.64185954 2.3636648e-17)
(10.404952 0.65648805 -1.1804342e-17)
(10.21955 0.33279778 0)
(10.238625 0.34683326 1.0861737e-17)
(10.273277 0.37221373 -1.0861737e-17)
(10.288829 0.3982264 0)
(10.334079 0.41152111 -2.1581778e-17)
(10.35493 0.43429202 2.1584137e-17)
(10.40576 0.44757834 1.0738849e-17)
(10.425878 0.47905872 -2.1448884e-17)
(10.478792 0.50266203 1.070973e-17)
(10.153704 0.18140105 0)
(10.171635 0.19383362 0)
(10.19416 0.21387118 0)
(10.217736 0.22659727 -9.9695095e-18)
(10.249376 0.23422134 1.9917238e-17)
(10.275226 0.24899028 -1.987191e-17)
(10.317141 0.24746675 9.9241777e-18)
(10.339398 0.27195379 -9.87216e-18)
(10.383906 0.27402347 1.9716158e-17)
(10.149074 0.10291889 -1.8564534e-17)
(10.172977 0.11058853 1.6717103e-20)
(10.198054 0.12673972 9.2577217e-18)
(10.223877 0.13551974 -9.2215756e-18)
(10.251925 0.15092172 9.2215725e-18)
(10.286406 0.15106495 0)
(10.324001 0.16654862 9.1564066e-18)
(10.35762 0.17265104 -1.8287681e-17)
(10.397055 0.19742327 9.1312546e-18)
(10.091795 0.0057758372 1.2324288e-20)
(10.112593 0.0067426204 8.6688644e-18)
(10.133604 0.0079814944 8.6417135e-18)
(10.155759 0.0091015919 -8.6417143e-18)
(10.181748 0.0050405974 0)
(10.211492 -0.0043913788 0)
(10.239657 -0.01234789 -8.5710958e-18)
(10.264735 -0.011486439 1.7119901e-17)
(10.288345 -0.0058913627 -8.5487862e-18)
(10.322506 -0.0086584268 0)
(10.370302 -0.047010016 -8.4698686e-18)
(10.438123 -0.13910292 2.9996442e-20)
(10.484884 -0.24634588 3.1467562e-20)
(10.503615 -0.33011156 3.3657225e-20)
(10.488476 -0.37119141 8.3759733e-18)
(10.470299 -0.37200889 8.2912893e-18)
(10.436569 -0.3315795 -8.2842688e-18)
(10.402848 -0.1684301 0)
(10.434473 0.198486 0)
(10.486896 0.21005387 0)
(10.545339 0.1974567 -9.0114397e-18)
(10.629728 0.20983881 3.6771986e-20)
(10.71663 0.20967648 4.0888014e-20)
(10.819589 0.25773714 8.933737e-18)
(10.906954 0.30561161 8.8383787e-18)
(11.010559 0.391992 -8.8383262e-18)
(11.087937 0.46591574 0)
(10.409622 0.29189014 -9.8430813e-18)
(10.463704 0.29236622 0)
(10.494367 0.31043781 0)
(10.558083 0.30761131 -9.708395e-18)
(10.590193 0.33122498 1.9377358e-17)
(10.663775 0.33993504 -4.2187965e-20)
(10.684593 0.38554245 -4.3957681e-20)
(10.747056 0.4213229 -9.5826736e-18)
(10.746006 0.49540772 0)
(10.50389 0.53279175 -1.0646227e-17)
(10.567297 0.54387634 1.064622e-17)
(10.598214 0.58382627 0)
(10.67348 0.59573446 0)
(10.702845 0.65612837 1.0497143e-17)
(10.7819 0.68236645 -1.0497158e-17)
(10.819843 0.74311536 1.0406882e-17)
(10.907863 0.7823937 -5.2281106e-18)
(10.953747 0.8338329 -5.1787083e-18)
(10.413386 0.70251275 -1.1748701e-17)
(10.46282 0.72508598 1.1748976e-17)
(10.472606 0.77760656 0)
(10.529294 0.80297415 0)
(10.543006 0.85375478 0)
(10.599333 0.90332495 0)
(10.605728 0.9595636 0)
(10.660606 1.0433875 0)
(10.675036 1.0965281 0)
(10.466807 0.94199137 -1.3039939e-17)
(10.48103 0.99813439 1.2989161e-17)
(10.520631 1.0261942 -1.2988668e-17)
(10.529492 1.0938232 1.2939824e-17)
(10.563405 1.1292426 -1.2941019e-17)
(10.581729 1.208068 0)
(10.607853 1.2457587 0)
(10.63445 1.3272755 0)
(10.656857 1.370965 0)
(10.313943 1.0901323 0)
(10.300529 1.1229759 -1.4758921e-17)
(10.315489 1.1589183 1.4759932e-17)
(10.291393 1.2048799 0)
(10.298995 1.2437752 1.4767992e-17)
(10.272328 1.3040491 -1.476799e-17)
(10.275238 1.3484313 0)
(10.241175 1.4211072 7.3926485e-18)
(10.246871 1.4769564 -1.4787321e-17)
(10.288409 1.1964795 1.672011e-17)
(10.244865 1.2045869 1.6808971e-17)
(10.224364 1.2422771 -1.6818601e-17)
(10.161639 1.266539 1.6918226e-17)
(10.13668 1.3091512 -3.3892678e-17)
(10.060112 1.3470956 3.4010686e-17)
(10.031655 1.3983848 -3.4133079e-17)
(9.9398481 1.459715 1.7098634e-17)
(9.90611 1.5237358 0)
(9.9524097 0.81505023 -1.9936645e-17)
(9.826495 0.78657398 1.9936688e-17)
(9.7584757 0.7857318 0)
(9.6203326 0.779377 0)
(9.5450631 0.78850882 0)
(9.3981752 0.8161286 0)
(9.3103934 0.8150476 0)
(9.1653951 0.87111638 -1.048493e-17)
(9.0540545 0.89226986 1.0484867e-17)
(8.8974327 0.97587202 1.0650165e-17)
(9.800733 1.6148038 0)
(10.20535 1.5698552 7.3950239e-18)
(10.673874 1.4660713 0)
(10.719791 1.1971559 0)
(11.038751 0.90269855 0)
(10.79546 0.55055838 4.7186305e-18)
(11.175149 0.53815742 4.3339967e-18)
(10.393533 0.037316565 4.0845057e-18)
(8.7787187 1.0546888 -1.065008e-17)
(9.7675748 1.692586 0)
(10.215131 1.640391 0)
(10.70899 1.5187299 6.3685655e-18)
(10.759527 1.2461801 0)
(11.090235 0.96180395 -5.0922458e-18)
(10.786317 0.65676848 -9.4102569e-18)
(11.227779 0.5762621 -8.6358617e-18)
(10.462516 0.20961167 -8.1442474e-18)
(8.5874468 1.1809381 0)
(9.6568402 1.808721 0)
(10.164993 1.7560164 7.3967154e-18)
(10.718532 1.6328206 -6.368564e-18)
(10.781398 1.3572887 0)
(11.155665 1.0681634 5.0921934e-18)
(10.835376 0.74094608 4.6922208e-18)
(11.302238 0.59892709 4.3018784e-18)
(10.557832 0.33693182 4.0597482e-18)
(8.4762089 1.2562728 1.0905829e-17)
(9.6276606 1.9002703 0)
(10.187889 1.8445441 -1.4789364e-17)
(10.762169 1.6928882 0)
(10.843202 1.411119 0)
(11.223295 1.1167446 -5.0222465e-18)
(10.850603 0.8429681 -4.6333205e-18)
(11.368309 0.57607217 0)
(10.70841 0.43911884 -4.0017896e-18)
(8.2795063 1.407022 -1.0905832e-17)
(9.5109642 2.0427974 -8.7720606e-18)
(10.127116 1.9789995 7.3926364e-18)
(10.779354 1.8173358 0)
(10.857363 1.5326566 0)
(11.277999 1.2283354 5.0221754e-18)
(10.933367 0.92476266 4.6332841e-18)
(11.449543 0.55172745 0)
(10.852161 0.50875251 4.0017841e-18)
(8.1557471 1.5810623 0)
(9.4888538 2.1537714 8.7716414e-18)
(10.169686 2.0838743 -7.3719914e-18)
(10.834263 1.8753085 0)
(10.926669 1.5873206 0)
(11.365795 1.2380433 -4.9404699e-18)
(10.985953 1.0024792 -4.5652839e-18)
(11.528592 0.49190961 0)
(11.036107 0.56578153 -3.9297068e-18)
(7.9466493 1.8367392 0)
(9.373191 2.343689 0)
(10.106919 2.2437088 7.3719874e-18)
(10.857348 2.0075428 -3.1151471e-18)
(10.956979 1.7253586 -2.7715827e-18)
(11.432511 1.3345712 7.3877829e-18)
(11.107722 1.0770727 6.8286944e-18)
(11.617071 0.45104156 0)
(11.190006 0.60036331 5.8738058e-18)
(7.8199029 2.0949645 0)
(9.3779841 2.4821151 -4.4008232e-18)
(10.174464 2.3608878 0)
(10.932862 2.0681032 3.1143825e-18)
(11.03238 1.7831004 2.7710969e-18)
(11.52852 1.3201833 -2.4564789e-20)
(11.196779 1.1204401 -4.5058664e-18)
(11.699971 0.39526128 0)
(11.379408 0.63214906 -1.9440998e-18)
(7.6553248 2.4255424 -5.595547e-18)
(9.2729539 2.7227857 4.4003914e-18)
(10.120045 2.5697002 0)
(10.963131 2.2262474 0)
(11.089424 1.9482169 0)
(11.61623 1.4019178 -4.8194385e-18)
(11.348256 1.2081894 2.3283634e-20)
(11.788333 0.37934917 0)
(11.52843 0.6461553 0)
(11.721788 0.66550477 0)
(11.877623 0.35857073 0)
(11.462732 1.2265302 -1.1004084e-19)
(11.714175 1.3897939 2.5161383e-18)
(11.18785 1.9873482 0)
(11.055667 2.2751774 -3.8391494e-19)
(10.230617 2.669714 -2.7326676e-20)
(9.3335023 2.8607669 -3.6454484e-18)
(7.6014419 2.7030445 1.0424783e-17)
(11.902231 0.67636185 -9.3429687e-19)
(11.975448 0.33097349 -1.2600696e-19)
(11.634297 1.2961828 1.11708e-18)
(11.833457 1.4352538 -2.6073345e-21)
(11.289335 2.1434778 -1.1625552e-18)
(11.122869 2.4364156 1.484297e-18)
(10.2441 2.9020019 -4.5558134e-19)
(9.3285569 3.1475198 4.7446788e-18)
(7.71842 3.1770314 -5.3041537e-18)
(12.076774 0.67968742 1.8732529e-18)
(12.068569 0.32098969 0)
(11.774202 1.3156744 2.1868133e-18)
(11.94329 1.4226849 -1.1700685e-18)
(11.429683 2.1553722 1.1772071e-18)
(11.253168 2.4667292 -2.8099758e-18)
(10.438043 2.9842861 -2.2167961e-18)
(9.5403076 3.2514637 1.0688127e-18)
(8.0334365 3.3907693 6.6012376e-20)
(12.252201 0.67867612 -9.3928464e-19)
(12.177864 0.30972173 -1.2526246e-19)
(11.965215 1.3802334 -9.6392666e-19)
(12.078753 1.4742753 1.3362495e-18)
(11.575665 2.3113209 4.9854381e-19)
(11.369809 2.6325584 1.5114304e-18)
(10.502257 3.2382 1.7916546e-18)
(9.5992226 3.5428639 5.572963e-19)
(8.0738925 3.8714988 -6.3809801e-19)
(12.4316 0.67478245 2.289868e-19)
(12.286929 0.30640112 -2.4483502e-19)
(12.119603 1.3807137 -1.35515e-19)
(12.204573 1.4557121 4.3817625e-19)
(11.741212 2.2972012 -5.0409781e-19)
(11.52272 2.6333373 -5.5727956e-19)
(10.728645 3.2942147 -4.6000641e-19)
(9.8375103 3.6296687 5.1940173e-19)
(8.3282741 4.0488883 -7.0441191e-19)
(12.614497 0.6685968 -2.315366e-19)
(12.410299 0.31189227 2.4777846e-19)
(12.318163 1.4481531 -1.3486137e-19)
(12.355115 1.5144505 4.1881016e-22)
(11.910468 2.4510413 -1.6322229e-19)
(11.668475 2.788472 3.779365e-19)
(10.829544 3.5475116 -4.6048478e-19)
(9.9298907 3.9289153 5.2122055e-19)
(8.4057538 4.4340486 0)
(12.79929 0.65999725 -2.2458519e-19)
(12.536333 0.31612035 -1.2311721e-19)
(12.481173 1.4314869 -1.3256159e-19)
(12.495163 1.493509 -1.4835507e-19)
(12.091171 2.4162103 -1.6483602e-19)
(11.835173 2.7634046 3.8604522e-19)
(11.073909 3.5755333 -8.9223564e-19)
(10.18964 3.9790468 1.0860455e-18)
(8.6968567 4.5131863 -6.5139702e-19)
(12.985019 0.64882106 6.7128676e-19)
(12.668379 0.33080281 4.7946481e-19)
(12.690999 1.4987183 6.6295444e-19)
(12.654255 1.5385113 7.1776243e-19)
(12.286737 2.5647552 4.9889471e-19)
(12.016289 2.9091699 -1.842147e-19)
(11.211746 3.8269133 -4.5964228e-19)
(10.316659 4.2556883 -4.1632512e-20)
(8.8130346 4.8175388 -6.965936e-19)
(13.171348 0.63504288 -1.3267472e-18)
(12.812536 0.33216711 -4.8544439e-19)
(12.857695 1.4671014 -1.710064e-18)
(12.808955 1.5118722 -4.3745859e-19)
(12.468873 2.5145126 1.1256496e-18)
(12.191025 2.8658055 5.6549568e-19)
(11.47275 3.8240106 -2.6362761e-18)
(10.588834 4.2733173 5.2288967e-19)
(9.1144071 4.8467742 1.3877638e-18)
(9.242052 5.1222301 -1.3822479e-18)
(10.740556 4.5350919 5.6591112e-19)
(11.658593 4.0714152 3.9483879e-18)
(12.411063 3.0001806 -5.612697e-19)
(12.692764 2.648127 2.8920881e-19)
(12.977914 1.5498859 8.3868435e-19)
(13.067101 1.5149581 1.1890749e-18)
(12.951609 0.34759345 -5.9361818e-20)
(13.358033 0.6185045 1.8084906e-18)
(9.5571364 5.1410996 5.4974201e-18)
(11.020516 4.5298086 5.2010334e-19)
(11.936891 4.0360614 -5.669064e-18)
(12.59501 2.9370188 -1.8026209e-19)
(12.879496 2.577435 -1.1377426e-18)
(13.142539 1.5059956 -1.0020123e-18)
(13.244155 1.4685685 -2.1723976e-18)
(13.108709 0.3396001 0)
(13.544178 0.59942046 -8.7601267e-19)
(9.6951238 5.426887 -7.0529474e-18)
(11.200452 4.7876668 5.3000215e-18)
(12.160975 4.2755449 3.0673363e-18)
(12.846575 3.0611721 -1.7837977e-19)
(13.123152 2.6843356 2.4983012e-18)
(13.322566 1.5242296 1.7901302e-21)
(13.449178 1.5035207 3.0855579e-19)
(13.252082 0.3447525 1.7218088e-18)
(13.728063 0.57763251 1.6823506e-18)
(10.037002 5.4487007 -1.4009618e-18)
(11.493648 4.7572737 9.3796349e-19)
(12.455035 4.1951125 -4.4444059e-19)
(13.038163 2.971844 0)
(13.31557 2.5973626 -2.5378943e-18)
(13.488159 1.4614384 0)
(13.62275 1.4349019 1.9213585e-18)
(13.41419 0.32705806 -3.5632279e-18)
(13.907525 0.55270486 -4.519751e-20)
(10.204459 5.77549 -6.6768384e-19)
(11.712113 5.0171853 -4.2406198e-18)
(12.727155 4.4163228 4.3857019e-19)
(13.317529 3.0758702 0)
(13.578141 2.6733127 -2.571496e-18)
(13.679342 1.4606905 2.1460621e-18)
(13.825268 1.4448492 1.2427226e-19)
(13.560351 0.3165546 3.6319232e-18)
(14.080795 0.52358612 -1.6764633e-18)
(10.55886 5.7929821 -6.3176925e-18)
(12.028693 4.9540335 -3.5846487e-18)
(13.019734 4.2923847 -2.8205828e-20)
(13.517898 2.9608516 -3.536161e-19)
(13.768323 2.555086 -6.5298761e-20)
(13.844327 1.3767328 -4.2926933e-18)
(13.990914 1.3606866 1.2245525e-19)
(13.718584 0.28393777 -1.8161435e-18)
(14.241183 0.4916272 0)
(10.766969 6.13694 4.3522758e-18)
(12.29324 5.2133 5.2460202e-18)
(13.34233 4.4817355 -2.7281275e-20)
(13.813118 3.033471 -3.461416e-19)
(14.033719 2.5836434 2.2732656e-18)
(14.037659 1.3502236 2.2814756e-18)
(14.178687 1.3478608 1.2085708e-19)
(13.861413 0.25940957 -1.107436e-19)
(14.390339 0.45736996 0)
(11.133974 6.1209744 0)
(12.643249 5.1140876 -4.8485151e-19)
(13.629204 4.3099604 4.1345935e-19)
(14.025287 2.8876166 -5.0077579e-18)
(14.221542 2.4293777 -1.4613584e-19)
(14.193187 1.2454146 3.9705779e-18)
(14.3308 1.2381313 -3.6494559e-18)
(14.010176 0.21636716 3.442898e-18)
(14.527749 0.42156154 3.1177485e-18)
(11.394791 6.4618487 1.0426295e-17)
(12.953771 5.3579068 8.6698285e-18)
(13.989137 4.448241 -4.0215445e-19)
(14.321259 2.9173962 5.2826296e-18)
(14.480667 2.4233033 -1.4311972e-19)
(14.379939 1.1963772 -4.042534e-18)
(14.496814 1.2046287 3.9437965e-18)
(14.138511 0.18210389 -3.5988511e-18)
(14.649652 0.38484203 -8.0632532e-20)
(14.75505 0.34748832 -3.0614867e-18)
(14.27151 0.13061775 3.267915e-18)
(14.634352 1.0719695 0)
(14.524293 1.0669876 -2.4260395e-19)
(14.663192 2.2266621 4.4385435e-18)
(14.541126 2.7224391 4.5628048e-18)
(14.300367 4.221901 0)
(13.375984 5.2148988 -4.7878582e-19)
(11.802757 6.3773416 -1.0183486e-17)
(14.843199 0.3099266 0)
(14.383062 0.088458954 -3.3811756e-18)
(14.767468 1.0076232 0)
(14.70243 0.99341198 -2.3915045e-19)
(14.903881 2.135249 -8.1176623e-18)
(14.850176 2.6763391 -4.972376e-18)
(14.717028 4.2536594 5.3523949e-18)
(13.796629 5.4059959 -6.6372258e-18)
(12.2367 6.7517679 8.2222742e-18)
(14.913065 0.27283524 0)
(14.48832 0.030393314 0)
(14.879061 0.85623672 -3.5479529e-18)
(14.824846 0.8397109 0)
(15.060867 1.884233 4.2100936e-18)
(15.059605 2.4143823 -4.3560495e-18)
(15.040547 3.9294587 -4.8646616e-18)
(14.311295 5.1855748 -3.6949849e-19)
(12.731146 6.5471383 -1.2954233e-18)
(14.963703 0.23683505 0)
(14.573311 -0.015774486 0)
(14.970783 0.78134813 3.6215336e-18)
(14.967849 0.75365908 3.5174092e-18)
(15.254164 1.7611814 4.0296837e-18)
(15.337269 2.3078256 4.7585941e-18)
(15.432967 3.8561584 0)
(14.765105 5.2640727 5.3794319e-18)
(13.312624 6.886414 -9.4879601e-18)
(14.994808 0.20264857 4.7591671e-20)
(14.643118 -0.076208118 -5.1819186e-20)
(15.049071 0.61959986 0)
(15.057891 0.58639958 -9.0235399e-20)
(15.364448 1.4853565 -8.3705751e-18)
(15.502304 2.0020029 2.7659313e-19)
(15.719595 3.4372821 4.4922845e-18)
(15.279064 4.9404928 -5.9632348e-18)
(13.846666 6.5547074 8.5365491e-18)
(15.019757 0.19684439 -4.793685e-20)
(14.694859 -0.12222238 5.213019e-20)
(15.098237 0.54090805 0)
(15.158205 0.49339705 -4.0698425e-18)
(15.505668 1.3434051 4.6093024e-18)
(15.723941 1.8535746 -2.7519344e-19)
(16.038562 3.2677878 -4.6464532e-18)
(15.723495 4.8796344 0)
(14.630644 6.8130757 -8.4307692e-18)
(14.997963 0.14365267 4.8324883e-20)
(14.723139 -0.17943068 3.2856298e-18)
(15.138917 0.37789626 -1.1060942e-19)
(15.210808 0.32228657 3.6796169e-18)
(15.552639 1.0550719 4.2887234e-18)
(15.826297 1.5189143 0)
(16.267969 2.7742337 0)
(16.176929 4.4282887 -4.2883008e-18)
(15.225256 6.295627 0)
(15.00994 0.14313189 0)
(14.74155 -0.22179064 -3.4061354e-18)
(15.148675 0.30642035 0)
(15.269048 0.23331619 -4.1201705e-18)
(15.636477 0.91034445 -3.8765238e-18)
(15.972256 1.3496316 4.1984771e-18)
(16.464992 2.5366025 0)
(16.518687 4.2116356 4.7300359e-18)
(16.279794 6.3924988 -4.6496229e-18)
(14.926259 0.095591601 0)
(14.732036 -0.28497101 0)
(15.148434 0.15019128 -1.1326556e-19)
(15.28343 0.05626093 -1.1260321e-19)
(15.618242 0.59047601 2.6744344e-19)
(16.00808 0.95668583 -4.3356931e-18)
(16.63284 1.8676245 0)
(16.892795 3.3574509 0)
(16.871602 5.4685296 4.5695226e-18)
(14.862453 0.066133803 -9.7924347e-20)
(14.718233 -0.31150901 2.2322183e-21)
(15.124849 0.089457643 3.6724634e-18)
(15.317897 -0.0059415826 0)
(15.680246 0.5355425 0)
(16.082935 0.8944454 -2.1934215e-19)
(16.742252 1.967809 -3.2931411e-18)
(17.032943 3.6047745 1.1385021e-19)
(17.686619 5.7680628 0)
(14.783767 0.042023654 -9.4992626e-20)
(14.700667 -0.35479927 2.5846763e-21)
(15.124352 -0.0182235 -3.3235916e-18)
(15.319513 -0.10095114 0)
(15.714812 0.44345198 0)
(16.237891 0.89343064 1.9446594e-19)
(16.998861 1.948404 8.875304e-18)
(17.253378 3.6698755 -9.2634179e-20)
(17.073638 5.8536259 1.4488587e-18)
(14.693075 0.020602602 0)
(14.67136 -0.38611768 6.256463e-18)
(15.092244 -0.081767716 0)
(15.363743 -0.20013014 1.9921249e-19)
(15.863762 0.34125659 -2.1739144e-19)
(16.395129 0.72390346 -1.6868793e-19)
(17.285877 1.915047 -9.9723523e-18)
(17.454032 3.829433 7.0230729e-20)
(15.56409 6.2895605 -1.3615906e-18)
(14.591533 0.00061349106 5.852888e-18)
(14.619061 -0.44830773 -5.9633545e-18)
(15.081669 -0.20335185 6.3480734e-18)
(15.384124 -0.32507459 6.2610166e-18)
(15.888385 0.2100298 -6.3362447e-18)
(16.567615 0.66006552 5.5776626e-18)
(17.579338 1.8631763 4.6197379e-18)
(17.390226 3.9539937 1.1504082e-18)
(12.825872 7.2041184 0)
(14.47899 -0.016960577 -1.161661e-17)
(14.564745 -0.49782618 5.9130015e-18)
(15.032112 -0.26208717 -6.1416416e-18)
(15.403524 -0.4365214 -5.8425148e-20)
(16.046595 0.059930296 6.0876105e-18)
(16.722869 0.47998421 -4.7414544e-19)
(17.74907 1.7838427 0)
(17.192717 4.2191274 -1.139731e-18)
(10.441275 8.5066587 0)
(14.356209 -0.032381696 1.135168e-17)
(14.481482 -0.55609582 -5.6456624e-18)
(15.001247 -0.3830941 6.1594784e-18)
(15.402815 -0.57894969 -5.969038e-18)
(16.04347 -0.073872246 -1.523944e-19)
(16.824616 0.37401031 -4.6360924e-18)
(17.90396 1.7201939 1.7660512e-18)
(16.56461 4.4423263 -9.9559798e-19)
(5.8706106 6.6939864 -9.7376213e-19)
(14.224734 -0.045566564 -5.6874384e-18)
(14.402267 -0.61328601 1.775373e-19)
(14.920709 -0.4393685 -5.8918539e-18)
(15.383925 -0.69331244 1.6138758e-19)
(16.17841 -0.24054147 -1.7406214e-19)
(16.942872 0.15241552 -4.0788624e-18)
(17.87124 1.5508174 -2.6629979e-18)
(15.179511 4.0198658 9.6395755e-19)
(0.44462442 1.8849013 9.228701e-19)
(14.086212 -0.055736278 -8.3929737e-20)
(14.307191 -0.65561343 8.959332e-20)
(14.868886 -0.55897796 5.7086776e-18)
(15.371367 -0.83690604 5.3522467e-18)
(16.134191 -0.39619106 -4.8472625e-18)
(17.011642 0.067189839 7.6055735e-18)
(17.664433 1.3491513 1.1948245e-18)
(12.996591 4.0931145 -1.921393e-18)
(-0.26817515 3.5309547 -5.2679334e-19)
(13.942521 -0.064294069 5.5627055e-18)
(14.188254 -0.72384879 -8.3272551e-20)
(14.770306 -0.6068725 1.4232754e-19)
(15.300389 -0.96627354 -5.1883505e-18)
(16.244441 -0.58430002 4.5664659e-18)
(17.057963 -0.16451179 -3.4713932e-18)
(17.228559 1.1483387 -1.871368e-19)
(11.051784 3.6210929 1.822625e-18)
(-1.1304612 3.543596 5.0205646e-19)
(-2.2047073 3.6284744 5.0579122e-19)
(9.707902 3.4128667 -1.35336e-20)
(16.843808 1.0522483 -3.1483094e-20)
(16.933402 -0.32834042 2.6876208e-20)
(16.179957 -0.72678358 0)
(15.270203 -1.0998857 -9.6798412e-20)
(14.693561 -0.72519126 -1.175925e-17)
(14.070011 -0.76144747 -5.801868e-18)
(13.798072 -0.065167291 -1.1110137e-17)
(-2.7357217 3.3978642 -4.698739e-19)
(8.7808921 3.1099135 0)
(16.55059 0.68853573 0)
(16.948801 -0.64495877 -7.6389603e-18)
(16.226073 -0.93901159 0)
(15.170365 -1.227809 1.1383122e-17)
(14.580911 -0.77026644 1.8046142e-17)
(13.949511 -0.79437316 5.5021851e-18)
(13.652377 -0.064285183 -5.7168934e-18)
(-3.3832714 3.5090898 1.9865259e-20)
(7.6357626 2.9978947 -1.6005775e-20)
(16.107253 0.67122094 0)
(16.725926 -0.75843533 7.4702159e-18)
(16.121507 -1.0617493 0)
(15.112035 -1.3365529 -1.1281948e-17)
(14.491346 -0.85617582 -1.1678627e-17)
(13.796003 -0.83326878 -1.3203336e-19)
(13.505637 -0.060803437 1.1159533e-17)
(-3.9066233 3.2277132 -7.6578398e-19)
(6.7243776 2.6176898 -9.8422134e-18)
(15.744611 0.28618701 4.1458194e-20)
(16.686037 -1.0784732 0)
(16.110372 -1.2535102 1.0116716e-17)
(14.960686 -1.4604478 0)
(14.348787 -0.90739485 9.4520998e-20)
(13.648994 -0.87253826 -1.3213896e-19)
(13.35784 -0.054372745 4.2032913e-20)
(-4.6349489 3.1772748 7.5993991e-19)
(5.5164627 2.5139181 -4.8400322e-19)
(15.216132 0.29067363 2.7686418e-18)
(16.423027 -1.1780777 1.7403363e-20)
(15.991961 -1.3679809 1.0571842e-19)
(14.881165 -1.5563008 0)