/*--------------------------------*- C++ -*----------------------------------*\
  =========                 |
  \\      /  F ield         | OpenFOAM: The Open Source CFD Toolbox
   \\    /   O peration     | Website:  https://openfoam.org
    \\  /    A nd           | Version:  11
     \\/     M anipulation  |
\*---------------------------------------------------------------------------*/
FoamFile
{
    format      ascii;
    class       surfaceScalarField;
    location    "0.005";
    object      phi;
}
// * * * * * * * * * * * * * * * * * * * * * * * * * * * * * * * * * * * * * //

dimensions      [0 3 -1 0 0 0 0];

internalField   nonuniform List<scalar> 
1652
(
1.706212168242967
0.5337381654508488
2.220446049250313e-16
1.172474002792889
0.533738165450077
0
0.638735837341972
0.5337381654509175
0
0.5337381654504221
2.220446049250313e-16
0.1049976718918351
1.706212168246044
1.067476330897457
1.172474002798808
1.067476330897313
0.6387358373461097
1.067476330903616
1.067476330902981
0.1049976718973887
1.706212168254444
1.601214496347916
1.17247400280502
1.601214496346737
0.6387358373485736
1.601214496360059
1.601214496313525
0.1049976719832608
1.706212168255721
2.134952661797195
1.172474002807805
2.134952661794653
0.6387358373499701
2.134952661818551
2.134952663774189
0.1049976657844941
2.65119121526914
1.723711780227148
3.167429768742327
1.723711780225906
3.683668322215918
1.7237117802255
1.723711780224005
4.199906875691007
2.651191215262505
1.207473226759295
3.167429768730585
1.207473226757827
3.683668322198539
1.207473226757546
1.207473226755728
4.199906875666815
2.651191215289583
0.6912346731856384
3.167429768758764
0.6912346731799983
3.683668322227152
0.6912346732003649
0.6912346732147003
4.19990687570578
2.651191325613225
0.1749927009082022
3.16742990208451
0.174991435957155
3.683668455403895
0.1749914002116311
4.199906999374945
0.174991412077938
4.164907651727181
0.0349992239638256
4.12990842776337
0.03499922396381183
4.094909203799534
0.03499922396383748
0.03499922396383548
4.059909979835698
4.164907651709179
0.06999844792142856
4.129908427751414
0.06999844792154264
4.094909203793571
0.06999844792164406
0.06999844792176896
4.059909979835617
4.164907651736613
0.1049976715107775
4.129908427769069
0.1049976714988894
4.094909203801119
0.1049976714873244
0.1049976715713816
4.059909979904543
4.164907776479585
0.1399933800314933
4.129908550408052
0.1399933649562168
4.094909322534332
0.1399933678335466
4.059910428275602
0.1399938474532526
4.059910510748677
2.585472946847744e-09
-1.105197638967548e-05
4.059910001427753
4.542481946145926e-10
-1.484201270385288e-06
4.059909979856536
4.094669048271271e-12
-1.11807426650401e-08
-2.229272322296083e-12
4.059909979832226
8.58157989114261e-12
4.059909979908117
-3.947786542113363e-12
4.059909979831923
-4.251765606255731e-12
4.059909979830104
-4.331757175179973e-12
-4.337086245698174e-12
4.059909979832204
4.05990997983346
-2.182476421808133e-12
4.059909979831301
-2.172595436888969e-12
4.059909979829164
-2.196354209615947e-12
-2.184585845554921e-12
4.059909979827012
4.059909979833515
4.059909979831342
4.059909979829145
4.059909979826962
4.059909979827625
-6.625811010962934e-13
4.059909979828285
-6.603606550470431e-13
4.059909979828955
-6.703526622686695e-13
-6.505906924303417e-13
4.059909979829606
4.059909979827662
-1.313060771224173e-12
4.059909979828306
-1.305400232354259e-12
4.059909979828949
-1.313060771224173e-12
-1.309119479486753e-12
4.059909979829608
4.059909979831554
-6.613598557692058e-13
4.059909979830906
-6.585842982076429e-13
4.059909979830252
-6.595279877785742e-13
-6.605271885007369e-13
4.059909979829603
4.059909979831565
8.469891454865319e-13
4.059909979830926
1.637578961322106e-14
4.059909979830267
0
4.059909979829606
5.551115123125783e-17
-2.775557561562891e-16
4.059909979829604
-1.110223024625157e-16
5.551115123125783e-17
4.059909979829603
0
4.059909979829609
4.059909979829605
-1.665334536937735e-16
4.059909979829729
5.551115123125783e-17
0
4.059909979829604
0
4.059909979829609
4.059909979829606
1.337541188917157e-12
4.059909979457842
-6.128431095930864e-14
-3.941291737419306e-15
4.059909979829624
-1.199040866595169e-14
4.059909979829616
4.059909979829594
-3.35367456028024e-10
4.059909981835442
1.744968335160024e-06
-4.229949723821846e-14
4.059909979829959
1.187938636348917e-14
4.059909979829603
4.059909979829606
0.09333124057347425
3.966578739256132
0.1866624811477324
3.966578739255341
0.2799937216719375
3.966578739261564
3.966578745934446
0.3733245341873638
0.09333124057338466
3.873247498682746
0.1866624811475361
3.873247498681185
0.2799937216628709
3.873247498692816
3.873247505087527
0.3733244901766855
0.09333124057329506
3.779916258109451
0.1866624811473901
3.779916258107084
0.2799937216577366
3.779916258123797
3.779916264198995
0.3733244908854897
0.09333124057320563
3.686585017536246
0.18666248114714
3.686585017533143
0.279993721651672
3.686585017554664
3.686585023276396
0.3733244927953454
-0.2799939316362903
3.593253712312206
0.3733247749545657
-0.186662621135798
3.593253706982705
-0.09333131056803645
3.593253706965373
3.593253706968209
-0.2799939316282163
3.499922401305767
0.3733247774133008
-0.1866626211359674
3.499922396410934
-0.09333131056815996
3.499922396397555
3.499922396400049
-0.2799939316177393
3.406591090210423
0.3733247802359682
-0.1866626211343574
3.406591085838563
-0.09333131056680299
3.406591085829988
3.406591085833246
-0.279993931605149
3.313259780347218
0.3733247778112514
-0.1866626211333354
3.313259775266078
-0.09333131056597532
3.313259775262612
3.313259775267271
0.1195806585448771
3.193679116722393
0.2391613170883845
3.193679116719082
0.3587419754898165
3.193679116721776
3.193679120787482
0.4783219756824723
0.1195806585448291
3.074098458177564
0.2391613170883809
3.074098458175503
0.3587419754874204
3.074098458177376
3.074098460970964
0.4783220689228251
0.1195806585448433
2.954517799632721
0.2391613170885917
2.954517799631724
0.3587419754989119
2.954517799625578
2.954517783953241
0.4783221561248349
0.1195806585447145
2.834937141087934
0.2391613170452155
2.834937141086904
0.3587419658826547
2.834937148228857
2.834937165312659
0.4783216302942114
-0.2012455377918426
3.036182678878019
-0.4024910765388373
3.036182678894082
-0.6037459937381646
3.036182804541508
3.036229564146352
-0.8049391709474332
-0.2012455377913909
3.237428216667734
-0.4024910770353899
3.237428216677958
-0.6037446771719523
3.237428387341196
3.237471688235738
-0.8046399462702575
-0.2012455377907225
3.438673754457359
-0.4024910766582327
3.438673754463385
-0.6037433578628043
3.438673891312646
3.438712137141822
-0.8045922975433353
-0.2012455377903855
3.639919292247081
-0.4024910763370321
3.63991929225405
-0.6037431993294581
3.639919351204269
3.640032135709626
-0.8046322884558431
0.3149941322375582
3.745040900620796
-0.4203150734136415
0.2099953442386126
3.744917026688426
0.1049976718947901
3.744916964151109
3.74491696414055
0.3149940770713625
3.850044437327392
-0.4203721020799429
0.2099953441772178
3.849914688437587
0.1049976718946507
3.849914636044771
3.849914636034115
0.3149939497490548
3.95502466527827
-0.4203648820818536
0.2099953440984363
3.954912360288551
0.1049976718944854
3.954912307939826
3.954912307927768
0.3150015064739171
4.060025344488615
-0.4199367265678303
0.2099953441583051
4.05991000745564
0.1049976718944207
4.059909979833622
4.059909979821526
3.638125956051397e-08
4.059910152501614
-2.090224168838084e-05
2.72923905697553e-11
4.05990997983936
7.395639656238018e-12
4.059909979836014
4.059909979828876
1.884026268328398e-10
4.059909977386027
-6.265466917509954e-07
1.217936862474289e-11
4.059909979820859
7.359002296425388e-12
4.05990997984087
4.059909979836236
-2.04107286627675e-10
4.059910072875589
3.009032657486088e-07
1.215472167359621e-11
4.059909979848672
7.347455976969286e-12
4.059909979845738
4.059909979843583
-4.278815524116908e-09
5.118149352167922e-06
4.059909745221399
1.083588774264399e-11
4.059909979669655
7.347011887759436e-12
4.05990997985062
4.059909979850929
0.6649853750829017
-0.5249889181375322
-0.140065156629443
-1.199040866595169e-14
1.189973614826389
-0.5249883597722866
4.440892098500626e-15
1.714961974231623
-0.5249883594621334
8.881784197001252e-16
-0.5249883594622071
-4.440892098500626e-16
0.6649853750763103
-1.049977834955053
-0.1400651511532504
1.189973614829435
-1.049976719545433
1.714961974232472
-1.049976718922136
-1.049976718922399
0.6649853741108115
-1.574966608482195
-0.1400643779766769
1.189973614839258
-1.574965079281289
1.714961974243588
-1.574965078382877
-1.574965078383729
0.6649853592447087
-0.1400522739655708
-2.099954146033904
1.189973614837919
-2.09995343830679
1.714961974245407
-2.099953437841752
-2.099953437843336
-4.27881652331763e-09
-4.059910072875683
5.118149354221835e-06
4.059909745221413
1.083522160882922e-11
-4.059909979848616
4.059909979669646
7.344125307895411e-12
-4.059909979845736
4.059909979850572
-4.059909979843583
4.05990997985093
-2.041005142672248e-10
-4.059909977386095
3.009032664147426e-07
1.21532783836642e-11
-4.059909979820818
7.346789843154511e-12
-4.059909979840871
-4.059909979836235
1.883979638961364e-10
-4.059910152501701
-6.265466950816645e-07
1.216193812325628e-11
-4.059909979839317
7.359002296425388e-12
-4.059909979836016
-4.059909979828877
3.638126588878521e-08
-4.060025344488537
-2.090224167416999e-05
2.728994807910112e-11
-4.059910007455684
7.395861700842943e-12
-4.059909979833641
-4.059909979821527
-0.1049976718885751
3.744916964161728
-3.639919292274475
-0.2099953442263675
3.744916964172029
-3.639919292280997
-0.3149941322319091
3.744917026667075
-3.639919351176308
3.745040900600748
-3.640032135683282
-0.4203150734143014
-0.1049976718880435
3.849914636048685
-0.2099953441641832
3.849914636059258
-0.3149940770653344
3.849914688423097
3.850044437313943
-0.4203721020806035
-0.1049976718874847
3.954912307935339
-0.2099953440846281
3.954912307947566
-0.3149939497426366
3.954912360281477
3.955024665272001
-0.4203648820825042
-0.1049976718868514
-0.2099953441430499
-0.3150015064656616
-0.4199367265658603
0.6037431993347945
-3.438712137124985
-0.8046322884516723
0.4024910763518285
-3.438673891294112
0.2012455377981126
-3.438673754483256
-3.438673754477024
0.6037433578687212
-3.237471688226663
-0.8045922975414944
0.4024910766721121
-3.23742838733064
0.2012455377978329
-3.237428216691077
-3.237428216680291
0.6037446771798779
-3.036229564142172
-0.8046399462732589
0.402491077048976
-3.036182804536589
0.2012455377980442
-3.036182678900277
-3.036182678883918
0.6037459937453504
-2.83493716531267
-0.8049391709504365
0.4024910765509205
-2.834937148228886
0.2012455377977443
-2.834937141086902
-2.834937141087925
0.1195806585488063
3.193679116732509
-3.313259775281315
0.2391613170973225
3.193679116731611
-3.313259775280152
0.3587419754944637
3.193679116709765
-3.313259775249785
3.193679120776113
-3.313259780331947
0.4783219756832026
0.1195806585485158
3.074098458183992
0.2391613170967463
3.074098458183354
0.3587419754918024
3.07409845816935
3.074098460963236
0.4783220689235794
0.1195806585481795
2.954517799635813
0.2391613170960044
2.954517799635497
0.3587419755021685
2.954517799621705
2.954517783949525
0.4783221561240997
0.1195806585478073
0.2391613170520819
0.3587419658856417
0.4783216302934808
-0.2799939316012281
-3.406591090198292
0.3733247778104966
-0.1866626211259212
-3.406591085825742
-0.09333131056271665
-3.406591085843372
-3.406591085844031
-0.2799939316137336
-3.499922401297144
0.3733247802354488
-0.1866626211265544
-3.499922396401924
-0.09333131056336524
-3.499922396406573
-3.499922396407396
-0.2799939316247551
-3.593253712307876
0.3733247774141254
-0.1866626211280433
-3.593253706978145
-0.09333131056458677
-3.59325370697004
-3.593253706971983
-0.279993931632411
-3.686585023276385
0.3733247749550172
-0.1866626211273565
-3.686585017554671
-0.09333131056426247
-3.686585017533143
-3.686585017536247
0.09333124057351988
3.966578739256085
-4.059909979829605
0.1866624811478975
3.966578739255223
-4.059909979829603
0.279993721672316
3.96657873926135
-4.059909979829959
3.966578745934185
-4.059909981835433
0.3733245341880341
0.09333124057340658
3.87324749868268
0.1866624811476597
3.873247498680964
0.2799937216631503
3.873247498692431
3.873247505087013
0.3733244901771854
0.09333124057325143
3.779916258109428
0.186662481147189
3.779916258107021
0.2799937216572712
3.779916258123687
3.779916264198836
0.3733244908846675
0.09333124057318182
0.1866624811470526
0.2799937216514788
0.3733244927949964
-4.059909979829606
-1.110223024625157e-16
-4.059909979829606
0
-4.059909979829606
0
0
-4.059909979829605
-4.059909979829603
4.257705299437475e-14
-4.059909979829603
-1.110223024625157e-16
-4.059909979829609
5.995204332975845e-15
-1.942890293094024e-15
-4.059909979829607
-4.059909979829626
3.353673450057215e-10
-4.059909979829607
-1.33720812200977e-12
-4.059909979829602
1.665334536937735e-16
5.551115123125783e-17
-4.059909979829603
-4.059909979457841
1.744968332551e-06
-4.059909979829729
-6.128431095930864e-14
-4.059909979829604
1.665334536937735e-16
-4.059909979829605
-1.110223024625157e-16
-6.604716773495056e-13
-4.059909979828944
-1.309230501789216e-12
-4.05990997982896
-6.605271885007369e-13
-4.059909979830251
-4.059909979830267
5.551115123125783e-17
-6.604716773495056e-13
-4.059909979828285
-1.311062369779847e-12
-4.059909979828308
-6.57529586334249e-13
-4.059909979830906
-4.059909979830925
5.551115123125783e-17
-6.605826996519681e-13
-4.059909979827625
-1.307065566891197e-12
-4.059909979827661
-6.605271885007369e-13
-4.059909979831553
-4.05990997983158
1.615374500829603e-14
-6.625811010962934e-13
-4.059909979826962
-1.313060771224173e-12
-4.059909979827012
-6.614708780716683e-13
-4.059909979832205
-4.05990997983224
8.451572774959004e-13
-8.394396289190809e-13
4.059909979824454
-4.059909979823613
-2.048472502735876e-12
4.059909979824533
-4.059909979823715
-2.588551206716971e-09
4.059909979916896
-4.059909979916248
4.059910510757899
-4.059910428287892
-1.105197638201494e-05
-8.415490526658687e-13
4.059909979825294
-1.74454894974474e-12
4.059909979825357
-4.573140199859438e-10
4.05990997983778
4.059910001433899
-1.484201267443197e-06
-8.275602425555917e-13
4.059909979826121
-1.658451154185059e-12
4.059909979826187
-7.164213666754904e-12
4.059909979833039
4.059909979859601
-1.118074977046746e-08
-8.397726958264684e-13
-1.665168003484041e-12
-8.373302051722931e-13
8.579637000849516e-12
-0.1049976715756857
-4.094909322542311
0.1399938474532465
-0.06999844793351301
-4.094909203805429
-0.03499922396636812
-4.09490920379088
-4.094909203789982
-0.1049976714917023
-4.129908550411639
0.1399933678335378
-0.06999844793359855
-4.129908427765786
-0.03499922396640986
-4.129908427758106
-4.129908427756391
-0.1049976715033418
-4.164907776478779
0.1399933649562193
-0.0699984479336902
-4.164907651725652
-0.03499922396644561
-4.164907651725386
-4.164907651722837
-0.1049976715153095
-4.199906999369536
0.1399933800314911
-0.0699984479337955
-4.199906875686931
-0.03499922396650146
-4.199906875692712
-4.199906875689338
-0.6912346732121237
-3.683668455400839
0.1749914120776787
-1.20747322674658
-3.683668322214896
-1.723711780223959
-3.683668322215333
-3.683668322214204
-0.6912346731981186
-3.16742990208346
0.1749914002113738
-1.207473226749887
-3.167429768751906
-1.723711780225355
-3.167429768739865
-3.167429768740465
-0.6912346731794001
-2.651191325612939
0.1749914359573373
-1.207473226753196
-2.651191215286762
-1.723711780226762
-2.651191215266301
-2.651191215268137
-0.6912346731856752
-2.134952663774146
0.1749927009085054
-1.207473226756505
-2.134952661818558
-1.723711780228153
-2.134952661794653
-2.134952661797196
1.706212168246006
0.5337381654478091
1.172474002797067
0.5337381654489393
0.6387358373453851
0.533738165451682
0.5337381654530875
0.1049976718925832
1.70621216824656
1.067476330893901
1.172474002799517
1.067476330895981
0.6387358373466885
1.067476330904511
1.06747633090611
0.1049976718975209
1.706212168253681
1.601214496345124
1.172474002803972
1.601214496345691
0.638735837347718
1.601214496360762
1.601214496315954
0.1049976719830781
1.706212168252928
1.172474002803967
0.6387358373468344
0.1049976657838075
0.1049976718944124
0.1049976718950581
0.1049976719389098
0.1049976719119298
0.1049976722003363
0.1049976715620553
0.1049976598765851
0.1049976244803769
0.1049976719116728
0.1049976719396884
0.1049976717737979
0.1049976717744206
0.1049977045025323
0.1049975503892692
0.104994396078192
0.1049935571054273
0.1049976715624214
0.1049976722009366
0.1049975503895827
0.1049977045032074
0.104988609111352
0.1049886091107814
0.1043211436969224
0.1049916638726508
0.1049976598773272
0.104997624480924
0.1049943960787503
0.1049935571062796
0.1043211436976077
0.1049916638719491
0.09880298830907666
0.09880298830976858
-0.1090025597741743
0.1392644801491404
-0.1535629768543475
0.120667767887282
-0.1662056955980278
0.1141157118446222
0.113749448626021
-0.1021644714740672
0.1487935299233082
-0.1524174502794369
0.1286619421322865
-0.1661912432123081
0.1228440485592782
0.1224991359630325
-0.1022563904735246
0.1575520952549844
-0.1524232185957333
0.1362677430147034
-0.1661913118961321
0.1315503844534223
0.1312486901248917
-0.1023019576588395
0.1663039877901502
-0.152439264155534
0.1438815573157246
-0.166191815450439
0.1402686605098528
0.1399982310285857
0.1399981700265049
0.1399523965025077
0.1399981739760965
0.1399519298537874
0.139998173977645
0.1399519297545766
0.1399561445051844
0.140000448243631
0.1402896348341955
0.1351227150401343
0.1402900048173139
0.1350901159787815
0.1402900049687333
0.1350900749216249
0.135162978423607
0.1402841007626061
0.1439823623848287
0.09454943308930691
0.1439872263599064
0.09437571692978536
0.1439878715575872
0.09437245361868324
0.09050157213544685
0.1444547233609916
0.1673922379903185
0.1674448695648181
0.1674505170056034
0.1485441619622644
0.1400004911220042
-9.523659775412252e-05
0.1399970100787567
-9.514337196592226e-06
0.1399968959281104
-9.78835285048163e-09
1.304514274380608e-10
0.1399968958558696
0.1400659399081196
-0.00156440381766848
0.1399971502569916
-9.318592086304811e-06
0.139996895728149
2.97215181910282e-08
5.977030537174244e-09
0.1399968956956115
0.1400723151709482
-0.001411787150646715
0.1399969709697947
-2.313527089237155e-06
0.1399968943112724
6.454519201337661e-07
2.676058158401773e-08
0.1399968958702632
0.140010052605937
0.1399946597977757
0.1399966497858206
0.1399968952685861
0.139996895855868
1.421407436197342e-11
0.139996895856193
1.27675647831893e-14
0.1399968958561933
0
0
0.1399968958561933
0.1399968958559951
9.367062681064908e-12
0.1399968958561933
-1.904032487232143e-14
0.1399968958561933
-2.775557561562891e-16
0
0.1399968958561933
0.1399968958562301
3.751554622510866e-11
0.1399968958562283
-1.801891968966629e-13
0.1399968958561935
-2.120525977034049e-14
0
0.1399968958561933
0.1399968958563543
0.1399968958563806
0.1399968958561954
0.1399968958561933
0.1399968958561933
-5.551115123125783e-17
0.1399968958561933
0
0.1399968958561806
-5.551115123125783e-17
1.823454817789782e-05
0.1399970616857229
0.1399968958561933
0
0.1399968958561933
0
0.1399968958561933
-5.551115123125783e-17
0.001385082788844916
0.1401381564695141
0.1399968958561933
0
0.1399968958561933
0
0.1399968958561933
0
0.01416563301785134
0.141360901643605
0.1399968958561933
0.1399968958561933
0.1399968958561927
0.1867560458715704
0.1399970880326764
0.3733152898023395
0.139997089327562
0.3733141211029649
0.1399970893544305
0.3733140956636446
0.3733140955045615
0.139997089355163
0.1401941760620247
0.3683403419820126
0.1401958223127804
0.367895069952484
0.1401958257568227
0.3678905097677036
0.3678905329483215
0.1401958236192432
0.1445679257879298
0.2652564499808491
0.1445797836575395
0.2623297857613808
0.1445732632318533
0.2624211576536449
0.2624211058416244
0.1445732163900817
0.2045086919519113
0.2038359565602496
0.2037823310676836
0.2037821978654007
0.139997089369407
0.3733143756192877
0.1399970893814083
0.373314375724495
0.1399970894187433
0.3733143758459594
0.3733142232875991
0.1399970928108991
0.1401958236135959
0.3678908133325615
0.1401958236492526
0.3678908133197658
0.1401958236896777
0.3678908132738147
0.3678770049182853
0.1401593011887018
0.1445732125958139
0.262421294760529
0.1445732125762663
0.2624212892397111
0.1445732125731092
0.2624212872682419
0.2623833687223699
0.1445615884438737
0.2037822262875399
0.2037822273990772
0.2037822261098994
0.203830830839291
0.1662464712630709
0.4520595421092605
0.1924958770203721
0.452061241415176
0.2187445412006263
0.4520628422859306
0.4520567000840722
0.2449903371434224
0.1663640579634489
0.4207720957048355
0.192587369158274
0.42114880812335
0.2187910909251659
0.4215531956958561
0.4227877982685713
0.2450362351156915
0.1687967525679108
0.2895761616413405
0.1932040260881213
0.2924026890304841
0.2177968314868062
0.2962022041389636
0.2978953092740915
0.2481668244704753
0.2321894237565726
0.2630166860545135
0.29829357022665
0.2675133092682609
0.1837287771015282
-0.7418242479411347
0.1224327386530877
-0.7391227146711531
0.06121583524300896
-0.7389030213425434
-0.7389930058823226
-4.592407228658224e-05
0.177600644047568
-0.6174034365802152
0.1170382890206437
-0.5657375743623718
0.05851223673737656
-0.5638120409482085
-0.5640430867017009
-3.33710894539832e-05
0.1246610264795944
-0.289945277554192
0.07750223816102847
-0.1701986045260874
0.03876412063320531
-0.1692865393419918
-0.1691188884441605
0.0007077276445211778
0.02699927251660336
0.01512539358464885
0.007559334117602548
0.0002213907494780995
0.03502926073050604
-0.4534000969731129
0.07006192283205283
-0.4534863048787982
0.1050959214749945
-0.4534352430138737
-0.4505070958673255
0.1400109482206845
0.03351809792208076
-0.4024749742517342
0.0670501462882452
-0.402465745228796
0.1006436250583604
-0.4017731989955233
-0.3585048930336461
0.1377409443142854
0.02154419032969153
-0.1342246742339804
0.04301541794187899
-0.1340285822755237
0.06417246095321526
-0.1338082885174141
-0.0701900629546901
0.118089859861989
0.003988383415092105
0.007848759532236864
0.009705720890553448
0.06315069647214167
0.1400212868445821
1.118665928856455e-05
0.1399968800790893
-1.53662955931777e-06
0.1399977403989023
1.501591927688395e-06
1.959037691434684e-05
0.1399970948895937
0.1400012085240662
0.0001043867559931688
0.1400017436261614
1.048336904813096e-05
0.1400271530340368
5.71793500455664e-05
0.0006670681756678065
0.140042671068961
0.1399846684270481
0.002833311222071144
0.1400141043879663
9.302278004941211e-06
0.1403671553920201
0.0004281097958783175
0.00219927053801694
0.1435142000126836
0.1383261760009953
0.1401693884402465
0.1427725437564537
0.1454229637033637
0.1050059554032643
-0.2450096946999091
0.2800112990901168
0.0700048030434655
-0.2450232829190426
0.2800168311059297
0.0350017677125857
-0.2450193450414015
0.2800162836320809
-0.2450672199400812
-1.853158845530056e-05
0.2800275702640392
0.1050068605213295
-0.2094904455497276
0.07000931411835792
-0.2095994262803036
0.03500019718486413
-0.2095531724240043
-0.209623598094503
-0.0001088367709962124
0.1037683822820464
-0.1379899471119822
0.06848161810043495
-0.1379816890450114
0.03410827503105569
-0.1352309906210745
-0.1350723686973925
-1.61836306427493e-05
0.0679565352133067
0.03426054124248096
0.01652952353317971
0.00226875516286526
0.0005536872731306819
0.1066062459375654
5.234615662585984e-05
0.1065345059679309
7.327924812297604e-07
0.1064180111905349
0.1064108628181171
-9.367506770274758e-16
2.311647796378324e-05
0.1401315538481606
1.860111487925198e-05
0.1402165509484719
4.811057747328151e-07
0.1402203264963255
0.1402202797096607
1.179611963664229e-15
-2.394286614706975e-05
0.1402203557876318
-3.614090657300117e-07
0.1402884651531466
7.522488187916565e-10
0.1402926296945397
0.1402926472010222
1.554312234475219e-15
-3.952997573247741e-06
-5.626804058800339e-08
3.532385495219614e-11
-8.326672684688674e-17
0.1064108628181158
-7.327924808966935e-07
0.1402202797096603
-4.811057802145413e-07
0.1402926472010216
-7.522493183920176e-10
-3.532427128583038e-11
0.1400651566294431
0.106418011190535
-5.23461566252631e-05
0.1402203264963259
-1.860111487812788e-05
0.1402926296945401
3.614090633152767e-07
5.626804050473666e-08
0.1400651511532514
0.1065345059679339
-0.000553687273134186
0.14021655094847
-2.311647795281979e-05
0.1402884651531447
2.394286615248209e-05
3.952997573247741e-06
0.1400643779766767
0.1066062459375672
-0.002268755162864518
0.1401315538481595
1.618363064205541e-05
0.140220355787631
0.0001088367709957683
1.853158845716019e-05
0.1400522739655725
-0.03500176771258637
-0.2450672199400811
0.2800275702640414
-0.07000480304346435
-0.2450193450414019
0.2800162836320835
-0.1050059554032629
-0.2450232829190422
0.2800168311059309
-0.2450096946999089
-0.1399970948895945
0.2800112990901167
-0.03500019718486427
-0.209623598094503
-0.07000931411835648
-0.209553172424004
-0.1050068605213298
-0.2095994262803033
-0.2094904455497265
-0.1400426710689617
-0.03410827503106255
-0.1350723686973951
-0.06848161810044603
-0.1352309906210737
-0.1037683822820445
-0.1379816890450135
-0.137989947111982
-0.1435142000126833
-0.01652952353317947
-0.03426054124248409
-0.06795653521330522
-0.1454229637033648
-0.1427725437564531
-0.00219927053801372
-0.1401693884402434
-0.0004281097958681035
-0.1383261760009898
-9.302278004996722e-06
-0.002833311222065205
-0.06315069647203195
-0.1403671553920192
-0.0006670681756684171
-0.1400141043879657
-5.717935005056241e-05
-0.1399846684270474
-1.04833690482975e-05
-0.0001043867559923362
-0.1180898598618968
-0.14002715303404
-1.95903769161232e-05
-0.1400017436261586
-1.501591924246704e-06
-0.1400012085240644
1.536629574916404e-06
-1.11866593002774e-05
-0.1377409443142691
-0.1399977403989041
-0.1399968800790903
-0.1400212868445902
-0.1400109482206848
-0.1050959214747806
-0.4505070958655832
-0.0700619228327453
-0.4534352430136183
-0.03502926073085808
-0.4534863048797971
-0.4534000969741241
4.592407228917739e-05
-0.1006436250581028
-0.3585048930325307
-0.06705014628899167
-0.4017731989945226
-0.03351809792245732
-0.402465745229924
-0.4024749742528805
3.337108945566936e-05
-0.06417246095305169
-0.07019006295452555
-0.04301541794239497
-0.1338082885168275
-0.02154419032996099
-0.1340285822759761
-0.1342246742344346
-0.0007077276445152172
-0.009705720890522126
-0.007848759532336887
-0.003988383415142694
-0.0002213907494753743
-0.06121583524172766
-0.7389930058794635
-0.1224327386512416
-0.7389030213412809
-0.1837287771006033
-0.7391227146732092
-0.7418242479432018
-0.2449903371434221
-0.05851223673630523
-0.5640430867002142
-0.1170382890190977
-0.5638120409475471
-0.1776006440467739
-0.5657375743634531
-0.617403436581298
-0.2450362351156917
-0.03876412063252755
-0.169118888443827
-0.07750223816013749
-0.1692865393418568
-0.1246610264791162
-0.1701986045263167
-0.2899452775544654
-0.24816682447047
-0.007559334117498585
-0.015125393584499
-0.0269992725165375
-0.2675133092683584
-0.2187445412007459
0.4520567000834511
-0.1924958770204629
0.4520628422851655
-0.1662464712631072
0.4520612414158678
0.4520595421099609
-0.1399970928108976
-0.2187910909252707
0.4227877982680543
-0.1925873691583601
0.4215531956950772
-0.1663640579634832
0.4211488081239801
0.4207720957054962
-0.1401593011887021
-0.2177968314868975
0.2978953092737716
-0.1932040260882025
0.29620220413837
-0.1687967525679426
0.2924026890309307
0.2895761616418125
-0.144561588443874
-0.2982935702267425
-0.2630166860546123
-0.2321894237566184
-0.2038308308392869
-0.1399970894187526
0.3733142232868483
-0.1399970893813849
0.3733143758454042
-0.1399970893693466
0.3733143757252755
0.3733143756198044
-0.1399970893551623
-0.1401958236896931
0.3678770049175494
-0.1401958236492357
0.3678908132732371
-0.1401958236135277
0.367890813320496
0.3678908133331453
-0.140195823619241
-0.1445732125731177
0.2623833687218651
-0.1445732125762436
0.2624212872678024
-0.1445732125957579
0.2624212892402071
0.2624212947609842
-0.1445732163900822
-0.2037822261099097
-0.2037822273990481
-0.2037822262874664
-0.2037821978653962
-0.1399970893543975
0.3733140955041808
-0.1399970893275664
0.3733140956628587
-0.1399970880327091
0.373314121103492
0.3733152898029797
-0.1399970616857224
-0.1401958257567937
0.3678905329479142
-0.1401958223127868
0.367890509766963
-0.1401941760620586
0.367895069953026
0.3683403419826123
-0.1401381564695135
-0.1445732632318266
0.2624211058413522
-0.1445797836575423
0.2624211576531109
-0.144567925787958
0.2623297857617912
0.2652564499812744
-0.1413609016436055
-0.2037823310676385
-0.2038359565602583
-0.2045086919519347
-0.1867560458715414
-0.1399968958561807
1.823454817734271e-05
-0.1399968958561933
-5.551115123125783e-17
-0.1399968958561933
0
-5.551115123125783e-17
-0.1399968958561933
-0.1399968958561933
0.001385082788844749
-0.1399968958561933
-5.551115123125783e-17
-0.1399968958561933
0
0
-0.1399968958561933
-0.1399968958561933
0.01416563301783588
-0.1399968958561933
0
-0.1399968958561933
0
0
-0.1399968958561933
-0.1399968958561933
-0.1399968958561933
-0.1399968958561933
-0.1399968958561933
-0.1399968958561933
0
-0.139996895856193
-5.551115123125783e-17
-0.1399968958558677
1.27675647831893e-14
1.421573969651035e-11
-0.1399968958558693
-0.1399968958561933
0
-0.1399968958561933
-3.885780586188048e-16
-0.1399968958559951
-1.909583602355269e-14
9.364786723864427e-12
-0.1399968956956115
-0.1399968958561935
0
-0.1399968958562284
-2.126077092157175e-14
-0.1399968958562302
-1.799116411405066e-13
3.750960653192692e-11
-0.1399968958702633
-0.1399968958561954
-0.139996895856381
-0.1399968958563547
-0.1399968952685853
-0.1399968959281104
1.30451482949212e-10
-0.1399970100787566
-9.788353350081991e-09
-0.1400004911220042
-9.514337195648537e-06
-9.523659775217963e-05
-0.140000448243631
-0.139996895728149
5.977030759218849e-09
-0.1399971502569915
2.972151808000589e-08
-0.1400659399081197
-9.318592086304811e-06
-0.001564403817667925
-0.140284100762606
-0.1399968943112724
2.676058175055118e-08
-0.1399969709697947
6.454519201892772e-07
-0.1400723151709482
-2.313527089237155e-06
-0.00141178715064616
-0.1444547233609915
-0.1399966497858207
-0.1399946597977757
-0.140010052605937