/*--------------------------------*- C++ -*----------------------------------*\
  =========                 |
  \\      /  F ield         | OpenFOAM: The Open Source CFD Toolbox
   \\    /   O peration     | Website:  https://openfoam.org
    \\  /    A nd           | Version:  11
     \\/     M anipulation  |
\*---------------------------------------------------------------------------*/
FoamFile
{
    format      ascii;
    class       volScalarField;
    location    "0.063";
    object      rho;
}
// * * * * * * * * * * * * * * * * * * * * * * * * * * * * * * * * * * * * * //

dimensions      [0 0 0 0 0 0 0];

internalField   nonuniform List<scalar> 
880
(
0.3733250556165154
0.3733250556165154
0.3733250556165154
0.3733250647146807
0.3733250556165154
0.3733250556165154
0.3733250556165152
0.3733252249034446
0.3733250556165154
0.3733250556165153
0.3733250556165154
0.3733276550262896
0.3733250556165154
0.3733250556165154
0.3733250556170555
0.3733287731906654
0.3733250556165154
0.3733250556165155
0.3733250556165152
0.3733250556165155
0.3733250556165154
0.3733250556165154
0.3733250556165151
0.3733250556165154
0.3733250556076431
0.3733250551594322
0.3733321240211508
0.3733015104011321
0.3743842188709009
0.3783495805254687
0.382205032940942
0.3842863770061355
0.373325056489532
0.3733250568804548
0.3733250570978651
0.373325056167225
0.3733250958413993
0.3733251202652139
0.3733251356842509
0.3733250907434089
0.3733732607170551
0.3733811337965958
0.3733907601380533
0.3733737940742023
0.3855740757833382
0.387174655742927
0.3883813150005436
0.388895050305822
0.3882035793926381
0.384759749501411
0.3810628338458594
0.3774237624813069
0.3734499497548593
0.373485006473772
0.3734749753494638
0.3733971958443723
0.3733252795848057
0.3733253317461507
0.373325297914863
0.3733251741967303
0.3733250605196672
0.3733250605834225
0.3733250591124606
0.3733250568647789
0.3733250557754341
0.3733250556207239
0.3733250556165154
0.3733250556165155
0.3733250798770724
0.3733250570991106
0.3733250556298516
0.3733250556125111
0.373341102619045
0.3733262564552921
0.3733250740569379
0.3733250550314115
0.3746025053344032
0.3734802940568475
0.3733296874754167
0.3733250600918731
0.3733250475625295
0.3733250552551637
0.3733250556162145
0.3733250556165154
0.3733250483447927
0.3733250549440988
0.3733250555824058
0.3733250556159741
0.3733249272871725
0.3733251779239827
0.3733250634815451
0.373325055828877
0.374053466051977
0.3733038498302623
0.3733242032592396
0.3733250543773717
0.3733250534473772
0.3733248537620304
0.3733398610900338
0.3916175621564048
0.3733250579555942
0.3733251744539322
0.3734632138831768
0.4099623887805552
0.3733250642762718
0.3733254611117713
0.3736063333656596
0.4208330881404716
0.3733250675865812
0.3733256309221827
0.3737033924908567
0.4289988107779708
0.43295766603103
0.3737666846950382
0.3733257719249502
0.3733250709756836
0.4377168530221101
0.3738685201486792
0.3733260144892773
0.3733250762158677
0.4411038192610582
0.3739482760448378
0.3733262135069579
0.3733250816012106
0.4464564032755551
0.374130807079584
0.3733267942904943
0.3733250957329475
0.3733250923665511
0.3733266436215451
0.3741837591501878
0.4529076953356004
0.3733251011957228
0.3733270345777969
0.3743342667634784
0.4567206580461547
0.3733251160410128
0.3733275322652555
0.3744319901021796
0.4525771451747405
0.373325098284743
0.3733265956033157
0.3738449673651905
0.4234018416031154
0.3733246252638176
0.3733279331800464
0.3741404880324334
0.3836188254013906
0.3733249992122503
0.3733155751861247
0.3725165365901624
0.3318207548563428
0.3733250267314924
0.3733091130435491
0.3707742480949407
0.2930058600750897
0.3733250143428394
0.3732955585602755
0.3683806905586584
0.2615302002399678
0.2627775777815834
0.3696797145303685
0.3733096931554244
0.3733250284149645
0.2645036867922715
0.3700485195583806
0.3733119510029954
0.3733250341967162
0.2777008412713931
0.3712038547419283
0.3733181490686099
0.3733250448595584
0.2730258088517176
0.370889201141562
0.3733169339583666
0.3733250433772242
0.312619024225008
0.3725362531980941
0.373322998920373
0.3733250524400354
0.3478100911937992
0.3731816550474475
0.3733247829051048
0.3733250552723434
0.3647386291548165
0.373295263703227
0.3733250033885324
0.3733250555570842
0.3692485749962399
0.3733037533864198
0.373325004326331
0.3733250555098618
0.3570370590759208
0.3730549145777048
0.3733235163152204
0.3733250515337908
0.3573279042736543
0.3730551375351194
0.373323515392055
0.3733250515237267
0.3577507646122347
0.3730545334195514
0.3733235075743576
0.373325051451108
0.3587380073566682
0.3730606083730519
0.373323520567567
0.3733250514139484
0.3692485749961008
0.3733037533858188
0.3733250043255534
0.3733250555104627
0.3647386291535759
0.3732952637024077
0.373325003386441
0.3733250555572798
0.3478100911932374
0.3731816550475877
0.3733247829049174
0.3733250552726183
0.3126190242255401
0.3725362531995958
0.3733229989204984
0.3733250524395695
0.3733250284163271
0.3733096931574635
0.3696797145306941
0.2627775777814954
0.3733250341974497
0.3733119510036974
0.3700485195590852
0.2645036867925393
0.3733250448583152
0.3733181490698171
0.3712038547419481
0.2777008412724233
0.3733250433776195
0.3733169339584684
0.3708892011439301
0.2730258088508923
0.2615302002380255
0.3683806905578904
0.3732955585596046
0.3733250143426887
0.2930058600731058
0.3707742480937518
0.3733091130414667
0.373325026729481
0.3318207548557657
0.3725165365885389
0.3733155751861759
0.3733249992100255
0.3836188254017971
0.3741404880318346
0.3733279331795027
0.3733246252661916
0.3733250923660438
0.373326643622804
0.3741837591513373
0.4529076953371347
0.3733251011961521
0.3733270345780301
0.3743342667633076
0.4567206580457535
0.3733251160423037
0.3733275322653029
0.3744319901009056
0.452577145174482
0.3733250982871063
0.3733265956032737
0.3738449673643622
0.4234018416028648
0.4464564032786167
0.3741308070780003
0.373326794292473
0.3733250957326465
0.4411038192641499
0.3739482760459811
0.3733262135078293
0.3733250816017105
0.4377168530229497
0.3738685201525269
0.3733260144904756
0.373325076215473
0.4329576660292754
0.3737666846943047
0.37332577192561
0.3733250709752414
0.3733250534484794
0.3733248537634553
0.3733398610900123
0.3916175621541658
0.3733250579542837
0.373325174452625
0.3734632138834269
0.4099623887809714
0.3733250642756593
0.3733254611118242
0.3736063333676772
0.4208330881405494
0.3733250675858219
0.3733256309223117
0.3737033924871782
0.4289988107811548
0.3733250543771512
0.3733250558293517
0.3733250556159801
0.3733250556165154
0.3733242032572958
0.3733250634811957
0.3733250555837471
0.3733250556157856
0.3733038498306015
0.3733251779249324
0.3733250549432418
0.3733250552546885
0.374053466051991
0.3733249272873425
0.3733250483448146
0.3733250475624982
0.3733250556165152
0.373325055612497
0.3733250550316648
0.3733250600922662
0.3733250556165154
0.373325055629579
0.3733250740592846
0.3733296874755048
0.3733250556209124
0.3733250570990586
0.3733262564543638
0.3734802940571266
0.3733250557757704
0.373325079876514
0.3733411026200744
0.3746025053340087
0.373325060518056
0.3733252795831584
0.3734499497539243
0.3882035793920098
0.3733250605821324
0.3733253317467498
0.3734850064739558
0.384759749499976
0.3733250591121763
0.3733252979170091
0.3734749753491924
0.3810628338455726
0.3733250568644319
0.3733251741978498
0.373397195844466
0.3774237624805165
0.3888950503062751
0.3733737940761249
0.3733250907421939
0.3733250561665119
0.3883813150000429
0.373390760141054
0.3733251356837991
0.3733250570982301
0.3871746557448711
0.3733811337965736
0.3733251202657842
0.3733250568800077
0.3855740757831352
0.3733732607119239
0.3733250958408074
0.3733250564899269
0.3842863770068103
0.3733015104054291
0.3733250556165154
0.3733250556165164
0.3822050329402293
0.3733321240168351
0.3733250556165154
0.3733250556165154
0.3783495805259685
0.3733250551591838
0.3733250556165154
0.3733250556165153
0.3743842188699162
0.3733250556072367
0.3733250556165154
0.3733250556165151
0.3733250556165154
0.3733250556165154
0.3733250556165154
0.3733250647509768
0.3733250556165152
0.3733250556165155
0.3733250556165153
0.3733252248940604
0.3733250556165154
0.3733250556165154
0.3733250556165154
0.3733276550273321
0.3733250556165154
0.3733250556165154
0.3733250556169402
0.3733287731907582
0.3733249608024699
0.3733249557455778
0.3733277802643354
0.3735968354761498
0.3733249557979169
0.3733236374885549
0.3733221927532638
0.3744823721830232
0.3733277802262368
0.3733221927155885
0.3737286106211961
0.3837268599568274
0.373596835486608
0.3744823721710182
0.3837268599767278
0.4321582716624954
0.5161405073833237
0.455095883347731
0.4250155784497127
0.3945074446896796
0.5096382299810369
0.4940120030951585
0.4855159318046412
0.4557188442100046
0.5034054416699313
0.5005947011195188
0.500115583964385
0.4886270974630324
0.5067183396205457
0.505878809930413
0.5076888947579853
0.5028199592085549
0.5108945342831802
0.5130016836242338
0.5137919696732156
0.5210569404895559
0.514648618635163
0.5179795092066636
0.5188082720405822
0.5296402513730761
0.5114031833101389
0.5141967937284319
0.5149504003978119
0.5275498650109252
0.5140027109372634
0.5179201338783912
0.518836459931535
0.526829339305988
0.4595909355662397
0.3988681617087236
0.3821162496455179
0.3798060154980133
0.4212729365749397
0.364177911436572
0.3716820040379694
0.3767506868791941
0.3920881661241757
0.3604476535459289
0.3723803583955986
0.3790902456089723
0.3501946822760138
0.3620016654665886
0.373234348439867
0.3789042052021087
0.3766096909441115
0.3739607002396399
0.3733598283668988
0.3733253969212545
0.376120317852998
0.374174323409164
0.3733877380635703
0.3733258195000469
0.3777514085889306
0.3747103216842214
0.373437760674394
0.3733266664938625
0.3760710151187518
0.3735421951784365
0.3732772811662856
0.3733227378220044
0.373325052168304
0.3733250458602457
0.3733253287547252
0.4073436585660957
0.3733250620058758
0.3733250482307596
0.3733254770818661
0.4269919054764221
0.3733250609571265
0.3733250501531606
0.3733256658996563
0.4408421340357577
0.3733250490865832
0.3733250510746227
0.3733257710340566
0.446707714189226
0.6381883184144491
0.6563457375405456
0.6687784940344682
0.6846611204631359
0.7048329416493614
0.6925156463048169
0.6974626305683836
0.7171115868946975
0.7041774984857729
0.6886799764049851
0.7033983082463514
0.7255273976972284
0.7369712292451739
0.7060717590424872
0.707203402447781
0.727102988936308
0.6903635873055034
0.6926618578602436
0.6932507376271507
0.6938087958874317
0.7271370448993638
0.7297059932995396
0.7299845528456269
0.7296269664123651
0.7376067103507311
0.7406098614256036
0.7407908610151184
0.7406438464698499
0.7413061134081427
0.7454355539971557
0.7456856456547487
0.7451992896945921
0.6944397017142536
0.6893041263916638
0.6630365736543642
0.5823475717473092
0.7290293802923511
0.721175050094722
0.6909517856537271
0.614550586063497
0.7401852290394373
0.7320410376951003
0.6955887846658886
0.6380732878830596
0.7468452990390998
0.7420523707004824
0.7032331927157908
0.7426934321305325
0.4003765790905182
0.1325301117457542
0.06489419713497425
0.0521675074328003
0.3340403475256759
0.0911954301764616
0.05687419048871484
0.0496150381585074
0.241387687040054
0.06843287743540176
0.06551382509940781
0.0671847771147277
0.1762268131205812
0.04075986874352362
0.07918619466137398
0.08828026482922015
0.05600885923544958
0.0573424736006468
0.06181139447855434
0.05521166634576519
0.04799024098871091
0.05134475719040796
0.05752008626516818
0.04724341600925278
0.06670239867243492
0.07206222801892317
0.07425348035853556
0.05544500263935773
0.09045313204353594
0.09765376789093021
0.09014758544806899
0.06067765141178151
0.1562893324312548
0.2453971269984258
0.2882984317328501
0.3150103521407501
0.1147352516744384
0.2053104464262593
0.2503174957035904
0.298560423612606
0.104088075344122
0.1865047060787445
0.2326159850845737
0.2881570468341621
0.07966572835413271
0.1415642774050764
0.2036900510332933
0.2636906051077376
0.2572994862688118
0.1843583734071539
0.178873868157813
0.1938888962645678
0.2172277945106205
0.1269635262503853
0.07600360154349259
0.1103427458164768
0.1790109596447371
0.08956284208583316
0.05565620576539395
0.05953367434873275
0.1343003660283129
0.04987002703582456
0.03850244765806327
0.074480997389148
0.09178107660187754
0.09040788226188265
0.09112669926975907
0.1081663585951594
0.08628455960660228
0.108166634305248
0.124439994745361
0.1699518878877539
0.1507414128072291
0.1594209575633049
0.1522747010807645
0.1517079277228716
0.187884804665446
0.1717423502591146
0.1477693249580817
0.1252370615151921
0.108166358594981
0.1699518878876894
0.1517079277229263
0.1252370615152651
0.09112669926959402
0.1244399947451306
0.1522747010808293
0.1477693249581632
0.09040788226180166
0.1081666343050725
0.1594209575630098
0.1717423502586771
0.091781076601884
0.08628455960666057
0.1507414128070373
0.1878848046647656
0.1938888962638393
0.1788738681571301
0.1843583734068088
0.2572994862678215
0.110342745816379
0.07600360154354542
0.1269635262501876
0.2172277945101537
0.05953367434879708
0.05565620576538966
0.0895628420856695
0.1790109596445179
0.07448099738919378
0.03850244765807626
0.04987002703581731
0.1343003660283169
0.2636906051078095
0.2036900510337731
0.1415642774057125
0.07966572835424675
0.2881570468339415
0.2326159850845963
0.1865047060791063
0.1040880753442129
0.2985604236124814
0.250317495703042
0.2053104464264492
0.1147352516743673
0.3150103521405941
0.288298431732128
0.2453971269984627
0.1562893324308547
0.05521166634512896
0.06181139447918621
0.05734247360079048
0.05600885923525212
0.0472434160091099
0.0575200862652991
0.05134475719059742
0.04799024098880886
0.0554450026392409
0.07425348035868676
0.07206222801910263
0.06670239867246752
0.06067765141172349
0.09014758544812888
0.09765376789109102
0.09045313204341282
0.05216750743187201
0.06489419713398037
0.1325301117453389
0.4003765790903255
0.04961503815858592
0.05687419048829729
0.0911954301761303
0.3340403475241677
0.06718477711449991
0.06551382509895713
0.06843287743546972
0.2413876870393966
0.08828026482848408
0.07918619466118908
0.04075986874371712
0.1762268131204425
0.5823475717463859
0.6630365736541264
0.6893041263913583
0.6944397017151829
0.6145505860625816
0.6909517856534654
0.7211750500953665
0.729029380293864
0.6380732878825532
0.6955887846663802
0.7320410376959244
0.7401852290402253
0.7426934321305565
0.7032331927160244
0.7420523707012546
0.7468452990401324
0.6938087958896255
0.6932507376307108
0.6926618578608345
0.6903635873014038
0.7296269664137581
0.7299845528473929
0.7297059933005633
0.7271370448980095
0.7406438464697814
0.7407908610160591
0.7406098614265515
0.737606710349106
0.7451992896946529
0.7456856456558451
0.7454355539979245
0.74130611340639
0.6846611204677369
0.6687784940341568
0.6563457375414513
0.638188318413459
0.717111586897011
0.6974626305681831
0.6925156463052455
0.7048329416487922
0.7255273976988258
0.7033983082462582
0.6886799764047795
0.7041774984850057
0.7271029889380196
0.7072034024475101
0.706071759042166
0.7369712292443081
0.4073436585660311
0.3733253287542156
0.373325045859731
0.3733250521682531
0.4269919054761551
0.3733254770817023
0.3733250482303293
0.3733250620060943
0.4408421340353463
0.3733256659041249
0.3733250501529056
0.3733250609574711
0.4467077141883962
0.3733257710276434
0.3733250510746117
0.3733250490871343
0.3733253969213116
0.3733598283667017
0.3739607002407812
0.3766096909431366
0.3733258194999581
0.3733877380631064
0.3741743234105742
0.3761203178512031
0.3733266664935973
0.3734377606739706
0.3747103216856376
0.3777514085873921
0.3733227378218295
0.3732772811658099
0.3735421951800207
0.3760710151163425
0.3798060154975005
0.382116249645238
0.3988681617077532
0.4595909355660747
0.3767506868785445
0.371682004037835
0.3641779114357249
0.4212729365753046
0.3790902456081314
0.3723803583955974
0.3604476535453085
0.392088166125569
0.3789042052012449
0.3732343484398402
0.3620016654660874
0.3501946822767497
0.5210569404896553
0.5137919696722881
0.5130016836230717
0.5108945342843145
0.5296402513726822
0.5188082720400122
0.5179795092060053
0.5146486186359905
0.5275498650107391
0.5149504003978204
0.5141967937279707
0.5114031833101341
0.5268293393061333
0.5188364599314829
0.5179201338782006
0.5140027109380333
0.5028199592092721
0.488627097461849
0.4557188442115768
0.3945074446899711
0.5076888947589665
0.5001155839631966
0.4855159318058084
0.4250155784551709
0.5058788099320003
0.5005947011189666
0.4940120030966074
0.455095883348631
0.5067183396214302
0.5034054416696659
0.5096382299812127
0.5161405073857209
0.3687172967357586
0.3732866497193971
0.3733248933151212
0.3733250552476551
0.3660415315251921
0.3732437148304644
0.3733246471306124
0.3733250545770724
0.3632773309442948
0.3731746313587954
0.3733242199189714
0.3733250533478246
0.3575385154610846
0.3730564855021394
0.3733235834874547
0.3733250517009074
0.3733250515346038
0.3733235163149253
0.3730549145771155
0.3570370590741762
0.3733250515243019
0.3733235153930358
0.3730551375337878
0.3573279042733223
0.3733250514503454
0.3733235075751786
0.3730545334192257
0.3577507646117015
0.3733250514114889
0.3733235205687262
0.3730606083698244
0.3587380073559638
0.3733250517004518
0.3733250533473952
0.3733250545745666
0.3733250552447019
0.3733235834877222
0.3733242199189429
0.373324647130163
0.3733248933138337
0.3730564855031075
0.3731746313573466
0.3732437148317518
0.373286649718557
0.3575385154603267
0.3632773309428337
0.3660415315249386
0.36871729673634
)
;

boundaryField
{
    back
    {
        type            empty;
    }
    inlet
    {
        type            calculated;
        value           nonuniform List<scalar> 
16
(
0.3733250556165154
0.3733250556165154
0.3733250556165154
0.3733250556165154
0.3733250556165154
0.3733250556165155
0.3733250556165152
0.3733250556165155
0.3733250556165164
0.3733250556165154
0.3733250556165154
0.3733250556165151
0.3733250556165154
0.3733250556165152
0.3733250556165154
0.3733250556165154
)
;
    }
    front
    {
        type            empty;
    }
    top
    {
        type            calculated;
        value           nonuniform List<scalar> 
40
(
0.373325056489532
0.3733250568804548
0.3733250570978651
0.373325056167225
0.3733250605196672
0.3733250605834226
0.3733250591124606
0.3733250568647789
0.3733250557754341
0.3733250556207239
0.3733250556165154
0.3733250556165155
0.3733250556165154
0.3733250556159741
0.3733250558288771
0.3733250543773717
0.3733250534473772
0.3733250579555942
0.3733250642762718
0.3733250675865812
0.3733250709756837
0.3733250762158677
0.3733250816012106
0.3733250957329475
0.3733250923665511
0.3733251011957228
0.3733251160410128
0.373325098284743
0.3733246252638176
0.3733249992122503
0.3733250267314924
0.3733250143428394
0.3733250284149645
0.3733250341967162
0.3733250448595584
0.3733250433772242
0.3733250524400354
0.3733250552723434
0.3733250555570842
0.3733250555098618
)
;
    }
    outlet
    {
        type            calculated;
        value           uniform 0.3733250556165154;
    }
    bottom
    {
        type            calculated;
        value           nonuniform List<scalar> 
40
(
0.3733250555104627
0.3733250555572798
0.3733250552726183
0.3733250524395695
0.3733250284163271
0.3733250341974497
0.3733250448583152
0.3733250433776195
0.3733250143426887
0.373325026729481
0.3733249992100255
0.3733246252661916
0.3733250923660438
0.3733251011961521
0.3733251160423037
0.3733250982871063
0.3733250957326465
0.3733250816017105
0.373325076215473
0.3733250709752413
0.3733250534484794
0.3733250579542837
0.3733250642756593
0.3733250675858219
0.3733250543771512
0.3733250558293517
0.3733250556159801
0.3733250556165154
0.3733250556165152
0.3733250556165154
0.3733250556209124
0.3733250557757704
0.3733250605180561
0.3733250605821324
0.3733250591121764
0.373325056864432
0.3733250561665119
0.3733250570982301
0.3733250568800077
0.3733250564899269
)
;
    }
    wall
    {
        type            calculated;
        value           nonuniform List<scalar> 
104
(
0.5161405073833237
0.5096382299810369
0.5034054416699313
0.5067183396205457
0.5140027109372634
0.5179201338783912
0.518836459931535
0.526829339305988
0.3501946822760138
0.3620016654665886
0.373234348439867
0.3789042052021087
0.3760710151187517
0.3735421951784365
0.3732772811662856
0.3733227378220045
0.3733250490865832
0.3733250510746227
0.3733257710340566
0.446707714189226
0.7369712292451739
0.7060717590424872
0.707203402447781
0.727102988936308
0.7413061134081427
0.7454355539971557
0.7456856456547487
0.7451992896945921
0.7468452990390998
0.7420523707004824
0.7032331927157908
0.7426934321305325
0.1762268131205812
0.04075986874352362
0.07918619466137398
0.08828026482922015
0.09045313204353594
0.09765376789093022
0.09014758544806897
0.06067765141178151
0.07966572835413271
0.1415642774050764
0.2036900510332933
0.2636906051077376
0.1343003660283129
0.04987002703582456
0.03850244765806327
0.074480997389148
0.09178107660187754
0.09040788226188264
0.09112669926975907
0.1081663585951594
0.108166358594981
0.09112669926959401
0.09040788226180167
0.091781076601884
0.07448099738919378
0.03850244765807627
0.04987002703581731
0.1343003660283169
0.2636906051078095
0.2036900510337731
0.1415642774057125
0.07966572835424675
0.06067765141172349
0.09014758544812888
0.09765376789109102
0.09045313204341282
0.0882802648284841
0.07918619466118908
0.04075986874371712
0.1762268131204425
0.7426934321305565
0.7032331927160244
0.7420523707012546
0.7468452990401324
0.7451992896946529
0.7456856456558451
0.7454355539979245
0.74130611340639
0.7271029889380196
0.7072034024475101
0.706071759042166
0.7369712292443081
0.4467077141883962
0.3733257710276434
0.3733250510746116
0.3733250490871343
0.3733227378218296
0.3732772811658099
0.3735421951800207
0.3760710151163425
0.3789042052012449
0.3732343484398402
0.3620016654660874
0.3501946822767497
0.5268293393061333
0.5188364599314829
0.5179201338782006
0.5140027109380333
0.5067183396214302
0.5034054416696659
0.5096382299812127
0.5161405073857209
)
;
    }
}


// ************************************************************************* //
