/*--------------------------------*- C++ -*----------------------------------*\
  =========                 |
  \\      /  F ield         | OpenFOAM: The Open Source CFD Toolbox
   \\    /   O peration     | Website:  https://openfoam.org
    \\  /    A nd           | Version:  11
     \\/     M anipulation  |
\*---------------------------------------------------------------------------*/
FoamFile
{
    format      ascii;
    class       volScalarField;
    location    "0.35924";
    object      rho;
}
// * * * * * * * * * * * * * * * * * * * * * * * * * * * * * * * * * * * * * //

dimensions      [0 0 0 0 0 0 0];

internalField   nonuniform List<scalar> 
880
(
0.2239950333699092
0.2239950336977681
0.2240219328248798
0.2277383234702885
0.2239950333702082
0.2239950343337511
0.2240283865117403
0.2294907863017878
0.2239950333717012
0.2239950371325923
0.2240567409532824
0.2315876590613426
0.2239950333941023
0.2239950499093646
0.2241222593883492
0.2347101397734462
0.2239950332595152
0.2239950334139984
0.2239950459412949
0.2239952242269808
0.2239951096776542
0.2239953271975882
0.2239968609066915
0.2239977478437772
0.2242817742890488
0.2244566968396352
0.2247513609416216
0.2250683702686304
0.2401926483027706
0.2455345085977759
0.2500086875274946
0.2520204059360533
0.2239955037625805
0.2239988446453634
0.2240094189388777
0.2240395969120099
0.224020169692037
0.2241022695769384
0.2242088601575933
0.2244461145424776
0.2264583433778093
0.2276525549037988
0.2291735713429854
0.2311938925591916
0.253994157563515
0.2568434753078802
0.2574510784318375
0.256035536002833
0.2436280491353983
0.2366721143632992
0.23313847779647
0.2308248498032771
0.2347450341629984
0.2358608090292247
0.2365384913175028
0.236573153298696
0.225253320826666
0.2262088319106604
0.2272171555603819
0.2279429452910186
0.2241532058262369
0.224377796924663
0.2247180778416834
0.2251949001804536
0.2257495680797845
0.2263070715445358
0.226858745691612
0.2272748022197662
0.2284638088015199
0.2287684397978378
0.2289177988741406
0.2289563277544494
0.2358870572115014
0.2349358843469671
0.2336846635740903
0.2323892294355006
0.2284543354809027
0.2270997495947196
0.2263600231599929
0.2255254667778791
0.2257913062598241
0.2314865179116216
0.2288736195313435
0.2275323677628525
0.2365894282986408
0.2310972112064634
0.228624046871078
0.2274952825859064
0.2954185469427473
0.2338489670832547
0.2283257426982163
0.2269979671914852
0.3573547775729775
0.248671951092912
0.229279403061167
0.2268112684309153
0.2267526504193259
0.230696648188305
0.2665987182999974
0.3845285949289212
0.2257543209735377
0.2332915160388881
0.2862204477899221
0.3841154007158652
0.2261777299052959
0.2392101577353576
0.3116814599867639
0.3875965751808359
0.2277765712049295
0.2496204381737103
0.3348914274245861
0.38326121227
0.3736725516736477
0.347098493237391
0.2651527746531048
0.2312650547123978
0.361890434025626
0.3484420477178634
0.2820903575190615
0.2373734280178355
0.3493499839932242
0.3444407809028184
0.2966044678110193
0.2469835807230061
0.3360854886939438
0.3272442569141204
0.2987932549622968
0.2586695075813041
0.2688497349770432
0.2915297536793832
0.3056278861898757
0.320263938743846
0.2674722850760523
0.2769604684874024
0.2821377114043872
0.2973624676367423
0.2634559232182203
0.2629453375296041
0.258857290821865
0.2680362431468224
0.2581476303924865
0.2516080409464577
0.2376532896039646
0.233081253451477
0.2537306439626472
0.240283904007456
0.2167385878117921
0.18757984946674
0.2465610250868976
0.2298995549511308
0.199000188591166
0.1311075549064729
0.2410510165889109
0.2255981317795769
0.1852421889529701
0.08691813075335456
0.2363163191783685
0.2232415998519169
0.1728879931610314
0.05198530898765908
0.05321331021224151
0.1741773914750592
0.2213941121919396
0.2320724460931103
0.07253356320251537
0.1742433767346016
0.2201202593548768
0.2291996402498628
0.07399421164028795
0.1723922975861924
0.2183941926496066
0.2272667835286376
0.0682310489265385
0.1690856898981178
0.2169797459098585
0.2262497771803135
0.08121572595096414
0.1750663648755142
0.2166089884514853
0.224490039417904
0.09692868132774418
0.1821346169266731
0.2169351806282682
0.2234647460121001
0.1160781796792891
0.1914399291690329
0.2176616517757108
0.2234194451824805
0.1390480057006765
0.1994233760714969
0.2188312030076056
0.2235311082367652
0.1554773991083502
0.1757854458554679
0.2098480799368428
0.2225127095101138
0.1533143398552193
0.1786596909102862
0.2102823771207582
0.2224897047192093
0.1489464401499476
0.1829364657848946
0.211324766155121
0.2224887271806946
0.1437276572285276
0.1876055461530471
0.2129156873416053
0.2226131354046822
0.1390480057006371
0.199423376071426
0.2188312030074983
0.2235311082359736
0.1160781796793323
0.1914399291684423
0.2176616517754183
0.2234194451815762
0.09692868132772542
0.182134616926294
0.2169351806276407
0.2234647460110254
0.08121572595110167
0.1750663648751437
0.2166089884513181
0.2244900394172418
0.2320724460936465
0.2213941121919481
0.1741773914749274
0.05321331021143615
0.2291996402498425
0.2201202593547525
0.1742433767342562
0.0725335632019071
0.2272667835287485
0.2183941926496701
0.1723922975852649
0.0739942116401329
0.226249777180407
0.2169797459103768
0.1690856898980071
0.06823104892650524
0.05198530898748527
0.1728879931607754
0.223241599851735
0.236316319178516
0.08691813075298302
0.1852421889530895
0.2255981317796416
0.2410510165890969
0.1311075549062338
0.1990001885915044
0.2298995549511589
0.2465610250874544
0.1875798494668228
0.2167385878113781
0.2402839040068338
0.2537306439630058
0.2688497349774793
0.2915297536807249
0.3056278861907142
0.3202639387434528
0.2674722850759992
0.2769604684871927
0.2821377114047934
0.297362467636661
0.2634559232172889
0.2629453375293816
0.2588572908217793
0.2680362431468059
0.258147630392269
0.251608040946157
0.2376532896037988
0.2330812534517231
0.3360854886937514
0.3272442569144553
0.2987932549631123
0.2586695075830529
0.349349983992847
0.3444407809029182
0.296604467811402
0.2469835807233612
0.3618904340253915
0.3484420477176087
0.2820903575189188
0.2373734280185157
0.3736725516726851
0.3470984932379945
0.2651527746538353
0.2312650547125573
0.2267526504192251
0.2306966481884778
0.2665987182997614
0.3845285949283549
0.2257543209745652
0.2332915160391823
0.2862204477898599
0.3841154007148954
0.2261777299069468
0.2392101577366618
0.3116814599867989
0.387596575180711
0.2277765712052479
0.2496204381734388
0.3348914274246236
0.3832612122692602
0.2268112684310364
0.2269979671913819
0.2274952825866629
0.2275323677629582
0.2292794030603948
0.2283257426976663
0.2286240468712404
0.2288736195313476
0.2486719510920836
0.2338489670833749
0.2310972112058791
0.2314865179113861
0.3573547775720846
0.2954185469420297
0.2365894282987842
0.2257913062599026
0.2272748022202817
0.2289563277545571
0.2323892294357927
0.225525466778218
0.2268587456909252
0.2289177988745954
0.233684663574498
0.2263600231602242
0.2263070715444861
0.2287684397978338
0.234935884346666
0.2270997495940149
0.2257495680792387
0.2284638088010646
0.2358870572122656
0.2284543354810074
0.2241532058260733
0.2252533208261407
0.2347450341634484
0.2436280491359322
0.2243777969240977
0.2262088319097089
0.2358608090297649
0.2366721143631472
0.2247180778423493
0.2272171555594824
0.2365384913173544
0.2331384777955084
0.2251949001799896
0.2279429452907065
0.2365731532994387
0.2308248498027587
0.2560355360025878
0.2311938925592982
0.2244461145420104
0.224039596912933
0.2574510784316949
0.2291735713431422
0.2242088601573732
0.224009418938852
0.2568434753079846
0.2276525549035384
0.224102269575487
0.2239988446448104
0.2539941575632779
0.2264583433773229
0.2240201696915346
0.2239955037633991
0.2520204059358346
0.2250683702686825
0.2239977478438595
0.2239952242279248
0.2500086875265545
0.2247513609415934
0.2239968609060923
0.2239950459418871
0.2455345085969692
0.2244566968395413
0.2239953271970604
0.2239950334137531
0.2401926483020596
0.224281774288786
0.2239951096776701
0.2239950332612175
0.2239950333699093
0.2239950336979977
0.2240219328249183
0.2277383234700141
0.2239950333704065
0.2239950343329978
0.2240283865115393
0.2294907863018941
0.2239950333721685
0.2239950371320647
0.2240567409534452
0.2315876590618532
0.2239950333946451
0.223995049909224
0.2241222593884588
0.2347101397736424
0.2309861697831603
0.2340819984092333
0.2390623776353946
0.2488981728653907
0.2340819984098179
0.2381175223965923
0.2455749719874286
0.2600343278197945
0.2390623776355874
0.2455749719874591
0.2575891136736312
0.2748619290890459
0.2488981728655026
0.2600343278194555
0.2748619290894666
0.2928130405615502
0.3104168811951212
0.2953227778170376
0.2891131082326895
0.2745365792221851
0.3072133532423089
0.3028633272065857
0.3034060386485589
0.2963692112890505
0.3073450901555779
0.3059056908091621
0.3051219387424789
0.3025789014490011
0.3028577509745494
0.302091070973323
0.301805103079497
0.3000918326521938
0.2950241975527548
0.2917402063125299
0.2853881908936098
0.2766609075748593
0.2958576272104635
0.2924023242829811
0.2858384637804621
0.277497421700109
0.2966770749482756
0.2929359188144847
0.2859251812397227
0.2782978966365947
0.2970755542360731
0.2928006595228515
0.2862006104803271
0.2758410798409269
0.2263160044927591
0.2042669344165707
0.2017442783201933
0.2026247464003388
0.2115210155033136
0.1977465661225351
0.199027560311353
0.200636888666117
0.1993451579948491
0.1972926355857144
0.2000143623309981
0.2014853808754044
0.1809417635643948
0.1925852946991759
0.19785757404554
0.1999100070285184
0.2023250263228488
0.202937712650557
0.2046254166959132
0.2066682885404877
0.2009342817288477
0.2018165100797977
0.2037633528551913
0.2063167206589611
0.2016263079789157
0.2022703736430976
0.2039849771379886
0.2060231758719573
0.2003331873685041
0.2011783091413225
0.2033032862221202
0.2060922172192423
0.218090637448893
0.2812269945119247
0.3614465088852358
0.3822062440821946
0.2229338689197339
0.292735147095586
0.3544362312456013
0.3674469954886282
0.2263457736135169
0.297562446089119
0.351780880221455
0.3643081565330309
0.2283732163623052
0.3061310169710635
0.3524212789463868
0.36403255196405
0.4398963247122442
0.4300640649747312
0.4215526754582087
0.406082669725835
0.4369335702953511
0.430366321757967
0.4218056692014572
0.4064940892711869
0.4312648124877297
0.4288324735720888
0.4202840068274016
0.4055014518804175
0.422395132240475
0.4303379851637312
0.4216457938765207
0.4068331000930494
0.3874995354472301
0.371307275887931
0.3555401052571597
0.3469266798860119
0.3887661660021152
0.3719699762571725
0.3555318591678706
0.3465955053861785
0.3881552347677546
0.3703885802414364
0.3547412566888569
0.3453439591895979
0.3906672702885087
0.3717201904228464
0.3564597995516477
0.3464651517875255
0.3381634676050438
0.3240656955655163
0.3003142887121709
0.2623605982238099
0.3387637741261598
0.3267220585735918
0.3038970999889083
0.2701430732719945
0.3380925775162205
0.3272113365404355
0.3035348013211285
0.2700297983616427
0.3396843165233304
0.3305061235333945
0.3044650054071055
0.3119512703950472
0.1731390778717798
0.05034360843120716
0.008911685645448593
0.004212513411250218
0.1365654479341298
0.03448442708399886
0.01027376793213215
0.008103985082108651
0.1037545528774096
0.02499436254769122
0.0108997210147007
0.009786464842273005
0.07437613163208973
0.01516439558589459
0.01060688820838114
0.01059492461701509
0.007180483340230011
0.01439501352035942
0.02016538782146141
0.02856957972141854
0.01249854723462154
0.01872612141513949
0.02471732509126569
0.03400851337104698
0.01535713274445344
0.02183464995107759
0.02993065704299266
0.03977529498886103
0.01757952084604105
0.02469577914295201
0.03513773314506301
0.04478674674139437
0.03597848669085491
0.05195615431072621
0.07156236536904034
0.09542342420245993
0.03896813978237839
0.05280851427375906
0.07024320642582821
0.09111839611282277
0.04275464376571369
0.0528761207272743
0.06805764028137792
0.08777983622369803
0.04171589938395857
0.04958538016579327
0.05995609085838309
0.08264936610263457
0.09972180666775043
0.09878467155045856
0.09918707908412601
0.1010378781292831
0.09008891498558193
0.09155948525571631
0.0936597314416051
0.09517711490723854
0.08610349717180488
0.0901028023382555
0.0920640224000856
0.09461471799360258
0.08127635146685494
0.08658427305793229
0.0891984719938828
0.09399535811810383
0.09891461226799787
0.1032394780669036
0.1060209332078615
0.1069879161977264
0.09791341066117969
0.1011865459741432
0.1034637414390776
0.1045897336319691
0.09812579187510151
0.1013573923064116
0.1046579474342145
0.1063072040543297
0.1051234180966883
0.1089091846387804
0.1123105574900215
0.1130948846323031
0.106987916197741
0.1045897336319039
0.1063072040544103
0.1130948846322942
0.1060209332080046
0.1034637414391258
0.104657947434251
0.1123105574899572
0.1032394780668876
0.1011865459742361
0.1013573923065157
0.1089091846388541
0.09891461226824205
0.09791341066116072
0.09812579187512395
0.1051234180968075
0.1010378781295177
0.09918707908414495
0.09878467155055763
0.09972180666778359
0.09517711490730597
0.09365973144172682
0.0915594852558405
0.09008891498563935
0.09461471799372047
0.09206402240026738
0.09010280233840669
0.08610349717195144
0.09399535811815571
0.08919847199397975
0.08658427305802203
0.08127635146700116
0.08264936610288605
0.05995609085870787
0.04958538016606585
0.04171589938419983
0.08777983622389182
0.06805764028159221
0.05287612072754742
0.04275464376601671
0.09111839611300605
0.07024320642612066
0.05280851427403382
0.03896813978260871
0.09542342420260522
0.07156236536931739
0.0519561543109273
0.03597848669119573
0.02856957972158469
0.02016538782154262
0.01439501352027815
0.007180483340162237
0.03400851337121065
0.02471732509139581
0.01872612141513042
0.01249854723462017
0.03977529498903311
0.0299306570431549
0.02183464995109184
0.01535713274444448
0.04478674674155225
0.03513773314520574
0.02469577914298568
0.01757952084602208
0.004212513411159087
0.008911685645284138
0.05034360843088247
0.1731390778718163
0.008103985082090655
0.01027376793207427
0.03448442708385193
0.1365654479339027
0.009786464842266326
0.01089972101465794
0.02499436254761418
0.103754552877325
0.01059492461698829
0.01060688820833818
0.01516439558586384
0.07437613163194144
0.262360598223794
0.3003142887117565
0.3240656955647531
0.3381634676045964
0.27014307327168
0.3038970999887
0.3267220585732321
0.3387637741255588
0.2700297983612401
0.3035348013206689
0.3272113365402046
0.338092577515985
0.3119512703948184
0.3044650054068645
0.3305061235334837
0.3396843165228338
0.3469266798855121
0.3555401052562139
0.3713072758874156
0.3874995354462459
0.3465955053856654
0.3555318591676687
0.3719699762555433
0.3887661660009822
0.3453439591897609
0.3547412566879974
0.3703885802399091
0.3881552347665876
0.3464651517872392
0.3564597995510811
0.3717201904219539
0.3906672702880151
0.4060826697253036
0.4215526754575849
0.430064064974349
0.4398963247123746
0.4064940892709556
0.42180566920101
0.4303663217572781
0.4369335702955503
0.4055014518801664
0.4202840068268687
0.4288324735718418
0.4312648124877934
0.4068331000930389
0.4216457938762462
0.4303379851629646
0.4223951322410693
0.3822062440822031
0.3614465088848167
0.2812269945120999
0.2180906374494783
0.3674469954885264
0.3544362312453784
0.2927351470957311
0.2229338689203085
0.3643081565329664
0.3517808802213191
0.2975624460891964
0.226345773614115
0.3640325519634451
0.3524212789462606
0.3061310169711454
0.2283732163629277
0.2066682885408426
0.2046254166952115
0.2029377126493946
0.2023250263220046
0.2063167206594138
0.2037633528549546
0.2018165100786966
0.2009342817283856
0.2060231758724796
0.2039849771376452
0.202270373642065
0.2016263079785041
0.2060922172197551
0.203303286221626
0.2011783091402599
0.2003331873678263
0.2026247463993971
0.2017442783194686
0.2042669344167761
0.2263160044929712
0.2006368886652
0.1990275603105052
0.1977465661229528
0.2115210155034345
0.2014853808745043
0.2000143623301625
0.1972926355862627
0.1993451579949038
0.1999100070276052
0.1978575740445411
0.1925852946997232
0.1809417635645477
0.2766609075748535
0.285388190893505
0.2917402063129327
0.2950241975525335
0.2774974216999712
0.2858384637810469
0.292402324283331
0.2958576272100458
0.2782978966366497
0.2859251812396137
0.2929359188143868
0.296677074948077
0.2758410798408096
0.2862006104809052
0.2928006595235479
0.2970755542358001
0.3000918326512157
0.3025789014475832
0.2963692112871898
0.2745365792220451
0.3018051030780317
0.3051219387407021
0.3034060386460337
0.2891131082318572
0.3020910709723653
0.3059056908073974
0.3028633272042711
0.2953227778155071
0.3028577509731549
0.3073450901543729
0.3072133532394803
0.3104168811918477
0.1499140225066032
0.2006575272598129
0.2185668194546262
0.2235520574785406
0.1465622002094625
0.1988678784791057
0.217418381105948
0.2233523239294031
0.1435225737848566
0.1964068594929163
0.2163006039105455
0.2231148883489484
0.1411684141682968
0.1921312891171529
0.2146286405206584
0.2228456436014545
0.2225127095100768
0.2098480799368453
0.1757854458555317
0.1554773991084616
0.2224897047189823
0.210282377120732
0.1786596909104206
0.1533143398551919
0.2224887271806225
0.2113247661552657
0.1829364657849551
0.1489464401499978
0.2226131354045369
0.212915687341439
0.187605546153133
0.1437276572286163
0.2228456436011513
0.2231148883487065
0.2233523239291268
0.2235520574778297
0.2146286405200535
0.2163006039103093
0.2174183811053758
0.218566819454345
0.1921312891171731
0.1964068594928727
0.1988678784792846
0.2006575272600954
0.1411684141682634
0.1435225737847645
0.1465622002094517
0.1499140225066179
)
;

boundaryField
{
    back
    {
        type            empty;
    }
    inlet
    {
        type            calculated;
        value           nonuniform List<scalar> 
16
(
0.2239950333699092
0.2239950333702082
0.2239950333717012
0.2239950333941023
0.2239950332595152
0.2239950334139984
0.2239950459412949
0.2239952242269808
0.2239952242279247
0.2239950459418871
0.2239950334137531
0.2239950332612175
0.2239950333699093
0.2239950333704065
0.2239950333721685
0.2239950333946451
)
;
    }
    front
    {
        type            empty;
    }
    top
    {
        type            calculated;
        value           nonuniform List<scalar> 
40
(
0.2239955037625805
0.2239988446453634
0.2240094189388777
0.2240395969120099
0.2241532058262369
0.2243777969246629
0.2247180778416834
0.2251949001804536
0.2257495680797845
0.2263070715445358
0.226858745691612
0.2272748022197662
0.2275323677628525
0.2274952825859064
0.2269979671914852
0.2268112684309153
0.226752650419326
0.2257543209735377
0.2261777299052959
0.2277765712049295
0.2312650547123978
0.2373734280178355
0.2469835807230061
0.2586695075813041
0.2688497349770432
0.2674722850760523
0.2634559232182203
0.2581476303924865
0.2537306439626472
0.2465610250868976
0.2410510165889109
0.2363163191783685
0.2320724460931103
0.2291996402498628
0.2272667835286376
0.2262497771803136
0.224490039417904
0.2234647460121001
0.2234194451824806
0.2235311082367652
)
;
    }
    outlet
    {
        type            calculated;
        value           uniform 0.2239950333699093;
    }
    bottom
    {
        type            calculated;
        value           nonuniform List<scalar> 
40
(
0.2235311082359736
0.2234194451815762
0.2234647460110254
0.2244900394172418
0.2320724460936465
0.2291996402498425
0.2272667835287485
0.226249777180407
0.236316319178516
0.2410510165890969
0.2465610250874544
0.2537306439630058
0.2688497349774793
0.2674722850759992
0.2634559232172889
0.258147630392269
0.2586695075830529
0.2469835807233612
0.2373734280185157
0.2312650547125573
0.2267526504192251
0.2257543209745652
0.2261777299069468
0.2277765712052479
0.2268112684310364
0.2269979671913819
0.2274952825866629
0.2275323677629582
0.2272748022202817
0.2268587456909252
0.2263070715444861
0.2257495680792387
0.2241532058260733
0.2243777969240977
0.2247180778423493
0.2251949001799896
0.224039596912933
0.224009418938852
0.2239988446448104
0.2239955037633991
)
;
    }
    wall
    {
        type            calculated;
        value           nonuniform List<scalar> 
104
(
0.3104168811951212
0.3072133532423089
0.3073450901555779
0.3028577509745494
0.2970755542360731
0.2928006595228515
0.2862006104803271
0.2758410798409269
0.1809417635643948
0.1925852946991759
0.19785757404554
0.1999100070285184
0.2003331873685041
0.2011783091413225
0.2033032862221202
0.2060922172192423
0.2283732163623052
0.3061310169710636
0.3524212789463868
0.36403255196405
0.422395132240475
0.4303379851637312
0.4216457938765207
0.4068331000930494
0.3906672702885087
0.3717201904228464
0.3564597995516477
0.3464651517875255
0.3396843165233304
0.3305061235333945
0.3044650054071055
0.3119512703950472
0.07437613163208973
0.01516439558589459
0.01060688820838114
0.01059492461701509
0.01757952084604105
0.02469577914295201
0.03513773314506301
0.04478674674139437
0.04171589938395857
0.04958538016579327
0.05995609085838308
0.08264936610263457
0.08127635146685494
0.08658427305793229
0.0891984719938828
0.09399535811810383
0.09891461226799787
0.1032394780669036
0.1060209332078615
0.1069879161977264
0.106987916197741
0.1060209332080046
0.1032394780668876
0.09891461226824205
0.09399535811815572
0.08919847199397975
0.08658427305802203
0.08127635146700116
0.08264936610288605
0.05995609085870787
0.04958538016606585
0.04171589938419983
0.04478674674155225
0.03513773314520574
0.02469577914298568
0.01757952084602208
0.01059492461698829
0.01060688820833818
0.01516439558586384
0.07437613163194144
0.3119512703948184
0.3044650054068645
0.3305061235334837
0.3396843165228338
0.3464651517872392
0.3564597995510811
0.3717201904219539
0.3906672702880151
0.4068331000930389
0.4216457938762462
0.4303379851629646
0.4223951322410693
0.3640325519634451
0.3524212789462606
0.3061310169711454
0.2283732163629277
0.2060922172197551
0.203303286221626
0.2011783091402599
0.2003331873678263
0.1999100070276052
0.1978575740445411
0.1925852946997232
0.1809417635645477
0.2758410798408096
0.2862006104809052
0.2928006595235479
0.2970755542358001
0.3028577509731549
0.3073450901543729
0.3072133532394803
0.3104168811918477
)
;
    }
}


// ************************************************************************* //
