/*--------------------------------*- C++ -*----------------------------------*\
  =========                 |
  \\      /  F ield         | OpenFOAM: The Open Source CFD Toolbox
   \\    /   O peration     | Website:  https://openfoam.org
    \\  /    A nd           | Version:  11
     \\/     M anipulation  |
\*---------------------------------------------------------------------------*/
FoamFile
{
    format      ascii;
    class       surfaceScalarField;
    location    "0.1545";
    object      phi;
}
// * * * * * * * * * * * * * * * * * * * * * * * * * * * * * * * * * * * * * //

dimensions      [0 3 -1 0 0 0 0];

internalField   nonuniform List<scalar> 
1652
(
2.843686947071611
0.8895636090847481
0
1.954123337988149
0.8895636090834618
-2.220446049250313e-16
1.064559728944502
0.8895636086642604
-9.117151478221786e-13
0.889551840342838
4.453992730191203e-12
0.1749976038651219
2.843686947076741
1.779127218162428
1.954123337998014
1.779127218162188
1.064559729129841
1.779127215614793
1.779034416934609
0.175026502472078
2.843686947090741
2.668690827246526
1.954123338008367
2.668690827244562
1.064559730659496
2.668690807043809
2.668307814698852
0.1751575993665387
2.843686947092868
3.558254436328659
1.954123338013008
3.558254436324421
1.064559754156939
3.558254123291197
3.556390928363213
0.1754144546709514
4.418652025448567
2.872852967045247
5.279049614570345
2.872852967043177
6.13944720369806
2.872852967042471
2.872852967039768
6.999844791883183
4.418652025437518
2.012455377932159
5.279049614551002
2.012455377929711
6.139447203662624
2.012455377929159
2.012455377926366
6.999844792776315
4.418652416643191
1.152059793936574
5.279050288245835
1.152052336900471
6.139518349812032
1.151972617190137
1.15267788867873
6.998747730641559
4.43794694912382
0.2489763322689408
5.430379408413233
0.1082023488421412
6.470723601855843
0.04354598554385525
7.521986891189607
0.03270822865520095
6.941512682839369
0.05833199380445375
6.883173140906693
0.05833116486833712
6.824845734298048
0.05831603844426403
0.05831734236780839
6.766513970798688
6.941520067019803
0.116642323362085
6.883236810495192
0.1165820054797788
6.825010570278968
0.11645221770076
0.1163849300498443
6.766818493895784
6.94624960158275
0.16538011508551
6.897576270767191
0.1599396308551559
6.852258256511916
0.155277655435181
0.149416087128045
6.807656868794525
7.606890024044175
0.01900814613801327
7.682831175463608
0.01268924972539553
7.739646506074709
0.01396455815054648
7.798135101233349
0.004270669827162288
7.861347075393287
0.05692942895090397
-0.1745799386980897
7.75562001420865
0.1143903674717086
-0.05521322746649293
7.642947536842013
0.09801379702808138
-0.01205135754741887
0.08105220616177755
7.567938572238093
-0.009170302590451207
6.840314002448263
0.0008522354974562774
6.913139731620168
0.003277082928749175
6.954041552225243
0.006582219751652074
0.007928066473515072
6.962701932209829
6.767208240688304
4.386419237389916e-05
6.76867112200875
0.0001515139136446519
6.771120821851498
0.0003856040057379495
0.0005759804946580127
6.772805934822845
6.766516448072251
6.766526520595255
6.76652385093869
6.766509983532217
6.766473015517163
-0.0005735400339854646
6.766449451198485
-0.0005196653640516802
6.766450723937908
-0.0003876501871294957
-0.0002200227429158819
6.766475180014653
6.772989145438188
-0.007278687180461874
6.772370335858631
-0.006160242401698768
6.770872714950063
-0.004648733685203021
-0.002963808097213194
6.768811685295394
6.951629038928716
-0.06338487695377998
6.927062994361807
-0.04721502788802184
6.892208507244103
-0.03465135897037669
-0.02519383192248037
6.851062980743825
7.485635807100131
-0.006906433031495907
7.382479783793503
-0.003538315338618314
7.269449177937283
-0.001094138828829305
7.1520051440776
-0.001073594714294301
0.01773772606863971
7.035472339400221
-0.002121543529075898
0.001399434302123748
6.809287492760547
7.998419381816113e-05
6.767163529942787
6.76650405824518
0.01152653590235958
6.92376019813593
-0.002118181251137274
0.0003809923500793788
6.778600236922391
1.506680801943716e-05
6.766581666549778
6.76651512205548
0.001682408676714486
6.852175513982308
-0.003025417915789697
2.772985216392687e-05
6.76886256371542
6.73021940733598e-07
6.766525389112181
6.766518055500093
0.00312168535362628
6.918555748091617
-0.1691877191254399
2.188299796912485e-05
6.768554816047581
1.16004566286243e-06
6.766516331237145
6.766511860816573
0.1555526767471295
6.610959978125398
0.3110611719798027
6.610996504076822
0.4527895035519418
6.620053540901051
6.988012583712761
0.1241691440436494
0.1555431271817771
6.455408520923577
0.3108025649591536
6.45554111976606
0.4242137942276337
6.480409308133099
6.906397563958868
0.1461259454756961
0.155504583278016
6.299873528936002
0.3101385591895278
6.300323986800802
0.3844047691102708
6.346363355085043
6.804455544291444
0.1028468589747763
0.1554225819926079
6.144336062937104
0.3089030527628183
6.145171639239089
0.3368688862798121
6.21703721086445
6.627242859998151
0.07746469982907667
-0.2743157288068737
6.39054729197203
0.03972213470130648
-0.306463510563361
6.089182392811291
-0.1552370141096059
5.990564199212454
5.988840591133011
-0.2069622112942806
6.14885505082788
0.01485960639451334
-0.3027284817844387
5.973174363294619
-0.1548998275788758
5.836585931557247
5.833347645696133
-0.1304022106890289
5.890386305493136
-0.0007225160060703173
-0.297234175223964
5.845080832296546
-0.1545569190388359
5.682013994458511
5.677864370843101
-0.03950393456291734
5.609497124556679
-0.002578305725989827
-0.2893935177045212
5.714838665686584
-0.1537720693096105
5.528845268803208
5.522496360372961
0.1969661089450925
5.323281978736393
0.3668105544905453
5.33034656249847
0.04857889653992442
5.524283306913847
5.345731706011069
0.02120131790215374
0.1952954734997409
5.124443503343217
0.3503607728565833
5.133156859400602
0.01954289564857659
5.280120426921358
5.052842590955846
0.0620719680529922
0.1941080359187443
4.921446904527826
0.3492458899826171
4.932820783171997
0.1554364729127398
5.056901459023952
4.90463613244033
0.18066507551771
0.1961506141206348
4.727563239919371
0.3662188324190105
4.73333676663546
0.3269403648573856
4.811271065997189
4.784644174550467
0.361444990353009
-0.3443827144560795
5.063640806718581
-0.7527375842585977
5.083170889240533
-1.297160166195943
5.193921684599976
4.869989952151134
-1.426890775859299
-0.3472222319865329
5.398470555837536
-0.7515437399446583
5.436544411259614
-1.0677432285227
5.477168036744186
4.30460461563073
-0.4437052134929049
-0.342076105364408
5.732705880241311
-0.6937454662191317
5.758849006058591
-0.9497904531571971
5.757870916388106
3.619262500756339
-0.05208351328609206
-0.33578984322675
6.067180821868352
-0.6671606215892913
6.075651609979973
-0.7978074922809091
5.955925778487595
3.215789166372009
-0.03748455616674046
0.3398114599374973
3.14618325397949
-0.01651318933840198
0.3375720772551515
6.030493474141983
0.1747466430718617
6.237328275723877
6.241757997864842
0.2997425635527729
3.068069882437111
-0.01021990755720121
0.3326013735398963
6.082882285509394
0.1746179079075394
6.405529163354328
6.416607847692007
0.2891509058566282
2.972038782169921
-0.003214698059438165
0.3318176086079154
6.142164568146199
0.1746938874870207
6.578542873967841
6.591433539081461
0.2676925154079146
2.87531909401359
0.009352338560663177
0.3294368167413053
6.22329166561704
0.1746913133548961
6.751545668491112
6.766436826466298
-0.2033277387069188
3.242789742743049
0.08305133743830373
-0.02055686548013869
6.361410532079105
-0.0002774863637517999
6.759835562568774
6.766492599145261
-0.1447116205632154
3.613696055568035
0.1123834544635452
-0.009278331809036588
6.524078449172576
-8.59189005406602e-05
6.764305908850273
6.766510680223581
-0.1033254529563032
4.120533253779709
0.1132781459636179
-0.004189940434831563
6.662322859722744
-3.03229095961477e-05
6.766235380490802
6.766515752181246
-0.07597241524345866
0.1177252793327282
4.669313343362743
-0.00179490758520906
6.693893919238834
-1.098631955342988e-05
6.765312421813094
6.766515989486512
1.001718875009894
-0.9285291542306684
-0.007521338018800696
8.780132176866573e-11
1.972116457032709
-0.8688252996778458
5.513189904604587e-11
2.857993407749492
-0.8743813447220465
7.436540272465209e-11
-0.8749716208963241
-4.958700117185799e-11
1.002731951835627
-1.745038110496214
-0.009190219381618417
1.972926068858736
-1.733824085654079
2.858001393422802
-1.748710857474597
-1.749942600693422
0.9945255969374447
-2.465800967910662
-0.01739017516724795
1.973078689373229
-2.6034400674109
2.858013373938353
-2.623534307724368
-2.624917071339313
0.9955154551063859
-0.03524579413418419
-3.117709547114466
1.974415209654486
-3.47499633084751
2.858052946865759
-3.499054012383739
-3.499907684395061
-0.07597241524400766
-4.120533253796136
0.1177252793316144
4.669313343387797
-0.001794907598337447
-6.662322859744595
6.693893919243333
-1.098637871721486e-05
-6.766235380505723
6.765312421851947
-6.766515752228003
6.766515989598314
-0.1033254529639096
-3.613696055591739
0.1132781459658779
-0.004189940447413276
-6.524078449191088
-3.032287906279407e-05
-6.764305908879437
-6.766510680165121
-0.1447116205829344
-3.242789742740065
0.1123834544615476
-0.009278331839202236
-6.361410532056748
-8.591891054265943e-05
-6.759835562574387
-6.766492599169729
-0.2033277387074641
-2.875319094000834
0.08305133743627471
-0.02055686546190927
-6.223291665608419
-0.0002774863573375974
-6.751545668479351
-6.766436826461387
-0.1747466430746141
6.241757997906547
-6.067180821929352
-0.337572077249883
6.237328275758745
-6.07565161001482
-0.3398114599305067
6.030493474092905
-5.955925778433383
3.146183253947597
-3.215789166330035
-0.01651318933861031
-0.1746179078700802
6.416607847747938
-0.3326013735215652
6.405529163386148
-0.2997425635481352
6.082882285478398
3.068069882409994
-0.01021990755644459
-0.1746938874913068
6.59143353899792
-0.3318176085876885
6.578542873985375
-0.2891509058506989
6.142164568134183
2.972038782152991
-0.003214698058680139
-0.1746913133438002
-0.329436816717054
-0.2676925153986053
0.009352338559089603
0.7978074922821662
-3.619262500711975
-0.03748455616694789
0.6671606216176721
-5.757870916360242
0.3357898432448937
-5.758849006125139
-5.732705880270859
0.9497904531624908
-4.3046046156019
-0.05208351328397472
0.6937454662396689
-5.477168036726065
0.3420761053707356
-5.436544411327112
-5.398470555824804
1.067743228534344
-4.869989952143354
-0.4437052134905952
0.7515437399699556
-5.193921684603722
0.3472222319967336
-5.08317088928758
-5.063640806689349
1.297160166211072
-4.784644174551683
-1.426890775863603
0.7527375842788071
-4.811271066033885
0.3443827144410498
-4.733336766612056
-4.727563239956936
0.1969661089610475
5.323281978761577
-5.522496360385327
0.3668105545312462
5.330346562513101
-5.528845268791843
0.04857889654091962
5.524283306847297
-5.714838665557063
5.345731705971749
-5.609497124510474
0.02120131790568558
0.1952954734925824
5.124443503375357
0.3503607728508953
5.13315685936771
0.0195428956674466
5.280120426875631
5.052842590948281
0.06207196805729542
0.1941080359216184
4.921446905017404
0.3492458899994546
4.932820783152953
0.1554364729204865
5.056901458995273
4.904636132437282
0.1806650755198711
0.1961506141351795
0.3662188324427053
0.3269403648584547
0.3614449903538773
-0.03950393452849021
-5.890386305523473
-0.002578305719536544
-0.2893935176477322
-5.845080832364756
-0.1537720692729605
-5.682013994461947
-5.67786437085484
-0.130402210717987
-6.148855050839416
-0.0007225160065406078
-0.2972341752482524
-5.97317436341377
-0.154556919051225
-5.836585931802728
-5.833347645721063
-0.2069622112963925
-6.390547291921826
0.01485960639717687
-0.3027284817319802
-6.089182392719587
-0.1548998275460535
-5.990564199189021
-5.988840591150294
-0.2743157287441567
-6.627242859969496
0.03972213470384234
-0.306463510558489
-6.217037210805576
-0.1552370141068896
-6.145171639228654
-6.144336062952083
0.1555526767497438
6.610959978205554
-6.766511860897388
0.3110611719799253
6.610996504070689
-6.766516331209912
0.452789503559609
6.620053540905345
-6.768554816053928
6.988012583697855
-6.918555748083494
0.1241691440371092
0.1555431271851945
6.455408520933143
0.3108025649624795
6.455541119781408
0.4242137942230623
6.480409308130607
6.906397563992919
0.1461259454830346
0.1555045832857949
6.29987352893467
0.310138559202536
6.300323986805587
0.3844047691120627
6.346363355126372
6.804455544330271
0.1028468589812233
0.1554225819828395
0.3089030527420933
0.3368688862859156
0.07746469983155757
-6.76651805549172
-1.160046870896103e-06
-6.766515122056293
-6.730217024797369e-07
-6.766504058242256
-1.506680742013877e-05
-7.99841900949172e-05
-6.766475180017301
-6.766525389075655
-2.188300016192635e-05
-6.766581666566911
-2.772985193577604e-05
-6.767163529943333
-0.00038099234426614
-0.001399434301752489
-6.768811685304043
-6.768862563723809
-0.003121685354112225
-6.778600236918164
-0.00168240867468078
-6.809287492736055
-0.01152653591748076
-0.0177377260691402
-6.851062980731477
-6.852175513975618
-0.1691877191149468
-6.923760198128359
-0.003025417913927353
-7.035472339392525
-0.002118181256569263
-7.152005144083117
-0.00212154352468541
-0.0002200227497805018
-6.766450723932237
-0.002963808105398091
-6.770872714942557
-0.0251938319192288
-6.892208507270179
-7.269449177953102
-0.001073594713385972
-0.0003876501883779415
-6.766449451193127
-0.004648733687788842
-6.772370335859708
-0.03465135895575344
-6.927062994368798
-7.382479783802449
-0.001094138825206814
-0.0005196653642906002
-6.766473015528177
-0.006160242404943284
-6.772989145444891
-0.04721502789288962
-6.951629038934409
-7.485635807111287
-0.00353831534010135
-0.0005735400372923749
-6.766509983523557
-0.007278687190040323
-6.772805934842031
-0.06338487694643619
-6.962701932212489
-7.567938572251077
-0.006906433030060388
-4.386420685886794e-05
6.766516448068769
-6.766513970803643
-0.0008522355171455276
6.767208240669743
-6.766818493874149
-0.05692942897323605
6.840314002407711
-6.807656868897781
7.861347075419137
-7.798135101279915
-0.1745799386984535
-0.0001515139192834747
6.766526520600032
-0.003277082932437225
6.768671122013727
-0.1143903674851417
6.913139731555308
7.755620014224814
-0.05521322747179452
-0.00038560400550125
6.766523850940095
-0.006582219748648255
6.771120821863422
-0.09801379703994412
6.954041552200171
7.642947536859643
-0.01205135754925235
-0.0005759804999989626
-0.007928066481431517
-0.08105220616680264
-0.009170302592261093
-0.149416087140562
-7.739646506112324
0.004270669833781882
-0.1163849300633341
-6.852258256756157
-0.05831734236911268
-6.825010570275397
-6.824845734306668
-0.155277655467765
-7.682831175472593
0.01396455815186332
-0.1164522177147957
-6.897576270992437
-0.05831603845303268
-6.88323681047912
-6.883173140344929
-0.1599396308894194
-7.606890023993432
0.01268924973655949
-0.1165820055037708
-6.94624960168077
-0.05833116485409218
-6.941520067039948
-6.941512682833267
-0.165380115068376
-7.521986891104007
0.01900814613338853
-0.1166423233845315
-6.998747730452488
-0.05833199380997944
-6.999844792819415
-6.999844791881246
-1.152677888615487
-6.470723601840256
0.0327082286683319
-2.012455377911126
-6.139518349634668
-2.872852967039752
-6.139447203690558
-6.139447203695127
-1.151972617218853
-5.430379408392838
0.04354598556366984
-2.012455377916392
-5.279050288234205
-2.872852967042227
-5.279049614566468
-5.279049614567241
-1.152052336900736
-4.43794694905873
0.108202348845289
-2.012455377921992
-4.418652416635146
-2.872852967044603
-4.41865202544384
-4.418652025446893
-1.152059793933828
-3.556390928146016
0.2489763321280999
-2.012455377927508
-3.558254123296143
-2.872852967046921
-3.558254436324423
-3.558254436328661
2.843686947076677
0.8895636090796828
1.954123337995112
0.8895636090815646
1.06455972895052
0.8895636086666632
0.8895518403775626
0.1749976038639138
2.843686947077599
1.7791272181565
1.954123337999196
1.779127218159969
1.064559729130688
1.779127215619091
1.779034416974219
0.1750265024048332
2.843686947089469
2.668690827241873
1.95412333800662
2.668690827242819
1.064559730657268
2.668690807055652
2.668307814656601
0.1751575992357389
2.843686947088214
1.954123338006611
1.064559754149584
0.1754144549230684
0.1749963990770905
0.1749963990285066
0.1749882264389404
0.1750271346814752
0.1749901009590216
0.175137495504416
0.1754210652165649
0.1748824684765878
0.17502713482718
0.174988226326367
0.1750206552726389
0.1750206550686222
0.1750220814117521
0.1751008780516117
0.1745870215235624
0.1756594532886999
0.175137495651125
0.1749901008419263
0.1751008781851613
0.1750220811992729
0.1750455018242325
0.1750455020454961
0.1718907075675548
0.1772006901982627
0.1754210649119428
0.174882468376314
0.174587021180254
0.1756594531203723
0.1718907073250237
0.1772006906668251
0.1715298365516702
0.1715298366782741
-0.0730274299380404
0.2432519177355932
-0.1350412411123241
0.2375316884269264
-0.2011492970791645
0.2400190947982863
0.22118215798612
-0.0126611803104959
0.2544516132736116
-0.0321993515734873
0.2556925957290949
-0.06073927358120645
0.2665731868398421
0.2664422524270271
-0.00472093376217908
0.2576956030004252
-0.01721053924537763
0.2665228040774972
-0.02855753028672847
0.2761673414858368
0.2793046419233055
-0.00725606091994746
0.2624616053208291
-0.01812982587474843
0.2748263981454097
-0.0256571246748879
0.2815373783017838
0.2838944349572798
0.2862339367546632
0.0154693125564952
0.2878948840521323
0.010308965339347
0.2900223806360777
0.0116230266065962
0.003919250478052971
0.2908767621257297
0.2853065501855486
0.01040258790797655
0.2879138554151384
0.007283296224631253
0.2916048678049113
0.008074616385940481
-0.002354813826967728
0.2990119199510654
0.2811206457758043
0.003101280655749716
0.2863920956020233
0.001847442163252111
0.2914695490873001
0.003118122990238281
-0.02817258979125781
0.318256957437493
0.2650563616447105
0.2666081612254221
0.2697444165026281
0.2439864867006455
0.2691010980348926
-0.1510819532917546
0.2428534530717126
-0.02748937195137718
0.2367693063648262
-0.003425340787007514
-0.007391064343074238
0.2385183268105994
0.2630498671930432
-0.113424437766442
0.2449358540171767
-0.008352473641467073
0.2425244031902601
0.001666981429270575
-0.005502523113275481
0.2443645248712615
0.2692800189140996
-0.06302855256789142
0.2539587920124495
0.007898276732338061
0.2496936827818503
0.008361992688624031
3.910681267810245e-05
0.2482713306338238
0.1813492121792535
0.1902643578432405
0.2010891281920737
0.2053949291109772
0.2423307752435947
-0.00714402255118135
0.2435988529978775
-0.00294868445600438
0.2435857184744175
0.0002103236126475561
0.0006796535848590524
0.2425832364343659
0.2448651962611058
-0.003925640549457488
0.2449970973264694
-0.0008631593834521056
0.2441056915985733
0.00243999553440033
0.002637095642736009
0.2429292581433362
0.2471397712967864
0.001054256920996366
0.2459347111515253
0.003123754065880724
0.2449557727801104
0.005081814570083165
0.004592221017731324
0.2439404060351164
0.2101659973611256
0.216285239894455
0.2229260839699485
0.2278460118267163
0.2412185882383411
-0.0007698831210857793
0.2403346967769286
0.0003726240781524726
0.2390877782358946
-0.00391374764893182
-0.1844033689113864
0.2452929144227673
0.2419166767967217
0.001213196289221452
0.2415023206422472
0.001116814572652669
0.2410289476872828
-0.006585089853086867
-0.166679744652602
0.2137058951948654
0.2431072478125819
0.003328317403121728
0.2425380571611393
0.001950414079980256
0.2413623373239469
-0.008308312433668086
-0.1051250628782931
0.1695828084531404
0.2321220385840953
0.2345974171107822
0.222648070653801
0.1056924769713639
0.2652138629332389
0.09349805587366822
0.2678246805168443
0.13517817663271
0.2713196177805463
0.09388791861230794
0.06487321438926219
0.2776243221767513
0.2401393147711913
0.0594771404040626
0.2625821771038402
0.1061214323263164
0.2711050658589562
0.08102101838050824
0.05211935606343099
0.2795045401001785
0.1978813286352112
0.0231534842647817
0.236877026356895
0.05932830769994324
0.2622658623843225
0.05101484993992111
0.03423562662190049
0.2773262093598715
0.1225532818879973
0.1756361636254479
0.2219678549297311
0.2539125926159149
0.2766425974402402
0.03142702198800373
0.2771665663143957
0.01028973264425104
0.2787935574232381
-0.002316618909116497
-0.002971811473372776
0.2833384942161054
0.2792246321432708
0.02399768256616108
0.2792059135078169
0.007365703969016812
0.2799655541501271
-0.002090435239540223
-0.002879950779316132
0.284963952862419
0.2790725529304764
0.01591586686356716
0.2799267821932864
0.004807135480021207
0.281395546999777
-0.001379217062689619
-0.001909372627964756
0.2862503489782113
0.264009641828379
0.26672550415968
0.2676506564471618
0.27213716262913
0.299270040684181
0.01658833766584733
0.3207061182843364
0.04838545137501427
0.3558539385157286
0.1527435844063452
0.2959718995691033
0.4256145162092057
0.3022847358744231
0.01109023500291817
0.3226215132472076
0.0370441167560166
0.3576316291636315
0.1247019666563534
0.1964672744118379
0.4602563671878355
0.3025884201434633
0.006123432493622682
0.3239541529341185
0.02657247621202907
0.3661547403800468
0.08978694257531494
0.04542102882119292
0.5227016836222228
0.2894888821613499
0.3281152189226998
0.4273670035267835
0.4795179326684323
0.2166193862531722
-1.212328116460299
0.02182279422330327
-0.2476542558351743
0.003666932093242587
-0.0288625628459319
-0.02700834508425773
-0.0009785907132164083
0.1522343573091446
-0.9016383243170329
0.01051250811860838
-0.1050602362937979
0.001398210055696894
-0.01452633206453051
-0.01560864870479381
-0.004198860298027143
0.07681762097125963
-0.4538980861058574
0.003446054364518519
-0.0304590370768107
-0.002677148422477267
-0.004103574747398146
-0.007168875605884875
-0.004696921839411667
0.02670896809913182
-0.00212273502825095
-0.002610564716765768
-0.00394309619657046
0.0005272493363378417
-0.01451181666458551
0.0008904731532828666
-0.008105534835152597
-0.0001266706768478058
-0.001139813815978691
0.005450963794966075
0.003886677315003719
-0.003699011123686388
-0.01144913531312522
-0.003576530370640763
-0.006868237765600867
-0.003417628054062573
-0.001309016472588014
0.003491908862839434
-0.002281652344590348
-0.005287837674113836
-0.006430936456801248
-0.005004928188627709
-0.005000099104637556
-0.004741404731363094
-0.001065479910627241
0.002902594627479854
-0.006167621848743893
-0.005863391276690904
-0.006897459025626376
-0.007442825047288373
-0.006739753951528527
0.04366923197885551
0.04527894562748293
0.0799778684212652
0.08228354548650642
0.1141682330571482
0.09040973526329782
0.1038453386477785
0.145072760986734
0.02241893649601828
0.01946434711019808
0.05863530344980819
0.04936535281783064
0.09390391358134866
0.06290655462983742
0.0782872141317074
0.1328907616152247
0.005937085367613611
0.004390833957778256
0.03602428750767358
0.01929813310813763
0.07072719165382846
0.03303517499404147
0.04730720371931268
0.1115343913283205
-0.006685902409140167
0.009088905809104104
0.04364721188022733
0.09788322113748885
0.1144591139169595
-0.12730774644388
0.1668946082375886
0.08791575930362343
-0.08615685334547259
0.116321180871157
0.07002736495855921
-0.08147659539995179
0.09683213141919791
-0.06159165623469517
0.04092602727938355
0.08973823304188992
0.1006651204682054
-0.08913944770097179
0.07509096684858824
-0.06586049023982538
0.04837141215442194
-0.05490833040768375
-0.02989381824745825
0.01826034656659198
0.08087160838092625
-0.05549942367789581
0.04731368718163024
-0.03668890499671073
0.01769371023246997
-0.02098881382519333
-0.009594410506477333
-0.0006062340228783145
0.04305274335533456
0.009744167989966017
-0.005574151116333928
-0.0105399124495576
-0.01150461640317585
0.002194482215113966
-0.01034976776456341
-0.001408763901677821
-0.006012178318495202
-0.00394285868979552
-0.006061900109250411
-7.857603456784545e-14
-0.007207014852305387
0.007786800843089685
-0.00737580080441189
-0.0008748924530405308
-0.004030190939534245
-0.005636435860607162
-0.007656000702430601
8.146261443187086e-15
0.006482272329546828
0.01822150718884594
0.001110519202044028
0.004918721126375803
4.073243073851596e-05
-0.001115410775271379
-0.002390925463443175
1.543071226350889e-13
0.02245732924454087
0.01117480678039565
0.004906434408753164
4.970746037002982e-13
-0.006061900109263397
0.006012178318358131
-0.007656000702463904
0.004030190939571097
-0.00239092546355316
-4.073243036140095e-05
-0.004906434407333161
0.007521338018099791
-0.003942858689862272
0.01034976776458102
-0.00563643586064287
0.007375800804437976
-0.001115410775288955
-0.001110519201604106
-0.01117480677966996
0.009190219382197089
-0.001408763901707171
0.01150461640326831
-0.0008748924530836266
0.007207014852401727
0.00491872112635512
-0.006482272329241912
-0.02245732924410151
0.01739017516747581
0.002194482215071587
0.01053991244968003
0.007786800843001313
0.0006062340230732904
0.01822150718876886
-0.01826034656632891
-0.0409260272789084
0.03524579413409553
-0.07002736495800198
-0.06159165623463033
0.08973823304179765
-0.08791575930300748
-0.08147659539980472
0.09683213141899705
-0.1144591139163424
-0.08615685334536576
0.1163211808709088
-0.1273077464434438
-0.1450727609862463
0.1668946082371205
-0.04837141215420825
-0.02989381824734012
-0.07509096684821114
-0.05490833040758312
-0.1006651204677839
-0.06586049023972437
-0.08913944770066234
-0.1328907616148069
-0.01769371023229496
-0.009594410506388935
-0.04731368718141288
-0.02098881382514389
-0.08087160838061327
-0.03668890499666259
-0.05549942367767541
-0.1115343913278849
0.005574151116398175
-0.009744167989883208
-0.0430527433550979
-0.09788322113696611
-0.04364721187972217
-0.04730720371912681
-0.009088905808667107
-0.03303517499379618
0.006685902408881304
-0.01929813310719054
-0.004390833957736789
0.006739753951313956
-0.07072719165347235
-0.07828721413137038
-0.03602428750663333
-0.06290655463018434
-0.005937085367322958
-0.04936535281602257
-0.01946434710981086
0.006167621848605608
-0.09390391358125055
-0.1038453386470453
-0.05863530344872374
-0.09040973526486247
-0.02241893649523497
-0.08228354548436889
-0.04527894562628661
0.002281652344449828
-0.1141682330569195
-0.07997786842040661
-0.04366923197778885
-0.003886677314724273
0.0001266706764501066
0.005450963794149596
-0.0008904731532091373
-0.00113981381567986
-0.000527249336118283
-0.008105534834488663
-0.01451181666450548
0.000978590713206144
0.003417628053732589
0.003491908862343657
0.003576530370607919
-0.001309016472540565
0.003699011123921134
-0.006868237765073809
-0.01144913531306088
0.004198860298256241
0.004741404731142778
0.002902594627263756
0.005004928188538562
-0.001065479910633965
0.005287837674321368
-0.005000099104331759
-0.006430936456864843
0.004696921839766659
0.007442825047002794
0.006897459025437199
0.005863391276878292
0.003943096196809794
-0.003666932092888477
-0.02700834508432147
-0.02182279422226015
-0.02886256284602153
-0.2166193862514037
-0.2476542558334878
-1.212328116462908
-0.4256145162092764
-0.001398210055481867
-0.01560864870494022
-0.01051250811843537
-0.01452633206465586
-0.1522343573079421
-0.105060236293039
-0.9016383243186881
-0.4602563671879568
0.002677148422585396
-0.00716887560598542
-0.003446054364363941
-0.00410357474754677
-0.07681762097060468
-0.03045903707647938
-0.4538980861063852
-0.522701683623074
0.00261056471692818
0.00212273502830223
-0.02670896809883393
-0.479517932668994
-0.3558539385164111
0.2959718995703362
-0.3207061182846651
0.1527435844086914
-0.2992700406853832
0.04838545137902994
0.01658833766935519
-0.2833384942188937
-0.3576316291642379
0.1964672744128515
-0.3226215132478671
0.1247019666587597
-0.3022847358756459
0.0370441167590595
0.01109023500635076
-0.284963952865251
-0.3661547403815547
0.0454210288216127
-0.3239541529345941
0.08978694257541109
-0.3025884201447683
0.02657247621469183
0.00612343249601266
-0.2862503489807413
-0.4273670035289253
-0.3281152189269479
-0.2894888821652905
-0.2721371626327136
-0.2787935574248075
-0.002971811468462815
-0.2771665663148001
-0.002316618909731116
-0.2766425974393881
0.01028973264552879
0.03142702199244085
-0.2776243221748989
-0.2799655541517858
-0.002879950775999118
-0.2792059135086047
-0.002090435239819777
-0.2792246321429663
0.007365703970547366
0.02399768257138191
-0.2795045400985213
-0.2813955470016825
-0.001909372626073713
-0.2799267821943202
-0.001379217062880911
-0.2790725529303262
0.004807135481693203
0.01591586686856017
-0.2773262093581161
-0.2676506564498736
-0.2667255041623585
-0.2640096418276462
-0.2539125926090644
-0.2713196177815519
0.06487321439133731
-0.2678246805179091
0.09388791861662915
-0.265213862933995
0.1351781766390987
0.09349805586731541
-0.2452929144234695
-0.2711050658593693
0.05211935606449214
-0.262582177104513
0.08102101838314402
-0.2401393147708514
0.1061214323295826
0.05947714039988306
-0.2137058951962567
-0.2622658623837477
0.03423562662082247
-0.2368770263562066
0.05101484994082106
-0.1978813286338585
0.05932830770172837
0.02315348425951191
-0.1695828084527977
-0.2219678549273481
-0.1756361636234188
-0.1225532818855264
-0.1056924769764416
-0.2390877782346829
-0.1844033688992864
-0.2403346967757204
-0.003913747646600407
-0.2412185882391081
0.0003726240750754894
-0.0007698831174050014
-0.2425832364349964
-0.2410289476858095
-0.1666797446429616
-0.2415023206427098
-0.006585089849602654
-0.241916676798572
0.001116814573210445
0.00121319629183847
-0.2429292581439881
-0.2413623373217325
-0.105125062873765
-0.2425380571627561
-0.008308312429103015
-0.2431072478143986
0.001950414081473062
0.003328317404200254
-0.2439404060357538
-0.2226480706585022
-0.2345974171129094
-0.2321220385857284
-0.2278460118278983
-0.243585718475635
0.0006796535862779174
-0.2435988529984426
0.0002103236154391563
-0.2423307752440924
-0.002948684456944572
-0.007144022550307272
-0.2385183268099753
-0.2441056915990496
0.002637095644064336
-0.2449970973268042
0.002439995536426431
-0.2448651962612887
-0.0008631593838954177
-0.003925640548858966
-0.2443645248705602
-0.2449557727802131
0.004592221018454856
-0.2459347111518649
0.005081814571850252
-0.2471397712966976
0.003123754065194662
0.001054256921546926
-0.2482713306330284
-0.2229260839710369