/*--------------------------------*- C++ -*----------------------------------*\
  =========                 |
  \\      /  F ield         | OpenFOAM: The Open Source CFD Toolbox
   \\    /   O peration     | Website:  https://openfoam.org
    \\  /    A nd           | Version:  11
     \\/     M anipulation  |
\*---------------------------------------------------------------------------*/
FoamFile
{
    format      ascii;
    class       volScalarField;
    location    "0.1225";
    object      Ma;
}
// * * * * * * * * * * * * * * * * * * * * * * * * * * * * * * * * * * * * * //

dimensions      [0 0 0 0 0 0 0];

internalField   nonuniform List<scalar> 
880
(
1.11801663592382
1.118016635923454
1.118016504060201
1.117987132328743
1.11801663592382
1.118016635921798
1.118016137090605
1.117773523296942
1.11801663592382
1.11801663593945
1.11801399019462
1.116919146663742
1.118016635923821
1.118016635449641
1.117998487072502
1.111177376018062
1.118016635923592
1.118016635922785
1.118016635902469
1.118016633749499
1.11801663694372
1.118016635103416
1.118016640842512
1.118016278783005
1.117913018994274
1.117798373064397
1.11762661740495
1.118060288518897
1.089516267601822
1.066562817441092
1.057937881642307
1.055866363440149
1.118016588418893
1.118016199159587
1.118014796950886
1.11801485840841
1.118012014025666
1.118002473895674
1.117996397822882
1.117996441162327
1.116307406961936
1.115222493266538
1.114769380539187
1.114652240879547
1.054585027171815
1.049917210696024
1.052090296931454
1.053771948738037
1.096474882091805
1.117209231399216
1.127454264029194
1.13655717223436
1.110850765149547
1.11091965493112
1.115022228252753
1.11821635910382
1.117934288311202
1.11781928021003
1.117842591764021
1.117955416454771
1.118011614949775
1.118004190413991
1.117992555259006
1.117987780207465
1.117989641582867
1.117996983058091
1.118006795095498
1.118013632295526
1.118027017035638
1.118077888038507
1.118076298041945
1.118044321170832
1.120129488851101
1.121000286550929
1.120759776448748
1.119746653413644
1.140295055603921
1.139700329071723
1.136795662593968
1.132667312391173
1.127915317820574
1.118749897763504
1.118022727719661
1.118016140979649
1.122568381894923
1.118193714199791
1.118017253028953
1.118016599322359
1.115764775038328
1.118012587448804
1.118016623565663
1.11801663325845
1.04607679443202
1.11691504229123
1.118013626270665
1.118016606311637
1.118016220060346
1.117989319604015
1.110601758695544
0.847360608980251
1.118014089887392
1.117940753236603
1.103926791477576
0.8312575348991919
1.118011273784646
1.117817081284645
1.094198044241063
0.8119131139794664
1.117996694714391
1.117696329096016
1.084965502677335
0.8148163165644053
0.818978260481309
1.074160729151344
1.117440164384668
1.117988781777926
0.8282683039687833
1.066562300626782
1.11729616616325
1.117952954473343
0.8325544156370939
1.055404315715061
1.116868344792885
1.117943961376392
0.8363166004012885
1.044730468176859
1.116503037262519
1.117880620691217
1.117845746179049
1.115593744440391
1.02867194771867
0.8500894169945195
1.117718387973378
1.115125307749271
1.036819732126159
0.8924599903783911
1.117811617129353
1.115952571247319
1.068328963940546
0.9781532895548387
1.117652411350387
1.116824601421318
1.102855944562024
1.078127076352092
1.117657767953989
1.117288878355685
1.134069936315229
1.248842201152784
1.117679314130248
1.121706112046545
1.14681578137293
1.296263565710979
1.117969005112774
1.12037347648136
1.137485716349548
1.193723529617034
1.118034808396063
1.118389058679846
1.11498936460865
0.9825349434202665
0.871555853148147
1.099028194036938
1.117700417764527
1.11802027503732
0.807515096116134
1.085784382963701
1.11716385158502
1.118008679635339
0.7736924646511029
1.078779927642768
1.117076899699785
1.118014934182336
0.7236368795883633
1.071677926471449
1.116844487730037
1.118011782229091
0.7910729313328955
1.084264073446349
1.117366432416579
1.118014744044338
0.8992764270483955
1.09846014590813
1.117760356609095
1.118015918192744
0.9926373446171673
1.108588051869875
1.117933034027007
1.118016463435055
1.053930765534737
1.114546726670318
1.118007927898202
1.118016625102821
1.014973661698895
1.110553730678387
1.117808868607608
1.118014613525256
1.023287435161684
1.111028923806196
1.117818042017313
1.118014661974057
1.021928147222056
1.110976285585445
1.117827043648962
1.118014751531293
1.020468034422247
1.111466709011451
1.11785372303883
1.118015046793016
1.053930765535078
1.114546726672475
1.118007927901098
1.118016625105618
0.9926373446174734
1.10858805187235
1.11793303402915
1.118016463436236
0.8992764270486757
1.098460145909862
1.117760356609435
1.118015918193452
0.7910729313317525
1.084264073447863
1.117366432415699
1.118014744044147
1.118020275035513
1.117700417763462
1.099028194034789
0.8715558531469616
1.118008679634531
1.11716385158512
1.085784382962113
0.807515096114594
1.118014934181685
1.117076899700391
1.078779927644639
0.7736924646495383
1.118011782228821
1.116844487728026
1.071677926472222
0.7236368795871782
0.9825349434182549
1.114989364608219
1.118389058680899
1.118034808396739
1.193723529615321
1.137485716349826
1.120373476480649
1.117969005112951
1.296263565710893
1.146815781372886
1.121706112046267
1.117679314129122
1.248842201152708
1.13406993631684
1.117288878357628
1.117657767952501
1.117845746180573
1.115593744433204
1.028671947715262
0.850089416994656
1.117718387973111
1.11512530774758
1.036819732123838
0.8924599903778875
1.117811617127564
1.115952571246155
1.068328963940572
0.9781532895553526
1.11765241135342
1.116824601422592
1.102855944562269
1.078127076352106
0.8363166004019494
1.044730468177431
1.116503037271266
1.11788062068573
0.8325544156363288
1.055404315713406
1.11686834478509
1.117943961377385
0.8282683039689109
1.066562300626386
1.11729616616814
1.117952954472501
0.8189782604815455
1.074160729150093
1.117440164382021
1.117988781777712
1.118016220060004
1.117989319602587
1.110601758694257
0.8473606089786124
1.118014089884667
1.117940753236657
1.103926791482907
0.8312575349012792
1.118011273781873
1.117817081282471
1.094198044237821
0.8119131139801129
1.117996694714265
1.117696329098007
1.084965502680188
0.8148163165649333
1.118016606311532
1.118016633258754
1.118016599321399
1.118016140979743
1.118013626273448
1.118016623566849
1.118017253029955
1.118022727720158
1.116915042292642
1.11801258744821
1.118193714200671
1.118749897764255
1.046076794433119
1.115764775037978
1.122568381894409
1.127915317820729
1.118013632294868
1.118044321169842
1.119746653412906
1.132667312390826
1.118006795096046
1.118076298040471
1.120759776448704
1.136795662593534
1.11799698305807
1.118077888037943
1.121000286552109
1.139700329073523
1.117989641583921
1.118027017036127
1.120129488850594
1.140295055604537
1.118011614949664
1.117934288312968
1.110850765149323
1.096474882090717
1.118004190415877
1.11781928020963
1.110919654930228
1.117209231399066
1.117992555257568
1.117842591765377
1.115022228253705
1.127454264030344
1.117987780208065
1.117955416455305
1.118216359103678
1.136557172235626
1.053771948738573
1.114652240879382
1.117996441164077
1.11801485840752
1.052090296932348
1.114769380537895
1.117996397825339
1.118014796951628
1.049917210696063
1.115222493266138
1.118002473898497
1.118016199159334
1.054585027172382
1.116307406962725
1.118012014026938
1.118016588416822
1.055866363440752
1.118060288516518
1.118016278783162
1.118016633748457
1.057937881642977
1.11762661740669
1.118016640843601
1.118016635902467
1.066562817441818
1.117798373065352
1.118016635105472
1.118016635922776
1.089516267602741
1.117913018995052
1.1180166369426
1.118016635923619
1.118016635923821
1.118016635923446
1.118016504059532
1.117987132328094
1.11801663592382
1.118016635922397
1.118016137090423
1.117773523298153
1.11801663592382
1.118016635940002
1.118013990194618
1.116919146663625
1.11801663592382
1.118016635451444
1.117998487073212
1.111177376018651
1.117901493436369
1.117383347546423
1.114297882996719
1.094181081222043
1.11738334754522
1.115323862540317
1.103232537887959
1.052710234176617
1.114297882996766
1.103232537888772
1.058863611426018
0.9584150936965439
1.094181081222643
1.052710234178397
0.9584150936974186
0.8355041357618757
0.7951455381744953
0.8401938933193748
0.9254919152720484
1.002921850640818
0.8514888543395031
0.8639079859483143
0.9032194767122852
0.9586479943205446
0.8845349526279764
0.8977363296236658
0.9314996301800842
0.9672436562770397
0.9177038933992541
0.9251882578914793
0.9488201268837022
0.9720754305956019
0.9863726735005025
0.9950582333498168
1.001219159316848
1.015388131513113
0.9740662496774043
0.9938151865540052
1.001680621148318
1.038568209191232
0.9540969546290066
0.9861935545174013
0.9992977712864957
1.10111438411307
0.9307520031890543
0.9370840258935956
0.948334407496785
1.183981704740781
1.20511069301096
1.212251815041478
1.175465175705771
1.16479156451444
1.291922912080705
1.286590724076903
1.227111587099263
1.196022517045858
1.431387676042573
1.334195097849452
1.253738652143493
1.212919025463927
1.158533437175212
1.056559875009095
1.029150031984979
1.034584725840046
1.158555256800238
1.151490876440451
1.144423470289488
1.139552982424441
1.179008018955379
1.165561833029553
1.154874430024533
1.14747733924621
1.190194396476576
1.174394028546612
1.162300803361201
1.153446812505388
1.051149750574407
1.071327786326836
1.090466349808729
1.106902874773861
1.135648786555935
1.126914040753186
1.082862616201374
0.8148801772741784
1.142259141513427
1.130111824679071
1.04547446739462
0.6609907587952044
1.147110497471433
1.13264374649626
0.9792749264810806
0.5088214967891663
1.113168163508714
1.120967075425889
0.8423534322910705
0.2602730293590015
0.6037005466642832
0.6631982744799314
0.6975593606210434
0.7346574052141757
0.5497126481337378
0.6421578814919471
0.694792750555996
0.735049596894207
0.4400481037499981
0.576953206479335
0.6653619313378876
0.7230589724823703
0.2229467669198019
0.3659151589622481
0.5102572595602082
0.6113244482498851
0.7550404230622532
0.7629433509631033
0.7687292404914989
0.7786836821553169
0.7528035449247863
0.7609862650531121
0.7678617431303332
0.7784622933224131
0.7494211202444361
0.7594113390680233
0.7669406973506635
0.777594693056081
0.6838779109977929
0.7190873295429976
0.7354890106826655
0.7434189995666515
0.796613188018236
0.8415855880013156
0.9248421367830121
1.037292752772107
0.7975297029609828
0.8394281789256032
0.9222827236040009
1.069450196647208
0.7969192094301736
0.8307745250333495
0.9398793861401117
1.359129630063975
0.7721740859974431
0.8085778993243546
0.9606277374806246
1.890406440198894
1.239657256695328
1.440807536069156
0.5181158485671479
0.2266463786239888
1.323138706198532
1.197991486056896
0.2399252326701292
0.114210736844856
1.412862322146529
0.8543502651663202
0.1269959662463219
0.1222557850743375
1.134915198975091
0.36466574580724
0.1546399081510648
0.09080064549621039
0.1386664742729878
0.09662682158167767
0.06378835431267364
0.04390367702549255
0.05597466731692025
0.02199632354195566
0.04771673898208389
0.08720179504576137
0.07417985367145871
0.07321247669656175
0.1032022630129546
0.1377876239942745
0.06385539826526571
0.0850466827414247
0.1321651735715651
0.1473547155681975
0.3264747245283387
0.6846744775743736
0.9220772677850468
1.113719770702812
0.1318887536895954
0.4922388856845485
0.7903858782730139
1.035299528628078
0.07223793528533205
0.2431617850100294
0.5716368067160386
0.9379028746150258
0.08715160374265002
0.06305305067801872
0.4388167285643764
0.9911059209543358
1.322019281287978
1.570981254135672
1.431868983044865
0.9859284221866809
1.201737144142121
1.258671613847719
1.055666765892749
0.6957217273627788
1.103048116264618
0.8853232387043748
0.5869256891174294
0.2815776757080304
0.8432802392051262
0.4023626633580676
0.2072481599017962
0.1809465716443601
0.1920158542058821
0.1847213288147961
0.1533235615675705
0.1201160739955372
0.1407906779235145
0.1617121694244023
0.1938662155814035
0.184105016455243
0.2088100454075154
0.08131269593209667
0.163492736613704
0.1789428511146078
0.5572563565295179
0.3298867202949615
0.2194972616560023
0.1906544614116743
0.1201160739953642
0.1841050164552051
0.1789428511147246
0.1906544614104994
0.1533235615672337
0.1938662155810822
0.1634927366137396
0.2194972616561978
0.1847213288143397
0.1617121694240281
0.08131269593202314
0.3298867202954338
0.1920158542054599
0.1407906779234325
0.2088100454075981
0.5572563565297848
0.9859284221856579
1.431868983043804
1.570981254135287
1.322019281287261
0.6957217273628051
1.055666765892817
1.258671613847999
1.201737144141718
0.2815776757081578
0.5869256891177119
0.8853232387045793
1.103048116264737
0.1809465716441554
0.2072481599016409
0.402362663357974
0.8432802392054187
0.9911059209545233
0.4388167285644163
0.0630530506781402
0.08715160374261179
0.9379028746147947
0.57163680671602
0.2431617850102456
0.07223793528550461
1.035299528627419
0.7903858782726757
0.4922388856842989
0.1318887536890156
1.113719770701856
0.9220772677845287
0.6846744775738748
0.3264747245273555
0.04390367702677479
0.06378835431210331
0.09662682158076522
0.1386664742742395
0.08720179504580597
0.04771673898332031
0.02199632354264786
0.05597466731786346
0.1377876239941326
0.1032022630133494
0.07321247669727837
0.07417985367152088
0.1473547155682349
0.1321651735721995
0.08504668274198178
0.06385539826473167
0.2266463786228685
0.5181158485619376
1.440807536064943
1.239657256694562
0.1142107368448862
0.2399252326679216
1.19799148605485
1.323138706198537
0.1222557850734202
0.1269959662468404
0.8543502651643691
1.412862322146164
0.09080064549515568
0.154639908151414
0.3646657458055568
1.13491519897576
1.037292752772316
0.9248421367834774
0.8415855880012756
0.7966131880184458
1.069450196647159
0.9222827236040252
0.8394281789256063
0.7975297029612289
1.359129630063549
0.9398793861401169
0.8307745250333861
0.7969192094304539
1.890406440198016
0.9606277374805663
0.8085778993243794
0.7721740859974662
0.7786836821557938
0.7687292404912897
0.7629433509633954
0.7550404230625187
0.778462293322804
0.7678617431301599
0.7609862650532481
0.7528035449250343
0.7775946930565153
0.766940697350559
0.7594113390681809
0.7494211202445169
0.7434189995672631
0.7354890106826699
0.7190873295428927
0.683877910995744
0.7346574052147437
0.6975593606208622
0.6631982744818201
0.6037005466631321
0.7350495968946095
0.6947927505559095
0.6421578814931662
0.549712648133428
0.7230589724822482
0.6653619313380001
0.5769532064797573
0.4400481037502185
0.611324448248441
0.5102572595622982
0.3659151589616284
0.2229467669202497
0.8148801772739542
1.082862616202086
1.126914040752408
1.135648786556148
0.66099075879504
1.045474467395676
1.130111824678587
1.142259141513419
0.5088214967906938
0.9792749264824027
1.132643746495463
1.147110497471096
0.2602730293605424
0.8423534322923812
1.120967075423569
1.113168163507789
1.139552982422007
1.144423470290624
1.151490876441053
1.158555256800705
1.147477339242716
1.154874430027548
1.165561833029193
1.179008018956222
1.153446812502406
1.162300803365061
1.17439402854594
1.190194396477421
1.106902874770229
1.0904663498128
1.07132778632464
1.05114975057513
1.164791564515391
1.175465175706822
1.212251815040953
1.205110693009914
1.196022517046895
1.227111587100636
1.28659072407537
1.291922912079577
1.21291902546509
1.253738652145125
1.334195097847559
1.431387676041152
1.034584725839956
1.029150031987154
1.05655987500883
1.158533437176201
1.015388131513761
1.001219159318466
0.9950582333495502
0.9863726735003698
1.038568209191803
1.001680621149403
0.9938151865532742
0.9740662496769703
1.101114384113017
0.999297771286992
0.9861935545162339
0.9540969546286
1.183981704740079
0.948334407497098
0.9370840258931165
0.9307520031905934
0.9720754305971692
0.9672436562772548
0.9586479943210429
1.002921850640675
0.9488201268849809
0.931499630180336
0.9032194767128912
0.9254919152721236
0.9251882578934318
0.897736329624342
0.863907985948889
0.8401938933203124
0.9177038934021267
0.8845349526294894
0.8514888543401933
0.7951455381760384
1.061312423414219
1.113568837291261
1.117962303849235
1.118016387812441
1.059262526894596
1.114037565125212
1.117953560120486
1.118016228465612
1.042352793100586
1.113406607287441
1.117934003774401
1.118016011779293
1.016638819004636
1.112125773801147
1.117893614337087
1.118015565649743
1.11801461352396
1.117808868607328
1.110553730678274
1.014973661695178
1.118014661974135
1.117818042016476
1.111028923805969
1.023287435163479
1.118014751531038
1.11782704365052
1.110976285585046
1.02192814722376
1.118015046792973
1.117853723040222
1.111466709010637
1.020468034423606
1.118015565650931
1.118016011778463
1.118016228464932
1.118016387814248
1.117893614338478
1.117934003774389
1.117953560119959
1.117962303848444
1.112125773801131
1.113406607287552
1.114037565124515
1.113568837292416
1.016638819004806
1.042352793100801
1.059262526893792
1.061312423414107
)
;

boundaryField
{
    back
    {
        type            empty;
    }
    inlet
    {
        type            calculated;
        value           nonuniform List<scalar> 
16
(
1.11801663592382
1.11801663592382
1.11801663592382
1.11801663592382
1.118016635923592
1.118016635924167
1.118016635915321
1.118016634684057
1.118016634683832
1.118016635915316
1.118016635924155
1.118016635923619
1.11801663592382
1.11801663592382
1.11801663592382
1.11801663592382
)
;
    }
    front
    {
        type            empty;
    }
    top
    {
        type            calculated;
        value           uniform 0;
    }
    outlet
    {
        type            calculated;
        value           nonuniform List<scalar> 
16
(
1.118014029611752
1.118014079682951
1.118014183383213
1.118014541303088
1.118016310553406
1.118016108908066
1.118015825725188
1.118015231615358
1.118014029610688
1.118014079682959
1.118014183383099
1.118014541303041
1.118015231616416
1.118015825724343
1.118016108907512
1.118016310555129
)
;
    }
    bottom
    {
        type            calculated;
        value           uniform 0;
    }
    wall
    {
        type            calculated;
        value           uniform 0;
    }
}


// ************************************************************************* //
