/*--------------------------------*- C++ -*----------------------------------*\
  =========                 |
  \\      /  F ield         | OpenFOAM: The Open Source CFD Toolbox
   \\    /   O peration     | Website:  https://openfoam.org
    \\  /    A nd           | Version:  11
     \\/     M anipulation  |
\*---------------------------------------------------------------------------*/
FoamFile
{
    format      ascii;
    class       volVectorField;
    location    "0.1225";
    object      U;
}
// * * * * * * * * * * * * * * * * * * * * * * * * * * * * * * * * * * * * * //

dimensions      [0 1 -1 0 0 0 0];

internalField   nonuniform List<vector> 
880
(
(25 -2.147234503288583e-15 0)
(24.99999999999648 -1.340900533633826e-11 0)
(24.99999812296783 -2.629766026217917e-06 0)
(24.99961376292638 -0.0002139786212706128 0)
(25 -2.311123965700378e-15 0)
(24.99999999998152 -1.218592171463085e-10 0)
(24.99999220374745 -1.251190511421604e-05 0)
(24.99675965533277 -0.009802676405008266 0)
(25 7.622492305503151e-14 0)
(25.00000000126007 1.716853228637788e-09 0)
(24.99995882991511 -3.517499903667886e-05 0)
(24.98642561835403 -0.0405740541197712 0)
(25.00000000000002 -9.706927120717276e-13 0)
(24.99999998738604 -8.737313933878364e-10 0)
(24.99965180821707 -0.0002141890860623789 0)
(24.87958837597261 -0.1122523483269244 0)
(25.00000000000001 -2.520044915302741e-12 0)
(24.99999999996909 4.233824584989601e-11 0)
(24.99999999971263 -7.504723968234178e-10 0)
(24.99999997910234 -1.285037527193057e-07 0)
(25.000000025701 2.803922392549244e-10 0)
(24.99999998202446 -3.224550576991225e-09 0)
(25.00000022682771 2.810414538492315e-07 0)
(24.99999339935191 -2.179543515323751e-06 0)
(24.99811490372035 3.529628199256938e-05 0)
(24.99604995974974 0.001072152628443052 0)
(24.99472301295202 0.01167387576485031 0)
(24.999760665312 -0.0162904738710522 0)
(24.48004925666953 0.07305054966521293 0)
(24.07649024144766 0.549271030516541 0)
(23.95764616780599 1.005530539387097 0)
(23.93320619092829 1.260331635029049 0)
(24.9999992679187 -1.549619206811553e-06 0)
(24.9999946785538 4.233148873180874e-06 0)
(24.99996840499971 -6.178580992243849e-05 0)
(24.99996866290095 -3.574560390329887e-05 0)
(24.99991609604435 1.272647893160518e-05 0)
(24.99973788296525 0.0001797129090659824 0)
(24.99970880369475 0.0007211982234971619 0)
(24.99971565321047 0.0006213192282747557 0)
(24.96873123432711 0.01362230188781365 0)
(24.95116430310108 0.04644398830573981 0)
(24.9496469189923 0.08426545889273175 0)
(24.95269398364996 0.0933817907059467 0)
(23.93011755130163 1.575189609238853 0)
(23.85876918451149 1.913716980129289 0)
(23.94614495914232 2.104846714270713 0)
(23.98501616172205 2.486565942490546 0)
(24.84795457282858 2.64748272076938 0)
(25.27577068178436 2.376938223536163 0)
(25.50747360581517 1.874957816573251 0)
(25.69863452494258 1.34130390898377 0)
(24.88903224313894 0.1892157624203718 0)
(24.91495852088942 0.3427696509212191 0)
(25.0143183512629 0.3892980981232803 0)
(25.07982959604438 0.3557792215892776 0)
(24.99866483817953 0.002049412878741149 0)
(24.99691096149505 0.005920725069500015 0)
(24.998126349241 0.01064852692729807 0)
(25.00090837259027 0.01154923831218092 0)
(24.99991526857259 -0.0001046329823256577 0)
(24.99980085587796 -0.0002941352437300268 0)
(24.99958476259583 -0.0004771180623234721 0)
(24.9994795265062 -0.0004876941432802371 0)
(24.99949526176615 -0.0004025041231159371 0)
(24.99961645196734 -0.0002513909634883984 0)
(24.9997999489127 -0.0001102136856423527 0)
(24.9999365484398 -3.108702833057911e-05 0)
(25.00227673095446 0.01050724184995283 0)
(25.00293694579442 0.00764646427500135 0)
(25.00223874319586 0.004002660350597887 0)
(25.00094887856284 0.00130811332674266 0)
(25.1107513555706 0.2939445854954427 0)
(25.11608435012964 0.2142175288126419 0)
(25.09541471318812 0.1350400374427503 0)
(25.05735571641996 0.0665958645252397 0)
(25.74194876741653 0.9220256642627118 0)
(25.68027994672103 0.6400188348399659 0)
(25.57077044491799 0.4480958061338113 0)
(25.43819777676462 0.30590945956395 0)
(25.29469658317897 0.1854495935598875 0)
(25.02347654982525 0.02263802371966136 0)
(25.00020162803823 0.0002386989427858294 0)
(24.99998926822283 -4.854207175272115e-06 0)
(25.13301658869728 0.04744576152871111 0)
(25.00540993588766 0.003923806695663154 0)
(25.00001977746014 2.064010736858228e-05 0)
(24.99999919594945 -3.238911153604035e-07 0)
(24.98114303349559 0.1009286654065651 0)
(25.00013904248163 0.0008229571510285288 0)
(25.00000020930769 2.086611681985307e-06 0)
(24.99999995138025 -4.466825791767123e-08 0)
(23.73770217102703 0.614520651390996 0)
(24.98093205230409 0.01608937837912882 0)
(24.99995318760984 9.196301918912754e-05 0)
(24.9999996579908 -4.253198803766308e-06 0)
(24.99999334106133 -1.276442472187058e-05 0)
(24.99950289318224 0.0002577778744222821 0)
(24.86604231728625 0.04809528512926 0)
(19.85724589174151 1.621029443130486 0)
(24.99995719763376 -5.70919179497841e-05 0)
(24.9987177822488 0.001077977549003257 0)
(24.75287946009298 0.1395161849424343 0)
(19.51563170413788 3.211465855476449 0)
(24.99992564125239 -0.0001885421931112986 0)
(24.9964276709841 0.00340862862657002 0)
(24.58596223083568 0.3210160330661971 0)
(18.91240355075858 4.83747938436828 0)
(24.99966611729178 -0.0004333472095004678 0)
(24.99504486917947 0.007658053811145136 0)
(24.44898606967391 0.5539215662870831 0)
(18.76059576323358 6.212498095654396 0)
(18.57000412161007 7.44191265497586 0)
(24.27668353890077 0.8993330839623548 0)
(24.99063456774548 0.01490411943187009 0)
(24.99956538054721 -0.0007470689546682763 0)
(18.64273996135417 8.234335965480218 0)
(24.18935493586374 1.21043173511201 0)
(24.99039715894802 0.02460944351381138 0)
(24.99890375715476 -0.001331274512618975 0)
(18.60842100642775 8.902574051202217 0)
(24.00986450077914 1.59288145096938 0)
(24.98295195677094 0.03559317962069278 0)
(24.99880739241097 -0.001871588569862151 0)
(18.5659166726385 9.451344650477211 0)
(23.85661612295973 1.972173369097564 0)
(24.98008863798356 0.0545669548097872 0)
(24.99767122072779 -0.002818139264077406 0)
(24.99714113158234 -0.004074130553707455 0)
(24.96480193209046 0.07519085419500775 0)
(23.55948852320929 2.460923978757162 0)
(18.82794042261545 9.833588096604823 0)
(24.99493075801441 -0.006396056907548193 0)
(24.96292879047355 0.1159416140189823 0)
(23.75515149093265 2.667951518677112 0)
(19.9663303506305 9.521673798938446 0)
(24.99769120596999 -0.008133157220233391 0)
(24.97764438675028 0.1055340208563422 0)
(24.36411686263948 2.18207420286903 0)
(22.24690784714382 8.401890606397153 0)
(24.99210051776345 -0.005031010540212977 0)
(24.98711289318089 0.05886200688859843 0)
(24.94972767418556 1.382276530934574 0)
(24.71253538949633 5.957606644153992 0)
(24.99412032480833 -0.003658653381991989 0)
(25.00740772447323 0.1323916083808728 0)
(25.60539508548391 1.123186629208347 0)
(28.38323200812668 3.283601676391595 0)
(24.99381644693242 -0.002780381125921761 0)
(25.09686028069567 0.06995796796571445 0)
(25.8028631242328 0.448578308936585 0)
(29.33920871984578 0.9179021604629998 0)
(24.99907399155977 -0.001091442400639415 0)
(25.06001606747961 -0.001351522213197285 0)
(25.58765756668605 -0.2335911989558128 0)
(27.09535590800813 -2.123234793910611 0)
(24.99999608644178 -0.0008434729792213906 0)
(25.00550056159707 -0.03642850557138884 0)
(24.99864046247597 -0.8133717307805981 0)
(22.02280451222036 -4.447563147772343 0)
(18.98249809972709 -5.472154598087049 0)
(24.53524601137023 -0.9595578557341911 0)
(24.98215552172311 -0.04363369546387282 0)
(24.99978440962207 -0.0005615402976793941 0)
(17.29880084771932 -5.369628346557063 0)
(24.18443568660702 -0.9457166949367496 0)
(24.96979457797283 -0.04399312788528151 0)
(24.99967613281827 -0.0004620115805838195 0)
(16.66613634514742 -4.208170129013133 0)
(24.0162280925632 -0.7181112845686167 0)
(24.97120366542337 -0.02699275591158249 0)
(24.9999041127672 -0.000164354422361617 0)
(15.49171016023056 -3.236908077111718 0)
(23.8434854892707 -0.6172186255659855 0)
(24.96793720129073 -0.02374828008378776 0)
(24.99984952631279 -0.0001710976689762754 0)
(17.07135760962561 -1.300223755429166 0)
(24.14524949116063 -0.3497752895933725 0)
(24.98259099480725 -0.01224004714456617 0)
(24.99993793945114 -7.490817176621785e-05 0)
(19.32508083126122 0.1822299512247052 0)
(24.49576203993943 -0.1739936522523383 0)
(24.99320481290015 -0.004455133160426996 0)
(24.9999781919621 -2.187940818683415e-05 0)
(21.32141519253228 0.5474654708036197 0)
(24.74213885471199 -0.1030099321141814 0)
(24.99760431010652 -0.001925134440367555 0)
(24.99999379723664 -8.945670876274143e-06 0)
(22.77908393303418 0.6082627597301158 0)
(24.90198124759982 -0.1003023089937065 0)
(24.99964850043542 -0.001278236048923631 0)
(24.99999871629699 -4.728515399445956e-06 0)
(22.61179233898928 -0.288732128779462 0)
(24.80623932340005 -0.009867769152954798 0)
(24.99413884349052 -0.0001110022447571357 0)
(24.9999417201859 -4.553659368118772e-07 0)
(22.79699054029747 -0.7073579119374632 0)
(24.81895725745676 -0.0243620935550263 0)
(24.99435988692099 -0.0002938877091660051 0)
(24.99994283982929 -1.288939334660132e-06 0)
(22.73427443604529 -1.003831038086171 0)
(24.81846318901024 -0.04587235729237705 0)
(24.99460598273881 -0.0006171239465149574 0)
(24.9999451586735 -2.933529296272908e-06 0)
(22.71387211951021 -1.020692177468496 0)
(24.83134745831494 -0.05939399150309527 0)
(24.99529694248458 -0.001037723823554339 0)
(24.99995316212875 -6.519473742014795e-06 0)
(22.77908393304045 -0.6082627597559958 0)
(24.90198124764832 0.1003023089725253 0)
(24.99964850050672 0.00127823600535262 0)
(24.99999871635518 4.728513489558505e-06 0)
(21.3214151925393 -0.5474654708439403 0)
(24.74213885476623 0.103009932112222 0)
(24.99760431015187 0.001925134459255564 0)
(24.99999379725957 8.945686159496793e-06 0)
(19.32508083126675 -0.1822299512077495 0)
(24.49576203997361 0.1739936522711316 0)
(24.99320481290015 0.00445513319693487 0)
(24.99997819197499 2.187941201255305e-05 0)
(17.0713576096035 1.30022375541189 0)
(24.14524949118501 0.3497752896240442 0)
(24.98259099478779 0.01224004714473189 0)
(24.999937939446 7.490817679946879e-05 0)
(24.99978440958557 0.0005615403231173577 0)
(24.98215552170706 0.04363369545224489 0)
(24.535246011329 0.9595578557239767 0)
(18.98249809966833 5.47215459817351 0)
(24.99967613279647 0.0004620116151549627 0)
(24.96979457797859 0.0439931278954102 0)
(24.18443568658154 0.945716694939879 0)
(17.29880084766124 5.369628346605705 0)
(24.99990411275655 0.0001643544196701311 0)
(24.97120366542876 0.02699275590339629 0)
(24.01622809259862 0.7181112846056351 0)
(16.66613634510214 4.208170129029503 0)
(24.99984952630711 0.000171097667826923 0)
(24.96793720125715 0.02374828005952898 0)
(23.84348548928047 0.6172186255901356 0)
(15.49171016020704 3.236908077102986 0)
(22.0228045121727 4.447563147780911 0)
(24.99864046246193 0.8133717307994739 0)
(25.00550056161541 0.03642850560096137 0)
(24.99999608646112 0.0008434729221270533 0)
(27.09535590797531 2.123234793926235 0)
(25.58765756669413 0.233591198955871 0)
(25.06001606746927 0.001351522193332426 0)
(24.99907399156185 0.001091442404651919 0)
(29.33920871984516 -0.9179021604416648 0)
(25.80286312423667 -0.4485783089550451 0)
(25.0968602806892 -0.0699579679673064 0)
(24.99381644690837 0.002780381138822043 0)
(28.38323200812367 -3.28360167637962 0)
(25.60539508551462 -1.123186629199741 0)
(25.00740772450595 -0.132391608342362 0)
(24.99412032478093 0.003658653375006713 0)
(24.99714113160806 0.00407413056721599 0)
(24.96480193190943 -0.07519085420206591 0)
(23.55948852313552 -2.460923978790619 0)
(18.82794042261144 -9.833588096632129 0)
(24.99493075800926 0.006396056905207876 0)
(24.96292879041864 -0.1159416139687683 0)
(23.75515149088308 -2.667951518707596 0)
(19.96633035061351 -9.521673798955842 0)
(24.99769120591806 0.008133157311146454 0)
(24.97764438672745 -0.1055340208794014 0)
(24.36411686263806 -2.182074202869999 0)
(22.24690784715538 -8.40189060639471 0)
(24.99210051784025 0.005031010429223507 0)
(24.98711289320787 -0.05886200687022882 0)
(24.94972767419001 -1.382276530929507 0)
(24.71253538949637 -5.957606644144255 0)
(18.56591667264812 -9.451344650501342 0)
(23.85661612298593 -1.972173369054983 0)
(24.98008863824587 -0.05456695471360196 0)
(24.99767122061923 0.002818139260584992 0)
(18.60842100640598 -8.902574051219132 0)
(24.00986450072763 -1.592881451026054 0)
(24.98295195654076 -0.03559317973200221 0)
(24.99880739243304 0.001871588591048309 0)
(18.64273996135959 -8.234335965490553 0)
(24.18935493586246 -1.210431735097083 0)
(24.99039715908913 -0.0246094434865952 0)
(24.99890375713501 0.001331274556521756 0)
(18.57000412163565 -7.441912654938523 0)
(24.27668353888478 -0.8993330839572076 0)
(24.99063456767912 -0.01490411946082217 0)
(24.99956538054147 0.000747068891662743 0)
(24.99999334105534 1.276442656684484e-05 0)
(24.99950289314622 -0.0002577778778520314 0)
(24.86604231724562 -0.04809528517250522 0)
(19.85724589169953 -1.621029443168061 0)
(24.9999571975813 5.70919194388944e-05 0)
(24.99871778227651 -0.001077977533920314 0)
(24.75287946022774 -0.1395161848648775 0)
(19.51563170419908 -3.211465855452243 0)
(24.99992564119682 0.0001885421958059255 0)
(24.99642767093118 -0.003408628646634917 0)
(24.58596223075286 -0.321016033179183 0)
(18.91240355075994 -4.837479384398561 0)
(24.99966611728422 0.0004333472092899079 0)
(24.99504486922708 -0.007658053782377539 0)
(24.44898606974601 -0.5539215662202167 0)
(18.76059576325257 -6.212498095636586 0)
(24.9999996579883 4.253200011244624e-06 0)
(24.99999995138431 4.466571804400888e-08 0)
(24.99999919593001 3.2389448338481e-07 0)
(24.99998926822619 4.85420895491505e-06 0)
(24.99995318766388 -9.196301273920254e-05 0)
(25.00000020933104 -2.086607889400459e-06 0)
(25.00001977747964 -2.064009976559778e-05 0)
(25.00020162804524 -0.0002386989506362331 0)
(24.98093205233159 -0.01608937838908319 0)
(25.00013904247175 -0.0008229571521227124 0)
(25.0054099359035 -0.00392380669634788 0)
(25.02347654983749 -0.02263802372667166 0)
(23.73770217104813 -0.6145206514045933 0)
(24.98114303348836 -0.1009286654075482 0)
(25.1330165886871 -0.04744576153425324 0)
(25.29469658318295 -0.1854495935611638 0)
(24.99993654842543 3.108702742418807e-05 0)
(25.00094887854103 -0.00130811334195146 0)
(25.05735571640566 -0.06659586451969907 0)
(25.43819777676066 -0.3059094595552698 0)
(24.99979994892581 0.0001102136907599483 0)
(25.00223874316849 -0.004002660351749968 0)
(25.09541471319072 -0.1350400374151561 0)
(25.57077044491383 -0.4480958061067095 0)
(24.99961645196716 0.000251390968986972 0)
(25.00293694578609 -0.007646464263906049 0)
(25.11608435015048 -0.2142175288309515 0)
(25.68027994675255 -0.6400188348639261 0)
(24.99949526178747 0.000402504124575917 0)
(25.00227673096459 -0.01050724184841768 0)
(25.11075135556198 -0.2939445855008327 0)
(25.74194876743158 -0.9220256642410796 0)
(24.99991526856902 0.0001046329762097575 0)
(24.99866483821708 -0.002049412861907571 0)
(24.88903224313563 -0.1892157624286422 0)
(24.8479545728115 -2.647482720745421 0)
(24.99980085591359 0.0002941352275733941 0)
(24.99691096149056 -0.005920725037774142 0)
(24.91495852087206 -0.3427696509236786 0)
(25.27577068178114 -2.376938223525432 0)
(24.9995847625673 0.0004771180642193082 0)
(24.99812634926624 -0.01064852692602378 0)
(25.01431835128082 -0.3892980981464846 0)
(25.50747360583206 -1.87495781658761 0)
(24.99947952651836 0.000487694135719341 0)
(25.00090837260111 -0.01154923830664859 0)
(25.07982959604655 -0.355779221583612 0)
(25.69863452496627 -1.341303908987807 0)
(23.98501616173292 -2.486565942498857 0)
(24.95269398364298 -0.09338179073884331 0)
(24.99971565325062 -0.000621319204582364 0)
(24.99996866288437 3.574561722531582e-05 0)
(23.94614495915917 -2.10484671427478 0)
(24.94964691896904 -0.08426545890784065 0)
(24.99970880374746 -0.0007211982077170093 0)
(24.99996840501597 6.178581755284195e-05 0)
(23.8587691845187 -1.913716980095852 0)
(24.95116430310053 -0.04644398828093638 0)
(24.999737883016 -0.0001797129216644517 0)
(24.9999946785434 -4.23317157745415e-06 0)
(23.93011755131377 -1.575189609241229 0)
(24.96873123434071 -0.01362230190614256 0)
(24.99991609606554 -1.272646929628543e-05 0)
(24.99999926788005 1.549611272081153e-06 0)
(23.93320619093932 -1.260331635038738 0)
(24.99976066525734 0.01629047386470482 0)
(24.99999339935558 2.179567153187103e-06 0)
(24.99999997908404 1.285121498148299e-07 0)
(23.95764616782158 -1.005530539387416 0)
(24.99472301299128 -0.01167387574517638 0)
(25.00000022684915 -2.810777015810148e-07 0)
(24.99999999971269 7.50381720243017e-10 0)
(24.07649024146378 -0.5492710305163111 0)
(24.99604995977129 -0.001072152621492367 0)
(24.99999998207015 3.233047079180574e-09 0)
(24.99999999996917 -4.206433689805334e-11 0)
(24.48004925668771 -0.0730505496610085 0)
(24.99811490373488 -3.52962860258574e-05 0)
(25.00000002567136 -2.756760079217142e-10 0)
(25 2.694815594164575e-12 0)
(25.00000000000001 2.147410809595668e-15 0)
(24.99999999999641 1.154259272305084e-11 0)
(24.99999812295397 2.629769164407078e-06 0)
(24.99961376290982 0.0002139786204265974 0)
(25 -1.412231297677679e-15 0)
(24.99999999999379 1.187706071413206e-10 0)
(24.9999922037434 1.2511900425391e-05 0)
(24.99675965535058 0.009802676370804451 0)
(25 -5.136249570905385e-14 0)
(25.00000000127019 -1.721643593302679e-09 0)
(24.99995882991403 3.517499483361514e-05 0)
(24.98642561835195 0.04057405413521203 0)
(25 8.12062874788727e-13 0)
(24.99999998742534 8.728757812268523e-10 0)
(24.99965180823189 0.0002141890798299221 0)
(24.87958837597963 0.1122523483019447 0)
(24.99873780130638 -2.034500638613076e-11 0)
(24.99243500704816 0.01932198228675934 0)
(24.94286166647475 0.0582632292431766 0)
(24.58456972055528 0.0161947701117352 0)
(24.99243500702634 -0.01932198235790605 0)
(24.95658059684523 -3.954891906652935e-11 0)
(24.74144229482462 -0.01188486289568309 0)
(23.80488759445042 -0.3236398858178248 0)
(24.94286166647254 -0.05826322924529426 0)
(24.74144229483078 0.01188486287434222 0)
(23.90501062879391 2.935448888001814e-11 0)
(21.93677849374787 -0.5053510205254165 0)
(24.5845697205749 -0.01619477015581427 0)
(23.80488759449547 0.3236398857751059 0)
(21.93677849377548 0.5053510205106164 0)
(19.47363288274144 -1.677803058381691e-11 0)
(18.69875800968152 2.672778773041001 0)
(19.42190608211267 3.144679225536551 0)
(21.31358113849558 2.720874970305083 0)
(22.91567678655198 1.732829060303771 0)
(19.64328644855738 4.512283019617302 0)
(19.87178672809273 4.481895733668958 0)
(20.78288194592908 4.436401813859246 0)
(22.02407887403209 4.056410238339399 0)
(20.21542549275259 5.38833941838918 0)
(20.66055871593066 4.733224009110897 0)
(21.43754087356996 4.85257810049416 0)
(22.26329271010226 4.724728844646782 0)
(20.9306129315218 5.742278058166476 0)
(21.2785030141377 5.033129319361156 0)
(21.83977828018878 5.092655098503367 0)
(22.37889250704816 5.023529956225827 0)
(22.67689777739972 5.276605089181464 0)
(22.86308509327722 5.404755262494797 0)
(23.00920856574578 5.447207233318992 0)
(23.2945894260021 5.631437478943899 0)
(22.35559516885554 5.422040933310945 0)
(22.78354747747609 5.530349964875323 0)
(22.98126545932418 5.501804268502533 0)
(23.79040726324241 5.831445801431161 0)
(21.89193107037312 5.324468872529715 0)
(22.57895966899024 5.555376046656795 0)
(22.88814212332521 5.555452934506798 0)
(25.18064371695416 6.227472385464682 0)
(21.0774263432789 6.259129404443498 0)
(21.21557421912405 6.151793118990552 0)
(21.5883224007345 5.763198369718278 0)
(26.79121906041144 7.352297249959372 0)
(27.31234894984994 3.410443765631054 0)
(27.25802638252537 0.9192321978287675 0)
(26.42233288075035 0.4926630956087206 0)
(26.18944029815154 0.3528285072894315 0)
(29.04421259346665 2.515784272082123 0)
(28.78611411794323 0.3475021548856113 0)
(27.59189324578538 0.3883162902237439 0)
(26.90272328850136 0.3060459529235315 0)
(31.80196238992185 2.079698145917885 0)
(29.82301890978667 0.121818510372105 0)
(28.22700752074789 0.1158238373610178 0)
(27.31683980798321 0.06702161245605555 0)
(25.0916046394176 2.120074942709167 0)
(23.46725240122515 0.6411108379312258 0)
(23.12597603150265 -0.1100620835515062 0)
(23.2679951171414 -0.4791192649099892 0)
(26.04098214920299 0.2075870791639598 0)
(25.86766002025992 0.159101240746675 0)
(25.69338836716664 0.1611247312976414 0)
(25.57881209512906 0.09917505387834633 0)
(26.50801930035218 0.1698425673123555 0)
(26.18209964616938 0.1093757210581423 0)
(25.9250428847893 0.1218390601960542 0)
(25.76098730674336 0.06179279092750828 0)
(26.7835004038971 -0.01473469561153426 0)
(26.39126346207624 -0.02686595582037381 0)
(26.104421767095 0.005767961446843627 0)
(25.9043546019288 -0.003738221303258479 0)
(23.62289884351769 -0.771601079514418 0)
(24.04116297515334 -0.8812521769339891 0)
(24.46099379500248 -0.77492114374423 0)
(24.84317050516158 -0.5370352631632758 0)
(25.4870854540303 0.04669024237256422 0)
(25.251861095076 0.0503830712616621 0)
(24.52482206816646 1.211826065873866 0)
(19.01110451937581 4.407900721038912 0)
(25.63246159746804 0.02484562692009772 0)
(25.3198541242505 0.02321982909577025 0)
(23.81192646887852 1.811550082636372 0)
(15.46964094256252 4.054441159848722 0)
(25.74626735416652 -0.02031471980881304 0)
(25.38108093794843 -0.0235141651074361 0)
(22.50338579858929 1.857599296671733 0)
(12.21186935978788 2.221946566081078 0)
(24.97395011798969 -0.3970412516601026 0)
(25.11127219364655 -0.1812789863855838 0)
(19.53986760253233 -0.03892469336981064 0)
(6.335063042021177 0.7688067467084266 0)
(13.81247086265596 6.671953332004262 0)
(14.96807250139162 7.750204712859593 0)
(15.37739821072652 8.892781694220256 0)
(15.9410042269982 9.819726395791932 0)
(12.30406404662052 6.794988494895676 0)
(14.40562921265335 7.786511999578101 0)
(15.19409704873149 9.068920756762457 0)
(15.87098431723702 9.902121914196417 0)
(9.796520945369339 5.556611423433399 0)
(12.76029098799683 7.364110391502487 0)
(14.35353236254798 9.010432600090233 0)
(15.48184784754119 9.912576707907508 0)
(4.814557339209373 3.08561798593985 0)
(8.259895296790685 4.409542915332682 0)
(11.44360168455404 6.182459786419112 0)
(13.16735677580903 8.244917242571001 0)
(16.11250953610029 10.5024035691309 0)
(16.19814402611234 10.79041624534725 0)
(16.33306395814369 10.93643022695015 0)
(16.57509865987821 11.09072097259416 0)
(16.04341289212046 10.42953352880614 0)
(16.14971336142392 10.67670788359939 0)
(16.30329576034559 10.8346063669127 0)
(16.56214032436035 10.99654177435262 0)
(15.90464078948955 10.39856800820478 0)
(16.06444715640279 10.61944663648588 0)
(16.21996947333411 10.78542611957836 0)
(16.47892593526521 10.9511999790458 0)
(14.37400719667798 9.665238772552941 0)
(14.85784240438465 10.52348667580529 0)
(15.20283336098842 10.79607958344543 0)
(15.52413975098505 10.75156337894717 0)
(16.98147594470117 11.30953900040661 0)
(18.13820984986472 11.35629573520376 0)
(20.39253564508536 10.9945125808108 0)
(23.53054689719553 9.300390791414765 0)
(16.99466193737867 11.23673217525341 0)
(18.05140252212721 11.32471794306136 0)
(20.22259477223056 11.16978115813656 0)
(24.08580641961579 11.56192431873178 0)
(16.91489918605265 11.20441781897502 0)
(17.77048537607282 11.31151977893851 0)
(20.4035620674719 11.93389269644575 0)
(29.9193102005203 17.53139147304916 0)
(16.20094076990597 11.0726464402899 0)
(17.51506088853079 10.68849716638622 0)
(21.00415284381825 12.39327582494503 0)
(41.19951801549265 24.07264004318692 0)
(28.92192931293546 4.429905111285654 0)
(31.17529820407061 -4.71653758800085 0)
(9.232523646500253 -3.726040625744486 0)
(4.086229002717069 -1.695144624683795 0)
(30.65732476355588 3.737805890264027 0)
(24.82356084557336 -2.790037695679819 0)
(3.744118646624252 -2.391988694091526 0)
(1.863946940319996 0.9742290954312148 0)
(31.21876635257023 2.897092274188055 0)
(15.46168614937178 -5.333439898267968 0)
(1.855095938272459 1.325140426718572 0)
(1.211255501468596 1.817588377714146 0)
(20.68491140134254 -9.033814852391981 0)
(4.498435430182677 -4.71396518705661 0)
(-0.2599195081348297 2.774985627729992 0)
(0.1738406988699031 1.59814118145556 0)
(2.020700904946101 -1.872272453924631 0)
(0.6721896347625137 -1.830654123236916 0)
(0.002502674742103905 -1.299486213532759 0)
(-0.8736878118519162 -0.144072209708963 0)
(0.84419934371282 0.6253850778929543 0)
(-0.09894406667210774 0.4133286381796691 0)
(-0.5461884382606136 0.7700082609116191 0)
(-0.6113461226120608 1.624111516195131 0)
(0.5994345345820368 1.200552186310124 0)
(0.3006681645392629 1.329423366994477 0)
(0.1887127288342161 1.983999921040937 0)
(-0.2228934463848994 2.731011966218458 0)
(0.0853960200535854 1.137823431742212 0)
(-0.01613541397670528 1.566320579906341 0)
(-0.09768441648524713 2.535474375645581 0)
(-0.6404387999881429 2.876262084527714 0)
(5.358159124629656 -4.178631952254457 0)
(12.76745666032656 -5.781186236086584 0)
(17.90388438612167 -5.485322421730252 0)
(21.89405133762998 -5.944193722211366 0)
(2.225622503025507 -1.620648490666272 0)
(9.455431228307768 -3.754169722089352 0)
(15.4460832620878 -4.595679893730658 0)
(20.38203794779766 -6.092103258428788 0)
(-0.9399682178821964 -1.160221856828346 0)
(4.02321101694566 -3.079699468704665 0)
(11.13098805435434 -4.038583118794721 0)
(19.31964300222236 -4.12373803850666 0)
(-1.630632466776613 0.6929155496286779 0)
(1.296272485975752 0.1749013721694885 0)
(9.05001512631943 1.147420614774289 0)
(21.19491978804792 -2.229604192854597 0)
(23.36410438946039 -10.87148787259521 0)
(25.69691518240175 -14.83934970139181 0)
(25.00533933353433 -12.11957041776686 0)
(18.59684130216242 -7.47945192113521 0)
(21.15709158118988 -10.78850339931255 0)
(22.8320405842895 -10.53905970441853 0)
(20.45341790660551 -5.59140261486852 0)
(12.94819884770906 -3.99508559528189 0)
(20.25587390681754 -8.986545253153462 0)
(17.15150216100603 -5.711797080142151 0)
(11.5501619470468 -2.611137227730849 0)
(5.414266385073337 -0.6887804202338662 0)
(13.56438004058117 -9.843942935614329 0)
(7.932086153104528 -1.985504688337558 0)
(3.783965276182707 1.591923188565883 0)
(1.514712983919432 3.117555897058823 0)
(-0.5556469751948957 3.570182086899219 0)
(-1.765170990924988 2.978739407673868 0)
(-2.199503593468368 1.847466216384265 0)
(-2.152687560665056 0.645860360113944 0)
(1.319947479322268 2.287309746600851 0)
(-1.692075349811519 2.481496450932519 0)
(-3.244124126535196 1.559054971065068 0)
(-3.387443164904715 0.4442393385509903 0)
(3.62512229332388 -1.740674548211371 0)
(-1.43399083122256 -0.6374288762658157 0)
(-3.145226861770337 -0.1399854727384294 0)
(-3.441958234835766 -0.05132110663299697 0)
(10.47282801583908 -4.77455234759655 0)
(5.781699173858864 -3.514945371079157 0)
(4.005540450327462 -1.956291367238833 0)
(3.806459514262572 -0.5878110558852698 0)
(-2.152687560664291 -0.6458603601052438 0)
(-3.387443164905086 -0.4442393385426167 0)
(-3.441958234837824 0.05132110663659856 0)
(3.806459514239203 0.5878110558790545 0)
(-2.199503593466842 -1.847466216376237 0)
(-3.244124126532763 -1.559054971056273 0)
(-3.145226861770793 0.1399854727438249 0)
(4.00554045033382 1.956291367235291 0)
(-1.76517099092111 -2.97873940766607 0)
(-1.692075349807848 -2.481496450926568 0)
(-1.433990831220508 0.6374288762670584 0)
(5.78169917386801 3.514945371084591 0)
(-0.5556469751896854 -3.570182086891807 0)
(1.319947479326205 -2.287309746596762 0)
(3.62512229332471 1.740674548213642 0)
(10.4728280158404 4.774552347610405 0)
(18.59684130214338 7.47945192113664 0)
(25.00533933352019 12.11957041775558 0)
(25.69691518239111 14.83934970139197 0)
(23.36410438944344 10.87148787259146 0)
(12.94819884771035 3.995085595281369 0)
(20.45341790660564 5.591402614874221 0)
(22.8320405842904 10.53905970442429 0)
(21.15709158118081 10.78850339930848 0)
(5.41426638507527 0.6887804202388654 0)
(11.55016194705137 2.611137227735109 0)
(17.1515021610062 5.711797080150744 0)
(20.25587390681659 8.986545253158104 0)
(1.514712983924019 -3.117555897052089 0)
(3.783965276182113 -1.591923188558764 0)
(7.932086153099599 1.985504688345245 0)
(13.56438004058107 9.843942935620003 0)
(21.19491978804976 2.229604192853018 0)
(9.050015126320606 -1.14742061477261 0)
(1.296272485979035 -0.1749013721663581 0)
(-1.630632466777155 -0.6929155496272643 0)
(19.31964300221658 4.123738038505552 0)
(11.13098805435619 4.038583118788211 0)
(4.023211016948604 3.07969946870977 0)
(-0.9399682178875978 1.160221856829187 0)
(20.38203794778289 6.092103258424094 0)
(15.44608326208233 4.595679893723513 0)
(9.455431228302551 3.754169722094653 0)
(2.225622503008947 1.620648490669871 0)
(21.89405133761021 5.944193722203022 0)
(17.90388438611501 5.485322421715434 0)
(12.76745666031408 5.781186236096515 0)
(5.358159124601171 4.178631952260797 0)
(-0.8736878118801218 0.144072209700153 0)
(0.002502674690415525 1.299486213521974 0)
(0.6721896347421412 1.830654123225785 0)
(2.02070090494407 1.872272453964545 0)
(-0.6113461226325095 -1.624111516189638 0)
(-0.5461884382916671 -0.7700082609205142 0)
(-0.09894406666292545 -0.4133286381958898 0)
(0.8441993437465938 -0.6253850778773069 0)
(-0.2228934463958441 -2.731011966216423 0)
(0.1887127288177027 -1.983999921051891 0)
(0.3006681645411028 -1.329423367008528 0)
(0.5994345345980869 -1.200552186303399 0)
(-0.6404387999937037 -2.87626208452929 0)
(-0.09768441649347595 -2.53547437565968 0)
(-0.01613541398081397 -1.56632057991756 0)
(0.08539602005461265 -1.137823431732676 0)
(4.086229002688716 1.695144624698634 0)
(9.232523646397677 3.726040625712181 0)
(31.17529820396705 4.716537588051129 0)
(28.92192931292067 -4.429905111272577 0)
(1.863946940331768 -0.97422909541058 0)
(3.744118646598498 2.391988694052448 0)
(24.82356084551909 2.79003769567003 0)
(30.65732476355184 -3.73780589025293 0)
(1.211255501471676 -1.817588377692507 0)
(1.85509593827373 -1.325140426732422 0)
(15.46168614933417 5.333439898267723 0)
(31.2187663525652 -2.897092274191299 0)
(0.1738406988735498 -1.598141181436394 0)
(-0.2599195081205107 -2.774985627737092 0)
(4.4984354301858 4.713965187011254 0)
(20.68491140136964 9.033814852378374 0)
(23.53054689720247 -9.300390791405009 0)