/*--------------------------------*- C++ -*----------------------------------*\
  =========                 |
  \\      /  F ield         | OpenFOAM: The Open Source CFD Toolbox
   \\    /   O peration     | Website:  https://openfoam.org
    \\  /    A nd           | Version:  11
     \\/     M anipulation  |
\*---------------------------------------------------------------------------*/
FoamFile
{
    format      ascii;
    class       volScalarField;
    location    "0.1125";
    object      rho;
}
// * * * * * * * * * * * * * * * * * * * * * * * * * * * * * * * * * * * * * //

dimensions      [0 0 0 0 0 0 0];

internalField   nonuniform List<scalar> 
880
(
0.2239950333699092
0.2239950333699099
0.2239950607078567
0.2240000599528251
0.2239950333699093
0.2239950333704578
0.22399512303989
0.2240518753995933
0.2239950333699093
0.2239950333902724
0.2239956778962547
0.2243546498976973
0.2239950333699091
0.2239950333149848
0.2239965389414475
0.2252155675991012
0.2239950333699093
0.2239950333699092
0.2239950333751424
0.2239950344423822
0.2239950334789786
0.2239950333397963
0.2239950362237288
0.2239950709871458
0.2240088492744875
0.224023281146949
0.2241045318092184
0.2239571279118224
0.2284229714203169
0.2326580158071965
0.2352406059160825
0.236509933951681
0.2239950458530259
0.2239951773397305
0.2239953057354797
0.2239952539923713
0.2239956029870027
0.2239965354278967
0.2239995660034115
0.2239995292383057
0.2241874254486362
0.2243781293652905
0.2246623063792745
0.2248108913345667
0.2380709340780099
0.2404673106838719
0.2427454060971013
0.2446498965262571
0.2400329764950423
0.2368759207325541
0.2358513170740597
0.2345805702766021
0.2255532427479314
0.2262855591707425
0.2265837641029274
0.2263653431771344
0.2240083406772932
0.2240307847494727
0.2240497320840605
0.2240535827495065
0.223995754019038
0.2239970291006131
0.2239978972575805
0.223997741044984
0.2239969600063369
0.2239959183036365
0.2239952616896763
0.2239950611309564
0.224045571921085
0.2240290830265057
0.22400993595417
0.2239987061433338
0.2260248126786181
0.2255188536593015
0.2248991236000231
0.2243630117083675
0.2329508658989187
0.2312283422584622
0.2294690773305878
0.227664049145325
0.225926345686945
0.2240909562261862
0.2239954985176321
0.2239950352244894
0.2244604457294792
0.2240056928106241
0.2239950566635622
0.2239950333756239
0.2247199854895686
0.2239980900405951
0.2239950388448563
0.2239950335600534
0.2363420574322638
0.2241553257847514
0.2239955028111934
0.2239950261651696
0.2239950908802463
0.2239984416241011
0.2250247473265702
0.2734258440043795
0.2239954164141722
0.2240066182873094
0.2260503199040855
0.2819186035096669
0.2239963171302502
0.2240182951203211
0.2273740851414757
0.2904884839732179
0.2239980308545397
0.2240492991130965
0.2292836536544898
0.2984513104189457
0.3055024699362827
0.2311999346573985
0.224074303083132
0.2239997075235603
0.3145063239410071
0.2337600180231197
0.2241377885759606
0.2240029040215115
0.3239302080904666
0.2360462618679478
0.2241725929331515
0.2240050559219836
0.3331005499258949
0.2394716181480439
0.2242819830698732
0.2240114681759407
0.2240166308576311
0.2243792994994673
0.2431435493963105
0.3390488457829825
0.2240311374551423
0.2245636326677391
0.2449650980238546
0.3287182913237167
0.2240463692458659
0.2245080234782903
0.2398264588594399
0.3014789051243962
0.2239993435979065
0.2242511349074469
0.2319965736069688
0.2652293319984724
0.2240519084587627
0.224748091414282
0.2295918264433608
0.222112219331843
0.2240304713307204
0.2243349504626304
0.2245788095511423
0.1817121477047716
0.2239978560499764
0.2240581686980728
0.2210524378154831
0.1562589680937876
0.2239932408216922
0.2237758413553456
0.2165250485486611
0.144145425381157
0.1416532516988745
0.2148350368015537
0.2237209520343772
0.2239928322124072
0.1392025805212319
0.2136966201368788
0.2236902308841689
0.2239925339097449
0.1391143178933872
0.214017746385899
0.2237647555047663
0.2239938870874198
0.1325414759719724
0.2130894290308541
0.2237606310971261
0.2239939769706428
0.1443989064599867
0.2165928053013537
0.223882856022718
0.2239945147567828
0.1606465521675841
0.2202391634867944
0.2239572587643145
0.2239948850047974
0.1754699701810487
0.2220449851626193
0.2239796017271535
0.2239949785699205
0.1896608070675596
0.2232908609304362
0.2239907016409267
0.2239950092396269
0.2033057796985246
0.2223328651495115
0.223956327387169
0.2239947084276394
0.2046168552381255
0.2224258277068134
0.2239577832283186
0.223994715778786
0.2048300235839844
0.2224973515227052
0.2239596499360774
0.2239947279261023
0.2062172225616331
0.2226694551773807
0.2239650575834786
0.2239947727523873
0.1896608070675354
0.2232908609301592
0.2239907016407006
0.2239950092391276
0.1754699701810778
0.2220449851623349
0.223979601726734
0.2239949785696937
0.1606465521674338
0.220239163486467
0.2239572587641767
0.223994885004657
0.1443989064599548
0.2165928053009871
0.2238828560228449
0.223994514756806
0.2239928322127507
0.2237209520345502
0.2148350368016606
0.1416532516984249
0.2239925339096841
0.2236902308842462
0.2136966201370532
0.1392025805208857
0.2239938870875173
0.2237647555047267
0.2140177463855644
0.1391143178932438
0.2239939769706907
0.2237606310975163
0.2130894290308409
0.1325414759719909
0.1441454253808683
0.2165250485485491
0.2237758413550956
0.2239932408217158
0.1562589680935834
0.2210524378154199
0.2240581686981843
0.2239978560499706
0.1817121477045176
0.2245788095511592
0.2243349504625861
0.2240304713308986
0.2221122193318408
0.2295918264431277
0.2247480914138927
0.2240519084590468
0.2240166308574497
0.2243792994990548
0.243143549396715
0.3390488457830431
0.2240311374552663
0.2245636326671127
0.2449650980242916
0.328718291323976
0.2240463692453708
0.2245080234786046
0.2398264588594392
0.3014789051243318
0.2239993435981859
0.2242511349073381
0.231996573607004
0.2652293319985277
0.3331005499259925
0.2394716181480785
0.224281983071776
0.2240114681766469
0.3239302080906888
0.23604626186779
0.2241725929318255
0.2240050559220007
0.3145063239410414
0.2337600180230022
0.2241377885766609
0.224002904021611
0.3055024699362931
0.2311999346580581
0.2240743030830289
0.2239997075236085
0.2239950908803378
0.223998441623849
0.22502474732594
0.2734258440038762
0.2239954164146033
0.2240066182881978
0.2260503199047904
0.2819186035102479
0.2239963171307935
0.2240182951205191
0.2273740851409599
0.2904884839726464
0.2239980308545484
0.2240492991131184
0.2292836536548549
0.2984513104188687
0.223995026165188
0.2239950335599943
0.2239950333757994
0.2239950352244801
0.2239955028107055
0.223995038844653
0.2239950566634041
0.2239954985175096
0.2241553257845342
0.2239980900407206
0.224005692810425
0.224090956226023
0.2363420574321106
0.2247199854896309
0.2244604457295519
0.2259263456869179
0.2239950611310596
0.2239987061434721
0.2243630117084949
0.2276640491453753
0.2239952616896199
0.2240099359544485
0.2248991236000574
0.2294690773306839
0.223995918303621
0.2240290830266357
0.225518853659071
0.2312283422580618
0.2239969600061393
0.2240455719209955
0.2260248126787521
0.232950865898858
0.2239957540190962
0.2240083406769211
0.2255532427480135
0.2400329764952517
0.2239970291002847
0.2240307847495335
0.2262855591709244
0.2368759207326364
0.2239978972577187
0.2240497320837646
0.2265837641027751
0.2358513170737305
0.2239977410448789
0.2240535827494042
0.2263653431773249
0.2345805702763551
0.2446498965261408
0.2248108913344769
0.2239995292380255
0.2239952539925926
0.2427454060968587
0.2246623063795629
0.2239995660029523
0.2239953057354791
0.240467310683968
0.2243781293656161
0.2239965354272918
0.2239951773395941
0.2380709340778837
0.2241874254485358
0.2239956029867095
0.2239950458535274
0.2365099339515061
0.2239571279119491
0.2239950709871356
0.223995034442629
0.2352406059159852
0.2241045318089626
0.2239950362234502
0.2239950333751449
0.232658015807083
0.224023281146907
0.2239950333398107
0.2239950333699091
0.2284229714201358
0.2240088492743205
0.2239950334787822
0.2239950333699093
0.2239950333699092
0.2239950333699093
0.2239950607079706
0.2240000599527542
0.2239950333699093
0.2239950333703356
0.2239951230398901
0.2240518753990986
0.2239950333699093
0.2239950333901499
0.2239956778962033
0.2243546498977105
0.2239950333699093
0.2239950333148122
0.2239965389413798
0.225215567598788
0.2240256427900808
0.2241843569670494
0.2248833548866472
0.2285878364586038
0.2241843569672647
0.2245276133796971
0.2266906656171351
0.2355106792761001
0.2248833548866387
0.2266906656169927
0.2337813171296678
0.2491380820934825
0.2285878364592024
0.2355106792761604
0.2491380820928764
0.2693374766679361
0.2901719478311484
0.2727656043824772
0.2650137886160599
0.2501101890787141
0.2839495873744468
0.280272241494492
0.2816610254684418
0.2736249235756898
0.284487909557859
0.2827293876958709
0.2833631092312651
0.2795691556433128
0.2861620494033589
0.2853979505450306
0.2855488003197413
0.2826628674103074
0.2833097037261725
0.2836940542293423
0.2842954319895946
0.2833916846608734
0.2852125786157709
0.2848743788457762
0.2854944961830183
0.2845037288217707
0.2862384023251993
0.2857183299397282
0.2860346654198945
0.2850568744896904
0.2873011563052968
0.2859927371506841
0.2860405890225972
0.2829666342285068
0.2378975987630446
0.2227382799665424
0.2244057995265155
0.2266957895233546
0.2242591117310707
0.2164501728777059
0.2225227362183823
0.2254495487793137
0.2120157725283581
0.2169286053047559
0.2235411928265371
0.22589828012413
0.1922424387281657
0.2121946328387863
0.2211290034110131
0.224086424246721
0.2277059961123541
0.2280827031087471
0.2282455234840161
0.2283711163896765
0.2265865192662874
0.2273761551579243
0.2283362441549694
0.2282666212428889
0.2266798661326937
0.2277313569368697
0.2288390838323306
0.2286014534248324
0.2252175302957619
0.2266470594940775
0.228317463044761
0.2282515444314133
0.2271898730950928
0.2251593331044049
0.2352610342114512
0.2932413387106562
0.2270556031435225
0.2252044179973124
0.2411045842914063
0.3016544718573966
0.2273270771452308
0.2253758034194867
0.2460100247154248
0.3059427211700536
0.2268401229951515
0.2251352066815062
0.2473209104877576
0.3080062892256651
0.3844336665483559
0.3780904814207836
0.3739367702254675
0.3697368914746042
0.3916301827172526
0.3833139287416372
0.3768396295912793
0.3721858207524406
0.3875712117921476
0.382324190843865
0.3782095077758487
0.3750944194776191
0.3904525520935055
0.3851309276417014
0.3796705806037664
0.3761458953186789
0.3660289285214492
0.3686709991570193
0.3725422838586687
0.3767362913730719
0.3686948258883861
0.3708629374558005
0.374526272291843
0.3788789943779866
0.3713608077920763
0.3733857243338697
0.3770798107372756
0.3815794765408982
0.3726174381462029
0.3742939415930935
0.3781541587289293
0.3828860240591112
0.3776452524120122
0.3659165578276112
0.3411270167390392
0.2933596061219645
0.3796883288608407
0.3691163850766561
0.3445999697695211
0.3009892936423791
0.3826477700610655
0.3734866116067487
0.345849810303876
0.3078479065447379
0.3841410839760625
0.3770355265746941
0.3489216418058571
0.3527420889903017
0.204660496530446
0.06364332279147196
0.03953166989465417
0.05059919327875851
0.1642896265006279
0.04555472582472671
0.04229437288573615
0.05445886882510221
0.1208056409530867
0.03507635145146139
0.04388614417218065
0.06021248142013474
0.08508112672863319
0.03084060468556958
0.04800939308982773
0.0621327310440653
0.05964714109236233
0.06313795192038138
0.06492983529355481
0.0611151423664916
0.06412687525358997
0.06745564734167157
0.06707459390511367
0.06191882591494203
0.07044256158998313
0.07370634831466383
0.07038459054947162
0.06374472044403158
0.07212824047649941
0.07639179592286545
0.07200415889028397
0.06725550660259653
0.08255200379833462
0.1010787897695625
0.118374664028824
0.1353089936643496
0.07869671062760197
0.09552537253311068
0.1091152611033706
0.1278214426049397
0.07478137166215863
0.08993268387580507
0.1022559474136543
0.1189408441237649
0.06971597870100073
0.08326576873707568
0.09367265156047644
0.1159446239151371
0.105925814912226
0.07126453881252569
0.07394397683559674
0.08919872607971246
0.09874642131648322
0.07194705620456043
0.0829372111778152
0.08057714123886567
0.08188454991687001
0.08787395697328179
0.09224860502321278
0.08578826539022931
0.0713154334276178
0.08865398297981182
0.09236858784905769
0.09336327179861056
0.09180354170255842
0.08931398764560021
0.08731601865079126
0.08602105865774935
0.08102079686712642
0.07960952548377781
0.08016845585130662
0.07966845527825951
0.07602878179738105
0.07836634356392054
0.08200475742464347
0.08500177469461205
0.09623571899604116
0.09791099946416716
0.09952815641977961
0.1008855485814775
0.08602105865775173
0.07966845527826087
0.0850017746946226
0.1008855485815054
0.08731601865080264
0.08016845585132019
0.0820047574246654
0.09952815641981115
0.08931398764561399
0.0796095254837994
0.07836634356394497
0.09791099946418849
0.09180354170257736
0.08102079686714479
0.07602878179740771
0.0962357189960819
0.08919872607982189
0.07394397683568563
0.07126453881254194
0.1059258149122728
0.08057714123889972
0.08293721117784149
0.07194705620458082
0.09874642131653791
0.08578826539025743
0.09224860502322542
0.08787395697330533
0.08188454991693202
0.09336327179862845
0.09236858784907499
0.08865398297983935
0.07131543342763481
0.1159446239151985
0.09367265156056027
0.08326576873718249
0.06971597870109339
0.1189408441238499
0.1022559474137341
0.08993268387591273
0.07478137166225274
0.1278214426050001
0.1091152611034289
0.09552537253321208
0.07869671062770278
0.135308993664427
0.1183746640288853
0.1010787897696166
0.08255200379841675
0.0611151423666135
0.06492983529369753
0.06313795192038583
0.05964714109227472
0.06191882591506657
0.06707459390524757
0.06745564734177383
0.0641268752535899
0.06374472044413898
0.07038459054958997
0.07370634831480496
0.07044256159003391
0.06725550660270754
0.07200415889040923
0.07639179592303508
0.07212824047658893
0.05059919327879443
0.03953166989468301
0.06364332279124478
0.2046604965303783
0.05445886882517025
0.04229437288584482
0.04555472582463622
0.1642896265004564
0.06021248142021715
0.04388614417228901
0.03507635145149034
0.1208056409530191
0.06213273104413251
0.04800939308990916
0.03084060468559885
0.08508112672860553
0.2933596061219287
0.3411270167389546
0.3659165578273819
0.3776452524116906
0.3009892936423835
0.3445999697694435
0.3691163850764628
0.3796883288605668
0.3078479065447243
0.3458498103037752
0.3734866116065734
0.3826477700608876
0.3527420889902346
0.3489216418057863
0.377035526574506
0.3841410839758738
0.3767362913727991
0.3725422838586974
0.3686709991568902
0.3660289285214524
0.3788789943777992
0.3745262722919115
0.3708629374557361
0.3686948258883109
0.3815794765407831
0.3770798107373375
0.3733857243337687
0.3713608077919946
0.3828860240589719
0.3781541587290028
0.374293941593008
0.3726174381462055
0.3697368914743605
0.3739367702251454
0.3780904814210674
0.3844336665483121
0.3721858207522401
0.3768396295910471
0.3833139287420474
0.3916301827171055
0.3750944194774403
0.3782095077757315
0.3823241908442828
0.3875712117919641
0.3761458953184773
0.379670580603781
0.3851309276420418
0.39045255209337
0.293241338710748
0.2352610342112219
0.2251593331044137
0.22718987309505
0.3016544718573384
0.2411045842909819
0.2252044179972978
0.2270556031435404
0.3059427211700419
0.2460100247150058
0.2253758034195698
0.2273270771452248
0.3080062892254689
0.247320910487665
0.2251352066819271
0.2268401229953176
0.2283711163903021
0.2282455234838092
0.2280827031085594
0.2277059961122906
0.2282666212436629
0.2283362441543005
0.2273761551579998
0.2265865192661182
0.2286014534256097
0.2288390838313817
0.2277313569371422
0.2266798661325255
0.2282515444319893
0.2283174630438159
0.2266470594944716
0.2252175302956321
0.2266957895231749
0.2244057995262786
0.2227382799666915
0.2378975987631847
0.2254495487791353
0.2225227362181528
0.216450172877941
0.224259111731179
0.2258982801239274
0.2235411928263278
0.2169286053050232
0.2120157725284488
0.2240864242464704
0.2211290034107428
0.2121946328391054
0.1922424387283937
0.2833916846607513
0.28429543198934
0.2836940542295196
0.2833097037260299
0.2845037288216183
0.2854944961827982
0.2848743788460023
0.2852125786156293
0.2850568744895642
0.2860346654197536
0.2857183299399584
0.2862384023250347
0.2829666342282909
0.2860405890225312
0.2859927371509126
0.2873011563051424
0.2826628674098372
0.2795691556433801
0.2736249235757522
0.2501101890786923
0.2855488003193111
0.2833631092313575
0.2816610254683981
0.2650137886160583
0.2853979505445559
0.2827293876959021
0.2802722414944501
0.2727656043822819
0.2861620494029656
0.2844879095579024
0.2839495873742888
0.2901719478307249
0.1992353368989413
0.2231985968953195
0.2239863923510353
0.2239949938559872
0.1991129100825351
0.2230892882367735
0.223983825312758
0.2239949679367788
0.201961571823147
0.2229801945284996
0.2239796577907157
0.2239949286600387
0.2047037352325911
0.2228139003459385
0.2239725268060041
0.2239948550018309
0.2239947084280346
0.2239563273870787
0.2223328651494668
0.2033057796981607
0.2239947157787368
0.2239577832283492
0.2224258277068785
0.2046168552380325
0.2239947279262144
0.223959649935812
0.2224973515227211
0.204830023583984
0.2239947727523727
0.223965057583352
0.2226694551774545
0.2062172225615323
0.2239948550015966
0.2239949286601708
0.2239949679369007
0.2239949938556362
0.2239725268057673
0.2239796577906468
0.2239838253127593
0.2239863923511083
0.2228139003459992
0.2229801945284056
0.2230892882368871
0.2231985968952342
0.2047037352324287
0.2019615718229728
0.1991129100824509
0.1992353368990244
)
;

boundaryField
{
    back
    {
        type            empty;
    }
    inlet
    {
        type            calculated;
        value           nonuniform List<scalar> 
16
(
0.2239950333699092
0.2239950333699093
0.2239950333699093
0.2239950333699091
0.2239950333699093
0.2239950333699093
0.2239950333751424
0.2239950344423823
0.223995034442629
0.2239950333751449
0.2239950333699091
0.2239950333699094
0.2239950333699092
0.2239950333699093
0.2239950333699093
0.2239950333699093
)
;
    }
    front
    {
        type            empty;
    }
    top
    {
        type            calculated;
        value           nonuniform List<scalar> 
40
(
0.223995045853026
0.2239951773397305
0.2239953057354797
0.2239952539923713
0.223995754019038
0.2239970291006131
0.2239978972575805
0.223997741044984
0.2239969600063369
0.2239959183036365
0.2239952616896763
0.2239950611309564
0.2239950352244894
0.2239950333756239
0.2239950335600534
0.2239950261651696
0.2239950908802463
0.2239954164141722
0.2239963171302502
0.2239980308545397
0.2239997075235603
0.2240029040215115
0.2240050559219836
0.2240114681759407
0.2240166308576311
0.2240311374551423
0.2240463692458659
0.2239993435979065
0.2240519084587627
0.2240304713307204
0.2239978560499764
0.2239932408216922
0.2239928322124072
0.2239925339097449
0.2239938870874198
0.2239939769706428
0.2239945147567828
0.2239948850047974
0.2239949785699205
0.2239950092396269
)
;
    }
    outlet
    {
        type            calculated;
        value           uniform 0.2239950333699093;
    }
    bottom
    {
        type            calculated;
        value           nonuniform List<scalar> 
40
(
0.2239950092391275
0.2239949785696937
0.223994885004657
0.223994514756806
0.2239928322127507
0.2239925339096842
0.2239938870875173
0.2239939769706907
0.2239932408217158
0.2239978560499706
0.2240304713308986
0.2240519084590468
0.2240166308574497
0.2240311374552663
0.2240463692453709
0.2239993435981859
0.2240114681766469
0.2240050559220007
0.224002904021611
0.2239997075236085
0.2239950908803378
0.2239954164146033
0.2239963171307934
0.2239980308545484
0.223995026165188
0.2239950335599943
0.2239950333757994
0.2239950352244801
0.2239950611310596
0.2239952616896199
0.223995918303621
0.2239969600061394
0.2239957540190962
0.2239970291002847
0.2239978972577187
0.2239977410448789
0.2239952539925926
0.2239953057354791
0.2239951773395942
0.2239950458535274
)
;
    }
    wall
    {
        type            calculated;
        value           nonuniform List<scalar> 
104
(
0.2901719478311484
0.2839495873744468
0.284487909557859
0.2861620494033589
0.2873011563052968
0.2859927371506841
0.2860405890225972
0.2829666342285068
0.1922424387281657
0.2121946328387863
0.2211290034110131
0.224086424246721
0.2252175302957619
0.2266470594940775
0.228317463044761
0.2282515444314133
0.2268401229951515
0.2251352066815062
0.2473209104877576
0.3080062892256651
0.3904525520935055
0.3851309276417014
0.3796705806037664
0.3761458953186789
0.3726174381462029
0.3742939415930935
0.3781541587289293
0.3828860240591112
0.3841410839760625
0.3770355265746941
0.3489216418058571
0.3527420889903017
0.08508112672863319
0.03084060468556958
0.04800939308982773
0.0621327310440653
0.07212824047649941
0.07639179592286545
0.07200415889028397
0.06725550660259653
0.06971597870100073
0.08326576873707568
0.09367265156047644
0.1159446239151371
0.0713154334276178
0.08865398297981182
0.09236858784905769
0.09336327179861056
0.09180354170255842
0.08931398764560021
0.08731601865079126
0.08602105865774935
0.08602105865775173
0.08731601865080264
0.08931398764561399
0.09180354170257736
0.09336327179862845
0.09236858784907499
0.08865398297983935
0.07131543342763481
0.1159446239151985
0.09367265156056027
0.08326576873718249
0.06971597870109339
0.06725550660270754
0.07200415889040923
0.07639179592303508
0.07212824047658895
0.0621327310441325
0.04800939308990917
0.03084060468559885
0.08508112672860553
0.3527420889902346
0.3489216418057863
0.377035526574506
0.3841410839758738
0.3828860240589719
0.3781541587290028
0.374293941593008
0.3726174381462055
0.3761458953184773
0.379670580603781
0.3851309276420418
0.39045255209337
0.3080062892254689
0.247320910487665
0.2251352066819271
0.2268401229953176
0.2282515444319893
0.2283174630438159
0.2266470594944716
0.2252175302956321
0.2240864242464704
0.2211290034107428
0.2121946328391054
0.1922424387283937
0.2829666342282909
0.2860405890225312
0.2859927371509126
0.2873011563051424
0.2861620494029656
0.2844879095579024
0.2839495873742888
0.2901719478307249
)
;
    }
}


// ************************************************************************* //
