/*--------------------------------*- C++ -*----------------------------------*\
  =========                 |
  \\      /  F ield         | OpenFOAM: The Open Source CFD Toolbox
   \\    /   O peration     | Website:  https://openfoam.org
    \\  /    A nd           | Version:  11
     \\/     M anipulation  |
\*---------------------------------------------------------------------------*/
FoamFile
{
    format      ascii;
    class       volScalarField;
    location    "0.135";
    object      p;
}
// * * * * * * * * * * * * * * * * * * * * * * * * * * * * * * * * * * * * * //

dimensions      [0 2 -2 0 0 0 0];

internalField   nonuniform List<scalar> 
880
(
79.99999999999999
80.0000000002276
80.00004563891314
80.01594064521828
80.00000000000001
80.00000000144604
80.00013446237837
80.08764355476249
80
80.00000003970665
80.00058298446186
80.35151440753657
79.99999999999996
79.9999999293232
80.00201722020688
80.94910257944312
80.00000000002485
79.99999999994789
80.00000000675679
80.00000087426588
80.00000007120774
80.00000005686294
80.00000511213139
80.00004724147402
80.01245309630951
80.02435183622227
80.07821638246625
79.99516867099251
82.9304395894806
85.43149368289369
87.06046780945249
87.83392924653546
80.00000945700144
80.00009823326388
80.00039306135642
80.00033160105571
80.00057766249952
80.00149771685724
80.00436383748082
80.0052453736532
80.16699026733426
80.30717320376917
80.49826404063032
80.67870637387813
88.79730178986095
90.2272276419598
91.55140346357011
92.3297234765211
89.4824043595444
87.72444544902368
87.12237238975115
86.64242301251096
81.32821542393106
81.78180723800997
82.08208712934831
82.08488093736172
80.01827384025162
80.04388542365119
80.07051042136125
80.08729856582359
80.00111498257323
80.00323758712793
80.00552209301078
80.00608534789527
80.0052267336464
80.00355014864488
80.0017192046126
80.00051665052015
80.08431864240463
80.07214133038241
80.05175508476229
80.02745784520602
81.87021197191243
81.58564519898641
81.23825340679262
80.84883582384158
85.9512154017273
85.09570417259012
84.21987682656484
83.34699628216811
82.51229023375262
80.46600999232342
80.00911133501394
80.00007884127731
81.52206398153859
80.16063255210845
80.00154413082106
80.0000051243848
81.47026733981262
80.02759333675792
80.00009937494013
80.00000086128752
90.12014020465784
80.17939988327248
80.00083648929903
80.00002837430127
80.00012000749689
80.00410045236735
80.94308230705694
114.1497032766044
80.00056851578402
80.01488715469259
81.88342886628625
120.0181122564581
80.00174447053523
80.03121881714927
83.23039453053823
126.8245846542664
80.00443715207491
80.07461603191292
85.09651391141497
132.848688568526
137.8593460586052
87.23280216007409
80.12367359382995
80.0080765901459
143.2488426525076
89.92905346310869
80.22897800334928
80.01459629294352
149.4130927533062
92.87493263064125
80.3257601220816
80.02054153456245
154.1802610138187
96.59833665152671
80.52861409128651
80.03380382063132
80.04760254471103
80.74078024409064
100.1392939305307
157.1551851904764
80.07675697340764
81.00676109735761
99.97221036769247
146.9530942643479
80.10818332681221
80.82350618637935
94.38322205308005
128.8187009345548
80.01440698520061
80.43455368442568
87.6686438916831
106.25384790736
80.09460596381018
80.87484476809811
85.06515659880404
82.70936747393201
80.07590120939962
80.4789309045526
81.40631579519767
63.93501252393951
80.01688263433039
80.17202592906079
79.88892032549475
53.66446575212228
79.99589341959644
79.94242778311919
77.67667156043481
50.45502202867687
49.74387793559767
76.21771565062173
79.76647020192755
79.99345539561904
48.02439717923352
75.09301642379673
79.69826174956427
79.99504417652052
47.60246634651084
74.65672570158549
79.72893865524931
79.99738474288152
44.74637573443441
73.90955836481088
79.73991182237604
79.99791064132025
47.24840478614964
75.12558495442381
79.85294937300955
79.99892448458112
49.86895339538779
76.84238927087664
79.94074082823235
79.99966259368622
53.3411213862969
78.00951734297837
79.97327455536455
79.99987123323808
58.56046659114773
79.19750943386477
79.9934049605954
79.99994949632955
71.86154479727273
78.81029625528977
79.95029011649289
79.99940666262496
71.20782359352746
78.86591003689259
79.95368255423085
79.99942692169429
70.24732264444285
78.88984692655978
79.95707064173378
79.99946614561289
70.20510977279258
78.96144419135052
79.96317162609792
79.99955964531776
58.56046659111215
79.19750943376799
79.99340496058609
79.9999494960875
53.34112138632453
78.00951734286512
79.97327455520016
79.9998712331069
49.86895339533873
76.84238927071168
79.94074082809728
79.99966259359176
47.24840478615504
75.12558495425033
79.85294937305306
79.99892448457901
79.99345539571347
79.7664702020148
76.21771565069649
49.74387793541896
79.99504417648906
79.69826174961442
75.09301642386315
48.02439717906849
79.99738474295486
79.72893865524767
74.65672570138523
47.60246634640643
79.99791064134816
79.73991182260069
73.90955836476608
44.74637573445878
50.45502202852806
77.67667156039528
79.94242778297387
79.99589341970945
53.66446575208174
79.88892032548758
80.17202592912055
80.01688263432453
63.93501252383263
81.40631579524508
80.478930904587
80.07590120947673
82.70936747391796
85.06515659866912
80.8748447678752
80.0946059639757
80.04760254453673
80.74078024428935
100.139293930966
157.1551851905946
80.07675697343576
81.00676109694292
99.97221036795847
146.9530942644636
80.10818332642575
80.82350618634079
94.38322205300756
128.818700934453
80.01440698547613
80.43455368422218
87.66864389163389
106.2538479073452
154.1802610138575
96.59833665172611
80.52861409215811
80.03380382108824
149.4130927534852
92.87493263030034
80.32576012082626
80.02054153454354
143.248842652719
89.92905346356228
80.22897800446486
80.01459629295536
137.8593460586928
87.23280216031719
80.12367359357741
80.00807659019044
80.0001200075431
80.00410045228861
80.9430823067765
114.1497032763932
80.00056851603654
80.01488715507288
81.88342886647229
120.0181122566537
80.00174447081675
80.03121881733286
83.23039453053126
126.8245846540967
80.00443715205127
80.07461603201483
85.09651391133842
132.8486885683642
80.00002837430407
80.00000086124415
80.00000512449625
80.00007884128446
80.00083648903026
80.00009937482709
80.00154413072288
80.00911133493472
80.17939988315365
80.02759333682926
80.16063255198868
80.46600999222078
90.12014020453354
81.47026733983422
81.52206398158349
82.51229023373934
80.00051665058334
80.02745784529183
80.8488358239035
83.34699628222239
80.00171920457925
80.05175508492157
81.23825340685303
84.21987682662456
80.00355014863771
80.07214133046467
81.58564519887297
85.09570417236556
80.00522673355081
80.08431864235479
81.87021197198573
85.95121540171775
80.00111498257449
80.01827384009003
81.32821542400363
89.48240435969934
80.0032375869438
80.04388542371109
81.78180723811802
87.72444544904725
80.00552209309195
80.07051042120111
82.08208712927201
87.122372389546
80.00608534783501
80.0872985657553
82.0848809374578
86.64242301235406
92.32972347646552
80.67870637384898
80.00524537353959
80.00033160117795
91.5514034634318
80.49826404079312
80.00436383723661
80.00039306149789
90.2272276420226
80.30717320393097
80.00149771651613
80.00009823305193
88.79730178980053
80.16699026721248
80.00057766233466
80.00000945723728
87.83392924645361
79.99516867103647
80.00004724147068
80.00000087441444
87.06046780940439
80.07821638240641
80.00000511205425
80.00000000675922
85.43149368283247
80.02435183619531
80.00000005681828
79.99999999994942
82.93043958938503
80.01245309621144
80.00000007106954
80.0000000000298
79.99999999999999
80.00000000022607
80.00004563896015
80.01594064516242
80
80.00000000137614
80.00013446237627
80.08764355463971
80
80.00000003961688
80.00058298443594
80.3515144075734
80
79.99999992927674
80.00201722016735
80.94910257928707
80.05994420700274
80.24052505100754
80.80563790844616
83.15933040537649
80.24052505108077
80.55907364357103
82.06048933217036
87.08646831836734
80.80563790835251
82.06048933197589
86.17963581368788
94.50575995268228
83.15933040544439
87.08646831853183
94.5057599530723
105.5819174903277
117.7855167300535
107.8095178610862
103.1129444707172
94.84660656895515
114.4382149634518
112.1398598345677
112.2412746654406
107.6231808497371
115.0047326595852
113.9187164055752
113.8168119787727
111.6958185560506
115.3171341434188
114.7163107123316
114.6979799161429
113.1384008457501
113.093840487075
113.1167554869041
113.0309438865728
111.8181853722186
114.0741439661092
113.2903130182175
113.1394737860982
112.0715380726079
114.2526985094471
113.4917671064252
113.206768517486
112.2109076690361
114.5520898277978
113.6334519491749
113.1896381663783
110.0790136416604
87.18075729609521
79.0373950968645
79.44192250309457
80.56511279593339
79.93936976845389
75.78494400532536
78.68414120033172
80.13895951672956
73.29082576232523
75.64858758006351
79.12438099968148
80.55220026893501
63.35502311710824
72.97920939274871
77.89700407160689
79.70538741651669
81.26572836392837
81.60421144853703
81.85545869668103
81.93323410112575
80.91691278325493
81.29128032399051
81.49300950911203
81.64622620638841
81.14145550414368
81.42571203311816
81.49437862724911
81.70962285189644
80.66413108434739
81.21964139127253
81.29146974729012
81.38114869604114
81.89821536785065
81.80164750259144
91.69240479602382
126.7977936749347
81.90075779743236
81.70113507317113
96.37412353683399
131.1768585307474
82.04724359110351
81.79787259672193
100.5992351800518
133.5920168332127
81.86797282150893
81.67053537352112
102.8110372760346
136.2705523940817
182.5435323638076
178.0368372076765
176.1844508620573
174.2798131191096
186.6553782937044
180.9141680542191
177.1242334025422
174.6767578318913
184.9665430357938
181.2787976451982
177.5725494848496
175.5457807909443
184.9405748629815
182.7038790925781
178.5816266101298
175.8813813863577
170.9896375161752
170.1420103256663
171.2327425712261
172.4175899080084
171.3527256924031
170.2429431582772
170.9809416952199
172.0246797519331
171.8993198025605
170.3438102449249
170.9332180606464
171.954652792299
172.3107981192318
170.4125326680153
170.746511079491
171.7572294608227
172.9493986565491
165.2774445477672
150.037352934333
123.0813961477019
172.3534111109669
166.0891904761911
151.1398458161806
132.6601006156177
172.0361444922961
167.3283046517797
153.1083930558303
140.7433035010843
171.813716425102
168.7286558846315
157.0364473303042
157.5476829850464
78.2165811628022
19.25975371890449
7.554586435966218
11.09047328812422
61.63883288439731
12.8227903200782
7.914367643948882
10.63956418359104
41.50795225191493
8.125820434621565
8.04510065343943
11.29270698862966
23.46242312665434
5.89192981113896
8.74555288015012
11.44892148076838
14.9931195796406
17.70529161929962
19.48578949456955
18.50160013629265
14.54195058148423
17.7706943446079
19.36349337387701
18.64399395501641
14.9525797238152
17.99398489564703
19.37106430518127
19.32176697084026
15.23576362835861
18.35848381835704
19.61821314470945
20.39315629872093
25.64236177934473
28.02060361746485
30.69723241267057
34.72659856158845
25.17490726278437
27.82913233820337
29.53999570766016
34.5980966066473
23.75281099528241
27.15837396222156
28.87925228131976
34.23459628171175
22.03949501601972
25.98325580231612
27.31573900246408
34.187213619048
25.20332241004666
20.5649638327808
21.31214685553329
24.79529454598695
25.63247729152964
24.78516471922009
22.35169156735248
19.14113185653934
24.17174352831931
24.47478841704217
22.2492056956265
20.91201268031166
18.88450966816054
22.63689367729042
22.44543822115847
22.24017347249774
21.62012144963258
21.15282033179162
20.73747631319748
20.61398556270228
19.89471807051745
19.02404988849229
18.69980692735687
18.43325338625715
19.32396431992204
19.324960656866
19.12155913393828
18.9375416418729
25.44857259712317
24.47624162484167
23.62462591922732
23.21499009944273
20.61398556270312
18.43325338625935
18.93754164187581
23.21499009945433
20.73747631319931
18.69980692736059
19.12155913394771
23.62462591924026
21.15282033179417
19.02404988849729
19.32496065687356
24.47624162484996
21.62012144963523
19.89471807052281
19.32396431992902
25.44857259713581
24.79529454602343
21.31214685556263
20.56496383277941
25.20332241004548
19.14113185654879
22.35169156735733
24.78516471921566
25.6324772915311
20.91201268031952
22.24920569562747
24.47478841704103
24.17174352832046
22.24017347249666
22.44543822115597
22.63689367729436
18.8845096681638
34.18721361905983
27.31573900249578
25.98325580237421
22.03949501607958
34.23459628171295
28.87925228134054
27.15837396227017
23.75281099533914
34.59809660664469
29.53999570767818
27.82913233824767
25.17490726284061
34.72659856158926
30.69723241269575
28.02060361749768
25.64236177939106
18.50160013636936
19.48578949464734
17.70529161932475
14.993119579626
18.64399395509615
19.36349337397075
17.77069434467018
14.54195058148879
19.32176697091109
19.37106430526931
17.99398489572039
14.95257972382782
20.39315629879281
19.61821314480066
18.35848381844328
15.23576362837868
11.09047328813656
7.554586435960934
19.25975371877216
78.21658116277484
10.63956418360408
7.914367643953232
12.82279032003561
61.63883288430767
11.29270698863782
8.045100653447046
8.125820434622952
41.50795225188661
11.44892148077553
8.745552880147772
5.891929811128102
23.46242312664776
123.0813961476661
150.0373529342026
165.2774445476119
172.9493986564564
132.6601006155996
151.139845816027
166.0891904760317
172.3534111108422
140.7433035010184
153.1083930557098
167.3283046516132
172.0361444921783
157.547682984958
157.0364473301804
168.728655884458
171.8137164249734
172.4175899079056
171.2327425714051
170.1420103256393
170.989637516331
172.0246797518318
170.9809416954033
170.2429431582847
171.3527256925
171.9546527922262
170.9332180607925
170.3438102449381
171.899319802677
171.7572294607532
170.7465110796493
170.4125326680202
172.3107981193219
174.2798131190148
176.184450862067
178.0368372077121
182.5435323635415
174.6767578318049
177.1242334025611
180.9141680542713
186.6553782933448
175.5457807908608
177.5725494848346
181.2787976452406
184.9665430355071
175.881381386256
178.5816266101766
182.7038790925873
184.9405748627017
126.7977936748635
91.69240479595729
81.80164750275584
81.89821536789314
131.17685853072
96.37412353676208
81.70113507335078
81.90075779749628
133.5920168332875
100.5992351800091
81.79787259690401
82.04724359120173
136.2705523941256
102.8110372759653
81.67053537372813
81.86797282162424
81.93323410125818
81.85545869653066
81.60421144857912
81.2657283638723
81.64622620659091
81.49300950891396
81.29128032393724
80.91691278323988
81.70962285216775
81.49437862703404
81.42571203300722
81.14145550416842
81.38114869638683
81.29146974716609
81.21964139105343
80.66413108444533
80.56511279580623
79.44192250293952
79.03739509695966
87.18075729622045
80.13895951656376
78.68414120020968
75.78494400544153
79.93936976853875
80.55220026873748
79.12438099958031
75.64858758020429
73.29082576236547
79.70538741627556
77.89700407149837
72.9792093929404
63.35502311717102
111.8181853721887
113.0309438864524
113.1167554870367
113.093840487039
112.0715380725414
113.1394737859953
113.2903130183866
114.0741439660598
112.2109076689541
113.2067685174012
113.4917671066112
114.252698509393
110.0790136414705
113.1896381663246
113.6334519493847
114.5520898277296
113.1384008455159
111.6958185560237
107.6231808496902
94.8466065690067
114.6979799159068
113.8168119787635
112.2412746653525
103.1129444706685
114.7163107120182
113.9187164055267
112.1398598344712
107.8095178609162
115.3171341431377
115.0047326595425
114.4382149633233
117.7855167298704
61.78004418819317
79.00688418252096
79.98341678090793
79.99990739530014
61.85776403077818
78.90109420552243
79.98073000891144
79.99986544041818
64.97556817830149
78.94644814751528
79.97724647416366
79.99981019832228
68.15472056605101
78.96102102589251
79.97063940214707
79.99969927763
79.9994066628056
79.95029011638835
78.8102962552597
71.86154479724357
79.99942692166223
79.95368255419471
78.8659100369123
71.20782359343535
79.99946614570065
79.9570706416245
78.88984692653612
70.24732264442416
79.99955964530687
79.96317162607303
78.96144419135376
70.20510977277415
79.9996992775194
79.99981019836193
79.99986544048092
79.9999073951423
79.97063940203802
79.97724647411297
79.9807300088661
79.98341678090924
78.96102102593528
78.94644814746157
78.90109420556034
79.00688418252292
68.15472056596052
64.97556817819202
61.85776403074654
61.78004418817308
)
;

boundaryField
{
    back
    {
        type            empty;
    }
    inlet
    {
        type            zeroGradient;
    }
    front
    {
        type            empty;
    }
    top
    {
        type            zeroGradient;
    }
    outlet
    {
        type            fixedValue;
        value           uniform 80;
    }
    bottom
    {
        type            zeroGradient;
    }
    wall
    {
        type            zeroGradient;
    }
}


// ************************************************************************* //
