/*--------------------------------*- C++ -*----------------------------------*\
  =========                 |
  \\      /  F ield         | OpenFOAM: The Open Source CFD Toolbox
   \\    /   O peration     | Website:  https://openfoam.org
    \\  /    A nd           | Version:  11
     \\/     M anipulation  |
\*---------------------------------------------------------------------------*/
FoamFile
{
    format      ascii;
    class       volScalarField;
    location    "0.135";
    object      T;
}
// * * * * * * * * * * * * * * * * * * * * * * * * * * * * * * * * * * * * * //

dimensions      [0 0 0 1 0 0 0];

internalField   nonuniform List<scalar> 
880
(
500
500.0000000004438
500.000081533679
500.0285153801377
500.0000000000001
500.0000000025573
500.0002410860733
500.1567219576648
500
500.0000000708934
500.0010516961607
500.6236267378471
500.0000000000001
499.9999998737526
500.0037041752968
501.6694706946353
500.0000000002358
499.9999999996742
500.0000000119837
500.0000015338444
500.0000001271723
500.0000001009966
500.0000091052375
500.0000880480528
500.0232387977082
500.0479982084129
500.1614343743618
499.9691098253629
505.4754249731748
510.6070278903928
514.5415522247881
516.2056115774598
500.000016856648
500.0001757770091
500.0007038714529
500.0005936895791
500.0010868795101
500.0030203310964
500.0089367861294
500.0102057755447
500.347391849344
500.6636156245767
501.0677897607183
501.4083063846712
518.1974655283495
520.8117807258121
523.1713196727123
524.5486285742309
519.8728779314954
516.9545223089533
515.377293357691
513.8205398511355
502.6176927324684
503.6965022516496
504.2130904258291
504.1190134340686
500.0335547082993
500.0829640039954
500.1311924520543
500.1597809099862
500.0019925843938
500.0057851175074
500.0098570392439
500.0108505340375
500.0093170516981
500.006325839194
500.0030634674653
500.0009213929717
500.1526604027056
500.1286185157865
500.0915154651762
500.0486348105284
503.5678901959089
502.9102229799663
502.2112518726636
501.5004164631272
511.8015207530815
509.593471323284
507.6123053720672
505.8977097197879
504.4043324258447
500.8254171588213
500.0162455733923
500.0001407982594
502.6698095653554
500.2866638206322
500.0027721343237
500.0000091664426
502.6580581381631
500.0496012726
500.000178149906
500.0000015386092
519.0429017530838
500.3400110621718
500.0015405339473
500.0000508025487
500.0002143530887
500.0073532858208
501.7573350653628
558.4811488520629
500.0010144191164
500.0270786413987
503.6768887176263
570.9884556939927
500.0031132002187
500.059034805582
506.5527495131313
583.0390897329906
500.007936491678
500.1458539474127
510.5212901475364
593.2483405577052
601.7156596969352
515.1731650985483
500.2483532050747
500.0144399753913
610.0940450154335
520.8000371608402
500.4647024344583
500.0261731635467
618.614611942227
526.8155907156591
500.6670328439973
500.0367295649496
624.5370821739044
533.8903676429634
501.0848673691077
500.0606292694657
500.085057470959
501.5246231659221
540.4993865370802
627.8817262754551
500.1374170232961
502.079235470948
539.8435548384034
615.7231075386577
500.1938368991363
501.7135124669592
530.1409058962327
591.9561242098272
500.0265301418625
500.9460395716983
516.912100400208
556.8751100987004
500.1629398219009
501.5943305185967
512.8522406187037
523.658586106028
500.1175198661339
501.0282206694909
506.791700895263
509.5137966367651
500.0213821462859
500.5641272959794
507.1889376345829
515.4500549717879
499.9826836778965
500.0987759476888
505.625333906134
528.1463434794608
520.6054929230728
501.2419253567332
499.5780359671512
499.9715982267975
509.9926267566634
497.8287698973098
499.4058680586301
499.9849066890113
500.5328369807283
496.2843261297138
499.4526820192625
499.9937335613575
485.5531435827955
494.9254133335324
499.6051382665056
499.9962561369299
473.0530693046723
495.2351092568147
499.7973632853868
499.9982304472961
462.0948273982137
496.3550772957039
499.9192784733685
499.9994689811977
459.3961055768183
497.2657982086122
499.9593635633637
499.9997859888085
463.7528678249897
498.7821178144694
499.9890284005638
499.9999105475754
498.5179898826272
498.6307257070833
499.9082154550665
499.9988982389786
497.21132534997
498.7108989608317
499.9169733131431
499.9989256552839
494.9740397611065
498.719384176111
499.9245923151455
499.9989898193842
494.5890979414579
498.7690536219658
499.9326456068281
499.9991345999223
463.7528678249478
498.782117814501
499.9890284009165
499.9999105473805
459.3961055769557
497.265798208575
499.9593635632624
499.9997859886402
462.0948273981819
496.3550772954871
499.9192784730013
499.9994689810447
473.0530693047298
495.2351092564563
499.7973632853937
499.9982304472483
499.971598226941
499.5780359674648
501.2419253569291
520.6054929228246
499.9849066888516
499.4058680587451
497.8287698976657
509.9926267563262
499.9937335615193
499.4526820190908
496.2843261294024
500.5328369803799
499.9962561369571
499.6051382669152
494.9254133333
485.5531435827974
528.1463434794746
505.6253339061294
500.0987759474492
499.9826836781234
515.4500549721337
507.1889376346861
500.5641272961632
500.0213821462061
509.5137966367415
506.7917008954615
501.0282206695327
500.1175198661976
523.6585861059095
512.8522406184475
501.5943305181872
500.1629398221718
500.0850574705406
501.5246231658897
540.4993865376946
627.8817262758104
500.1374170232792
502.0792354701234
539.8435548387708
615.7231075388908
500.1938368984867
501.7135124668919
530.1409058960862
591.9561242097001
500.0265301423702
500.9460395714008
516.9121004000918
556.8751100985972
624.5370821740756
533.8903676434888
501.0848673712186
500.0606292701744
618.6146119426277
526.815590715055
500.6670328412998
500.0367295648934
610.0940450158922
520.8000371616225
500.4647024366131
500.0261731634955
601.7156596971805
515.1731650989161
500.2483532045448
500.0144399753564
500.0002143531528
500.0073532857061
501.7573350649383
558.4811488520508
500.0010144195059
500.027078642347
503.6768887180171
570.9884556943016
500.0031132005354
500.0590348056252
506.5527495130775
583.0390897327675
500.0079364914651
500.1458539475713
510.5212901475074
593.2483405575806
500.000050802529
500.0000015384985
500.0000091665365
500.0001407983303
500.0015405335797
500.000178149765
500.0027721341707
500.016245573199
500.3400110619938
500.0496012727408
500.2866638204526
500.8254171586225
519.0429017528863
502.6580581382003
502.6698095654409
504.4043324258724
500.0009213930029
500.0486348105776
501.500416463249
505.8977097199526
500.0030634674891
500.0915154654365
502.211251872811
507.61230537225
500.0063258392138
500.1286185159638
502.9102229797485
509.5934713229195
500.0093170515955
500.1526604026627
503.567890196043
511.8015207531208
500.0019925843308
500.0335547082277
502.6176927325864
519.8728779317669
500.0057851172115
500.0829640042143
503.696502251815
516.9545223089081
500.0098570394018
500.1311924518422
504.2130904257131
515.3772933573377
500.010850533966
500.1597809099143
504.1190134342324
513.8205398508894
524.5486285741996
501.4083063845719
500.0102057755789
500.0005936897376
523.171319672558
501.0677897609745
500.0089367859533
500.0007038716732
520.8117807259755
500.6636156248687
500.0030203305599
500.0001757765451
518.1974655283249
500.3473918490806
500.0010868792178
500.0000168569676
516.2056115773806
499.9691098253684
500.0000880480646
500.0000015340809
514.5415522247872
500.1614343744079
500.0000091051647
500.0000000119909
510.6070278903691
500.0479982084076
500.000000100937
499.999999999684
505.4754249730612
500.0232387975733
500.0000001269577
500.0000000001862
500.0000000000001
500.0000000004504
500.0000815337177
500.0285153800373
500
500.0000000024904
500.0002410860736
500.1567219574375
500
500.0000000707687
500.0010516961231
500.6236267379047
500
499.9999998737499
500.0037041752565
501.6694706943861
500.1071346741132
500.428345954844
501.4287219180822
505.6423269879858
500.4283459549742
500.991345911981
503.6392790270841
512.544929969745
501.4287219179182
503.639279026748
510.8142651044139
525.3675664027136
505.6423269880814
512.54492997001
525.3675664033001
544.1895027270725
564.9193864838988
549.1949988118722
540.0020204783181
526.1040783796055
560.7588414237485
556.5949470679656
554.5562832801018
547.0628319304316
561.0908533602254
559.1147649274517
558.0372574406588
554.7897757380639
560.5471353057389
559.6252642040879
559.6721933226441
557.7050272690153
557.8040396857376
557.8217116995836
557.765750901678
556.4518722871693
558.6110214536423
557.0349757841649
556.6192205453563
555.6942006039544
558.4569399056095
556.4862176501609
555.6807094770486
554.6236524863119
558.6985719512287
556.3493470083156
555.3662721284217
549.784911160978
519.2032769682215
504.7990118532315
504.1636536285134
504.7206754059216
507.3921820045009
499.1234357389298
504.1279845376387
505.2595921692065
493.9196770850594
497.6748249719449
504.9816237200798
506.5911901369471
470.8280111595146
491.5811243698076
503.0317104219701
505.3412305352896
504.7047605278565
504.3346702832796
503.9451402586614
503.6405572623903
505.1859253530828
504.6118453402285
503.7642046629699
503.3371370471904
506.20416578071
505.3195939608138
504.077360763757
503.5792781288099
505.5204402837484
505.1255849758376
503.8626791796242
503.0413706488944
503.409375608334
503.1675491867766
520.3043838068974
579.8707843542846
503.4523925232824
502.9954553489277
529.6018542980286
591.0827254210105
503.7287585329172
503.1546714571875
540.6276956656915
599.8016077136552
503.4000969680598
502.9157624911877
547.7085343046134
605.9221030642996
648.6422250022414
647.2152648596679
648.9806240047403
649.836754765018
656.1539297713067
651.5390155285822
649.6240528738147
648.8003604552916
657.7585124407989
654.1690911419695
650.3307209109231
648.3817092730956
659.5887662214619
656.8752148822565
651.6726335403081
648.2022178289925
648.5258312569936
648.9474346417774
651.0882361305418
652.7092754662141
646.6750477202056
646.3910612388291
647.7773218036746
649.153747083576
644.6703712191224
643.200472585839
644.0040984126802
645.1536299620377
643.9533233561783
641.7605972370781
642.1269050222088
643.1553781017856
652.559438877431
642.9799662822348
624.4838116629634
593.3418997866451
649.1359337486581
641.2710601159582
624.2820458642209
623.0425555234999
645.0515767261576
640.1531156111984
630.48130761632
649.997542474879
642.8912411082575
641.1480308993285
642.8021923408974
635.7040407743295
554.0414661568258
473.2557369566056
360.4078765076333
377.6471172121952
542.8199484029124
432.9123945545883
332.2748003491006
330.7496068628398
492.0243904248741
365.1328860041049
311.9275782220121
309.8953572856219
394.0911373227955
314.8559138714111
312.9360257966679
303.7866591526772
396.3167388207104
413.2920902960217
423.0139079295295
414.4082679838619
350.023920476055
377.8122487052567
398.4448705619914
402.5381797348547
323.0156657451143
349.6174983414034
379.1285155826847
401.0101428968034
316.0285358785701
341.7917407646938
374.6886588743793
405.1200370673197
441.1504230726248
421.8894457183301
410.3368976635068
410.5619106947795
442.8173321707482
430.5471564353989
415.3658844831428
420.5958082412129
434.0948202073588
437.3583028389615
428.741618304389
440.4641146321083
421.5827934201372
436.9495706675209
434.3429141326761
458.785821782009
376.3628950605853
368.9076567058866
380.7849668110309
409.353984378315
394.3188249058903
402.922733688136
395.8307491899259
374.3123770639795
407.5859162309238
410.7183348539649
392.6987053745908
368.9167354107533
389.6230527590388
404.2461140112948
385.5693778171974
364.9083596069623
353.9059454072906
351.1484539692141
350.129044131524
349.9073463989076
353.0607666139625
347.100328397016
345.898478363814
344.377552807328
369.4066021328046
369.0274906776704
366.7219366407326
364.4187735193212
413.3824074253101
407.4343891915091
400.9285996766125
397.3143520037067
349.9073463989108
344.3775528073371
364.418773519321
397.3143520036785
350.1290441315196
345.8984783638113
366.721936640766
400.9285996766743
351.1484539691861
347.1003283970019
369.0274906777037
407.4343891916325
353.9059454072476
353.0607666139472
369.4066021328223
413.3824074254218
409.3539843784195
380.7849668111202
368.9076567058016
376.3628950604917
374.3123770639875
395.8307491898852
402.9227336880322
394.3188249058006
368.91673541074
392.6987053745341
410.7183348538596
407.5859162308345
364.908359606903
385.5693778171226
404.2461140112129
389.6230527589559
458.7858217819367
434.3429141327227
436.9495706677569
421.5827934205026
440.464114632023
428.7416183043943
437.3583028391447
434.0948202076713
420.5958082411294
415.3658844831475
430.5471564355956
442.8173321710198
410.5619106947074
410.3368976635604
421.8894457185122
441.1504230728403
414.4082679843269
423.0139079300062
413.2920902964183
396.316738820903
402.5381797354063
398.4448705627081
377.8122487057462
350.0239204761039
401.0101428973239
379.1285155834229
349.6174983418747
323.0156657451149
405.1200370678683
374.6886588751265
341.7917407651948
316.0285358786014
377.6471172123963
360.4078765070337
473.2557369563606
554.0414661568815
330.7496068629162
332.2748003487553
432.9123945543091
542.8199484027263
309.8953572856107
311.9275782218887
365.1328860042498
492.0243904249363
303.7866591526648
312.9360257964966
314.8559138713257
394.0911373229775
593.341899786583
624.483811662869
642.979966282176
652.5594388774676
623.0425555234925
624.2820458640894
641.2710601158288
649.1359337485925
649.997542474811
630.4813076162081
640.1531156110077
645.0515767260058
635.7040407743237
642.802192340757
641.1480308991311
642.891241108085
652.7092754662358
651.0882361309933
648.9474346419673
648.5258312572555
649.1537470835545
647.777321804048
646.391061238983
646.6750477203707
645.1536299620284
644.0040984129729
643.2004725860112
644.6703712192901
643.1553781017917
642.1269050224915
641.7605972372578
643.9533233563427
649.8367547649557
648.9806240047596
647.2152648598162
648.6422250022986
648.8003604551839
649.6240528737497
651.5390155287365
656.1539297711766
648.381709272925
650.3307209108352
654.1690911420252
657.7585124405591
648.2022178288267
651.6726335402789
656.8752148822348
659.5887662211337
579.870784354256
520.3043838067836
503.1675491870779
503.4093756084533
591.0827254209621
529.6018542978835
502.9954553492651
503.4523925234249
599.8016077136367
540.6276956655452
503.1546714575303
503.7287585331185
605.922103064193
547.7085343043872
502.915762491568
503.4000969682636
503.6405572626528
503.9451402584568
504.3346702833536
504.7047605277613
503.3371370475896
503.7642046625976
504.611845340147
505.1859253530129
503.579278129331
504.0773607633316
505.3195939606705
506.2041657806653
503.04137064953
503.8626791794047
505.1255849755537
505.520440283832
504.7206754057158
504.1636536280617
504.7990118534837
519.20327696845
505.2595921689404
504.1279845373244
499.1234357391499
507.3921820046405
506.591190136632
504.9816237198374
497.6748249721309
493.9196770850515
505.3412305348718
503.0317104216916
491.5811243700658
470.82801115951
556.4518722872577
557.7657509016175
557.8217116999132
557.8040396858347
555.6942006039596
556.6192205452436
557.0349757844956
558.6110214536716
554.6236524862076
555.680709476894
556.4862176504784
558.4569399056189
549.7849111606517
555.3662721282955
556.349347008653
558.698571951197
557.7050272687712
554.7897757380525
547.0628319304518
526.1040783797379
559.6721933223913
558.037257440684
554.5562832800413
540.0020204782878
559.6252642038531
559.1147649274259
556.5949470677572
549.1949988116598
560.5471353055307
561.0908533601983
560.7588414234884
564.9193864836353
466.3408007934991
498.364240868559
499.9718679356492
499.9998389664563
470.079355684041
498.3189154505666
499.9680960013031
499.9997664665911
481.333585430714
498.5188777798519
499.9619974615377
499.9996628157061
490.73618594204
498.6786225487753
499.9476818121198
499.9994260035441
499.9988982391878
499.9082154548618
498.6307257070341
498.5179898825434
499.9989256552002
499.9169733130104
498.7108989608339
497.2113253498389
499.9989898195386
499.9245923151022
498.7193841759913
494.9740397612823
499.9991345999236
499.9326456069718
498.7690536218773
494.589097941632
499.9994260034132
499.9996628156758
499.9997664667195
499.9998389663902
499.9476818120342
499.9619974614151
499.9680960011281
499.9718679356025
498.678622548846
498.5188777797494
498.31891545062
498.3642408687253
490.7361859417972
481.3335854302853
470.0793556838869
466.3408007934942
)
;

boundaryField
{
    back
    {
        type            empty;
    }
    inlet
    {
        type            zeroGradient;
    }
    front
    {
        type            empty;
    }
    top
    {
        type            zeroGradient;
    }
    outlet
    {
        type            fixedValue;
        value           uniform 500;
    }
    bottom
    {
        type            zeroGradient;
    }
    wall
    {
        type            zeroGradient;
    }
}


// ************************************************************************* //
