/*--------------------------------*- C++ -*----------------------------------*\
  =========                 |
  \\      /  F ield         | OpenFOAM: The Open Source CFD Toolbox
   \\    /   O peration     | Website:  https://openfoam.org
    \\  /    A nd           | Version:  11
     \\/     M anipulation  |
\*---------------------------------------------------------------------------*/
FoamFile
{
    format      ascii;
    class       volScalarField;
    location    "9.675";
    object      p;
}
// * * * * * * * * * * * * * * * * * * * * * * * * * * * * * * * * * * * * * //

dimensions      [0 2 -2 0 0 0 0];

internalField   nonuniform List<scalar> 
4455
(
6742.0757
6749.5556
6765.6
6794.0175
6834.7178
6891.5024
6968.0271
7070.1846
7231.2011
6807.9375
6809.535
6821.1485
6845.9328
6886.7243
6945.7679
7026.4686
7139.3407
7312.5568
6867.2182
6864.3193
6871.5178
6894.1133
6934.4763
6994.7727
7076.0459
7191.237
7353.3224
6919.3368
6913.0476
6916.9173
6938.0313
6978.4745
7040.5715
7125.3826
7246.6047
7416.7295
6964.0942
6955.533
6957.4668
6977.519
7018.8444
7083.4928
7173.7839
7304.1622
7481.2264
7001.5846
6992.2363
6992.9417
7012.7162
7054.8226
7122.9494
7219.1882
7363.7908
7546.9914
7032.3907
7023.3595
7023.4105
7043.1503
7086.5954
7158.7231
7259.5254
7425.8036
7617.6502
7057.2814
7049.1412
7048.8468
7069.3574
7114.0876
7189.9956
7294.4918
7490.6056
7695.6104
7076.8066
7069.9649
7070.0387
7091.5011
7136.8635
7216.7203
7325.1466
7556.7352
7784.9788
7091.8165
7103.1066
7111.3951
7117.3547
7121.5538
7124.4574
7126.4094
7127.7654
7128.9226
7086.4911
7099.2675
7108.8448
7115.8714
7120.8361
7124.072
7125.9238
7126.6354
7126.1182
7087.6379
7101.6831
7112.4325
7120.4599
7126.1391
7129.8615
7132.2405
7133.7209
7134.711
7110.208
7125.043
7136.5346
7144.7632
7150.0709
7153.1142
7154.1798
7153.4065
7150.7293
7156.7872
7173.5479
7186.4911
7195.9018
7202.1487
7205.4971
7206.3456
7205.3212
7203.8423
7241.5932
7262.9845
7279.2809
7290.5111
7297.2329
7299.4284
7297.9289
7293.7391
7288.3266
7356.8534
7389.4737
7420.3202
7447.4707
7467.8193
7480.1705
7484.6212
7482.4889
7476.2632
7632.2681
7703.585
7757.6607
7794.824
7813.0262
7816.8221
7809.6883
7795.8865
7777.947
7925.2343
8133.13
8284.1418
8326.3332
8313.8459
8278.4816
8228.1353
8165.4188
8096.2146
7129.8681
7129.8275
7129.4657
7129.392
7129.4567
7129.5906
7129.5986
7129.2457
7128.6761
7124.7541
7124.9451
7125.8047
7126.6345
7127.4206
7127.9592
7128.0896
7127.6336
7126.5071
7135.5159
7137.8214
7140.8443
7143.459
7145.1842
7146.2069
7146.7307
7146.892
7146.0208
7147.3893
7148.7212
7153.0846
7158.6322
7163.7144
7167.8287
7170.8003
7172.6169
7173.3964
7203.3734
7209.8386
7219.1112
7228.2308
7235.8466
7241.5775
7245.6098
7248.193
7249.8153
7284.915
7292.9509
7305.6349
7317.7725
7327.8265
7335.3097
7340.5349
7343.4495
7344.2894
7471.0968
7478.4327
7490.3574
7500.9279
7507.6912
7510.5892
7508.9631
7503.9737
7498.6369
7759.9232
7748.955
7740.0738
7727.3389
7709.9641
7687.1654
7660.2959
7632.1099
7604.6812
8033.5389
7974.331
7912.7657
7849.5572
7784.6841
7722.348
7664.9011
7612.9643
7570.2176
7546.846
7527.7892
7523.8016
7547.35
7599.3176
7668.711
7748.9151
7834.4624
7921.8721
7581.6498
7566.2704
7557.8671
7555.2462
7557.8731
7566.6223
7580.8733
7599.7891
7625.3396
7493.7428
7490.6869
7488.974
7486.5848
7483.7535
7482.7585
7484.5969
7488.4893
7493.8122
7343.2803
7342.5498
7342.2985
7341.3765
7340.6286
7339.4344
7336.8083
7333.2453
7329.358
7250.3452
7250.5505
7250.1659
7248.6452
7245.9128
7241.5516
7235.6683
7229.1964
7222.3105
7173.0745
7171.916
7169.6511
7166.6462
7162.8051
7158.1042
7152.2591
7143.5948
7133.3375
7144.9539
7143.455
7139.7188
7135.0584
7129.6901
7122.7893
7113.6962
7103.6903
7092.9438
7124.4625
7121.627
7118.0764
7113.4236
7107.2397
7099.832
7091.0411
7080.173
7067.6566
7127.781
7125.9032
7123.2116
7119.4116
7114.4982
7108.1599
7101.035
7093.107
7083.374
7071.7052
7057.605
7040.9749
7020.842
6998.2291
6972.6737
6944.3624
6911.9816
6875.7211
7052.5255
7034.728
7015.8942
6993.9681
6968.814
6940.8471
6910.3619
6875.8258
6837.5901
7079.6329
7065.0013
7048.2236
7029.296
7007.3889
6983.4956
6956.3894
6927.066
6893.6594
7121.9709
7107.4102
7091.741
7074.7646
7055.0435
7032.5995
7007.6849
6978.7648
6948.2461
7213.6787
7203.3385
7193.4194
7182.5561
7169.2067
7153.7621
7136.8682
7117.2996
7096.6749
7325.1376
7320.3754
7315.5857
7310.9016
7305.6235
7299.0348
7290.9009
7280.7587
7267.8917
7500.5148
7509.3296
7521.1066
7534.904
7549.3999
7563.5207
7576.6016
7588.3491
7598.4047
7658.0364
7694.414
7732.9404
7772.6164
7813.0465
7854.5604
7890.9908
7920.1229
7947.6178
8010.8223
8101.1978
8193.464
8287.6013
8379.6193
8457.5344
8527.6367
8589.3516
8646.3629
8716.7163
7977.8419
7605.9227
7252.0361
7072.5735
6912.5202
6857.4255
6796.3407
6834.8437
8811.834
8007.2604
7611.278
7232.9971
7044.2047
6872.3482
6816.2791
6749.5218
6789.1618
8908.2534
8035.1066
7614.4026
7209.7587
7013.6923
6831.9803
6770.955
6698.8079
6738.068
9000.3484
8068.0847
7615.1675
7182.3309
6977.8752
6783.1046
6721.8634
6643.032
6681.3713
9086.3392
8099.3586
7611.9359
7149.4868
6936.1608
6726.879
6667.3489
6582.2746
6618.9751
9167.562
8122.5343
7603.76
7110.4746
6891.2235
6665.8819
6607.2932
6515.4702
6550.1516
9242.7002
8139.1062
7588.7314
7064.1118
6838.671
6600.4551
6541.42
6443.258
6475.1231
9318.508
8149.7318
7565.1206
7009.082
6779.5903
6526.6739
6468.4942
6364.4901
6394.2375
9397.0871
8150.5729
7529.8652
6944.269
6712.2208
6444.821
6389.6161
6280.2599
6307.8506
6220.4918
6190.0918
6301.1306
6357.8874
6631.3235
6866.8705
7476.9774
8137.4176
9502.7179
6133.2184
6092.9798
6201.6079
6258.4958
6535.1856
6769.631
7387.1863
8061.9358
9439.6667
6030.1545
5987.7129
6091.7453
6151.1517
6421.2534
6649.9915
7261.8164
7930.7642
9257.9801
5902.9977
5874.2143
5971.9603
6031.1938
6291.2895
6511.229
7109.7246
7769.3484
9044.4604
5759.2592
5749.628
5843.5555
5902.8141
6151.7152
6357.7341
6937.4654
7586.3729
8816.1517
5608.6422
5616.6243
5706.0815
5764.7688
5998.4894
6193.3614
6750.2808
7386.3439
8582.6764
5451.5409
5473.7622
5558.4993
5614.8032
5835.0894
6017.6384
6548.2285
7167.5243
8336.794
5288.3377
5324.0869
5404.1825
5461.4513
5666.2348
5831.1067
6332.754
6930.5086
8083.6544
5114.7017
5166.3654
5242.8008
5297.0519
5487.0762
5633.7291
6104.0227
6674.7206
7817.3156
7542.8993
6400.5695
5862.1633
5427.5322
5299.766
5123.8792
5071.7677
5001.8993
4931.9541
7256.3949
6109.5825
5608.9551
5211.339
5107.3203
4946.9108
4895.7472
4830.5894
4739.1474
6961.434
5801.0156
5345.118
4988.5652
4909.4705
4763.6984
4714.5089
4653.2833
4539.4778
6657.9541
5479.2356
5071.5111
4760.6679
4706.33
4575.9813
4523.2145
4469.3089
4331.4053
6331.6199
5137.6718
4788.6638
4531.6099
4499.6859
4385.1464
4329.4366
4281.7572
4117.3468
5998.8372
4783.3715
4505.5209
4302.3646
4291.4692
4190.9469
4132.0954
4088.0328
3896.9828
5635.88
4411.6519
4223.5893
4075.9401
4082.3696
3995.5919
3929.8184
3890.0663
3672.1239
5253.4707
4029.7962
3942.7338
3854.7894
3875.4499
3801.4623
3729.2446
3688.3923
3442.3171
4839.551
3636.4872
3671.7555
3640.9365
3673.6005
3607.3735
3525.2726
3482.7024
3213.1642
2993.7278
3272.1345
3318.4028
3409.8669
3471.7661
3432.6263
3405.607
3215.4342
4347.5446
2781.9516
3056.8549
3112.2132
3209.6575
3269.3655
3228.7369
3155.0511
2767.9312
3720.7117
2551.1696
2836.9221
2901.111
3011.0927
3076.6478
3041.8714
2941.4986
2358.1381
2997.1932
2309.9197
2617.039
2694.5671
2812.0691
2887.7072
2870.6251
2777.9677
2021.9975
2133.8145
2067.8663
2392.1028
2484.18
2615.4033
2700.9299
2709.7809
2666.5488
1800.0119
1132.5061
1835.2166
2169.0248
2272.9172
2413.3999
2515.9968
2554.7713
2602.0172
1721.2507
-18.054161
1607.9654
1943.6501
2065.4316
2213.9545
2330.2146
2396.6689
2561.2718
1824.8841
-1209.4058
1391.9347
1721.0864
1854.176
2017.8981
2141.6928
2225.7481
2528.1187
2168.882
-2238.0894
1131.4962
1503.4525
1649.0814
1826.277
1953.3359
2039.3237
2470.297
2762.1053
-2820.4071
878.03116
1291.5873
1444.1543
1635.4226
1763.704
1815.511
2316.0981
3315.3044
-3249.9779
665.00434
1091.2987
1245.559
1452.1294
1579.8863
1598.4164
2143.0373
3316.6814
-4322.9035
489.19604
900.77126
1053.2201
1274.4148
1406.7236
1421.7385
2000.9489
3134.5056
-5800.8891
336.24134
715.93256
865.56531
1096.1737
1238.4313
1272.8371
1899.9472
2821.6354
-5515.1566
196.80065
537.20406
682.58734
917.56679
1070.0398
1132.0838
1848.2601
2387.6428
-3869.8675
67.794377
363.27002
499.30194
731.92913
894.95845
971.82213
1850.0226
1818.9905
-4148.3859
-54.306627
199.22061
317.54048
536.38529
709.96745
797.22892
1881.7927
1291.0375
-4824.8883
-162.33126
45.580097
140.88279
332.99491
515.54143
612.66712
1920.331
1066.0779
-5070.7643
-241.43439
-100.21773
-28.88348
118.97877
311.41572
419.57074
1927.7366
909.81774
-5308.2359
-5192.1611
644.47042
1946.6265
268.62372
122.43134
-83.725978
-181.81067
-237.58358
-304.78964
-5150.3303
558.50253
1957.63
102.15316
-56.724118
-274.36488
-321.14499
-361.40649
-361.57497
-4985.1828
456.23493
1915.2945
-91.316317
-250.04775
-465.3813
-453.49579
-470.05719
-395.94683
-4892.3934
266.00091
1818.4653
-280.31337
-451.18132
-656.81782
-579.30676
-561.63365
-411.75832
-4754.6885
95.023412
1649.9718
-444.58351
-655.53105
-844.67322
-694.75445
-633.47732
-410.16397
-4768.2089
-72.85719
1449.4187
-573.59157
-863.82391
-1024.0236
-796.1761
-688.47433
-395.25444
-4667.9321
-324.59244
1206.9675
-694.70485
-1077.3311
-1196.2065
-884.38298
-727.68249
-368.63419
-4702.7116
-513.82937
986.6689
-824.00842
-1295.8505
-1359.3625
-961.64
-748.84103
-330.21481
-4606.7679
-873.89808
779.80658
-1000.0879
-1527.3673
-1510.2091
-1026.9934
-749.73073
-260.51522
-4620.5018
-1055.1113
520.56752
-1290.5265
-1902.5619
-1724.9181
-1106.2322
-717.90946
-119.94767
-4751.0834
-1012.8953
219.22527
-1934.7029
-2432.49
-1917.3529
-1149.4162
-600.95276
56.696496
-4849.5301
-1172.7243
-92.468384
-2608.6771
-2873.312
-2040.8788
-1111.7374
-396.19978
227.70794
-4968.775
-1294.8751
-380.99777
-3276.6031
-3203.0956
-2041.8543
-957.07709
-155.10353
387.23795
-5111.0594
-1440.7073
-669.9106
-3885.208
-3395.3708
-1962.879
-760.4061
82.692953
514.34467
-5184.0667
-1591.6963
-944.64469
-4487.0552
-3477.9819
-1786.4139
-536.29619
320.51697
600.92426
-5154.5419
-1755.3006
-1155.3369
-5036.5369
-3448.7089
-1559.7706
-283.39567
508.94233
643.46609
-5424.0396
-1911.5099
-1362.397
-5560.4998
-3336.9845
-1293.9192
-26.878342
628.54603
674.88652
-5367.307
-2023.5803
-1371.1775
-6002.3529
-3139.0722
-1025.491
176.8376
671.10752
663.93251
-9256.9463
-8910.9339
-6500.0829
-4210.4281
-4429.8482
-2584.1594
-1270.268
63.740378
244.50841
-9101.3493
-8656.3757
-6467.1781
-4479.2855
-5006.329
-2841.3664
-1427.3484
129.0153
181.04443
-8943.9125
-8389.6648
-6391.8622
-4686.2058
-5510.2165
-3050.1482
-1533.1145
193.39942
144.56503
-8783.3128
-8100.6261
-6262.7449
-4835.6472
-5921.9206
-3209.5727
-1570.8114
254.96942
138.47113
-8619.2374
-7785.0608
-6082.5616
-4958.7589
-6215.7195
-3323.0859
-1543.4845
319.38649
155.86618
-8450.7727
-7436.6659
-5842.0859
-5089.9898
-6386.0369
-3393.1654
-1456.252
379.62783
184.98904
-8275.6087
-7046.8315
-5544.1424
-5263.5953
-6439.4552
-3415.8978
-1307.9217
432.30111
219.4536
-8099.9698
-6627.2279
-5203.5861
-5483.4817
-6393.8033
-3389.8406
-1106.5384
471.43274
263.14108
-7907.4571
-6200.6831
-4824.2259
-5749.4339
-6283.5516
-3325.9473
-872.23339
493.46776
311.97112
-12072.374
-12034.5
-2573.5614
1081.4504
3023.1675
3428.5574
4527.1911
4294.0462
2560.7305
-12496.251
-12116.837
-3496.5926
715.07054
2844.5103
3393.8549
4404.1006
4530.2729
3276.366
-11973.925
-12222.973
-4397.0941
298.50035
2461.5114
3330.9727
4230.3196
4768.1003
3785.3541
-12306.186
-12395.891
-5240.481
-328.6022
2107.6967
3130.1433
3929.7746
4714.1092
4240.105
-12733.227
-12652.312
-6008.9496
-1085.5548
1721.04
2900.2515
3653.0799
4570.2973
4436.3765
-13396.421
-12976.83
-6667.9536
-1799.5026
1240.8675
2631.48
3297.6776
4255.9742
4495.798
-14438.604
-13369.931
-7234.2696
-2580.9308
700.44046
2279.1099
2945.6141
3953.6411
4353.7048
-15649.381
-13818.888
-7681.4142
-3299.8419
99.023851
1855.6864
2590.797
3511.1381
4114.5255
-16256.723
-14365.639
-8028.3985
-3832.4517
-446.09187
1428.8121
2265.4338
3116.0827
3824.1686
2269.8399
1363.7317
887.26759
-141.66575
-1776.6834
-4420.3329
-7816.2808
-15645.034
-16675.487
2456.3531
1542.1051
1017.7607
-5.2304961
-1714.0723
-4469.8543
-8011.0974
-15627.583
-16661.48
2631.1653
1724.0003
1154.146
150.42613
-1614.4669
-4477.0763
-8129.0165
-15590.111
-16584.176
2796.9214
1908.3468
1294.2127
316.77559
-1493.5947
-4453.0543
-8213.7242
-15512.529
-16483.178
2962.0676
2094.1187
1436.3149
486.60866
-1361.6784
-4414.5223
-8280.8423
-15431.713
-16372.188
3128.463
2278.6214
1580.5539
649.51742
-1227.0161
-4374.0441
-8334.804
-15316.678
-16268.619
3287.2133
2461.5807
1723.6214
814.27691
-1086.2519
-4324.562
-8369.7649
-15197.395
-16205.76
3437.8837
2640.3086
1866.9597
973.44943
-941.01171
-4254.8689
-8388.7797
-15065.728
-16293.374
3584.0241
2817.0444
2012.0059
1138.5182
-781.3881
-4151.2311
-8383.9003
-14973.002
-16319.676
-16769.937
-15711.973
-7431.3638
-4310.3984
-1808.5742
-265.41066
760.17265
1186.9497
2069.1946
-16556.386
-15538.582
-6811.4052
-4115.6612
-1814.6875
-377.72411
631.88376
1017.1262
1874.0801
-15218.756
-14459.139
-6223.3058
-3900.6932
-1805.0463
-471.28791
509.3342
857.44635
1691.4456
-13886.508
-12957.935
-5741.8729
-3669.5532
-1784.7231
-551.56275
392.12148
705.44628
1506.9322
-14246.932
-11357.3
-5297.195
-3426.0584
-1737.0652
-611.67097
285.97426
566.76369
1323.0756
-16334.161
-9834.4143
-4814.9457
-3160.2859
-1673.1448
-650.33046
194.67004
442.25682
1138.9831
-16972.45
-8359.4027
-4233.6118
-2887.6113
-1581.857
-669.062
114.5904
332.59192
960.19643
-15311.516
-6820.094
-3616.3338
-2665.4019
-1519.5327
-694.07654
28.530015
231.62642
798.08248
-13530.875
-5866.8307
-3326.7155
-2532.0251
-1518.5296
-752.54979
-85.736259
134.13579
666.8871
-8.3697568
-111.4548
-338.70948
-688.19828
-1154.1366
-1710.6015
-2242.7099
-2285.728
-307.71512
-39.714855
-174.12222
-427.89731
-816.28939
-1344.0888
-1997.3212
-2716.3175
-3108.9055
-1197.5379
-41.759396
-212.92381
-485.84107
-912.77648
-1492.9107
-2235.429
-3137.19
-3958.4717
-2212.5551
-10.592999
-227.1493
-511.32963
-972.79847
-1599.2573
-2415.1788
-3482.0393
-4776.3006
-3375.9531
48.78873
-217.42201
-505.42901
-1003.1341
-1662.8056
-2530.52
-3733.6293
-5528.295
-4726.7826
134.24771
-184.09546
-469.38803
-1000.5768
-1689.3621
-2584.6109
-3866.1038
-6114.6821
-6360.2501
244.17266
-128.18058
-406.94845
-971.88202
-1679.8565
-2587.5343
-3858.7945
-6470.0077
-8347.2518
375.35449
-52.866085
-319.99725
-915.28124
-1642.5783
-2554.2065
-3712.3911
-6526.7208
-10393.171
522.38612
36.501887
-212.41718
-840.15161
-1582.2302
-2518.7171
-3488.7153
-6224.5352
-12081.82
386.39995
-1551.7013
-1753.4627
-1392.9481
-936.15015
-531.20994
-222.50214
-23.806183
49.001161
958.00051
-900.78332
-1281.2149
-1064.2992
-700.20534
-355.55778
-84.787343
87.922735
130.6757
1485.3678
-285.38205
-804.28668
-719.62218
-445.45783
-161.21747
73.191924
220.47075
245.63793
1971.928
293.26012
-335.91008
-365.58456
-175.8126
49.15824
246.89939
370.37807
382.19688
2426.3056
834.19535
125.05361
-6.6303219
103.26263
272.15213
436.83028
535.11576
537.23033
2857.9468
1338.357
566.0969
349.66743
389.63822
503.16962
635.42333
712.59112
708.63741
3258.4649
1813.0467
994.20685
701.74977
678.08894
740.56237
843.63742
898.85558
893.78563
3636.329
2255.7646
1401.4864
1044.101
963.86943
980.38395
1057.237
1093.0077
1089.0889
4003.909
2671.3713
1790.0837
1375.9756
1245.6231
1219.0098
1273.028
1292.1534
1292.1019
3060.6653
2977.5266
3052.024
3082.2731
3305.5437
3633.5712
4286.372
5297.6934
6864.7991
2905.6523
2814.8319
2883.2836
2916.7777
3137.0295
3467.1529
4123.7985
5142.2957
6598.033
2732.0877
2645.071
2706.2356
2738.6134
2949.888
3271.2441
3912.9666
4912.0981
6276.3194
2536.7151
2467.3583
2522.019
2550.721
2747.2678
3052.0073
3670.3973
4648.3426
5964.8601
2333.0251
2281.8754
2327.7082
2348.6781
2526.553
2811.3564
3403.5188
4367.4964
5661.1555
2126.4702
2090.2824
2124.3568
2137.1758
2291.6717
2555.8198
3120.3681
4072.6029
5353.9973
1918.5702
1894.1287
1918.0329
1917.1143
2045.0859
2283.8903
2819.7271
3757.7577
5035.7522
1708.7544
1693.5747
1705.4347
1689.8932
1789.4452
1997.5046
2498.3775
3421.456
4708.569
1499.3466
1492.3501
1488.7352
1455.7873
1521.0902
1693.0331
2153.823
3059.1861
4363.2811
3220.4055
3380.7434
3535.1598
3683.1981
3824.0256
3958.5042
4085.7316
4206.7393
4321.1309
3134.141
3284.5418
3428.3915
3566.3105
3697.8206
3823.377
3942.7981
4057.5167
4166.3845
3206.9142
3354.4332
3494.661
3625.2407
3751.4252
3870.5019
3982.6802
4091.1718
4193.2728
3235.1809
3378.9801
3514.2708
3639.5582
3759.09
3870.4034
3975.4849
4075.6896
4170.003
3455.1102
3586.5384
3708.2272
3819.8365
3922.5912
4018.8568
4108.2195
4190.8539
4269.956
3771.1455
3888.0313
3991.4325
4083.5716
4165.7158
4239.8581
4307.062
4368.8685
4425.6189
4400.0635
4486.7824
4555.1731
4610.1741
4653.8514
4688.4746
4716.3987
4737.979
4756.4797
5366.7642
5396.6055
5402.516
5392.4657
5370.2865
5339.3744
5302.1789
5261.3088
5218.4312
6886.1649
6855.8591
6779.9124
6687.2351
6577.918
6464.4918
6347.2144
6230.5599
6115.1557
4429.5488
4270.2262
4290.9339
4260.6088
4344.5454
4479.08
4772.1665
5174.8569
6002.5981
4532.3406
4369.7997
4384.4818
4347.1736
4414.5131
4529.5307
4786.0179
5131.8035
5891.7562
4628.9731
4465.2605
4473.4578
4430.2266
4483.516
4578.5074
4800.0187
5090.2951
5782.7933
4720.5411
4555.7241
4558.3722
4510.5562
4549.8107
4626.4001
4813.7049
5051.645
5676.2947
4806.99
4641.2494
4639.6498
4587.9892
4613.9871
4674.105
4828.351
5016.4094
5572.9841
4888.5989
4724.3239
4717.409
4662.7613
4677.7986
4721.902
4844.7261
4984.9966
5472.5392
4965.2739
4803.3954
4792.0678
4735.2704
4740.0456
4770.4476
4862.6061
4957.5936
5374.8848
5037.6328
4878.2455
4863.3407
4805.5995
4801.284
4819.2236
4883.9791
4935.6736
5279.6547
5105.2957
4949.9617
4931.4822
4873.7636
4861.5144
4868.5843
4909.5445
4918.8973
5186.5907
5540.165
5446.3918
5415.1381
5386.4789
5361.4687
5341.1298
5302.7089
5118.825
4810.5123
5501.4865
5403.5524
5372.1423
5339.0197
5311.0549
5287.9876
5247.0841
5065.778
4763.1281
5462.1337
5357.6704
5325.964
5288.8064
5258.5664
5233.7338
5192.3459
5017.2066
4736.1564
5421.8578
5308.6973
5277.1684
5236.1992
5204.5572
5179.0874
5140.2371
4976.0642
4741.4522
5379.7018
5256.7912
5226.3489
5181.3685
5149.4372
5124.5497
5091.486
4943.7586
4778.6451
5333.8059
5201.8796
5173.3835
5124.2424
5093.5103
5071.0949
5047.2225
4919.8098
4842.8688
5283.7561
5143.8977
5117.6427
5064.838
5036.7877
5018.9993
5006.8841
4906.5431
4921.9515
5228.8273
5082.8046
5058.7884
5003.3142
4979.2927
4968.2243
4970.5105
4903.1268
5007.1227
5169.2358
5018.3663
4996.6003
4939.6347
4920.8628
4918.2057
4938.0242
4907.6486
5095.3351
4863.7329
5176.7347
5360.8791
5394.4102
5410.7518
5431.8987
5455.6825
5485.5371
5572.5231
4944.9755
5243.1165
5422.0152
5447.7471
5458.4949
5475.4155
5494.144
5521.1744
5597.8771
5042.229
5312.9883
5482.2747
5499.0404
5503.3457
5516.2756
5529.755
5554.2491
5619.3517
5147.0467
5385.5704
5540.8065
5548.1993
5545.2715
5554.4398
5562.428
5584.6709
5638.6196
5252.5529
5462.2533
5596.7416
5595.0181
5584.4947
5589.9063
5592.08
5611.9425
5654.2192
5357.4461
5542.1492
5650.7577
5639.555
5621.3222
5623.0797
5619.2473
5637.0734
5667.8442
5465.119
5623.4633
5703.6234
5682.3764
5656.3842
5654.3347
5644.6528
5658.7941
5678.102
5583.7824
5702.6073
5757.0855
5724.192
5690.6112
5683.7366
5668.4639
5675.9173
5685.529
5712.3519
5776.2848
5811.9208
5766.6006
5725.3777
5711.2418
5690.9463
5689.5615
5688.814
5862.955
5856.4795
5875.7087
5818.383
5769.0947
5744.3239
5718.5145
5703.7758
5691.2907
6033.0932
5946.2564
5950.1674
5880.5239
5825.3871
5791.0688
5758.4295
5728.3635
5703.4191
6197.2742
6037.4294
6024.7308
5942.8962
5882.1992
5840.1814
5800.6053
5758.7386
5722.6827
6369.2498
6131.2434
6101.7739
6007.5243
5940.9979
5892.0756
5845.7763
5795.1023
5748.5745
6552.8815
6226.1371
6180.1174
6073.9839
6001.5588
5946.7311
5894.3934
5836.7829
5781.1597
6754.9571
6321.4021
6258.6356
6142.1672
6063.7614
6004.1158
5946.6164
5883.5163
5820.4159
6998.9786
6418.6275
6336.5964
6211.1609
6127.6993
6064.1476
6002.383
5935.2692
5866.3112
7231.8797
6519.7567
6413.1204
6280.8771
6193.2128
6126.6478
6061.6828
5991.5133
5918.794
7334.8113
6621.0588
6486.3364
6350.8416
6259.8301
6191.0279
6123.9832
6052.1493
5977.6668
6670.393
6684.688
6708.2083
6742.9827
6786.9039
6846.5156
6928.9498
7036.7381
7203.7959
6593.7979
6615.7025
6647.833
6688.949
6738.4898
6804.7436
6896.9206
7021.4378
7244.3403
6513.4323
6544.3661
6584.5812
6631.9891
6686.7061
6757.6269
6857.7597
6994.8539
7261.466
6430.8429
6471.422
6519.3918
6572.6444
6630.5452
6706.9282
6813.9123
6963.1391
7272.1858
6348.0626
6397.943
6452.9531
6510.7864
6571.6063
6652.5441
6766.254
6927.2993
7286.1958
6266.4758
6324.8798
6385.894
6447.2587
6511.1676
6595.7031
6715.5494
6883.2306
7303.4653
6187.5819
6253.0593
6318.9747
6382.9212
6448.8435
6536.5731
6662.2079
6831.4354
7317.742
6112.5986
6183.2138
6252.7322
6318.4268
6386.1661
6475.9801
6606.3599
6770.0724
7327.9433
6042.4295
6116.1592
6187.7024
6254.933
6323.8926
6415.2411
6549.2871
6701.9299
7336.0402
7454.4108
7487.3292
7517.4044
7545.7669
7576.4961
7595.4051
7589.2476
7543.7076
7411.9756
7516.9209
7542.9531
7569.8805
7599.179
7628.533
7645.4162
7633.3832
7577.6057
7435.9639
7574.9458
7605.2941
7632.8432
7664.3367
7693.4007
7708.5328
7690.6179
7621.1464
7461.7176
7647.9066
7682.8679
7714.5615
7747.776
7776.7371
7787.3504
7767.4009
7676.3643
7500.1886
7736.5285
7775.2154
7813.2104
7848.789
7881.1105
7888.1273
7866.2131
7756.0304
7539.509
7847.5033
7892.0658
7938.0258
7980.0686
8015.3587
8025.7761
7993.4505
7890.5366
7687.6573
7997.6501
8048.7841
8103.8465
8155.7617
8196.8684
8208.2939
8151.032
7977.5302
7630.9584
8209.9887
8267.6148
8335.2968
8401.8941
8456.955
8493.5444
8499.7327
8461.2135
8401.4381
8506.886
8568.582
8649.6741
8736.7191
8811.07
8865.6665
8860.5867
8736.9739
8377.4277
11503.941
10981.94
10581.383
10149.462
9805.0428
9515.2847
9292.9657
9130.1536
9025.7412
9952.956
10106.964
10068.012
10016.889
9917.0289
9794.5463
9656.7106
9514.3112
9398.7285
9721.3654
9723.4872
9697.4662
9668.7644
9623.7545
9569.0341
9502.1937
9422.3992
9338.1833
9385.6446
9418.2802
9398.4942
9386.859
9360.061
9331.7716
9300.1469
9261.1932
9207.9505
9118.9748
9144.1117
9136.1584
9136.4273
9122.8059
9107.746
9091.1475
9072.8681
9040.0867
8911.1427
8923.5414
8914.8335
8916.8088
8907.0778
8896.2019
8882.9417
8872.6091
8849.7997
8732.0795
8734.0399
8726.7397
8723.8603
8715.5257
8706.1148
8696.0291
8687.8404
8672.2281
8573.2687
8571.8225
8560.8501
8558.5892
8549.1082
8541.7831
8530.4999
8524.2439
8511.2381
8434.3922
8425.2886
8416.1449
8407.1748
8397.2445
8387.2666
8377.1081
8368.3733
8357.2883
8222.9825
8091.4535
7951.0073
7792.9072
7616.4473
7396.9105
7137.2867
6820.676
6581.6508
8231.8635
8099.7543
7956.9917
7797.1019
7612.8703
7391.161
7118.9717
6811.4316
6519.6098
8238.0663
8105.7198
7959.839
7796.4865
7604.3898
7377.5588
7092.5731
6776.0012
6439.1465
8248.4628
8112.4748
7966.3425
7797.9417
7602.2471
7366.8096
7070.6981
6726.0419
6342.864
8255.5843
8119.5309
7970.8836
7801.5495
7602.2725
7361.1622
7051.1381
6677.525
6239.7767
8266.2967
8127.3798
7979.0392
7806.9757
7605.0829
7359.0989
7039.259
6628.7566
6137.6256
8272.4574
8135.7829
7985.6776
7816.1692
7610.2957
7366.3833
7033.7247
6598.8634
6055.6246
8283.7541
8142.2602
7994.1826
7820.1419
7618.2472
7366.4373
7036.4115
6568.704
6037.564
8295.1622
8156.6826
8007.7894
7839.0351
7634.5804
7394.0248
7056.8063
6596.9474
5940.8715
6603.9592
6792.9957
7087.4938
7330.7161
7497.7698
7628.6358
7763.8602
7915.9837
8081.7102
6508.6922
6711.3715
7052.3796
7315.2271
7485.3262
7621.9228
7763.5961
7920.7674
8090.216
6391.8505
6628.4761
7027.7948
7306.3408
7475.4309
7614.5944
7760.2256
7924.0276
8098.4142
6252.4522
6541.2119
7001.4243
7295.0366
7466.3764
7614.9191
7768.786
7933.5618
8108.246
6079.5491
6454.1286
6967.9702
7267.5296
7439.5139
7594.508
7755.153
7928.8034
8110.6647
5825.6804
6414.4234
6988.0896
7280.2449
7451.0754
7609.4582
7772.8766
7944.443
8122.8158
5444.5967
6244.1041
6928.7011
7229.2322
7411.4876
7582.8163
7754.3526
7932.3107
8117.1795
5128.4879
6315.467
6987.1221
7252.126
7431.9431
7600.8048
7771.0123
7948.0255
8131.2072
4089.7823
6144.9502
6952.4677
7215.6702
7409.4344
7587.6071
7761.4505
7939.8515
8124.717
8254.9112
8425.1784
8581.8649
8735.7848
8842.2141
8864.5381
8774.8965
8716.3288
8760.8313
8264.282
8434.5549
8597.45
8760.1785
8872.059
8905.6184
8799.0738
8723.6171
8754.2252
8274.6322
8446.423
8615.6962
8788.1935
8902.6974
8952.2216
8812.9978
8723.9169
8743.2437
8285.2715
8459.2441
8635.8117
8818.8064
8934.5447
9006.0813
8828.5377
8714.3505
8727.1849
8292.1883
8469.2641
8653.2749
8845.0184
8979.3123
9065.8733
8859.8329
8689.4297
8703.9698
8303.5845
8482.4571
8672.9318
8863.5257
9056.1573
9129.9203
8895.7114
8659.6616
8680.2825
8300.2083
8481.8685
8681.9097
8865.6599
9129.2207
9195.0368
8920.4775
8642.8131
8651.7282
8313.5686
8492.9419
8696.9363
8902.1284
9188.3308
9294.3513
8999.2763
8677.0724
8663.6157
8308.25
8491.6855
8702.4028
8918.9002
9212.668
9348.8251
9052.6265
8697.5376
8679.4753
8887.2717
9045.4939
9235.8743
9370.3403
9405.19
9371.9195
9375.8673
9499.7352
9241.1648
8882.0716
9048.4783
9258.2067
9398.8412
9430.9799
9382.0119
9384.1492
9512.1458
9200.1505
8875.6212
9054.9423
9285.4821
9430.6055
9453.8474
9384.7954
9391.774
9521.0922
9166.8185
8864.3389
9059.2658
9312.5305
9462.7073
9473.5635
9380.5803
9399.4817
9539.1697
9011.0258
8843.2953
9056.5315
9337.1856
9493.2901
9489.744
9369.8724
9400.2347
9555.2776
9028.0412
8828.0249
9056.4353
9363.3834
9527.1297
9506.9376
9366.7192
9392.7055
9561.1571
8929.9214
8799.8717
9048.872
9370.0087
9537.3716
9520.48
9369.7537
9402.4287
9594.6717
9020.3157
8783.0173
9033.1382
9374.2652
9537.1915
9515.3992
9376.1819
9387.1499
9544.1879
8958.7846
8800.1745
9035.1341
9360.8955
9529.9651
9510.1884
9387.7336
9403.8312
9576.0159
9276.1222
10371.645
10625.618
10490.422
10148.15
9797.0454
9459.6304
9122.8249
8794.9249
8467.9323
10377.142
10677.37
10575.64
10230.383
9871.5303
9525.9558
9180.7388
8847.586
8517.1748
10359.053
10711.213
10650.857
10303.131
9944.6698
9590.9382
9238.9443
8899.9209
8567.3814
10322.113
10754.649
10730.941
10377.615
10020.01
9656.842
9298.9874
8950.8554
8613.9438
10260.903
10772.917
10803.837
10446.633
10092.328
9722.8727
9361.0439
9009.5561
8666.9034
10210
10784.335
10870.707
10512.093
10162.204
9777.6036
9409.179
9046.2278
8704.3015
10164.01
10774.406
10923.446
10574.987
10235.977
9850.8251
9479.5383
9117.0575
8768.8395
10114.469
10760.405
10960.222
10616.335
10277.26
9880.595
9507.7717
9135.5298
8788.0813
9986.7326
10711.408
10979.64
10681.59
10355.54
9963.1802
9588.025
9214.2999
8863.7845
8152.5335
7837.5589
7526.4313
7213.3827
6889.5944
6560.1429
6215.3641
5861.9761
5499.0776
8198.6788
7877.9545
7566.1474
7246.9278
6926.5341
6593.0837
6250.1382
5895.2588
5531.8398
8246.967
7922.6902
7610.4322
7289.4453
6970.7084
6638.2041
6296.7738
5944.8843
5583.2543
8289.424
7962.5763
7651.2551
7323.5243
7011.2642
6672.0483
6337.3902
5981.3759
5626.0178
8341.1474
8010.2955
7698.1081
7371.2733
7055.7383
6721.7949
6382.9735
6032.7809
5673.6696
8372.1363
8039.5436
7728.3661
7394.6373
7086.7324
6745.1003
6414.758
6059.8617
5707.9173
8438.1568
8102.3056
7790.603
7456.6618
7146.5502
6808.523
6474.7972
6125.5396
5768.2683
8451.2213
8114.4872
7802.348
7464.7905
7159.2325
6817.1153
6488.6606
6136.3733
5785.0693
8526.4188
8187.8139
7874.8625
7537.7042
7230.6756
6891.8746
6562.3527
6215.06
5859.5742
5084.0662
4639.975
4184.6737
3763.943
3309.116
2860.7951
2076.5216
859.12097
-1093.1599
5117.7862
4694.479
4250.4805
3849.6858
3409.6105
3003.9105
2280.4034
1170.3948
-789.66677
5176.4618
4758.5328
4316.1709
3903.6732
3443.3952
2986.5183
2303.2654
1312.4236
-410.72803
5221.5854
4818.0895
4377.1355
3968.7247
3505.8829
3044.5854
2412.7943
1492.9387
42.42114
5277.4194
4878.9077
4449.8313
4045.4578
3588.7713
3115.5561
2556.1642
1728.0004
617.32482
5316.1581
4930.3422
4510.4901
4106.6579
3660.9499
3179.1855
2652.1265
1944.0109
1325.716
5385.6693
5002.9556
4606.8444
4201.3815
3776.0866
3283.1599
2808.3188
2044.3925
2326.4249
5407.0992
5032.5067
4642.4995
4246.6763
3824.2869
3345.7435
2783.7165
2266.3014
1966.1718
5493.9483
5129.4048
4767.6332
4386.1499
4001.7584
3556.0408
3104.1146
1802.6982
5728.374
-2834.9706
-4952.8014
-6150.3741
-5432.9319
-5610.6211
-5694.011
-5837.8268
-4586.3755
-2918.9205
-2783.3802
-5159.3689
-6120.9971
-5326.1059
-5514.9878
-5517.2376
-5585.3281
-4465.2578
-2941.9468
-2856.1492
-5427.994
-5998.7292
-5323.6376
-5575.5037
-5619.6411
-5462.2884
-4325.4816
-2952.1411
-3089.3623
-5736.3741
-5849.5333
-5292.0021
-5543.0376
-5500.1476
-5322.2961
-4208.8421
-2923.7075
-3460.7059
-6009.8332
-5527.7282
-5286.5801
-5559.4449
-5494.1042
-5176.8801
-4084.8941
-2869.1522
-3491.0274
-5937.0773
-5402.8098
-5375.5673
-5531.9455
-5414.9993
-5047.2933
-3951.3436
-2807.8784
-2869.1927
-5572.5435
-5401.8384
-5342.0998
-5501.1536
-5334.6239
-4869.8553
-3814.6498
-2745.7796
-3648.034
-6674.9132
-5292.5807
-5447.0736
-5492.0301
-5304.0303
-4768.9878
-3703.7862
-2696.1334
-13123.289
-4463.3387
-5427.293
-5399.5919
-5416.8406
-5177.5542
-4584.3002
-3578.4298
-2657.2653
-2464.9069
-2319.6018
-2265.3266
-2320.6959
-2428.8363
-2577.5978
-2620.2537
-2450.6747
-2067.3157
-2402.4652
-2241.3577
-2182.0893
-2247.0233
-2368.6226
-2505.7853
-2561.895
-2358.2169
-1968.0778
-2399.1442
-2246.5323
-2189.8165
-2255.3035
-2379.8145
-2489.0182
-2477.3382
-2250.0249
-1864.165
-2373.7391
-2221.6653
-2170.8251
-2230.953
-2355.6365
-2422.9536
-2388.4139
-2148.7102
-1751.3959
-2338.6142
-2184.7985
-2132.7086
-2201.6739
-2322.5799
-2367.4414
-2317.0432
-2026.0805
-1640.386
-2305.9825
-2150.9991
-2100.9165
-2180.3931
-2289.9773
-2311.8797
-2238.7812
-1899.5537
-1522.1358
-2282.8074
-2121.4803
-2078.5925
-2166.106
-2264.6072
-2268.0352
-2146.5188
-1771.0659
-1387.2116
-2270.1372
-2098.5839
-2061.6359
-2155.8677
-2239.9234
-2254.4971
-2083.4511
-1704.4376