/*--------------------------------*- C++ -*----------------------------------*\
  =========                 |
  \\      /  F ield         | OpenFOAM: The Open Source CFD Toolbox
   \\    /   O peration     | Website:  https://openfoam.org
    \\  /    A nd           | Version:  11
     \\/     M anipulation  |
\*---------------------------------------------------------------------------*/
FoamFile
{
    format      ascii;
    class       surfaceScalarField;
    location    "0.2975";
    object      phi;
}
// * * * * * * * * * * * * * * * * * * * * * * * * * * * * * * * * * * * * * //

dimensions      [0 3 -1 0 0 0 0];

internalField   nonuniform List<scalar> 
1652
(
1.706212168242966
0.5337381654505213
1.554312234475219e-14
1.172474003090197
0.5337381653844571
1.733946319859569e-12
0.638745305985536
0.5336550063349417
-6.776801342311956e-13
0.5292939172102871
-2.609867877367833e-11
0.1055816543544931
1.706212168246055
1.067476330893188
1.172474003276397
1.067476326300385
0.6387554707450225
1.06727203847286
1.053634560706766
0.108233335043716
1.706212168250374
1.601214496357043
1.172474005526868
1.601214473794923
0.6387899752560915
1.600768699763359
1.574729484982818
0.109051568453923
1.70621216826491
2.134952661648124
1.172474020492422
2.134952545711566
0.6388385847524075
2.134015560366299
2.09589937967638
0.105845745009636
2.651191215309925
1.723711779945618
3.167429771846606
1.723711779189894
3.683668149543645
1.723711781131132
1.723712783676929
4.199904108458993
2.651190704216233
1.207473375955216
3.167428775658415
1.207472621361128
3.683657977175025
1.2074741987675
1.207497109766322
4.199854232377343
2.650145619963476
0.6903280495730255
3.166677138324053
0.6892644631581946
3.683389421501035
0.688048062804089
0.6889967395969366
4.196573187635962
2.645838124276233
0.1194469622591788
3.265239839943421
0.04381097276600071
3.900659179456131
0.02026773179148139
4.538811554879095
0.01224701014380364
4.164897495837051
0.03500435277891967
4.129897208831947
0.03498274082466135
4.094889792068259
0.0349178783398344
0.03482089407139355
4.059828009195273
4.165027381117818
0.06975189387164987
4.13025240348802
0.06924309605533102
4.095962949763313
0.06826982798664538
0.06690873904620354
4.061751760463923
4.17383936771865
0.08543126699480041
4.155886452251991
0.07817532010125272
4.144406910152416
0.06700276663948324
0.05970161310370359
4.134317230831988
4.587142734311568
0.0064438525494383
4.631679127628307
0.006401009609050712
4.668345403305127
0.006358383258251055
4.70448369648275
0.007860608225961963
4.667150912817641
0.09950156935292265
-0.06848535244027659
4.590195977936954
0.0953792205650138
-0.01801245693412862
4.513502372962844
0.09036704184227878
-0.008262711770457537
0.08314711926221335
4.448617700607149
-0.008004486077556217
4.203843889446894
0.01060380813131961
4.258719634267325
0.02064228222535802
4.298277106853846
0.03203570597033728
0.03985428820618686
4.324088274813676
4.06647731639699
0.0007642631798058241
4.076060300515852
0.002204251580907535
4.090099619784239
0.004697219606219827
0.008552400225818824
4.106817357720036
4.059762878321525
4.060061384822393
4.061064787244375
4.063127011638296
4.066542087696412
-0.01299461208316111
4.070635181970928
-0.01711064492786563
4.072675227912696
-0.02030634969527989
-0.02154492475138736
4.073397212521491
4.124817836519345
-0.04641484760619857
4.142052888128827
-0.05024898326029947
4.156658771052319
-0.05143801005028031
-0.04923903957366549
4.168130885953328
4.338083316918492
-0.07447417825990621
4.338558389755139
-0.06498361982606871
4.3333203329035
-0.05294564307772487
-0.04546010121501604
4.327267536499765
4.398565255951461
-0.00662592532496678
4.348348525049
-0.005737429080226009
4.31716687091721
-0.004973406692800664
4.299604782268324
-0.003744758597534203
0.03489617465669986
4.288410833870675
-0.002848605214508471
0.04510277421819547
4.31532884165969
0.0223290999423158
4.177505527024486
4.072743387203285
0.03253916745155438
4.318475703666621
-0.06682368029441554
0.03691527243938225
4.310271773208809
0.02093140782207081
4.175629469044039
4.070016512637253
0.03969340837424057
4.278362235945195
-0.1659216729583863
0.02774358757214701
4.31021561043381
0.01690455170862915
4.168504735773703
4.067574281674831
0.107275505320247
4.01548925178883
-0.07450237196315862
0.0374886358123806
4.316782549039387
0.01370602757505246
4.164578716039972
4.058466624590713
0.08409578793980443
3.962431654542388
0.1555662290342986
4.055729744001628
0.1249164907124648
4.222704412918351
3.865822828227226
0.1568169560270912
0.08463823259649289
3.869402024674056
0.1416136148233655
3.947478993106995
0.0605295104673429
4.120514578967195
3.71741586028054
0.1132837216760687
0.08056520577635101
3.778968161508068
0.106164103138578
3.844926021462974
-0.021061462595652
3.993674457575692
3.565599631775441
0.07119489480320462
0.06983221253197669
3.691916362033608
0.04659186561781004
3.750952351395248
-0.1011422142296701
3.829285811296478
3.369931366029977
0.04827450905121289
0.1518157186592717
3.184676659327303
0.01683822601005946
0.04482968062305437
3.63568781858075
-0.04726695929066571
3.662440161660172
3.61064184451667
0.1770499398683696
3.009197234630451
0.001999683233778971
0.1436407740464521
3.457439833532415
-0.008304371579195946
3.568953895958264
3.537597544590859
0.1750502306495252
2.865119446322797
-0.003443287611933354
0.216904762280558
3.321760577930426
0.04796765702298311
3.444806895332933
3.474466255689926
0.148284497175275
2.761890045097706
-0.004743405936960543
0.2709933539118949
3.196443134205031
0.1128902266903572
3.353972896755555
3.41977347696474
-0.1524990514957087
3.348200883432072
-0.1937753008033525
3.23070710334684
-0.07070027281230695
3.124557982924765
2.702164549236792
0.02545162219597052
-0.1146796633113506
3.263469131196877
-0.1259738394590607
3.129195174433427
-0.0009899809867002229
3.052972491518443
2.665055033547272
0.06563483684597238
-0.08146877663845498
3.173090809390029
-0.05216351626623361
3.027886600985478
0.07681064155400774
2.971586238822623
2.634252637716935
0.1345049518411146
-0.03079226609894437
3.05378960822206
0.02935156436470665
2.915711748231197
0.1742515551957443
2.872288104500814
2.59545580721531
0.24349532999511
-0.3330957073078951
3.259163891325169
-0.5816532610697429
3.141052494492207
-0.7234860030928458
3.093407004664858
2.673126322480794
-0.7625843976157241
-0.2994560040385939
3.449069598227482
-0.5182678066686675
3.364946366645245
-0.6403309120920516
3.320338506123821
2.318095652315351
-0.2584658043358214
-0.2691383208112978
3.626190182197359
-0.4700933174810593
3.577914314198681
-0.5278550128883499
3.50376451549065
1.86659449793499
-0.03554128533640885
-0.2432987560691822
3.796560903003741
-0.4378450731273328
3.78706810672516
-0.410288873441256
3.637184965742544
1.693088981583853
-0.01850660274040246
0.1963952187850617
1.638330275914907
-0.009624680375611698
0.207350939983381
3.733007566129122
0.1169522908316377
3.884477859542895
3.863172732303088
0.1820424685792168
1.512212654232903
-0.006766834965678401
0.1905079754446584
3.807020035265611
0.1009217171475844
3.986758559995409
3.929276585953315
0.1539781096605496
1.401998710030086
-0.004056583963833894
0.1726654995818258
3.861386895675684
0.08790544285724478
4.095844270331938
3.997089190379568
0.1160525261505081
1.333205709859438
0.0008509054757834082
0.1538947118791247
3.919863907559576
0.09707943986148559
4.177898444641213
4.081955869149787
-0.2695768987286135
1.769751515158875
-0.01538483303615522
-0.1488261906149662
4.011813413654519
-0.01883656575857917
4.093686798434577
4.061057532427806
-0.2814176175953889
2.241657894170041
0.02466788991020204
-0.1202358480942247
4.051302418202039
-0.01368139084692044
4.047767677317267
4.058561127251837
-0.2545556455569599
2.619947465824217
0.0694685369141981
-0.0806682500935666
4.006205444599876
-0.008307493942977473
4.036541032948998
4.058097198452701
-0.2027454815960458
0.1292872719264029
2.805968424753158
-0.06190042171578436
3.960840644658943
-0.005543310790504297
4.037613998031125
4.058806228914676
0.3404662303241351
-0.4460833876265573
-0.0209215787963646
2.80464540480807e-12
1.023911330811607
-0.3680644941939795
4.007461029686965e-12
1.694196576428819
-0.4931839595652283
4.049649504622721e-12
-0.5233509451416971
-8.315570454442422e-12
0.3453390268687241
-0.8300117447393416
-0.02127983315141191
1.025316756492424
-0.7517952588128272
1.692688889062445
-0.9906849570922724
-1.046642434285593
0.3541146795366574
-1.124536257856747
-0.02093295692785643
1.027318667407863
-1.209493983642995
1.690982969149471
-1.493913258517969
-1.570198065681187
0.372828787493566
-0.01890040251252761
-1.375111793238672
1.038777707879212
-1.722792706299082
1.690228741917489
-2.015018385065667
-2.094102625890919
-0.2027454815952554
-2.619947465822808
0.1292872719262776
2.80596842475004
-0.06190042171367272
-4.006205444606553
3.960840644662133
-0.005543310785659061
-4.036541032946677
4.037613998017423
-4.058097198452998
4.058806228908507
-0.2545556455564824
-2.241657894170755
0.06946853691443929
-0.08066825009530343
-4.051302418209213
-0.008307493946908329
-4.047767677323707
-4.058561127259503
-0.2814176175960748
-1.769751515160871
0.02466788991035093
-0.1202358480990319
-4.011813413658408
-0.01368139085127873
-4.093686798439085
-4.061057532431316
-0.2695768987279087
-1.333205709859634
-0.01538483303586716
-0.1488261906179732
-3.919863907563654
-0.01883656576283421
-4.177898444637579
-4.081955869151929
-0.1169522908252602
3.863172732312083
-3.796560903015503
-0.2073509399699913
3.884477859562069
-3.787068106752844
-0.196395218780045
3.733007566105648
-3.637184965711314
1.638330275903344
-1.693088981567245
-0.009624680375776521
-0.1009217171402529
3.92927658595866
-0.1905079754302803
3.9867585600076
-0.1820424685739435
3.807020035252648
1.512212654223992
-0.006766834965765387
-0.08790544285080987
3.997089190384248
-0.1726654995660095
4.09584427033324
-0.1539781096549229
3.861386895671278
1.401998710024314
-0.00405658396363686
-0.09707943985391043
-0.1538947118632536
-0.1160525261453894
0.0008509054759622513
0.410288873443887
-1.866594497920442
-0.01850660274036162
0.4378450731416135
-3.503764515471347
0.2432987560762609
-3.577914314221013
-3.626190182203707
0.5278550128928127
-2.318095652306008
-0.03554128533580918
0.4700933174957757
-3.320338506115424
0.2691383208206602
-3.364946366662438
-3.449069598231842
0.6403309121002766
-2.673126322481273
-0.2584658043350102
0.51826780668364
-3.093407004665993
0.2994560040464204
-3.141052494505255
-3.259163891326848
0.7234860031012562
-2.595455807221772
-0.7625843976186648
0.5816532610833327
-2.872288104510172
0.3330957073104193
-2.91571174823919
-3.053789608221447
-0.1524990514962454
3.348200883441853
-3.419773476978779
-0.1937753007974315
3.230707103366854
-3.353972896770634
-0.0707002728089865
3.124557982910158
-3.196443134181378
2.702164549225033
-2.761890045085202
0.02545162219622943
-0.1146796633104036
3.263469131202857
-0.1259738394494165
3.129195174452501
-0.0009899809824810424
3.052972491515887
2.665055033542442
0.06563483684667104
-0.081468776637868
3.17309080939627
-0.0521635162550188
3.027886600998753
0.07681064155945061
2.971586238827946
2.634252637718768
0.1345049518416065
-0.03079226608992924
0.02935156437420161
0.174251555201352
0.2434953299964651
0.1482844971773499
-2.8651194463122
-0.004743405937489786
0.270993353919997
-3.3217605779157
0.1128902266908238
-3.444806895347148
-3.47446625570113
0.1750502306523144
-3.00919723461968
-0.003443287612899693
0.2169047622902404
-3.45743983352554
0.04796765702781847
-3.568953895972938
-3.537597544598698
0.1770499398709711
-3.184676659319939
0.001999683232898897
0.1436407740565722
-3.635687818580156
-0.008304371575742819
-3.662440161669552
-3.610641844520599
0.1518157186612286
-3.369931366030033
0.01683822600912799
0.04482968063000858
-3.829285811293197
-0.04726695928652314
-3.75095235138893
-3.691916362034204
0.08409578794103034
3.962431654543303
-4.058466624591434
0.1555662290356667
4.055729744003553
-4.164578716038435
0.1249164907107725
4.222704412920092
-4.316782549040973
3.865822828222023
-4.015489251790965
0.1568169560266713
0.08463823259848813
3.869402024674899
0.1416136148259552
3.947478993112165
0.06052951046824162
4.120514578974591
3.717415860279367
0.1132837216754422
0.08056520577748238
3.778968161510675
0.1061641031407484
3.844926021460769
-0.02106146259594588
3.99367445758131
3.565599631780057
0.07119489480741625
0.06983221253457517
0.04659186561604434
-0.101142214230472
0.04827450905117037
-4.067574281674664
-0.01370602757352013
-4.070016512637275
-0.01690455170878791
-4.07274338720248
-0.02093140782035163
-0.02232909994289012
-4.073397212520648
-4.168504735770457
-0.03748863581382511
-4.175629469044636
-0.02774358757312406
-4.177505527024228
-0.03691527243897458
-0.04510277421843506
-4.168130885954874
-4.310215610435872
-0.1072755053197089
-4.310271773210342
-0.03969340837402502
-4.315328841662387
-0.03253916745089047
-0.03489617465683964
-4.327267536503761
-4.278362235947952
-0.07450237196352189
-4.318475703666149
-0.1659216729579832
-4.28841083387003
-0.0668236802938571
-4.299604782268463
-0.002848605214396449
-0.02154492475097503
-4.072675227912474
-0.04923903957346709
-4.15665877105068
-0.04546010121324112
-4.333320332905807
-4.317166870916171
-0.003744758597386572
-0.02030634969625544
-4.070635181970912
-0.05143801004930493
-4.142052888124277
-0.05294564307628646
-4.338558389756837
-4.348348525045625
-0.004973406692750149
-0.01711064492629288
-4.066542087696655
-0.05024898325936211
-4.124817836511387
-0.06498361982570011
-4.338083316922778
-4.398565255949071
-0.005737429081039386
-0.01299461208248776
-4.063127011639514
-0.04641484760716186
-4.106817357709438
-0.07447417825955038
-4.324088274821201
-4.44861770060613
-0.00662592532459097
-0.0007642631814251954
4.05976287831851
-4.059828009187505
-0.01060380813659639
4.066477316379761
-4.061751760447082
-0.09950156935720406
4.203843889461724
-4.134317230848436
4.667150912827313
-4.704483696495892
-0.06848535244021597
-0.002204251586249595
4.060061384820869
-0.0206422822278588
4.07606030049988
-0.09537922056823872
4.258719634283471
4.590195977943126
-0.01801245693424519
-0.004697219605827363
4.061064787243925
-0.03203570597679811
4.090099619769632
-0.09036704184735533
4.298277106866188
4.513502372964072
-0.008262711771664905
-0.008552400227304524
-0.03985428821196579
-0.08314711926540019
-0.008004486077675205
-0.05970161310788935
-4.668345403315447
0.00786060822562118
-0.06690873906108352
-4.144406910159997
-0.03482089407640465
-4.09596294975738
-4.094889792063388
-0.06700276664509264
-4.631679127634373
0.006358383258005418
-0.06826982799909065
-4.155886452250512
-0.03491787834489068
-4.130252403494572
-4.129897208831904
-0.07817532010761613
-4.587142734309445
0.006401009609295349
-0.06924309606636192
-4.17383936770867
-0.03498274082515296
-4.165027381137222
-4.16489749584014
-0.08543126699992643
-4.538811554873508
0.006443852549881557
-0.06975189388395048
-4.196573187618298
-0.03500435278177672
-4.199854232405722
-4.199904108465826
-0.6889967395956463
-3.900659179451929
0.01224701014414314
-1.207497109758491
-3.683389421487594
-1.723712783681923
-3.683657977188423
-3.683668149541711
-0.6880480628017811
-3.265239839942836
0.0202677317923658
-1.207474198758977
-3.166677138317164
-1.723711781132452
-3.167428775667381
-3.167429771845845
-0.6892644631572832
-2.645838124284826
0.04381097276592316
-1.207472621355588
-2.650145619962658
-1.723711779190781
-2.651190704224353
-2.65119121531526
-0.6903280495731894
-2.095899379687399
0.1194469622539353
-1.207473375955431
-2.13401556036776
-1.723711779951252
-2.134952545709411
-2.134952661648347
1.706212168246005
0.5337381654469102
1.172474003096712
0.5337381653956914
0.6387453059887707
0.5336550063383003
0.5292939170814197
0.1055816543318051
1.706212168246593
1.067476330889135
1.1724740032765
1.06747632629794
0.6387554707451673
1.06727203847592
1.05363456063108
0.1082333350068812
1.706212168251493
1.601214496353548
1.172474005525829
1.601214473792766
0.6387899752549665
1.600768699766028
1.574729484985543
0.1090515684377961
1.706212168264207
1.172474020488785
0.6388385847490945
0.1058457450023197
0.1053396011624443
0.1053396011458907
0.1051254403750314
0.1078827032008572
0.1056103231913131
0.1078958792109223
0.1033937573215379
0.1073203441256444
0.10788270322445
0.1051254403744209
0.1075534648906491
0.1075534648840368
0.107902663367586
0.1068461645587495
0.09969467266772596
0.1108666080260459
0.1078958792279627
0.1056103231916516
0.1068461645692321
0.1079026633669385
0.1065016977764599
0.1065016977756155
0.0965016164685816
0.1090577733541321
0.1033937573308327
0.1073203441250227
0.0996946726746204
0.1108666080279759
0.09650161647430212
0.1090577733542586
0.09625458280539045
0.09625458280907456
-0.03939487242888012
0.1346938240900493
-0.06352744463054083
0.1320612866571214
-0.09057125114657716
0.1366370801290305
0.1348156463377882
-0.00631852404830735
0.1399262692512101
-0.01684410750320758
0.1414249825020346
-0.02809507469603106
0.1466858931499016
0.149200741730528
-0.001848624212211269
0.1407884255192885
-0.008701929118976715
0.1472176559546073
-0.01488048554224358
0.1517683119068674
0.1533690334017902
-0.001838782866634414
0.1416710793454099
-0.006942606088305547
0.1513585633168615
-0.01010164347371301
0.1539681953268112
0.1544863949945917
0.1543219135706151
0.005940442887714559
0.1547540488560573
0.005538516136175786
0.1539910084457332
0.006937593899037919
0.006776237273685703
0.155201509598201
0.1542985673327012
0.005027463260832699
0.154807770328219
0.004515452466255343
0.1549193228852048
0.006568547569060224
0.003115276607562834
0.1586796798068792
0.1531313452586583
0.002556617432805774
0.1546356297313282
0.002480889571337297
0.1558650563255096
0.005172408396820427
-0.009789754326293143
0.1688501820240578
0.1435552473282307
0.1455473693328162
0.15062044728063
0.1408792324408783
0.1421410387312876
-0.05513645634970255
0.1331643665866277
-0.008567710232065789
0.1319174953153458
-0.006330282185918051
-0.007192922300189197
0.1319708195069858
0.146060186042206
-0.04224991221462282
0.1405277015921127
-0.002545652092552586
0.1377310773324594
-0.002823057362997455
-0.004683732511946037
0.1361482849427864
0.1524404865889994
-0.02558075803473872
0.1469770692720243
0.003424292352575409
0.1434261705709195
0.001426080967427551
-0.0004814140045249216
0.1401459062663871
0.115540592885202
0.119486986682605
0.121627575319846
0.1220712489957083
0.1327378471813241
-0.006401220090864246
0.1337900291869363
-0.005498765433628094
0.134815929906392
-0.004761733561514964
-0.004183458088257042
0.136658119329564
0.1352914572788507
-0.004524247196152631
0.1349457695462838
-0.003875376646634676
0.1348333204882358
-0.003438060763083617
-0.003633948983383789
0.1356431098593041
0.137720858399704
-0.00107925935135475
0.1361597685363975
-0.001117980689066156
0.1351039849000885
-0.00112057989199027
-0.001732565924470686
0.1347265470428427
0.1220093701321997
0.1220163160235783
0.1223024372727568
0.1220285580504638
0.1383925854347142
-0.003534983143678144
0.1429617225693659
-0.0764742108400206
0.1345445776154105
-0.1638307589267411
-0.04436868322421622
0.1022330605686294
0.1376364868378855
-0.004969600869747459
0.131672525351343
-0.07633130176742348
0.08618986816321708
-0.1228356141913597
-0.02691831845290527
0.06721141423393304
0.1355768768881606
-0.005646197805707381
0.1025471239017217
-0.04929197017039511
0.03035119505164342
-0.05397425318331711
-0.01961992728131562
0.02112034984125702
0.1164738054081359
0.06050470053850346
0.003758894977642285
-0.01816026904094846
0.1191703293497866
0.1390976273442589
0.123121636595993
0.1055807959690928
0.1278691230484397
0.06062455682706835
0.04126839065620491
0.1356884885909642
0.1059681783625171
0.09965664885837078
0.1216592470427964
0.08707311956658514
0.128130910651496
0.04747166243266765
0.03177439866769161
0.1368004682507123
0.07521054278161521
0.04524926149894481
0.1112467255180427
0.04925941546611712
0.1236564394212943
0.02910075318734118
0.02012171556679421
0.1346449521414336
0.02738572601520786
0.07509747307052263
0.09847256984609901
0.117818361392003
0.1381802638984116
0.01818511966006331
0.1408692625886941
0.001643578771411747
0.1442765242775069
-0.002806762808956642
-0.003936941913439185
0.1448141484422726
0.1395893048340064
0.01884019383803748
0.1417270842082344
0.00245593167331104
0.1446405792356292
-0.001446418866413279
-0.002271017793287977
0.1448531419419197
0.139816787394986
0.01627029109763389
0.1420661226963893
0.004749854489599969
0.1445239221748255
-6.949515909404624e-07
-0.00126296408848614
0.1449558578729389
0.1359527108124993
0.1433294801867804
0.1471696034215233
0.1467250454504496
0.1526243397606795
0.01658141866130247
0.1686180935723607
0.04753121685648298
0.1913557444726327
0.109443998312846
0.1911432679885673
0.2440317533866564
0.1509460796855894
0.009666418174286595
0.1651348159252828
0.03102977573785981
0.1894110193975378
0.08233033208945506
0.1309135931078212
0.2495727403496062
0.1493717837093472
0.004800246288830468
0.1601639022464867
0.01833676679175178
0.1884378490148771
0.05177923097323728
0.03972887681151693
0.2790823514507353
0.1506450821567274
0.1673140755707062
0.2170298066119503
0.2556770645618764
0.121277403952579
-0.6400803623083092
0.01164234628722837
-0.1498725681854194
-0.003399089365152531
-0.01958367699880333
-0.01479379899864243
-0.00551967578664686
0.08319169725915895
-0.4739232940172434
0.001477218976388985
-0.06866648467961187
-0.005799177438342743
-0.01113277360191267
-0.009732923781043359
-0.009227337744119589
0.04436477499337516
-0.2396117545122753
-0.002999586377666079
-0.02158971645644615
-0.008040044074158285
-0.004752804286126571
-0.004682742278362273
-0.01122870593376391
0.01570859140694927
-0.005820260602521518
-0.009135858603541982
-0.01207916158277529
-0.006139605216504827
-0.007711880808843913
-0.007069733116019506
-0.00458302027501736
-0.009038637985720212
-0.0004282349744765962
0.002889469089882718
-0.009203312134880187
-0.01016615531701287
-0.005382216669100057
-0.01035759146593037
-0.002772113826674347
-0.0102881192251177
0.001405737763745443
0.003016973873997408
-0.008394219618993847
-0.01219496143322238
-0.002870105067047834
-0.01159308308448873
-0.00159020215256761
-0.009522797539700503
0.001135398347614024
0.002608896688127749
-0.007002679650574292
-0.01340983977796979
-0.01315772171502011
-0.01018923005857502
-0.005667629791396196
-0.004061249455630231
-0.01626272925179723
0.01710648766722962
0.008362124748277647
0.04630663013382087
0.0446816804440804
0.1079730136452137
0.06928033741495365
-0.008194584152214836
-0.01252820419132698
0.00455597129940026
-0.0005044682710431403
0.03255991537250087
0.02058995715980054
0.07974395146468122
0.06296456519141773
-0.00825983031007899
-0.007831845159539788
-0.00387295874344401
-0.0007519806963895009
0.01775036653606643
0.003031856231618987
0.04599094447821141
0.05459045213060622
-0.01065300566334207
-0.007297513934704025
2.826805973430574e-05
0.0512959465928082
0.0610254025098901
-0.02809922775842027
0.0361876514641459
0.05409572697777471
-0.0264958767156566
0.03433936592630471
0.04729084865956112
-0.02674686792082473
0.03458094799555665
-0.02485313008573051
0.03869600060754056
0.03379301759208693
0.05686977737821835
-0.02249814452636683
0.05320632095680816
-0.02219252168822616
0.04859830396336857
-0.02118676351154715
-0.01686364888125888
0.04103942309534146
0.04608506609582359
-0.01557863134286619
0.03860151207260881
-0.01594493784544707
0.02952622378494753
-0.01302230415482165
-0.00677799360904199
0.01833428294112872
0.03486861203448326
0.01751504506248564
0.003281000075039557
-0.004605724636560789
-0.006744065220441124
0.001449837926854491
-0.006057559622644551
-0.001450829759750707
-0.003560015769512564
-0.00363971006148589
-0.005030345622166647
3.405609128037668e-14
0.01127517536477628
0.007761757615161468
0.005736877670643618
0.003404834523517499
0.002007651639480579
-0.0007451038839123361
-0.004067708151947902
9.654776977896518e-14
0.03475324253159815
0.01375682153475344
0.02503741133168131
0.01263024314248094
0.01324593879418764
0.01051290336393139
0.008619840604284591
1.619746003989064e-13
0.03322405859875786
0.02424619492357488
0.01284809860534811
1.494013246450265e-13
-0.005030345622180934
0.003560015769584819
-0.004067708151958921
-0.002007651639310458
0.008619840604289733
-0.01324593879389994
-0.01284809860504961
0.02092157879636674
-0.003639710061505191
0.00605755962271811
-0.0007451038839268453
-0.005736877670486563
0.01051290336396421
-0.02503741133146063
-0.02424619492334022
0.02127983315150948
-0.001450829759764845
0.006744065220516716
0.003404834523506168
-0.01127517536462516
0.01263024314253488
-0.0347532425314618
-0.03322405859861619
0.02093295692801433
0.001449837926855557
0.004605724636632523
0.007761757615158904
-0.01833428294099787
0.01375682153476519
-0.04103942309525129
-0.03869600060748508
0.01890040251261552
-0.04729084865953955
-0.02485313008571326
0.03379301759206232
-0.05409572697769578
-0.02674686792080332
0.03458094799548646
-0.06102540250976556
-0.02649587671560796
0.03433936592619335
-0.02809922775834756
-0.06928033741484546
0.03618765146402882
-0.04859830396327731
-0.01686364888126156
-0.05320632095672077
-0.02118676351155096
-0.05686977737813263
-0.02219252168823294
-0.02249814452634992
-0.06296456519135042
-0.02952622378483752
-0.006777993609036585
-0.03860151207253734
-0.01302230415483079
-0.04608506609577664
-0.01594493784546962
-0.01557863134288283
-0.05459045213057314
-0.003281000074972971
-0.01751504506245261
-0.03486861203449862
-0.05129594659288148
-2.826805988070946e-05
-0.04599094447823529
0.007297513934655574
-0.003031856231745497
0.01065300566330304
0.0007519806963389303
0.007831845159500722
0.005667629791389779
-0.01775036653616203
-0.07974395146465918
0.003872958743376509
-0.02058995716000249
0.008259830310020578
0.0005044682709374887
0.01252820419122772
0.00700267965056257
-0.03255991537257642
-0.1079730136451218
-0.004555971299466346
-0.04468168044444515
0.008194584152141401
-0.008362124748402242
0.01626272925160087
0.008394219618981631
-0.04630663013379879
-0.01710648766732302
0.004061249455517273
0.009203312134872264
0.009038637985736852
0.00288946909001505
0.00706973311610126
-0.0004282349743460548
0.006139605216568489
-0.004583020275069252
-0.007711880808945309
0.005519675786669993
0.01028811922514268
0.003016973874076435
0.01035759146598166
0.001405737763844953
0.01016615531705975
-0.002772113826701131
-0.005382216669169847
0.009227337744151019
0.009522797539724097
0.002608896688163921
0.01159308308451913
0.001135398347675468
0.01219496143325888
-0.001590202152593621
-0.002870105067089113
0.01122870593378146
0.01018923005859338
0.01315772171506632
0.01340983977801318
0.01207916158279812
0.003399089365210099
-0.01479379899863645
-0.0116423462867214
-0.0195836769986353
-0.1212774039517721
-0.1498725681849371
-0.6400803623098059
-0.2440317533873806
0.005799177438393053
-0.009732923781052788
-0.001477218976203756
-0.01113277360186258
-0.08319169725860137
-0.06866648467950767
-0.4739232940178543
-0.2495727403500863
0.008040044074184009
-0.004682742278368726
0.002999586377757228
-0.004752804286120467
-0.04436477499315648
-0.02158971645645513
-0.2396117545125357
-0.2790823514509698
0.00913585860357043
0.00582026060257255
-0.01570859140689761
-0.2556770645621554
-0.1913557444729523
0.1911432679894464
-0.1686180935726491
0.1094439983131542
-0.152624339760998
0.04753121685706518
0.0165814186614065
-0.144814148442248
-0.189411019397783
0.1309135931084138
-0.1651348159255631
0.08233033208967389
-0.1509460796857599
0.03102977573823029
0.009666418174083313
-0.144853141941875
-0.1884378490150851
0.03972887681188247
-0.1601639022467053
0.05177923097329223
-0.1493717837094004
0.01833676679192442
0.004800246288664711
-0.144955857872849
-0.2170298066121742
-0.167314075571049
-0.1506450821569015
-0.1467250454503687
-0.1442765242773079
-0.003936941914227332
-0.140869262588559
-0.002806762809859253
-0.1381802638983492
0.001643578770375576
0.01818511965914638
-0.135688488590825
-0.1446405792354319
-0.002271017793571084
-0.1417270842080905
-0.001446418866829391
-0.1395893048339163
0.002455931672308842
0.0188401938371795
-0.1368004682505514
-0.1445239221744917
-0.001262964088491025
-0.1420661226961833
-6.94951117652387e-07
-0.1398167873949752
0.00474985448897558
0.01627029109694011
-0.1346449521413936
-0.1471696034210914
-0.1433294801862715
-0.135952710812419
-0.1178183613924853
-0.1278691230488331
0.04126839065646026
-0.1231216365959063
0.06062455683069312
-0.119170329349662
0.1055807959683722
0.1390976273440299
-0.1022330605689614
-0.1281309106516621
0.03177439866795617
-0.1216592470425456
0.04747166243543788
-0.1059681783623332
0.08707311956579888
0.09965664885819658
-0.06721141423417103
-0.1236564394213875
0.02012171556720033
-0.1112467255176949
0.02910075318891747
-0.07521054278153348
0.04925941546554446
0.04524926149892528
-0.02112034984152886
-0.09847256984626265
-0.07509747306989419
-0.02738572601514153
0.01816026904075289
-0.1345445776156697
-0.04436868322471077
-0.1429617225694568
-0.1638307589264157
-0.1383925854348577
-0.07647421083944456
-0.003534983143604647
-0.1366581193297487
-0.0861898681636958
-0.02691831845318526
-0.1316725253515534
-0.1228356141912537
-0.137636486837976
-0.07633130176697073
-0.004969600869654589
-0.1356431098594031
-0.03035119505208554
-0.01961992728145029
-0.1025471239021429
-0.05397425318319055
-0.135576876888156
-0.04929197017025488
-0.005646197805601022
-0.1347265470428113
-0.003758894977942809
-0.06050470053864031
-0.1164738054080103
-0.1220285580502767
-0.1348159299064492
-0.004183458088230951
-0.1337900291867986
-0.004761733561607584
-0.1327378471813478
-0.005498765434239772
-0.006401220090586635
-0.1319708195068635
-0.1348333204882093
-0.003633948983377738
-0.1349457695461583
-0.003438060763154671
-0.135291457278708
-0.00387537664722426
-0.004524247195878767
-0.1361482849426355
-0.1351039849000627
-0.001732565924434354
-0.1361597685361951
-0.001120579892084611
-0.137720858399635