/*--------------------------------*- C++ -*----------------------------------*\
  =========                 |
  \\      /  F ield         | OpenFOAM: The Open Source CFD Toolbox
   \\    /   O peration     | Website:  https://openfoam.org
    \\  /    A nd           | Version:  11
     \\/     M anipulation  |
\*---------------------------------------------------------------------------*/
FoamFile
{
    format      ascii;
    class       surfaceScalarField;
    location    "0.35918";
    object      phi;
}
// * * * * * * * * * * * * * * * * * * * * * * * * * * * * * * * * * * * * * //

dimensions      [0 3 -1 0 0 0 0];

internalField   nonuniform List<scalar> 
1652
(
1.706212168242977
0.5337381654478413
-1.758593271006248e-13
1.172474003767215
0.5337381584335328
9.352518759442319e-13
0.6387445862772242
0.5335572247762477
7.056577544517495e-13
0.52916949485591
-8.932188322319234e-12
0.1057110545502564
1.706212168247669
1.067476330876225
1.172474005825262
1.067476302880088
0.6387502584900412
1.067105690329559
1.053469879386776
0.108500617366872
1.706212168244339
1.601214496297405
1.1724740136897
1.601214387027467
0.6388068629873633
1.600474219547024
1.575037632691796
0.1089062389334684
1.706212168319539
2.134952661525104
1.172474043717254
2.134952229157216
0.6388942424013107
2.133493822973284
2.097349729406989
0.1052265634778403
2.651191214818704
1.723711780178009
3.167429763793
1.723711779123963
3.683668090416571
1.72371185113426
1.723712858804841
4.199906973240694
2.651189462085003
1.207473399216343
3.167421593066245
1.207473285449215
3.683647061428716
1.207475966376962
1.207511793386353
4.199820745650563
2.649581932741828
0.6899958334212899
3.166041199917005
0.688841901965852
3.68270306131168
0.6872910634429474
0.6887251131319817
4.194527065307402
2.650869509017241
0.1168404921937082
3.273924570621896
0.04172609993733573
3.912943915264428
0.01812200544107639
4.554431338427624
0.01129189038723011
4.164891493766001
0.03501638768437887
4.129861172828948
0.03500478798872764
4.094845421106342
0.0348588202964194
0.03478331366415832
4.059708159795737
4.164989993552885
0.06971406891104998
4.130355916252111
0.0689368564171523
4.096343877181386
0.06750125578067812
0.06568072771098815
4.062545504427904
4.17476433373211
0.08242498060666936
4.160200554774454
0.07410862376106608
4.152933174789387
0.06156121673551535
0.05298809994967618
4.147962269089902
4.603039098363595
0.006229574976233443
4.647531280016993
0.005264616055823179
4.680670974819264
0.006631033975466161
4.712907325684465
0.007741252432745926
4.670360138975977
0.1044130456952177
-0.06872454440123213
4.585724530611223
0.1015284161841845
-0.0183815674049144
4.503695502127075
0.0966638654474275
-0.008941586993774231
0.08785580578133706
4.43158468762079
-0.006796851010505256
4.220081549637001
0.01360458713213486
4.275148720498123
0.02650919789181622
4.314326419163797
0.0372646699666247
0.04540525686596375
4.338130334621765
4.068842592881103
0.001072939349455959
4.081314873909569
0.002962894198786148
4.098846892306353
0.005654759502599971
0.009948739629382586
4.118422656259346
4.059561644681867
4.059934768859519
4.061254056692753
4.064431605309763
4.069793538162095
-0.01554253748478707
4.077674884672039
-0.02161885191009916
4.087613968698299
-0.02801391423257238
-0.032101585184792
4.096898157620283
4.138834477986137
-0.05369068861249182
4.158803217284986
-0.06002796522596998
4.176983216207562
-0.06321279579553524
-0.06155702188981099
4.190960112973505
4.347621559865661
-0.07864566656414707
4.345712389049856
-0.06822633210421081
4.333665420068375
-0.0540216162208369
-0.04808548394705831
4.319214301218892
4.365078988255369
-0.007519401378172058
4.316449606178203
-0.005961225759653216
4.273248268717467
-0.003538108506354748
4.244328040414863
-0.002872901507444348
0.04262859009647996
4.228710050368673
-0.01744873249008982
0.05774145197396363
4.308739295207353
0.03446749699058838
4.199819104895924
4.10177794895824
0.04040865040708397
4.249540108521122
-0.1456005845145432
0.04759599179326179
4.30163241824491
0.03367424252558038
4.206132759990875
4.102795275395696
0.07812259187332887
3.985271829622626
-0.140055009395131
0.0462502825936732
4.308899167104041
0.02809180749300288
4.211410285010746
4.097996383837995
0.1745935801114105
3.682537109662825
-0.04234850401142459
0.06564495296447104
4.316430583112401
0.02802613473810311
4.226406608617574
4.10045751708002
0.0703427491266998
3.979757056367584
0.1235916875734559
4.1323708976283
0.08032376009781572
4.217556565426512
3.561111334101578
0.1473682516071477
0.06629653927345436
3.876802651837556
0.08931284474529322
4.042715513310799
0.008610693869019137
4.094967107930672
3.434871401682001
0.1118007744913444
0.05283164089229997
3.78491631921414
0.01855350965597591
3.955625580286891
-0.070088920054166
3.934813028698419
3.333105509017103
0.05847193583880927
0.02155066832806063
3.705414311688906
-0.08836760068953742
3.861377236080538
-0.1185420546475593
3.745540741184148
3.23934991254435
0.02715602916468041
0.1401747415104001
3.155238482281148
0.002293628622309751
0.1879965104639078
3.584164036707439
0.03392844907227466
3.734426112385043
3.642119123369066
0.1485321219758224
3.077837883918233
-0.006620609101379515
0.2559431327386115
3.472643990186016
0.1027598151617529
3.58491543655016
3.592084056340208
0.1404840146752883
2.995531544637811
0.002460350785893795
0.2945813406210859
3.346282683214708
0.1908517530336208
3.450040752174634
3.557259896944511
0.1100175155988752
2.890828866338147
0.01568713075677131
0.2666497793423547
3.221499653802342
0.250963819772109
3.304371089634905
3.515341667780855
-0.2198690293508997
3.464290447236956
-0.187424921630853
3.230011167740157
-0.04684844338514516
3.107209142251284
2.789544641782985
0.04415807944867056
-0.1620756916605642
3.402311295907736
-0.127112762252558
3.139764614162484
0.001562480659021426
3.005010259521629
2.707257839578711
0.06647119540594848
-0.1025202372500432
3.328789767459647
-0.0527662755709053
3.057239916893914
0.06928631953204761
2.911659101679431
2.641280896727804
0.1219714835283887
-0.03599965550123752
3.224158015515319
0.03386301049214335
2.966988184846957
0.1557010742542314
2.819884074229366
2.56931051263385
0.2296476741114263
-0.3468541812383509
3.454646327036881
-0.5764973842118024
3.185721125222339
-0.7153255521454671
3.000082726343445
2.633132256522126
-0.7690677029450028
-0.3002453566851061
3.659471596914265
-0.5257791006273562
3.407196314539935
-0.6287033013093903
3.176690810315482
2.281313580479965
-0.2632278609635313
-0.2736857482571565
3.84445014676951
-0.4821430462579888
3.621335036729961
-0.514045059971901
3.33116109394879
1.802893649339753
-0.02967312390629744
-0.2403599497871016
4.010976418746788
-0.4394926234652053
3.827716848139755
-0.3629932077660194
3.439083539653163
1.418162582297416
-0.01228660699097381
0.1577760185720749
1.460184201646506
-0.01047378882852987
0.2075947639040937
3.53006558778533
0.1042192939171693
3.93810793166871
4.062799573254724
0.16564909508083
1.439868262285326
-0.007974423015024629
0.1877522534973079
3.625862839165884
0.09473332397269479
4.0508383820997
4.10786348361457
0.1503865378153081
1.343348281507176
-0.003392140583815796
0.1686380611894932
3.723402333843577
0.08926240019037146
4.160149918012908
4.149736545245784
0.1199089582187805
1.254235279528484
0.002206932616872933
0.1500554014523488
3.816715716483354
0.08904612190696676
4.257644284042185
4.196452713052924
-0.235996906814257
1.570344801923091
-0.01566891647583774
-0.1845609723364164
3.985495734754298
-0.04694594642558569
4.197893282832905
4.09764318391154
-0.2650104393859735
1.928165803052313
0.005993260755289095
-0.1780597983257008
4.069000392217231
-0.03208978574694976
4.113215639975879
4.060041860653932
-0.2623841952486418
2.245501447035648
0.03361227127035511
-0.1343962917209084
4.10217802713823
-0.02061545275784593
4.067421390811669
4.056533878992379
-0.2321152878457165
0.08788730797063814
2.498471103336655
-0.1113362685534636
4.099453567524389
-0.01647507537962567
4.039816336615046
4.056693717341732
0.337054685385605
-0.4387388916456949
-0.01287441174819584
5.60484991751764e-12
0.8929658930303397
-0.4129589504216202
-3.228528555609955e-13
1.633891645020204
-0.4647105594515946
7.496225862269057e-13
-0.5171105812050509
-1.27542421068938e-11
0.3341235801386517
-0.8920378707910104
-0.01277874050811352
0.9069080943447519
-0.8653557084816006
1.634812253932955
-0.9425275925383318
-1.035778002442298
0.3307515337296971
-1.351509222119007
-0.01559152226852915
0.9266875408328578
-1.343209163578643
1.63890679747606
-1.451602810435948
-1.556756937691462
0.3241111862611989
-0.01607779993457756
-1.703814296848337
0.9568550831657698
-1.851242142144315
1.647576236566987
-1.983871375037037
-2.082298047016097
-0.2321152878448196
-2.245501447036379
0.08788730797060949
2.498471103334408
-0.1113362685518601
-4.102178027142878
4.099453567523113
-0.01647507537528803
-4.067421390810248
4.039816336611926
-4.056533878993257
4.056693717337389
-0.2623841952478807
-1.928165803056445
0.03361227127062646
-0.1343962917221894
-4.06900039222531
-0.02061545276033105
-4.113215639978662
-4.060041860657845
-0.2650104393869616
-1.570344801928688
0.005993260755524116
-0.1780597983300144
-3.985495734761777
-0.03208978575156629
-4.197893282834332
-4.097643183914353
-0.2359969068148882
-1.254235279531485
-0.01566891647564906
-0.1845609723408614
-3.816715716493827
-0.04694594642958028
-4.25764428404134
-4.196452713043826
-0.1042192939122096
4.062799573271788
-4.010976418771791
-0.2075947638923341
3.938107931690595
-3.827716848169806
-0.1577760185655619
3.530065587762245
-3.439083539623363
1.460184201618212
-1.418162582275078
-0.01047378882876339
-0.09473332396672896
4.10786348361853
-0.1877522534835796
4.050838382115792
-0.1656490950757028
3.625862839153432
1.439868262275225
-0.007974423015156296
-0.0892624001846799
4.149736545240184
-0.1686380611725637
4.160149918020371
-0.1503865378100407
3.723402333840991
1.343348281503701
-0.003392140583628567
-0.08904612190020966
-0.1500554014359319
-0.1199089582138439
0.00220693261686743
0.3629932077697978
-1.802893649326617
-0.01228660699096312
0.4394926234804911
-3.331161093934925
0.2403599498020618
-3.621335036757501
-3.844450146789578
0.514045059975999
-2.281313580467836
-0.02967312390554644
0.4821430462728152
-3.176690810310884
0.2736857482683548
-3.407196314561224
-3.65947159692886
0.628703301316668
-2.633132256517625
-0.2632278609624247
0.5257791006420403
-3.000082726341504
0.3002453566953561
-3.18572112523492
-3.45464632704289
0.7153255521524345
-2.569310512633744
-0.7690677029468462
0.5764973842236516
-2.819884074230834
0.3468541812428307
-2.966988184852651
-3.22415801551477
-0.2198690293510867
3.46429044724841
-3.515341667796762
-0.1874249216235647
3.230011167755036
-3.304371089658075
-0.0468484433806724
3.107209142239815
-3.221499653785719
2.789544641772304
-2.890828866326284
0.04415807944845995
-0.1620756916540093
3.402311295914936
-0.1271127622442551
3.139764614171387
0.001562480663829469
3.005010259512718
2.707257839572477
0.0664711954074001
-0.1025202372476737
3.328789767462101
-0.05276627556269764
3.057239916900434
0.06928631953612124
2.911659101674372
2.641280896724445
0.1219714835288749
-0.03599965549729345
0.03386301050117213
0.1557010742577719
0.2296476741116413
0.1100175156016793
-2.995531544627998
0.01568713075710304
0.2666497793492013
-3.346282683204678
0.2509638197744658
-3.450040752188937
-3.557259896956362
0.1404840146782393
-3.077837883911841
0.002460350785848164
0.294581340629085
-3.472643990182273
0.1908517530374011
-3.58491543655863
-3.592084056347136
0.1485321219792732
-3.155238482275645
-0.006620609102269137
0.2559431327456491
-3.584164036709472
0.1027598151623976
-3.734426112387996
-3.642119123371453
0.1401747415123271
-3.239349912543552
0.002293628621629296
0.1879965104716891
-3.745540741190053
0.0339284490757259
-3.861377236081381
-3.705414311686506
0.07034274912804173
3.979757056368669
-4.10045751707788
0.1235916875742904
4.132370897629589
-4.226406608615634
0.08032376009830411
4.217556565429948
-4.316430583114534
3.561111334106282
-3.682537109665962
0.1473682516069555
0.06629653927537427
3.876802651839244
0.08931284474689294
4.042715513312987
0.008610693869896657
4.094967107933198
3.434871401681607
0.11180077449003
0.05283164089417947
3.784916319215599
0.01855350966046854
3.955625580291217
-0.07008892005364764
3.934813028706894
3.333105509018577
0.05847193583972354
0.0215506683311113
-0.08836760068721317
-0.1185420546459243
0.02715602916495263
-4.09799638383747
-0.02802613473728366
-4.102795275397208
-0.02809180749210249
-4.101777948959616
-0.03367424252389195
-0.03446749699083285
-4.096898157621089
-4.211410285011886
-0.06564495296694522
-4.206132759989459
-0.04625028259433595
-4.199819104889952
-0.04759599179354107
-0.05774145197370495
-4.190960112968615
-4.308899167106834
-0.1745935801105133
-4.301632418245393
-0.07812259187216458
-4.308739295206519
-0.04040865040773112
-0.04262859009633574
-4.319214301220075
-3.985271829628342
-0.04234850401155044
-4.249540108522003
-0.1400550093958935
-4.228710050367561
-0.1456005845127769
-4.244328040415619
-0.01744873248985238
-0.03210158518315842
-4.087613968698006
-0.06155702188916623
-4.176983216202426
-0.04808548394610856
-4.333665420072158
-4.273248268718454
-0.002872901506671771
-0.02801391423334476
-4.077674884671761
-0.06321279579442168
-4.158803217279575
-0.05402161621888096
-4.345712389056153
-4.316449606176253
-0.003538108505043158
-0.02161885190894586
-4.069793538163569
-0.06002796522547482
-4.138834477979654
-0.06822633210326307
-4.347621559873707
-4.36507898825412
-0.005961225759617772
-0.01554253748205536
-4.06443160531461
-0.05369068861324378
-4.11842265625182
-0.07864566656370942
-4.338130334629912
-4.431584687621792
-0.007519401377746426
-0.001072939351305702
4.059561644680243
-4.059708159791835
-0.01360458713496043
4.068842592864486
-4.062545504407675
-0.1044130456987565
4.220081549650998
-4.147962269105881
4.670360138985556
-4.712907325695523
-0.06872454440047623
-0.002962894204922573
4.059934768859224
-0.02650919789626449
4.081314873895306
-0.1015284161875677
4.275148720512542
4.5857245306186
-0.01838156740520797
-0.005654759503969431
4.061254056694901
-0.03726466997247962
4.098846892294713
-0.09666386545172023
4.314326419175339
4.503695502131444
-0.008941586994923451
-0.00994873963338605
-0.04540525687157854
-0.08785580578390578
-0.006796851010354654
-0.05298809995432358
-4.68067097482754
0.007741252432653944
-0.06568072772332234
-4.152933174796629
-0.03478331366942244
-4.096343877172823
-4.094845421105997
-0.06156121674097675
-4.647531280022281
0.006631033975283251
-0.06750125579367328
-4.160200554773268
-0.03485882029961429
-4.130355916256472
-4.129861172833885
-0.07410862376753685
-4.603039098360783
0.005264616055980942
-0.06893685642894437
-4.174764333723165
-0.03500478798925899
-4.164989993570263
-4.164891493769701
-0.08242498061122044
-4.554431338414228
0.006229574977108687
-0.06971406892361764
-4.194527065291505
-0.03501638768793658
-4.199820745678383
-4.199906973244503
-0.6887251131301695
-3.912943915234692
0.01129189038837569
-1.20751179337873
-3.682703061300544
-1.723712858810059
-3.68364706144389
-3.683668090416775
-0.6872910634408737
-3.273924570588941
0.01812200544259224
-1.207475966369543
-3.166041199912812
-1.723711851135575
-3.167421593079214
-3.167429763796732
-0.6888419019654672
-2.650869508988611
0.04172609993514231
-1.207473285445256
-2.649581932742117
-1.723711779124297
-2.651189462094242
-2.651191214824783
-0.6899958334213184
-2.097349729395042
0.1168404921858625
-1.207473399216127
-2.133493822977
-1.723711780188872
-2.134952229157106
-2.134952661529112
1.706212168246033
0.5337381654428788
1.172474003771814
0.5337381584387351
0.6387445862804347
0.5335572247805531
0.5291694948407788
0.1057110545539367
1.706212168248593
1.06747633087031
1.172474005825807
1.067476302879781
0.6387502584904425
1.06710569033252
1.053469879379771
0.1085006173693098
1.706212168246495
1.601214496294617
1.172474013689756
1.601214387027017
0.6388068629866462
1.6004742195508
1.575037632689839
0.1089062389325581
1.70621216831998
1.172474043714912
0.638894242398409
0.1052265634753445
0.1054761553479166
0.105476155352074
0.1054652023767554
0.1079720026257536
0.105922304947149
0.10782882699345
0.1026800643541578
0.1077867593794463
0.1079720026232143
0.1054652023810662
0.1076780871666191
0.1076780871690081
0.108168692356658
0.1066957865166908
0.09904026891415992
0.1111323261659163
0.1078288269943894
0.1059223049506052
0.1066957865173908
0.1081686923592088
0.1063681935304082
0.1063681935308053
0.09589842896252666
0.108924591769182
0.1026800643578707
0.1077867593812612
0.09904026891759496
0.1111323261680728
0.09589842896672642
0.1089245917688725
0.09567877568492357
0.09567877568993838
-0.03916506294308397
0.1340432095161009
-0.06253304664709447
0.1313134233113473
-0.08851668270621532
0.1359915908217608
0.1348761060235096
-0.005682774850653771
0.1388620058167717
-0.01617589780252954
0.1408675805344243
-0.02706060650677594
0.1458985425772988
0.1484342920301661
-0.0009905389945755738
0.1391869717215689
-0.007345311074119787
0.1464993705249788
-0.01313621645097979
0.1509061267190818
0.1525085665485567
-0.001218516038761219
0.1398047253339509
-0.006135054601248136
0.1507766535729358
-0.00921945325976431
0.1533090246265415
0.1538224946217838
0.1533040702288417
0.006169733051040849
0.1533732824537141
0.004948761252178302
0.152621090018041
0.007182870273829189
0.006669572975209259
0.1537755513892696
0.1535213866605613
0.00539153209859855
0.1538387934290625
0.004325650617754584
0.1539169805740515
0.006914156586603215
0.003199503989649577
0.157432568496086
0.1528820340302416
0.002725299516050106
0.1538637913325019
0.003033113989379999
0.1547057993651481
0.005884962922002857
-0.009752541321585373
0.1676849148428132
0.1419789603308601
0.1446523040780234
0.1502913077202365
0.1404653827463361
0.1403002340457421
-0.05510067601525817
0.1310944693564298
-0.008870164686044985
0.129670674373228
-0.006960911884213189
-0.006209532242362148
0.1296569783910295
0.1446505136754059
-0.04222943946233396
0.1388114886341983
-0.002739632065261788
0.1356428536601063
-0.003209342087606842
-0.003925285426708891
0.1339591337378876
0.151197177100392
-0.02569984542170289
0.1456031428591752
0.003130044917865005
0.1416388435360137
0.001326552284201171
8.841903330433776e-05
0.1382193685417026
0.1147568910074924
0.1181770738282729
0.1201054574177249
0.1208106123735881
0.1299218007022526
-0.006882907233211499
0.1308463789668895
-0.005824902876259613
0.1320163756698175
-0.003769282894990872
-0.003039215231852382
0.133123187298352
0.1327167425781497
-0.004748035711196336
0.1322466582510089
-0.004284760535841703
0.1322718198407516
-0.00283196971282848
-0.002529681318534593
0.13269705574965
0.1355145234373504
-0.001149248477586295
0.1336095461802761
-0.001296615163715015
0.1325504744355247
-0.0007888664632127174
-0.001116252643609927
0.1321965933344606
0.1205615283745075
0.120331638555916
0.120470130681961
0.120366187019825
0.1377898590236495
-0.02479021671243051
0.1349002708352008
-0.1504455916722425
0.1107856558073053
-0.1230262214452092
-0.01105352895003081
0.08052848700555422
0.1322107815117901
-0.02827861770644202
0.1023609985863446
-0.1269953234556999
0.05613016895426202
-0.0814975509722019
-0.002624715831572866
0.04681014213665959
0.1239541245299905
-0.02438637077306413
0.05396029136391163
-0.06299255442757828
0.002580604551679466
-0.03526250150683047
-0.006640522171767138
0.004859216516842957
0.09098822091743715
0.02208564957722962
-0.01731608741741712
-0.02687718232538597
0.1047491436051132
0.1254329393511652
0.1177034914734154
0.1030302175602705
0.1245960165860956
0.05756998337158525
0.02674938527930981
0.129848299182264
0.08614774075722968
0.08815556080610831
0.1121719645096773
0.08105144132189257
0.1233715327164709
0.05041556617552112
0.02495304958758837
0.1295994914601283
0.05319720859049465
0.04165420166931832
0.09765704430349473
0.04053108945589845
0.1175458482610427
0.03378835534761493
0.0201357794052649
0.1261495589947794
0.01606976515284922
0.06048501626892036
0.09670193309055634
0.1200197988734953
0.1350745672631385
0.00308210557321531
0.1400315107369626
-0.006423535287557791
0.1434905674150715
0.001370707319950148
0.01111820318661516
0.1477700770444842
0.1347832414715405
0.005062387498362964
0.1395764364827735
-0.00262683667474839
0.1424718787076793
0.001748617957655352
0.006790327189969747
0.1464993421186981
0.1320014911339459
0.006208696471872055
0.137710493926576
0.0001322981299688442
0.1417183835919328
0.001454850032373667
0.003116652754402205
0.145294075828853
0.1330954116500419
0.1388452559099726
0.1429922068054512
0.1462821925405792
0.158662706436802
0.03178616171781723
0.1726570545622714
0.05121438205029127
0.1922487605929264
0.1023228548875492
0.1805207328187322
0.2412407327834601
0.1566715845512191
0.0199339481657842
0.1704594060958659
0.03610608364063694
0.1914994854166955
0.08113754145987623
0.1229131908682788
0.2492096664767268
0.1538897432761135
0.009768967666532458
0.1672293717352695
0.02141713375265009
0.194262624138001
0.05345242491247804
0.03429257353935494
0.2830990579337979
0.15466467995183
0.174659776021464
0.2273678467028604
0.2615304651569568
0.1220028243951568
-0.6494842432927145
0.01214905765927531
-0.1526550364958651
-0.002599876354270964
-0.01385202466610259
-0.009770062391525215
-0.00386437637634017
0.08463997051419629
-0.4845197719839099
0.001806388589164231
-0.06912472812022312
-0.004316440699308701
-0.006802745761439449
-0.006319549085444059
-0.00675060841496773
0.04503317278041462
-0.2463288290691492
-0.002596722403748757
-0.02080446857969096
-0.005882746525575429
-0.002578841631860944
-0.003321484697723018
-0.008048019764463253
0.0151800863623382
-0.004926687950520627
-0.006661123518520167
-0.009084622872711563
-0.005368051624638196
-0.007900882800953227
-0.006843246495959603
-0.005042575306810305
-0.008520755956865453
-0.0008068812804629087
0.00354130655983154
-0.009128360762368011
-0.008194810131616633
-0.00561183781472481
-0.009147845723648705
-0.002759890744622691
-0.009655017387328935
0.0007113099903333781
0.003170021332087596
-0.008475437829269716
-0.00969133731613343
-0.002881817728439507
-0.009471045007260769
-0.00154371797506396
-0.008702862379906889
0.000931822136572634
0.002634862682173882
-0.007326710694874967
-0.01079452703475926
-0.0109513320991471
-0.009120129621807719
-0.005722622356192015
-0.008416584315766862
-0.01576362731639868
0.001956052990019056
-0.002834569651924551
0.02248892582323378
0.01464287204659317
0.0704952058158365
0.0424490461890224
-0.009502544821576701
-0.01395749773301062
-0.00704207098027675
-0.003671077930615746
0.008925810315066625
5.503727510659806e-05
0.04772657700793244
0.03389937276142441
-0.01176208000978978
-0.008572540133290348
-0.01144617633983694
-0.002549598168852613
-0.003592650303475518
-0.006443228465642978
0.0255875688264763
0.02034673303201898
-0.0130883172071514
-0.01387854341968918
-0.01900616462080824
0.009002570512735217
0.04130072899996742
-0.006363345492111143
0.01064326247953529
0.04000850167560202
-0.007451419524925083
0.01127221463534421
0.03678353214752676
-0.01237923682746094
0.01704669493246102
-0.0169755049891369
0.02819436987044677
0.02547251116605098
0.03267643756208258
-0.003790113808187529
0.03079490561961173
-0.004791570942708108
0.0274985235936714
-0.008739540256870119
-0.01083625210878718
0.02111363668137617
0.01851121313337174
-0.001714451479325856
0.01642328355514849
-0.002228095650521306
0.01258005112814302
-0.004443468885490149
-0.005018086896135636
0.006844275775642061
0.006551097996058013
0.004590199193539257
0.0002898606868776479
-0.004412821819634288
-0.00641520488042386
0.002585299160285597
-0.006059146197080853
0.0007786789536061885
-0.003635814002981394
-0.0008808657926806102
-0.001875563935920158
-6.222106163633612e-14
0.00350013061168241
0.006013187973088505
0.001029736869968018
0.003642653645633969
-3.982130683020252e-05
0.0009252899167357317
-0.000916230078467941
-2.665229148490766e-14
0.01670444290513448
0.01018469688093366
0.01133012015819731
0.008934251317697046
0.005684647860643412
0.00665972426787587
0.005076843548128072
1.740274591099933e-14
0.02175411964487121
0.01432074617366295
0.00770716555906617
5.656586310465173e-14
-0.001875563935922551
0.003635814002860942
-0.000916230078475265
3.982130676763451e-05
0.005076843548142796
-0.00568464786061041
-0.007707165558942242
0.01287441174817711
-0.0008808657926823067
0.006059146197031004
0.0009252899167327897
-0.001029736870013807
0.0066597242679283
-0.01133012015821908
-0.01432074617364291
0.01277874050821299
0.0007786789535888516
0.006415204880318548
0.003642653645633362
-0.003500130611698071
0.008934251317743561
-0.01670444290516977
-0.02175411964490987
0.01559152226862588
0.002585299160313487
0.004412821819646591
0.006013187973088835
-0.006844275775666646
0.01018469688094094
-0.02111363668139956
-0.02819436987052899
0.01607779993459094
-0.03678353214748952
-0.01697550498909615
0.02547251116607637
-0.04000850167561129
-0.01237923682750765
0.01704669493247739
-0.04130072899993682
-0.007451419524981261
0.01127221463539431
-0.006363345492186631
-0.04244904618904654
0.01064326247962458
-0.02749852359368934
-0.01083625210880372
-0.03079490561963079
-0.00873954025691015
-0.03267643756207014
-0.004791570942755598
-0.003790113808252657
-0.03389937276152512
-0.01258005112816753
-0.005018086896147068
-0.01642328355516665
-0.00444346888549893
-0.01851121313341089
-0.002228095650542584
-0.001714451479345507
-0.02034673303209745
-0.0002898606869055909
-0.004590199193576151
-0.00655109799614103
-0.009002570512832486
0.01900616462072764
-0.02558756882653128
0.01387854341965842
0.006443228465661935
0.01308831720714091
0.002549598168794534
0.008572540133211896
0.005722622356221035
0.003592650303375168
-0.04772657700798592
0.01144617633977734
-5.50372753031908e-05
0.01176208000972813
0.003671077930522328
0.01395749773296858
0.007326710694874856
-0.008925810315213806
-0.07049520581587071
0.007042070980175546
-0.01464287204684847
0.009502544821479393
0.00283456965183615
0.01576362731619502
0.008475437829252174
-0.02248892582336728
-0.001956052990150156
0.008416584315656775
0.009128360762352282
0.008520755956873821
0.003541306559831391
0.00684324649603661
-0.0008068812804163175
0.005368051624688833
-0.005042575306939181
-0.007900882800999272
0.003864376376296889
0.009655017387327689
0.003170021332080289
0.009147845723685467
0.0007113099903509543
0.008194810131628297
-0.002759890744715287
-0.005611837814774439
0.006750608414973451
0.008702862379913108
0.002634862682190556
0.009471045007281759
0.0009318221365948037
0.009691337316140814
-0.001543717975104913
-0.002881817728468046
0.008048019764462056
0.009120129621845661
0.01095133209919105
0.01079452703478374
0.009084622872712774
0.002599876354243991
-0.009770062391436832
-0.01214905765877635
-0.01385202466585612
-0.1220028243941791
-0.1526550364951864
-0.6494842432933265
-0.2412407327834824
0.004316440699351339
-0.006319549085368872
-0.001806388588985366
-0.006802745761336807
-0.08463997051355199
-0.06912472811996598
-0.4845197719839182
-0.2492096664763253
0.005882746525604403
-0.003321484697712828
0.002596722403826282
-0.00257884163181564
-0.04503317278012946
-0.02080446857965411
-0.2463288290691023
-0.2830990579334766
0.006661123518525765
0.004926687950551528
-0.01518008636226846
-0.2615304651569265
-0.1922487605928998
0.1805207328190358
-0.1726570545623257
0.1023228548878323
-0.1586627064367176
0.05121438205122197
0.03178616171807092
-0.1477700770446053
-0.1914994854166354
0.1229131908685073
-0.1704594060957442
0.08113754146055679
-0.1566715845511307
0.03610608364126777
0.01993394816581795
-0.1464993421187686
-0.1942626241377899
0.03429257353922438
-0.1672293717351073
0.05345242491252772
-0.153889743275995
0.02141713375309229
0.009768967666724637
-0.1452940758289208
-0.2273678467026083
-0.1746597760214136
-0.1546646799517162
-0.1462821925405892
-0.1434905674150777
0.01111820318668122
-0.1400315107367306
0.001370707319668263
-0.1350745672627214
-0.006423535287547133
0.003082105573164684
-0.1298482991821055
-0.1424718787077006
0.006790327189305168
-0.1395764364824374
0.001748617958432397
-0.1347832414712156
-0.002626836673937705
0.005062387498797283
-0.1295994914599531
-0.1417183835918468
0.003116652754791005
-0.1377104939261491
0.001454850032442168
-0.1320014911335576
0.0001322981297493531
0.006208696471516117
-0.1261495589947016
-0.1429922068054211
-0.1388452559098684
-0.1330954116498734
-0.1200197988732244
-0.1245960165861287
0.02674938527928294
-0.1177034914734857
0.05756998337115948
-0.1047491436052059
0.1030302175596249
0.1254329393515387
-0.08052848700579684
-0.1233715327166614
0.02495304958761901
-0.1121719645097061
0.05041556617449772
-0.08614774075745507
0.08105144132089881
0.08815556080655473
-0.04681014213685451
-0.117545848261095
0.02013577940533606
-0.09765704430350806
0.03378835534728208
-0.05319720859071937
0.04053108945574091
0.04165420166928102
-0.004859216517032389
-0.09670193309023137
-0.06048501626863168
-0.01606976515300954
0.02687718232545133
-0.1107856558077707
-0.01105352895002776
-0.1349002708356579
-0.1230262214458566
-0.1377898590238454
-0.1504455916711737
-0.02479021671209225
-0.1331231872986247
-0.05613016895461251
-0.00262471583170315
-0.1023609985869969
-0.0814975509726184
-0.132210781512057
-0.1269953234552489
-0.02827861770615653
-0.1326970557498543
-0.00258060455189503
-0.006640522171697583
-0.05396029136452088
-0.03526250150686827
-0.1239541245302652
-0.06299255442749274
-0.02438637077290398
-0.1321965933345994
0.0173160874173343
-0.0220856495774195
-0.09098822091756768
-0.120366187019789
-0.1320163756698972
-0.00303921523118203
-0.1308463789667038
-0.003769282894422771
-0.1299218007022581
-0.005824902876436749
-0.006882907233302621
-0.1296569783908681
-0.1322718198407816
-0.002529681318006405
-0.1322466582508534
-0.002831969712322913
-0.1327167425780499
-0.004284760536099053
-0.004748035711130694
-0.133959133737865
-0.1325504744354011
-0.001116252643378085