/*--------------------------------*- C++ -*----------------------------------*\
  =========                 |
  \\      /  F ield         | OpenFOAM: The Open Source CFD Toolbox
   \\    /   O peration     | Website:  https://openfoam.org
    \\  /    A nd           | Version:  11
     \\/     M anipulation  |
\*---------------------------------------------------------------------------*/
FoamFile
{
    format      ascii;
    class       volScalarField;
    location    "0.35918";
    object      rho;
}
// * * * * * * * * * * * * * * * * * * * * * * * * * * * * * * * * * * * * * //

dimensions      [0 0 0 0 0 0 0];

internalField   nonuniform List<scalar> 
880
(
0.2239950333699092
0.2239950336972081
0.2240219083976914
0.227737068697469
0.2239950333702082
0.223995034332034
0.2240283636674444
0.229489180354856
0.2239950333717012
0.2239950371267133
0.2240567049700492
0.2315857343928794
0.2239950333941023
0.2239950498874107
0.2241221966153929
0.2347078478103632
0.2239950332595152
0.2239950334135517
0.223995045927246
0.2239952242033373
0.2239951095986834
0.2239953267896376
0.2239968602801603
0.2239977462942926
0.2242816493913529
0.2244565183082433
0.2247510942106498
0.2250678816648475
0.240190098911859
0.2455317568359462
0.2500056064715103
0.2520170860572217
0.2239955038249123
0.2239988428770345
0.2240094079707533
0.2240395719458596
0.2240201591203431
0.2241022132285776
0.2242087490672931
0.2244458767465422
0.2264576788537815
0.2276516588357498
0.229172295449971
0.2311921644494221
0.2539909621420528
0.2568406113991434
0.2574484759022156
0.256033957669401
0.2436270931315301
0.2366719068410063
0.2331392705901717
0.2308260974462475
0.2347430544327871
0.2358586954651828
0.2365363491367393
0.2365711780836869
0.2252527881645542
0.2262078857946449
0.2272159528821024
0.2279415886081691
0.2241531185295451
0.2243776115391815
0.2247177675070137
0.2251944155044528
0.225748839370103
0.2263060882714741
0.226857452023046
0.2272731691770763
0.2284622935929296
0.2287668643040848
0.2289163448382241
0.2289550053875665
0.2358854192034036
0.2349348133638332
0.2336843611639774
0.2323891255928644
0.2284549793012499
0.2271016499735878
0.2263610379562174
0.2255277372766682
0.2257926375839861
0.2314870094052337
0.2288723879819502
0.2275302501536275
0.2365776598555895
0.2310972193247548
0.2286233967591862
0.2274929450660327
0.2953730771083049
0.2338463586190232
0.2283246423095975
0.2269956127126316
0.3573310203500677
0.2486612044941482
0.2292774710736565
0.2268094374846524
0.226749020034453
0.2306931741767596
0.2665839314681314
0.3845213368853411
0.2257516077930598
0.2332856657436774
0.2861985066387846
0.3841121774565266
0.2261747634119136
0.2391991678465446
0.3116535656086833
0.3876005266495302
0.2277720505222097
0.2496013519727904
0.3348658362889946
0.3832692786013727
0.3736821218280337
0.3470846961186453
0.2651256256118722
0.2312572598903418
0.3619016514657718
0.348441527546714
0.2820601021260687
0.2373608280331508
0.3493612073021697
0.3444444801487178
0.2965797696916729
0.2469644247225465
0.3360896443929836
0.3272486941950087
0.298775922648185
0.2586438937231424
0.2688254490400735
0.2915252330544427
0.3056314524878557
0.3202620588341287
0.2674513667116847
0.2769541991765214
0.282141533986713
0.2973590059559574
0.2634387761362981
0.2629414225153047
0.2588617206549922
0.2680333352524328
0.2581333129671747
0.2516054682374722
0.237658275561794
0.2330817281574357
0.2537191127591107
0.2402826084708768
0.216744705572481
0.1875818240497002
0.24655222343026
0.2298991108010635
0.1990099958402986
0.131109887177363
0.2410433627041016
0.225598703738782
0.1852570242813829
0.08691904615034196
0.2363103379640181
0.2232422749559742
0.1729084567581262
0.05198064338175062
0.05325086924678542
0.174196120843794
0.2213948129123066
0.2320682518809775
0.07255895931698815
0.1742582830372024
0.2201221543793305
0.2291957859189794
0.07400290753038015
0.1724062465585164
0.2183969669197789
0.2272632143095664
0.06823637460452411
0.169099894224456
0.2169830100898013
0.2262466794559288
0.08122150419340686
0.1750783912172668
0.2166120438131443
0.2244884505678808
0.09693754292561131
0.1821439241207272
0.2169375854721951
0.2234645766114895
0.1160861286416689
0.1914487281601888
0.2176643191536483
0.223419969081062
0.1390577721691384
0.1994298225668396
0.2188338416467707
0.2235316176624585
0.1554626942255654
0.1757934073172031
0.2098579107519383
0.2225146978741503
0.153297398390037
0.1786663965529356
0.2102912774722019
0.2224916210868568
0.1489279038081262
0.1829430440185606
0.2113319959823144
0.2224904739378068
0.1437219596196566
0.1876124948852218
0.2129213267281892
0.2226145557702029
0.1390577721691282
0.1994298225666887
0.2188338416467096
0.2235316176616794
0.1160861286416958
0.1914487281596029
0.2176643191533749
0.2234199690802049
0.09693754292563012
0.1821439241203149
0.2169375854715694
0.2234645766104626
0.08122150419353724
0.1750783912169151
0.2166120438129101
0.2244884505672242
0.2320682518813425
0.2213948129123575
0.1741961208437334
0.0532508692459863
0.2291957859189571
0.2201221543792375
0.1742582830369506
0.07255895931638241
0.2272632143096193
0.2183969669198802
0.1724062465575811
0.07400290753016056
0.2262466794558233
0.2169830100902029
0.1690998942242745
0.06823637460451921
0.05198064338157414
0.1729084567578139
0.2232422749557624
0.2363103379642081
0.08691904615000469
0.1852570242814159
0.2255987037389988
0.2410433627042119
0.1311098871771293
0.1990099958406651
0.229899110801208
0.2465522234307876
0.1875818240497343
0.2167447055722053
0.2402826084704384
0.2537191127595432
0.2688254490406289
0.2915252330557345
0.3056314524886405
0.3202620588338643
0.267451366711624
0.2769541991764673
0.2821415339870753
0.2973590059560091
0.2634387761354188
0.2629414225151702
0.2588617206549736
0.268033335252416
0.2581333129670564
0.2516054682372655
0.2376582755616769
0.233081728157564
0.336089644392859
0.3272486941952396
0.2987759226489637
0.2586438937248989
0.3493612073019468
0.3444444801489025
0.2965797696918895
0.2469644247228019
0.3619016514656099
0.348441527546621
0.2820601021259204
0.2373608280336534
0.3736821218274163
0.3470846961190483
0.2651256256125721
0.2312572598905862
0.22674902003443
0.2306931741767264
0.2665839314678901
0.3845213368848628
0.2257516077941333
0.2332856657441444
0.2861985066387255
0.3841121774558441
0.2261747634135105
0.2391991678478806
0.3116535656088445
0.3876005266493096
0.2277720505225837
0.249601351972551
0.3348658362890369
0.3832692786009355
0.2268094374846403
0.226995612712513
0.227492945066677
0.227530250153729
0.2292774710727289
0.2283246423092123
0.2286233967591351
0.2288723879817446
0.2486612044932144
0.2338463586190341
0.2310972193240921
0.2314870094049122
0.3573310203492603
0.2953730771075875
0.2365776598556724
0.225792637584061
0.2272731691774755
0.2289550053877758
0.2323891255932981
0.2255277372770359
0.2268574520225272
0.2289163448385368
0.2336843611644209
0.2263610379563417
0.2263060882714024
0.228766864304033
0.2349348133636954
0.2271016499727639
0.2257488393695204
0.2284622935924392
0.2358854192040248
0.2284549793013947
0.2241531185293084
0.2252527881638308
0.2347430544333986
0.2436270931320024
0.2243776115386178
0.226207885793877
0.2358586954657768
0.2366719068409465
0.2247177675075006
0.2272159528814384
0.2365363491366734
0.2331392705892682
0.225194415503985
0.2279415886077404
0.236571178084417
0.2308260974455636
0.2560339576691987
0.231192164449617
0.2244458767461387
0.2240395719466017
0.2574484759020332
0.2291722954501809
0.2242087490668797
0.2240094079707052
0.2568406113992933
0.2276516588355741
0.2241022132271546
0.2239988428765317
0.2539909621419527
0.2264576788532995
0.2240201591198191
0.2239955038257284
0.252017086056855
0.2250678816649802
0.2239977462944039
0.22399522420419
0.2500056064705573
0.2247510942105363
0.2239968602795841
0.2239950459277676
0.2455317568350402
0.2244565183080702
0.2239953267892034
0.2239950334133733
0.2401900989110591
0.2242816493911797
0.2239951095986993
0.2239950332612175
0.2239950333699093
0.2239950336973915
0.2240219083977768
0.2277370686972627
0.2239950333704065
0.2239950343315234
0.2240283636674108
0.2294891803549777
0.2239950333721685
0.2239950371264039
0.2240567049701414
0.2315857343934571
0.2239950333946451
0.2239950498871482
0.2241221966153995
0.2347078478105294
0.2309839830709494
0.2340792358752681
0.2390588489830461
0.2488938080355199
0.2340792358758232
0.2381141783231629
0.2455708603388785
0.2600293823522049
0.2390588489832829
0.2455708603389412
0.2575843211947359
0.274856933499052
0.2488938080356979
0.2600293823519051
0.2748569334994804
0.2928085424202559
0.3104131548998969
0.2953184810073267
0.2891084408428471
0.2745317175995766
0.3072093324716131
0.302859206872333
0.303401979864569
0.2963648504373339
0.307341992448589
0.3059025185741501
0.3051186877256925
0.3025753122100215
0.3028549546757489
0.3020882660381807
0.3018022744928234
0.3000888458317575
0.2950214224112889
0.2917390224663584
0.2853872291400104
0.2766613048252661
0.2958549116599628
0.292400857230003
0.2858375492485105
0.2774976401308545
0.296674383518253
0.2929344273874314
0.2859242826204457
0.2782980264658594
0.2970729098147881
0.292798933094222
0.2861994300589812
0.2758407282231362
0.2263167174029863
0.204268400839231
0.2017469505281193
0.202627500044176
0.2115214435544519
0.1977479645947265
0.1990303573415329
0.200639771272303
0.1993453590075575
0.1972939578973637
0.2000171048835289
0.2014882329228321
0.1809417217548732
0.1925866869903348
0.1978604616350355
0.1999129670799416
0.2023293523362932
0.2029428042134973
0.2046299219206012
0.206672800936512
0.2009385655836861
0.2018216454423283
0.2037679714654136
0.2063212089908734
0.2016305988810952
0.2022755720772071
0.2039896988238248
0.2060282598236008
0.2003375082218578
0.201183428681095
0.2033077358252397
0.2060970745503564
0.2180777827182452
0.2811898476098219
0.3614125024523374
0.3822112470277305
0.2229147771156362
0.2927044160912973
0.3544136705838358
0.3674427307226515
0.2263248808805776
0.2975336867941585
0.3517561941722653
0.364299827615698
0.2283492420774089
0.3061026573752614
0.3524014177844171
0.3640185365475568
0.4399073136570293
0.4300841546781497
0.4215813976469767
0.4061059275702525
0.4369434715356905
0.4303857409389156
0.4218250865687005
0.4065153639317001
0.4312736348253656
0.4288513845781741
0.4202997062446885
0.4055196206296006
0.4224013371675481
0.4303566356769041
0.4216574855734784
0.4068483642123331
0.3875284145954773
0.371332032240516
0.3555514833042313
0.3469253052210489
0.3888005621461728
0.3720112501754726
0.3555475711256864
0.3465940757553939
0.3881888203466989
0.3704291689659561
0.3547591054619678
0.3453434974053033
0.3907002428419523
0.3717471351120796
0.3564727007068487
0.3464659831327217
0.3381576954553581
0.3240608510543487
0.300314076181002
0.2623600973478128
0.3387568658776225
0.3267167222874113
0.3038965249831427
0.2701434747367842
0.3380857571436008
0.3272055793500099
0.3035320741217901
0.2700306875525335
0.3396779303639066
0.3304996988569802
0.3044617095199555
0.3119507080575564
0.1731402795819909
0.05034610720692063
0.008915407486237002
0.00421685920005662
0.136566938373635
0.03448705420854108
0.0102772583181523
0.008107815636768939
0.1037550690053615
0.02499720861693887
0.01090358574948562
0.009789896531028243
0.07437603374571644
0.0151675687884953
0.01061072905801596
0.01059901057996416
0.007187062188844197
0.01440396070385968
0.02017096183962929
0.02857404166351271
0.01250335079292218
0.01873368512388246
0.02472307526630691
0.03401310938116824
0.01536288674047558
0.02184226052923444
0.02993589357029962
0.03977974774717721
0.01758532859877757
0.02470265420848212
0.03514219120910107
0.04479052522538315
0.03598090390314559
0.05196223019899319
0.07156852325513306
0.09543354446187452
0.03897136453888188
0.0528152538204595
0.07024894231304843
0.09112755783203189
0.04275880793199525
0.05288243260332865
0.06806359983359996
0.08778774089226575
0.04172151554342378
0.04959357376130041
0.05996222450786075
0.08266062117412928
0.09973784149417679
0.0987976202069643
0.09919445824703954
0.1010373975715719
0.09009689632641572
0.09156408880078412
0.09366175956726774
0.09517565799325309
0.0861051941068349
0.0901061362063249
0.09206718788132204
0.09461528949232374
0.08127007811227605
0.08658656707901251
0.08919969924475304
0.09399805314689709
0.09892020383460458
0.1032503640327906
0.1060357372125556
0.1070048135415416
0.09791421247787693
0.1011903224477698
0.1034708060085878
0.1045993196929549
0.09812350763959601
0.1013566003181578
0.1046588061021941
0.1063101661293128
0.1051181632964048
0.1089017424600059
0.1123058623848168
0.1130957560804283
0.1070048135415568
0.1045993196929519
0.1063101661293354
0.1130957560804177
0.1060357372126277
0.1034708060086265
0.1046588061022331
0.1123058623848028
0.103250364032834
0.1011903224478449
0.1013566003182433
0.1089017424600565
0.09892020383476882
0.09791421247793956
0.09812350763968519
0.1051181632965046
0.1010373975717535
0.09919445824711585
0.09879762020707253
0.09973784149420716
0.09517565799333941
0.09366175956738919
0.09156408880092506
0.09009689632648701
0.09461528949242205
0.09206718788146506
0.09010613620646098
0.08610519410698318
0.09399805314699319
0.08919969924484999
0.08658656707912259
0.0812700781124219
0.08266062117435723
0.05996222450815784
0.04959357376157272
0.04172151554366529
0.08778774089245937
0.06806359983382655
0.05288243260360218
0.04275880793226658
0.09112755783221396
0.07024894231330595
0.0528152538207344
0.03897136453913042
0.09543354446202051
0.07156852325540974
0.05196223019923114
0.0359809039034617
0.02857404166367063
0.02017096183971917
0.0144039607037812
0.007187062188779352
0.03401310938133165
0.02472307526642379
0.0187336851238697
0.01250335079292133
0.03977974774735292
0.02993589357044707
0.02184226052924512
0.01536288674046484
0.04479052522554363
0.03514219120925467
0.02470265420852711
0.01758532859876099
0.004216859199963324
0.008915407486071673
0.05034610720658683
0.173140279581971
0.008107815636752809
0.01027725831809832
0.03448705420840422
0.1365669383733991
0.009789896531022016
0.0109035857494394
0.0249972086168628
0.1037550690052607
0.01059901057993358
0.01061072905796941
0.01516756878846357
0.07437603374558477
0.262360097347685
0.3003140761805875
0.3240608510537983
0.33815769545492
0.2701434747365096
0.3038965249829065
0.3267167222870168
0.3387568658772189
0.2700306875522025
0.303532074121463
0.3272055793497972
0.3380857571433415
0.3119507080572722
0.3044617095196959
0.3304996988569215
0.3396779303636241
0.3469253052206662
0.355551483303476
0.3713320322397056
0.3875284145944365
0.3465940757549528
0.3555475711252075
0.3720112501739804
0.388800562145076
0.3453434974052573
0.3547591054612896
0.3704291689645389
0.3881888203456649
0.346465983132429
0.3564727007063218
0.3717471351113434
0.3907002428412226
0.4061059275695322
0.4215813976462683
0.4300841546778189
0.439907313657179
0.4065153639312159
0.4218250865684658
0.4303857409383779
0.43694347153581
0.405519620629362
0.4202997062444597
0.4288513845777949
0.4312736348254291
0.406848364212155
0.4216574855733997
0.4303566356763465
0.4224013371678271
0.3822112470277394
0.3614125024519139
0.2811898476099951
0.2180777827188322
0.367442730722542
0.3544136705836123
0.2927044160914401
0.2229147771162102
0.3642998276156392
0.3517561941721305
0.2975336867942371
0.2263248808811755
0.364018536547294
0.3524014177842904
0.3061026573753393
0.2283492420780314
0.2066728009368659
0.2046299219200613
0.202942804212333
0.2023293523356192
0.2063212089913263
0.2037679714650149
0.2018216454412273
0.2009385655832241
0.2060282598241222
0.2039896988233125
0.2022755720761729
0.2016305988806843
0.2060970745508688
0.2033077358247429
0.2011834286800307
0.2003375082213487
0.2026275000432331
0.2017469505273941
0.2042684008394396
0.2263167174031989
0.2006397712713875
0.1990303573406852
0.1977479645951445
0.2115214435545712
0.2014882329219321
0.2000171048826973
0.1972939578979128
0.1993453590076114
0.1999129670790305
0.1978604616340363
0.1925866869908798
0.1809417217550272
0.2766613048251933
0.2853872291399001
0.2917390224668054
0.2950214224110432
0.2774976401306792
0.2858375492487711
0.2924008572304101
0.2958549116596959
0.2782980264657819
0.285924282620536
0.2929344273875834
0.2966743835179612
0.2758407282229635
0.2861994300592604
0.2927989330946367
0.2970729098145178
0.3000888458307047
0.3025753122084415
0.2963648504354403
0.2745317175993894
0.3018022744914528
0.3051186877239147
0.3034019798620138
0.2891084408421428
0.3020882660371986
0.3059025185724658
0.3028592068699072
0.295318481005663
0.3028549546744914
0.3073419924471777
0.3072093324688287
0.3104131548965969
0.1499351991014354
0.2006642699304763
0.2185699311803799
0.2235525026804363
0.1465858625682169
0.1988741258425388
0.2174217884899901
0.2233529524684143
0.1435423819186632
0.1964129627274752
0.2163041785288518
0.2231157072364748
0.1411779572640814
0.1921378059981305
0.2146330322576921
0.2228467467496236
0.2225146978740537
0.2098579107518783
0.1757934073172618
0.1554626942256386
0.2224916210866609
0.2102912774721957
0.1786663965530808
0.1532973983900153
0.2224904739377406
0.2113319959823453
0.1829430440186129
0.1489279038081858
0.222614555770132
0.2129213267280146
0.1876124948852225
0.143721959619732
0.2228467467493238
0.2231157072361447
0.2233529524681609
0.2235525026796795
0.2146330322571881
0.2163041785286166
0.2174217884894955
0.218569931180194
0.1921378059980993
0.1964129627274166
0.1988741258426985
0.2006642699306897
0.1411779572640735
0.1435423819185863
0.1465858625681987
0.1499351991014493
)
;

boundaryField
{
    back
    {
        type            empty;
    }
    inlet
    {
        type            calculated;
        value           nonuniform List<scalar> 
16
(
0.2239950333699092
0.2239950333702082
0.2239950333717012
0.2239950333941023
0.2239950332595152
0.2239950334135517
0.223995045927246
0.2239952242033372
0.22399522420419
0.2239950459277676
0.2239950334133732
0.2239950332612175
0.2239950333699093
0.2239950333704065
0.2239950333721685
0.2239950333946451
)
;
    }
    front
    {
        type            empty;
    }
    top
    {
        type            calculated;
        value           nonuniform List<scalar> 
40
(
0.2239955038249122
0.2239988428770345
0.2240094079707533
0.2240395719458596
0.2241531185295452
0.2243776115391815
0.2247177675070137
0.2251944155044528
0.2257488393701029
0.2263060882714741
0.226857452023046
0.2272731691770763
0.2275302501536275
0.2274929450660328
0.2269956127126316
0.2268094374846524
0.226749020034453
0.2257516077930598
0.2261747634119136
0.2277720505222097
0.2312572598903418
0.2373608280331508
0.2469644247225465
0.2586438937231424
0.2688254490400735
0.2674513667116847
0.2634387761362981
0.2581333129671747
0.2537191127591107
0.24655222343026
0.2410433627041016
0.2363103379640181
0.2320682518809776
0.2291957859189794
0.2272632143095664
0.2262466794559288
0.2244884505678808
0.2234645766114895
0.223419969081062
0.2235316176624585
)
;
    }
    outlet
    {
        type            calculated;
        value           uniform 0.2239950333699093;
    }
    bottom
    {
        type            calculated;
        value           nonuniform List<scalar> 
40
(
0.2235316176616794
0.2234199690802048
0.2234645766104626
0.2244884505672242
0.2320682518813425
0.2291957859189571
0.2272632143096193
0.2262466794558233
0.2363103379642081
0.2410433627042119
0.2465522234307876
0.2537191127595432
0.2688254490406289
0.267451366711624
0.2634387761354188
0.2581333129670564
0.2586438937248989
0.2469644247228019
0.2373608280336534
0.2312572598905862
0.22674902003443
0.2257516077941333
0.2261747634135105
0.2277720505225837
0.2268094374846403
0.226995612712513
0.227492945066677
0.227530250153729
0.2272731691774755
0.2268574520225272
0.2263060882714024
0.2257488393695204
0.2241531185293084
0.2243776115386178
0.2247177675075006
0.225194415503985
0.2240395719466017
0.2240094079707052
0.2239988428765317
0.2239955038257284
)
;
    }
    wall
    {
        type            calculated;
        value           nonuniform List<scalar> 
104
(
0.3104131548998969
0.3072093324716131
0.307341992448589
0.3028549546757489
0.2970729098147881
0.292798933094222
0.2861994300589812
0.2758407282231362
0.1809417217548732
0.1925866869903348
0.1978604616350355
0.1999129670799416
0.2003375082218578
0.201183428681095
0.2033077358252398
0.2060970745503564
0.2283492420774089
0.3061026573752614
0.3524014177844171
0.3640185365475568
0.4224013371675481
0.4303566356769041
0.4216574855734784
0.4068483642123331
0.3907002428419523
0.3717471351120796
0.3564727007068487
0.3464659831327217
0.3396779303639066
0.3304996988569802
0.3044617095199555
0.3119507080575564
0.07437603374571644
0.0151675687884953
0.01061072905801596
0.01059901057996416
0.01758532859877757
0.02470265420848212
0.03514219120910107
0.04479052522538315
0.04172151554342378
0.04959357376130041
0.05996222450786074
0.08266062117412928
0.08127007811227605
0.08658656707901251
0.08919969924475304
0.0939980531468971
0.09892020383460458
0.1032503640327906
0.1060357372125556
0.1070048135415416
0.1070048135415568
0.1060357372126277
0.103250364032834
0.09892020383476881
0.09399805314699319
0.08919969924484999
0.08658656707912259
0.0812700781124219
0.08266062117435723
0.05996222450815783
0.04959357376157272
0.04172151554366529
0.04479052522554363
0.03514219120925467
0.02470265420852711
0.01758532859876099
0.01059901057993358
0.01061072905796941
0.01516756878846357
0.07437603374558477
0.3119507080572722
0.3044617095196959
0.3304996988569214
0.3396779303636241
0.346465983132429
0.3564727007063218
0.3717471351113434
0.3907002428412226
0.406848364212155
0.4216574855733997
0.4303566356763465
0.4224013371678271
0.364018536547294
0.3524014177842904
0.3061026573753393
0.2283492420780314
0.2060970745508689
0.2033077358247429
0.2011834286800307
0.2003375082213487
0.1999129670790305
0.1978604616340363
0.1925866869908798
0.1809417217550272
0.2758407282229635
0.2861994300592604
0.2927989330946367
0.2970729098145178
0.3028549546744914
0.3073419924471777
0.3072093324688287
0.3104131548965969
)
;
    }
}


// ************************************************************************* //
