/*--------------------------------*- C++ -*----------------------------------*\
  =========                 |
  \\      /  F ield         | OpenFOAM: The Open Source CFD Toolbox
   \\    /   O peration     | Website:  https://openfoam.org
    \\  /    A nd           | Version:  11
     \\/     M anipulation  |
\*---------------------------------------------------------------------------*/
FoamFile
{
    format      ascii;
    class       surfaceScalarField;
    location    "10.9";
    object      phi;
}
// * * * * * * * * * * * * * * * * * * * * * * * * * * * * * * * * * * * * * //

dimensions      [0 3 -1 0 0 0 0];

internalField   nonuniform List<scalar> 
8667
(
1.5884058
0.18936997
2.0605579e-06
1.3984365
0.18996695
2.2930347e-06
1.207047
0.19138617
3.3021533e-06
1.0165778
0.19046809
1.1325867e-06
0.82462163
0.19195577
4.164634e-07
0.63532217
0.1893031
-3.6465874e-06
0.44430373
0.19102547
-7.0228031e-06
0.26013387
0.18418134
-1.1488381e-05
0.18126729
-2.373108e-05
0.078890317
1.5885547
0.37859314
1.398161
0.38036064
1.20698
0.38256715
1.0158236
0.38162451
0.82443176
0.38334757
0.63386621
0.37986866
0.44391101
0.38098067
0.2602015
0.36789085
0.36399472
0.077474067
1.5885063
0.56786459
1.3981316
0.57073536
1.2068552
0.57384357
1.0154771
0.57300262
0.82351418
0.57531049
0.63322189
0.57016095
0.44284732
0.57135524
0.2588389
0.55189927
0.54745534
0.075378279
1.588417
0.75722544
1.3983784
0.76077395
1.2067476
0.76547428
1.0154592
0.76429109
0.82296969
0.76779996
0.63211818
0.76101246
0.44135572
0.7621177
0.25699449
0.7362605
0.73092945
0.073520377
1.5884483
0.94655476
1.3984897
0.95073252
1.2070442
0.95691982
1.0154508
0.95588446
0.8228567
0.96039407
0.63135445
0.95251471
0.44032669
0.95314546
0.25530394
0.92128325
0.91415812
0.072075279
1.5885139
1.1358186
1.3987284
1.140518
1.2074128
1.1482355
1.0156434
1.1476538
0.82284538
1.1531921
0.63042122
1.1449389
0.43864096
1.1449257
0.25308172
1.1068425
1.0972007
0.070039128
1.5885804
1.3250161
1.3990021
1.3300963
1.2079059
1.3393317
1.0159071
1.3396526
0.82289974
1.3461995
0.63020629
1.3376323
0.43774532
1.3373867
0.25084871
1.2937391
1.2804292
0.067620221
1.5887841
1.5140098
1.3992152
1.5196652
1.208485
1.5300618
1.01651
1.5316276
0.82295453
1.539755
0.62944101
1.5311458
0.43613761
1.5306901
0.24842966
1.481447
1.4633761
0.065482729
1.5890144
1.7027732
1.3996353
1.7090443
1.2089253
1.7207718
1.0171272
1.7234257
0.82350264
1.7333795
0.62967761
1.7249709
0.4352702
1.7250975
0.24570036
1.6710169
1.6475645
0.061511991
1.8851822
1.5953688
2.0673565
1.5956034
2.2492094
1.5959255
2.4308869
1.5961004
2.6122494
1.5964136
2.7933263
1.5967011
2.9742359
1.5968684
3.1545204
1.5974935
1.597328
3.3349704
1.89214
1.4122731
2.0749742
1.4127693
2.2576542
1.4132455
2.4399437
1.4138109
2.6221135
1.4142438
2.8037017
1.4151129
2.9851001
1.41547
3.1660233
1.4165703
1.4164755
3.3468757
1.9057853
1.2272596
2.0905111
1.2280435
2.2749336
1.228823
2.458755
1.2299896
2.6423139
1.2306848
2.825317
1.2321098
3.0081024
1.2326847
3.1905279
1.2341448
1.2345228
3.3724806
1.9100933
1.040592
2.0964913
1.0416455
2.2831135
1.0422008
2.4694581
1.0436451
2.6558076
1.0443352
2.8418934
1.046024
3.0278177
1.0467604
3.2134644
1.0484981
1.04924
3.3987472
1.9224698
0.85150169
2.1117644
0.85235084
2.3013381
0.85262715
2.4911668
0.85381642
2.6809863
0.85451567
2.8710537
0.85595664
3.0607258
0.8570882
3.2505178
0.8587061
0.86019865
3.4395592
1.9150571
0.66141544
2.1063837
0.66102426
2.2983316
0.66067927
2.4915007
0.66064731
2.6848729
0.66114349
2.8793499
0.66147965
3.0737185
0.66271954
3.2691118
0.66331286
0.66482854
3.4644819
1.9160239
0.47048907
2.1095792
0.46746899
2.3040157
0.46624272
2.5015971
0.46306594
2.6998863
0.46285429
2.9004516
0.4609143
3.1012182
0.46195296
3.3036641
0.460867
0.46275057
3.505742
1.8593216
0.28218438
2.0542344
0.2725562
2.2528952
0.26758188
2.456343
0.25961818
2.661481
0.25771629
2.8697992
0.25259608
3.0788604
0.25289173
3.2901984
0.24952905
0.25147699
3.5014719
1.8384303
0.091318588
2.0489578
0.062028672
2.2730557
0.043484019
2.5037288
0.028945081
2.7364484
0.024996665
2.9698522
0.019192247
3.2046109
0.018133086
3.4386134
0.015526585
3.6738708
0.016219502
3.3240811
0.010889359
3.3137733
0.010307815
3.3036014
0.010171851
3.2942172
0.0093842176
3.2849219
0.0092953117
3.2765573
0.0083645299
3.2682074
0.0083499204
3.2609185
0.0072889652
0.0073238342
3.2535946
3.3385911
0.019174033
3.3310364
0.017862493
3.3236217
0.017586558
3.3169347
0.016071175
3.3103569
0.015873182
3.3046105
0.014110931
3.2989542
0.014006152
3.294268
0.011975176
0.012018249
3.2895736
3.3654027
0.026251963
3.3588137
0.024451451
3.3525188
0.023881514
3.3466134
0.021976563
3.3410576
0.021428991
3.3359218
0.019246664
3.331196
0.018731936
3.3269657
0.016205503
0.015796691
3.3231873
3.3935556
0.031443583
3.3888307
0.029176282
3.3844398
0.02827249
3.3803528
0.026063539
3.3765846
0.025197225
3.3731343
0.022696964
3.369997
0.021869185
3.3671778
0.019024688
0.018327711
3.3646468
3.4345694
0.03643335
3.4299473
0.033798367
3.4255919
0.032627916
3.4215471
0.030108383
3.4177407
0.02900362
3.414248
0.026189616
3.4109669
0.025150286
3.4079654
0.022026189
0.021157753
3.4051354
3.4618468
0.039068386
3.4595509
0.036094311
3.4575996
0.034579199
3.4557451
0.031962923
3.4541531
0.030595629
3.4524055
0.027937201
3.4508574
0.026698397
3.4488431
0.024040475
0.023035094
3.4469657
3.5041554
0.040655044
3.5023506
0.037899062
3.5009709
0.035958933
3.4991818
0.033752021
3.4976171
0.032160357
3.4952772
0.0302771
3.4928782
0.02909732
3.4892793
0.027639373
0.026802719
3.4855117
3.5108577
0.031269294
3.5193552
0.029401563
3.528663
0.026651127
3.5365755
0.025839528
3.5446022
0.024133599
3.5503696
0.024509719
3.5551411
0.024325817
3.5559397
0.026840843
0.028667984
3.5540744
3.6917389
0.01340127
3.7064101
0.014730346
3.7169789
0.01608231
3.7238232
0.018995212
3.7250199
0.022936935
3.7201312
0.029398448
3.7086347
0.035822295
3.6899375
0.045538054
3.6670265
0.051578967
3.6505571
0.068170739
-0.051701353
3.6199552
0.066073912
-0.035471992
3.5833319
0.062757463
-0.026134224
3.5442801
0.061445007
-0.022393206
3.5035511
0.058379856
-0.017650774
3.4617931
0.057709074
-0.015951149
3.4199736
0.054867644
-0.013048164
3.3785773
0.055059578
-0.013663214
0.052655269
3.3378301
-0.011908063
3.5604629
0.061782261
3.5633985
0.063138273
3.5623401
0.063815836
3.5591562
0.064628915
3.5524775
0.065058634
3.5443566
0.065829914
3.5328141
0.066410195
3.5205952
0.067278427
0.067839074
3.5054114
3.4924558
0.054838181
3.499021
0.056573065
3.5039854
0.058851387
3.5081141
0.060500235
3.5104721
0.062700653
3.5120484
0.064253571
3.5120222
0.066436396
3.511248
0.068052672
0.070335846
3.5087512
3.4569263
0.044877627
3.4671449
0.046354479
3.4764015
0.049594764
3.4858653
0.051036458
3.4942302
0.054335698
3.5026809
0.055802931
3.5099091
0.059208215
3.5171749
0.060786803
0.064352497
3.5231583
3.414768
0.035244998
3.4248193
0.036303189
3.4347049
0.039709134
3.4449906
0.040750836
3.4549666
0.044359598
3.4653499
0.045419646
3.4752942
0.049263983
3.4856922
0.050388804
0.054510896
3.4955338
3.375157
0.024734769
3.3861092
0.025351054
3.3972932
0.028525146
3.4089453
0.029098703
3.4207313
0.032573557
3.433035
0.033115952
3.4453816
0.036917388
3.4583228
0.037447604
0.041618015
3.4712157
3.3324849
0.015437173
3.3423719
0.01546406
3.3526794
0.018217632
3.363628
0.018150064
3.3749669
0.02123466
3.3870351
0.02104779
3.3994723
0.024480166
3.4127424
0.024177502
0.028018987
3.4263414
3.2984987
0.0065120622
3.3076603
0.0063024453
3.3177006
0.0081773237
3.3279766
0.0078741251
3.3393462
0.0098650289
3.3509551
0.0094388909
3.3638118
0.0116235
3.3768423
0.011147006
0.013537729
3.3913235
3.2601067
3.2664091
3.2745865
3.2824606
3.2923256
3.3017645
3.313388
3.324535
3.3380727
3.351102
-0.013029264
3.3668237
-0.015721697
3.3819578
-0.015134131
3.4000845
-0.0181267
3.4176091
-0.017524536
3.4384319
-0.020822815
3.4586229
-0.020190986
3.4825452
-0.023922289
-0.023269705
3.5058149
3.4059054
-0.027611129
3.4221114
-0.031927682
3.4384024
-0.031425146
3.456549
-0.036273283
3.474714
-0.035689564
3.4950432
-0.041152015
3.5153496
-0.04049736
3.538106
-0.04667868
-0.045955158
3.5607914
3.4408952
-0.042164856
3.4557265
-0.046759068
3.4716613
-0.047359868
3.4878356
-0.052447618
3.5052887
-0.053142654
3.5229553
-0.05881866
3.5421028
-0.059644828
3.5614541
-0.06602993
-0.067009365
3.5825083
3.4848108
-0.055759983
3.4982671
-0.060215301
3.5125667
-0.061659511
3.5266516
-0.066532479
3.5417538
-0.06824492
3.5565926
-0.073657401
3.5726499
-0.07570213
3.5884284
-0.081808503
-0.084229952
3.605649
3.5059193
-0.066145535
3.5156409
-0.06993687
3.5260482
-0.07206681
3.5357032
-0.076187461
3.5462171
-0.078758892
3.5559302
-0.083370465
3.5666846
-0.086456485
3.5766309
-0.091754871
-0.095412222
3.5878132
3.5292338
-0.072221059
3.5339817
-0.074684786
3.538944
-0.077029049
3.5425567
-0.079800226
3.5465587
-0.082760883
3.5492403
-0.086052036
3.552526
-0.089742155
3.5545442
-0.093773082
-0.098259377
3.5573913
3.5057945
-0.069264284
3.5013632
-0.070253543
3.496575
-0.072240826
3.4905795
-0.073804754
3.4842447
-0.076426067
3.4769484
-0.078755763
3.4693445
-0.0821382
3.4610019
-0.085430468
-0.089663701
3.4524062
3.4899036
-0.053756507
3.471624
-0.051973884
3.4532987
-0.053915508
3.4323297
-0.052835799
3.4114827
-0.055579108
3.3880585
-0.055331535
3.3648541
-0.05893375
3.3391139
-0.059690333
-0.064313759
3.313764
3.2976243
-0.01355069
3.2576032
-0.011952786
3.2179688
-0.014281128
3.1778219
-0.012688959
3.138056
-0.015813157
3.0968874
-0.014162912
3.0562135
-0.018259913
3.0131885
-0.016665308
2.9709423
-0.022067594
0.066267886
2.9251927
-0.020518263
0.09416372
3.2858682
0.10329902
3.4432709
0.1016019
3.5590884
0.091202795
3.5982123
0.074242476
3.6226094
0.052971528
3.6037792
0.027457171
3.5863058
3.533272
0.072179995
2.8806819
-0.027669208
0.099249871
3.2587983
0.10852007
3.4340007
0.10585886
3.5617497
0.09401821
3.6100529
0.075373196
3.6412544
0.052165273
3.6269871
0.026793966
3.6116771
3.560066
0.075635496
2.8313146
-0.02626812
0.10537432
3.2290594
0.11499481
3.4243802
0.11314821
3.5635963
0.10203687
3.6211643
0.083602152
3.6596891
0.060150468
3.6504388
0.031537706
3.6402898
3.5916037
0.083225362
2.784148
-0.0360588
0.11133737
3.2009474
0.1209006
3.414817
0.11799087
3.566506
0.10522825
3.6339269
0.084851771
3.6800656
0.05922641
3.6760642
0.03089118
3.6686251
3.6224949
0.088576395
2.7312256
-0.035654011
0.11934299
3.1701808
0.12904262
3.4051173
0.12659051
3.5689581
0.11446897
3.6460485
0.094217107
3.7003174
0.068302864
3.7019784
0.036232885
3.7006951
3.6587278
0.098283189
2.6833076
-0.050365216
0.12625211
3.1422119
0.13554188
3.3958276
0.13185811
3.5726419
0.1179676
3.659939
0.095513657
3.7227714
0.06719801
3.7302941
0.035572331
3.7323207
3.6943001
0.10556472
2.6302412
-0.052498297
0.13645914
3.1113175
0.14569594
3.3865908
0.14211312
3.5762247
0.1285944
3.6734577
0.10613743
3.7452283
0.077362524
3.759069
0.041458588
3.7682247
3.7357587
0.11830942
2.588277
-0.076345215
0.14429201
3.0853349
0.15261839
3.3782644
0.14761361
3.5812294
0.13222055
3.6888507
0.1073806
3.7700683
0.076297508
3.7901521
0.041041898
3.8034803
3.7768006
0.12915742
2.5366777
-0.077558131
0.15760416
3.0568882
0.16563731
3.3702313
0.16047698
3.5863898
0.1452055
3.7041222
0.11981424
3.7954596
0.087418392
3.8225479
0.047153815
3.8437449
3.8239544
-0.0082096554
3.8321641
-0.0076157554
3.843151
-0.0049282091
3.8198604
0.0044775954
3.7860538
0.017260848
3.691339
0.036427576
3.567223
0.056934712
3.3497241
0.073681089
3.0401418
2.5531325
0.057226324
-0.012871568
3.8450356
-0.016900873
3.8471803
-0.015686342
3.8186458
-0.0074096916
3.7777771
0.0046884099
3.6792409
0.022780687
3.5491308
0.040765713
3.3317391
0.058830686
3.0220768
2.5571366
0.054826592
-0.01174231
3.8567779
-0.014437497
3.8498755
-0.013875119
3.8180835
-0.0063033838
3.7702054
0.0043493257
3.6685882
0.021414399
3.5320657
0.039089472
3.314064
0.053507735
3.0076585
2.560362
0.050282334
-0.016186553
3.8729645
-0.023419125
3.857108
-0.025130806
3.8197951
-0.019183925
3.7642585
-0.008735058
3.6581393
0.0076629466
3.5156677
0.024179257
3.2975477
0.0403329
2.9915049
2.5658076
0.034887285
-0.015154534
3.888119
-0.020884837
3.8628383
-0.022540376
3.8214507
-0.016633801
3.7583519
-0.0075528498
3.6490583
0.0078993505
3.5002155
0.024120004
3.2813271
0.036574945
2.97905
2.5653162
0.037066359
-0.019717365
3.9078364
-0.029551271
3.8726722
-0.033954783
3.8258542
-0.02999405
3.7543912
-0.020933479
3.6399978
-0.0059660175
3.485248
0.009667337
3.2656937
0.025553265
2.963164
2.5631529
0.027716561
-0.01896038
3.9267968
-0.026802482
3.8805143
-0.030541496
3.8295932
-0.026059494
3.7499092
-0.018406865
3.6323451
-0.0043444056
3.4711856
0.011089555
3.2502597
0.023949679
2.9503039
2.5551275
0.031975021
-0.023418636
3.9502154
-0.034851131
3.8919468
-0.04194383
3.8366859
-0.039679199
3.7476445
-0.031934802
3.6246007
-0.01808509
3.4573359
-0.0025186361
3.2346933
0.014657249
2.933128
2.5461079
0.023676912
-0.022272556
3.972488
-0.032003841
3.9016781
-0.037831691
3.8425137
-0.034109441
3.7439223
-0.027823734
3.618315
-0.014807833
3.44432
0.00067214509
3.2192133
0.014612709
2.9191875
2.5319486
0.028771958
-0.0065890155
2.5170387
0.021498962
0.012255168
2.9003433
0.028098778
3.2033697
0.041262788
3.4311559
0.047437546
3.6121403
0.048698672
3.7426612
0.039396411
3.851816
0.026372284
3.9147022
3.9988602
-0.0077434606
2.4977024
0.027079777
0.0074517264
2.8851481
0.023054627
3.1877668
0.03537081
3.4188398
0.040698531
3.6068126
0.043741958
3.7396177
0.036141133
3.8594168
0.024870841
3.9259725
4.0237311
-0.00080901404
2.4782421
0.020269331
0.019530206
2.8648089
0.035738615
3.1715584
0.048654694
3.4059237
0.053377363
3.6020899
0.053388785
3.7396063
0.042614351
3.8701913
0.028525814
3.9400611
4.0522569
-0.0030169183
2.4551692
0.026089741
0.013228015
2.8485639
0.028838111
3.1559483
0.040878795
3.393883
0.045357529
3.5976112
0.047760106
3.7372037
0.038822379
3.879129
0.026632414
3.952251
4.0788893
0.0031310275
2.4324471
0.019591117
0.024487502
2.8272075
0.040697674
3.1397381
0.053347452
3.3812332
0.056994246
3.5939644
0.055899498
3.7382985
0.044143256
3.8908852
0.029633438
3.9667609
4.1085227
-0.00041487376
2.4072623
0.025599698
0.016575368
2.8102172
0.03224368
3.1240698
0.043757109
3.3697198
0.04758365
3.5901378
0.049405912
3.7364762
0.039694462
3.9005967
0.027287686
3.9791676
4.1358104
0.0048826214
2.3830283
0.01935131
0.026831585
2.7882683
0.042908902
3.1079925
0.055000388
3.3576283
0.057880383
3.5872578
0.055762617
3.738594
0.043664511
3.9126948
0.029492471
3.9933397
4.1653029
-5.6916875e-05
2.357691
0.025394247
0.017170449
2.7710409
0.032923702
3.0922392
0.043770011
3.346782
0.046935492
3.5840923
0.048219779
3.7373097
0.03842506
3.9224895
0.026566915
4.0051978
4.1918698
0.004033799
2.3343608
0.019296391
0.026283521
2.7487912
0.042219397
3.0763034
0.053383273
3.3356181
0.055703581
3.581772
0.052604551
3.7404087
0.0409664
3.9341277
0.027979558
4.0181847
4.2198494
-0.0098155208
4.2296649
-0.0094772131
4.0178463
-0.008127882
3.9327783
-0.0021349205
3.7344158
0.0045127829
3.5751243
0.013477079
3.3266538
0.024984421
3.064796
0.030964077
2.7428115
2.3231975
0.042127378
-0.0091288748
4.2387938
-0.0091381305
4.0178556
-0.0086608195
3.932301
-0.0072494631
3.7330044
-0.0015842122
3.5694591
0.0074253646
3.3176442
0.017771237
3.0544502
0.030216098
2.7303667
2.3187846
0.034629045
-0.002951434
4.2417452
-0.00067984358
4.015584
0.0034949695
3.9281262
0.0098974047
3.726602
0.016281367
3.5630751
0.025093274
3.3088323
0.037218656
3.0423248
0.043011108
2.7245742
2.3168318
0.044963835
-0.0001885497
4.2419338
0.0017656497
4.0136298
0.0054705449
3.9244213
0.0075148243
3.7245577
0.013320805
3.5572691
0.022297028
3.2998561
0.033672922
3.0309489
0.046521108
2.711726
2.3245543
0.03879865
0.0064531097
4.2354806
0.012569371
4.0075136
0.019119696
3.917871
0.027016165
3.7166612
0.033546866
3.5507384
0.042020433
3.2913826
0.055205986
3.0177633
0.063006661
2.7039253
2.3418727
0.045688229
0.0097536474
4.225727
0.016680104
4.0005871
0.023558131
3.910993
0.027604092
3.7126153
0.033772492
3.54457
0.041892877
3.2832622
0.054696782
3.0049594
0.073941422
2.6846807
2.380967
0.034847101
0.017308768
4.2084182
0.02854029
3.9893556
0.039095783
3.9004375
0.048962183
3.7027489
0.055909793
3.5376224
0.063195885
3.2759761
0.077074446
2.9910809
0.095582698
2.6661725
2.4305266
0.04602316
0.021971191
4.186447
0.034080589
3.9772462
0.04556357
3.8889545
0.052310941
3.6960015
0.059260788
3.5306726
0.064996588
3.2702403
0.076506838
2.9795706
0.11218199
2.6304973
2.5015102
0.04119838
0.030547564
4.1558995
0.046933406
3.9608603
0.062516569
3.8733713
0.07547001
3.6830481
0.08348449
3.5226581
0.088985668
3.2647391
0.099942792
2.9686135
0.13942771
2.5910124
2.5174938
0.1234441
-0.17428349
4.330183
-0.343665
4.1302418
-0.50966986
4.0393762
-0.65961647
3.8329947
-0.78704418
3.6500858
-0.88443537
3.3621303
-0.927505
3.0116831
-0.93361309
2.5971205
2.4876507
-0.90377001
-0.17172162
4.5019046
-0.34755874
4.306079
-0.51785331
4.2096708
-0.67101337
3.9861547
-0.8024122
3.7814847
-0.89676826
3.4564863
-0.93440968
3.0493245
-0.90934062
2.5720514
2.2478313
-0.66952124
-0.17238299
4.6742876
-0.34551136
4.4792073
-0.51710522
4.3812646
-0.6789825
4.148032
-0.81253694
3.9150391
-0.91023193
3.5541813
-0.93147896
3.0705716
-0.84574905
2.4863215
1.5819902
-0.17990788
-0.1682259
4.8425135
-0.34723619
4.6582176
-0.522246
4.5562744
-0.6903818
4.3161678
-0.82803067
4.052688
-0.9255763
3.651727
-0.92239739
3.0673926
-0.78736126
2.3512854
0.84101751
-0.046388601
-0.16700894
5.0095224
-0.34456189
4.8357706
-0.51922458
4.7309371
-0.69748946
4.4944327
-0.8374182
4.1926167
-0.93653489
3.7508437
-0.90689804
3.0377558
-0.66179125
2.1061786
0.18056609
-0.0013398328
-0.16050835
5.1700308
-0.34577484
5.0210371
-0.52330446
4.9084667
-0.70680217
4.6779304
-0.85196493
4.3377795
-0.94494307
3.8438218
-0.85597488
2.9487876
-0.40499314
1.6551968
-0.30104831
0.076621255
-0.15622497
5.3262557
-0.34197692
5.206789
-0.51862324
5.085113
-0.71233194
4.8716391
-0.86011924
4.4855668
-0.93690176
3.9206043
-0.76166654
2.7735524
-0.28208071
1.175611
-0.64592237
0.062793364
-0.14783219
5.4740879
-0.33858986
5.3975467
-0.52063288
5.2671561
-0.71919228
5.0701985
-0.87076141
4.6371359
-0.92870248
3.9785454
-0.66416303
2.5090129
-0.20762322
0.7190712
-0.91124157
0.057695977
-0.14268868
5.6167766
-0.33279256
5.5876506
-0.51396042
5.4483239
-0.72242787
5.278666
-0.87508279
4.7897908
-0.89232859
3.9957912
-0.5267039
2.1433882
-0.097039029
0.28940633
-1.0801986
0.071918042
0.033293465
-1.1547435
0.041251356
0.26987613
0.05282367
0.54675245
1.8665119
0.55579788
3.9867458
0.45646377
4.8891249
0.31314291
5.4219868
0.19240072
5.5690661
0.068796077
5.7112552
5.6855727
0.031807908
-1.2303076
0.043756269
0.25239628
-0.1677647
0.52359552
1.5953127
0.55295817
3.9573831
0.44827387
4.9938092
0.29976626
5.5704944
0.18243834
5.686394
0.062491248
5.8312023
5.7480639
0.047966799
-1.323437
0.045162572
0.26603992
-0.38583782
0.50738694
1.3539657
0.54972032
3.9150497
0.44696612
5.0965634
0.29594573
5.7215148
0.17354914
5.8087906
0.053830317
5.9509211
5.8018942
0.060499799
-1.4300184
0.046081609
0.27317533
-0.59851336
0.49317317
1.1339678
0.54467432
3.8635486
0.43640755
5.2048302
0.281513
5.8764094
0.16295254
5.9273511
0.047693475
6.0661802
5.8495877
0.061192155
-1.5368239
0.045613333
0.26487402
-0.80219522
0.47476609
0.92407576
0.53925671
3.7990579
0.4330349
5.311052
0.275834
6.0336103
0.15279455
6.0503905
0.039109066
6.1798657
5.8886968
0.059192438
-1.6421431
0.04612674
0.2512744
-0.99427719
0.4579404
0.71740976
0.53191309
3.7250852
0.42013051
5.4228346
0.26039037
6.1933504
0.1415753
6.1692056
0.033156845
6.2882841
5.9218536
0.055452457
-1.7346238
0.037028293
0.23124404
-1.1700688
0.43364676
0.51500705
0.52437623
3.6343558
0.41462985
5.532581
0.25313003
6.3548502
0.13041702
6.2919186
0.024883188
6.393818
5.9467368
0.049546053
-1.8286801
0.044510244
0.21262394
-1.3331467
0.41578941
0.31184159
0.51292939
3.5372158
0.39662028
5.6488901
0.23616112
6.5153094
0.11883035
6.4092494
0.019935628
6.4927127
5.9666724
0.047482644
-1.8790572
0.0028944218
0.19920742
-1.4848714
0.39822461
0.11282439
0.50156535
3.433875
0.39237681
5.7580786
0.229975
6.6777112
0.10767298
6.5315514
0.01349463
6.586891
5.9801671
0.35098547
-2.1827116
-0.047331019
0.51898618
-1.6528722
0.59724361
0.034566968
0.45211907
3.5789996
0.14834923
6.0618485
-0.05922548
6.8852859
-0.14023009
6.612556
-0.15712074
6.6037817
5.8230463
0.37287786
-2.5577378
0.0021483163
0.54580189
-1.8257962
0.58296077
-0.002591908
0.35183265
3.8101277
0.05722191
6.3564592
-0.15444336
7.0969512
-0.22605994
6.6841726
-0.2013232
6.579045
5.6217231
0.39004351
-2.8424844
-0.10529697
0.57639804
-2.0121507
0.57642798
-0.0026218496
0.23661648
4.1499392
-0.087178364
6.6802541
-0.24428346
7.2540563
-0.26211182
6.7020009
-0.20598938
6.5229225
5.4157338
0.40109074
-2.9957252
-0.2478499
0.57881427
-2.1898742
0.5100769
0.066115517
0.13262037
4.5273957
-0.16835627
6.9812307
-0.31321545
7.3989154
-0.32316486
6.7119504
-0.22994098
6.4296986
5.1857928
0.39997658
-3.0403833
-0.35531847
0.5864035
-2.3763012
0.47070233
0.18181669
0.00082432963
4.9972737
-0.30573856
7.2877936
-0.37758164
7.4707585
-0.33599794
6.6703667
-0.21021431
6.303915
4.9755785
0.39479802
-3.0413799
-0.39380143
0.54937152
-2.5308747
0.35736099
0.37382722
-0.10006229
5.454697
-0.36049443
7.5482257
-0.41428732
7.5245514
-0.37568468
6.631764
-0.21991949
6.1481498
4.755659
0.36866992
-3.0086225
-0.40142734
0.50826933
-2.6704741
0.27106482
0.61103174
-0.25344546
5.9792073
-0.4770489
7.7718292
-0.45485129
7.5023538
-0.36720666
6.5441194
-0.18270749
5.9636506
4.5729515
0.35083207
-3.0040968
-0.3553578
0.45470681
-2.7743488
0.15674077
0.90899777
-0.32092319
6.4568713
-0.48824867
7.9391547
-0.46539073
7.4794959
-0.3917542
6.4704829
-0.18268698
5.7545834
4.3902645
0.33374353
-0.23556499
-3.1022753
0.41677542
-2.8573807
0.044016304
1.2817569
-0.50351241
7.0044
-0.60337622
8.0390185
-0.49452802
7.3706477
-0.3678646
6.3438194
-0.12794015
5.514659
4.2623244
-0.37565502
0.30516701
0.062119944
0.0083680641
-0.80777382
0.421703
0.010415803
-1.2627217
0.4507301
0.004217802
-1.4896347
0.24461086
-0.01769787
-1.3118836
-0.15043044
-0.02732068
-1.059546
-0.2697369
0.017399309
-0.86199116
-0.21196578
0.014410942
-0.20506782
-0.64920231
-0.0077210311
-0.64992571
-0.0034264751
-0.37308743
0.61175937
0.066495064
-0.78280334
0.83141891
-1.2060481
0.87397482
-1.3588759
0.39743869
-1.1261471
-0.38315926
-0.81173353
-0.58415044
-0.52825771
-0.49544159
0.064252749
-1.2417128
-1.2601772
-0.36512975
0.90570704
0.071182084
-0.74899208
1.2152812
-1.1426946
1.2676774
-1.2395166
0.49426065
-0.95119965
-0.67147622
-0.54043589
-0.9949142
-0.097921559
-0.93795592
0.40165533
-1.7412897
-1.7061733
-0.35180568
1.1843037
0.073208987
-0.71055024
1.5740258
-1.0795917
1.6367189
-1.1140358
0.52870479
-0.7714987
-1.0140134
-0.32416126
-1.4422516
0.19285212
-1.4549693
0.68567164
-2.2341092
-2.115778
-0.34187564
1.4508493
0.075330082
-0.67495781
1.907108
-1.006696
1.9684571
-0.96061986
0.48262861
-0.53076935
-1.4438639
-0.06341743
-1.9096036
0.49868049
-2.0170672
0.97340261
-2.7088313
-2.4594131
-0.32529648
1.6991928
0.076952966
-0.62957185
2.2113833
-0.92425579
2.263141
-0.81059758
0.36897041
-0.29081688
-1.9636446
0.20903281
-2.4094532
0.76693773
-2.5749722
1.211118
-3.1530116
-2.7705969
-0.31325595
1.9331809
0.079267833
-0.59192812
2.4900555
-0.84666019
2.5178731
-0.64723664
0.16954685
-0.039032235
-2.571849
0.47784027
-2.9263258
1.0338052
-3.1309371
1.441898
-3.5611044
-3.0392364
-0.29483745
2.1476099
0.080408432
-0.5493821
2.7446002
-0.71467433
2.6831653
-0.41579046
-0.12933701
0.2008595
-3.1884989
0.74056858
-3.4660348
1.2663884
-3.6567569
1.6243562
-3.9190721
-3.2751554
-0.28240025
0.085796304
2.3442139
-0.50091887
2.9631188
-0.49298159
2.675228
-0.067674823
-0.55464378
0.44529291
-3.7014667
0.98132943
-4.0020714
1.4715804
-4.1470079
1.7937227
-4.2412144
-3.4869675
0.3354154
3.0158
-0.23692805
-3.1142874
0.41726067
2.7806724
-2.8625176
0.041889934
-0.92182085
1.2971916
-0.50540062
-6.4706116
7.0179022
-0.60284997
-7.9371672
8.0346165
-0.49383064
-7.4755036
7.3664843
-0.36772652
-6.4696419
6.3435378
-0.12781286
-5.7539083
5.5139946
-4.3902651
4.2624522
0.35267997
3.0198185
-0.35669843
0.45584881
2.6775035
0.15543317
-0.62140521
-0.32280959
-5.9923689
-0.48814686
-7.7718299
-0.4648082
-7.4988423
-0.39152055
-6.5429295
-0.18256814
-5.9628607
-4.5728332
0.37042715
3.0516323
-0.40224096
0.50947473
2.5384559
0.26988536
-0.38181583
-0.25545899
-5.4670245
-0.4773543
-7.5499346
-0.4544538
-7.5217428
-0.36700133
-6.630382
-0.182569
-6.147293
-4.7554022
0.396508
3.0495613
-0.39443696
0.55096026
2.3840037
0.35686838
-0.18772395
-0.10185963
-5.0082965
-0.36116868
-7.2906255
-0.41403518
-7.4688763
-0.3753844
-6.6690328
-0.21977155
-6.3029059
-4.9751737
0.40160053
3.003533
-0.35557225
0.5879065
2.1976977
0.47017549
-0.069992935
-0.0010023942
-4.5371186
-0.30668946
-6.9849385
-0.37757509
-7.3979906
-0.33588015
-6.7107277
-0.2100544
-6.4287316
-5.1852281
0.40258772
2.84833
-0.24738468
0.58065783
2.0196276
0.51016755
0.00049733933
0.13125894
-4.15821
-0.16941955
-6.68426
-0.31339766
-7.2540125
-0.32302473
-6.7011006
-0.22981973
-6.5219366
-5.4150479
0.39138892
2.5620405
-0.10509945
0.57812276
1.8328937
0.57677137
0.001848731
0.23529612
-3.8167348
-0.08836842
-6.3605954
-0.24476156
-7.0976194
-0.26222702
-6.6836352
-0.20589793
-6.5782657
-5.6209458
0.37411902
2.185718
0.0022034898
0.54804645
1.6589663
0.58418805
-0.034292864
0.35103585
-3.5835826
0.056189485
-6.0657491
-0.15499631
-6.8864336
-0.2261845
-6.612447
-0.20130845
-6.6031418
-5.8222543
0.35201606
1.8809843
-0.047282406
0.52053467
1.4904477
0.59794161
-0.1116998
0.45154284
-3.4371838
0.14735445
-5.7615607
-0.059894552
-6.6791846
-0.14055506
-6.5317865
-0.15714893
-6.5865479
-5.9794032
-0.068718127
5.6852962
-5.6165781
-0.19227762
5.7115884
-5.5880289
-0.31302063
5.5697025
-5.4489595
-0.45642042
5.4233051
-5.2799053
-0.55592837
4.8908284
-4.7913205
-0.54693727
3.9876157
-3.9966068
-0.26994002
1.8639364
-2.1409337
-0.033241937
0.049561992
-0.28626007
-1.1549757
1.0804486
0.041285168
-0.062416643
5.7477128
-0.18230751
5.8314792
-0.2996234
5.6870184
-0.44818873
5.5718704
-0.55305752
4.9956972
-0.52373638
3.9582945
-0.25270953
1.5929096
-0.032017513
-0.17113002
-1.230712
0.043718787
-0.0537551
5.8014679
-0.17340777
5.9511319
-0.29578581
5.8093964
-0.44686961
5.7229542
-0.54982741
5.098655
-0.50767601
3.9161431
-0.266676
1.3519096
-0.048318699
-0.38948732
-1.3241341
0.045103431
-0.047624371
5.8490923
-0.16280838
6.0663159
-0.28133687
5.9279249
-0.43627099
5.8778884
-0.54473627
5.2071203
-0.49348057
3.8648874
-0.27373269
1.1321617
-0.06078582
-0.6024342
-1.4309824
0.046062454
-0.039040958
5.8881333
-0.15264324
6.1799182
-0.27564137
6.050923
-0.43288118
6.0351282
-0.53933412
5.3135732
-0.47513266
3.800686
-0.26539445
0.92242348
-0.061393285
-0.80643536
-1.5379522
0.045576557
-0.033097438
5.9212307
-0.14142497
6.2882457
-0.26018468
6.1696827
-0.41993918
6.1948827
-0.53193283
5.4255669
-0.45830488
3.727058
-0.25180414
0.71592274
-0.059408107
-0.99883139
-1.643432
0.046071613
-0.024826942
5.9460576
-0.13026318
6.393682
-0.2529098
6.2923294
-0.41441351
6.3563864
-0.52440779
5.5355611
-0.43407509
3.6367253
-0.23179386
0.51364151
-0.055662266
-1.174963
-1.7360217
0.036927507
-0.01989067
5.9659483
-0.11867266
6.492464
-0.23592378
6.4095805
-0.39636131
6.5168239
-0.51290819
5.652108
-0.41619016
3.5400073
-0.21316369
0.31061505
-0.049777134
-1.3383495
-1.830252
0.044453169
-0.013454868
-0.1075388
-0.2297448
-0.39210547
-0.50155816
-0.39873466
-0.19981942
-0.047721262
0.0030110222
0.096672734
0.91167202
0.072103842
0.52644673
-0.71603407
0.89253848
-2.5070254
0.87529345
-3.9793618
0.72243978
-4.6384668
0.51387373
-5.0713392
0.33269019
-5.2677759
0.14261248
-5.3979512
-5.4739656
0.20714376
0.64660239
0.057925867
0.66390407
-1.1727944
0.9290088
-2.7721302
0.87098691
-3.9213399
0.71923519
-4.4867151
0.5205665
-4.8726705
0.33849839
-5.0857078
0.14775726
-5.20721
-5.3262083
0.28179427
0.3018273
0.062980822
0.76163984
-1.6526399
0.93719092
-2.9476812
0.86032109
-3.84447
0.71237536
-4.3387693
0.51857316
-4.6788683
0.34190581
-4.9090405
0.15615706
-5.0214613
-5.1700513
0.40459823
-0.17965053
0.076879586
0.85599186
-2.1040336
0.94523855
-3.0369279
0.85217582
-3.7514073
0.70687394
-4.1934675
0.5232744
-4.4952688
0.34571982
-4.7314859
0.16044479
-4.8361863
-5.0096065
0.66147114
-0.83985735
-0.001264314
0.90699038
-2.3495528
0.93680644
-3.066744
0.83760051
-3.6522014
0.69755318
-4.0534201
0.51920404
-4.3169197
0.34452129
-4.5568031
0.16696088
-4.6586259
-4.8426456
0.78716405
-1.5807424
-0.046278952
0.92250221
-2.484891
0.92582368
-3.0700655
0.82821809
-3.5545958
0.69047209
-3.9156741
0.52224134
-4.1486889
0.34720147
-4.3817633
0.16818236
-4.4796068
-4.6744632
0.84559947
-2.2466115
-0.17973045
0.93157944
-2.5708709
0.91045344
-3.0489395
0.81269921
-3.4568416
0.67906161
-3.7820365
0.51710993
-3.9867373
0.34549014
-4.2101435
0.17235242
-4.306469
-4.5021108
0.90922996
-2.4865483
-0.66929312
0.93451886
-2.5961598
0.89697182
-3.0113924
0.80258098
-3.3624507
0.67111536
-3.6505709
0.51788193
-3.8335038
0.34754681
-4.0398084
0.17169295
-4.1306152
-4.3304179
0.93352149
-2.5165118
-0.90355804
0.92760898
-2.5902473
0.88462286
-2.9684063
0.78719223
-3.2650201
0.65969716
-3.5230758
0.50969475
-3.6835014
0.34366278
-3.8737764
0.17426728
-3.9612197
-4.1561506
-0.0098280443
4.229965
-4.220137
-0.0095085218
4.0181183
-4.0184378
-0.0081878823
3.9330227
-3.9343434
-0.0022180139
3.7345807
-3.7405506
0.0044092034
3.5751616
-3.5817888
0.013364244
3.3265057
-3.3354608
0.024895857
3.0644219
-3.0759535
0.030916831
2.7424033
-2.7484243
2.3229173
-2.3341207
0.042120158
-0.0091415275
4.2391066
-0.0091696215
4.0181464
-0.0087148951
3.932568
-0.0073322433
3.7331981
-0.0017065524
3.5695359
0.0072900573
3.3175091
0.017654481
3.0540575
0.030160525
2.7298973
2.31846
0.034617904
-0.0029583228
4.2420649
-0.00070214981
4.0158902
0.0034445604
3.9284213
0.0098098102
3.7268328
0.016166379