/*--------------------------------*- C++ -*----------------------------------*\
  =========                 |
  \\      /  F ield         | OpenFOAM: The Open Source CFD Toolbox
   \\    /   O peration     | Website:  https://openfoam.org
    \\  /    A nd           | Version:  11
     \\/     M anipulation  |
\*---------------------------------------------------------------------------*/
FoamFile
{
    format      ascii;
    class       volScalarField;
    location    "0.215";
    object      p;
}
// * * * * * * * * * * * * * * * * * * * * * * * * * * * * * * * * * * * * * //

dimensions      [0 2 -2 0 0 0 0];

internalField   nonuniform List<scalar> 
880
(
79.99999999999999
80.00000001419397
80.00084749811727
80.39353600066778
80.00000000000001
80.00000000590583
80.00173756839641
80.75222522235414
80.00000000000003
80.00000008917807
80.00468465142659
81.4102277162456
80.000000000038
80.00000001292803
80.01351780743153
82.50631180168587
79.99999999805333
79.99999999822867
79.99999984883721
80.00001800017635
80.00000041479962
80.00000663237192
80.00021438205022
80.00013449925466
80.039657604971
80.07478457942203
80.15270460735086
80.09931931023497
84.99021122837492
87.62958420142188
89.71956720193907
90.68884670264623
80.00006691537961
80.00030941258856
80.00108878915481
80.00327093197318
80.00313341562908
80.0090414319933
80.02054090500673
80.03486530805608
80.4891788690144
80.83875914316778
81.21147788843997
81.67109893069585
91.88463172009695
93.52988432152414
94.59701905367535
94.7984507283299
89.93701485621297
87.52098662053578
86.71491412338567
86.13339025306762
83.11304341024444
83.64779543597106
84.05241621337805
84.20392850314735
80.13418506544477
80.25856914355639
80.39133016565297
80.51987909437486
80.01187678440296
80.03162570139679
80.06507026462201
80.10410112328027
80.12874463391945
80.13633969119225
80.12365800685745
80.09988094822667
80.62966158048683
80.72817711397289
80.76048735947406
80.70317196419769
84.162973776738
84.05658801235579
83.88876115599622
83.5860662723351
85.62126186940546
85.14807560416227
84.9384699714963
85.03086226138217
85.08805455780509
83.30948132743438
80.62131878368191
80.07144011683343
84.76106700360631
82.86666143668388
80.51339791608096
80.04566927228659
89.11064168236734
82.46566898713161
80.34137588502175
80.01805976027711
111.5429915011256
83.17403943624544
80.21997442344478
80.00467909088331
80.00221463334239
80.13441749706469
85.53121152293099
143.339003444542
80.00868487888673
80.18406215365229
88.17333626479117
147.5576478578622
80.02578180905307
80.39028528610795
92.76844804370809
153.6321072506389
80.06912204489988
80.85668508033413
98.69055070736601
156.8650117210427
159.3556745279338
106.1909243396027
81.7151179519781
80.15392661850781
160.1548028881995
114.448744775548
83.20225121999611
80.31947039005232
160.1658589675509
122.9981509183955
85.43356847089318
80.58838590047429
158.4065468678502
128.1884759544659
88.54209470753621
81.04162961429049
81.72227902320243
91.69910551237957
129.6413053695935
150.2808355687462
82.17426660832324
91.16043002362225
118.9928988377286
135.9428441932231
82.27144313923411
88.41281314715987
107.8967095298035
119.3005134151895
81.46419374000651
85.2812454532034
96.60983874061793
99.72085649313321
81.59117095967702
84.81001406027292
87.6600986218542
76.35166296418643
81.23756624718627
82.51850794684844
81.0783697959282
51.48934335592079
80.69240714065594
81.44220953261069
78.43483747217411
39.19061247245404
80.30856286961388
80.81496725521711
76.06199429090981
37.85029674306018
40.91423816344811
74.14177624777427
80.20723971976867
80.02937682388213
40.12588559994543
73.14417823353203
79.73319058253897
79.96201319274753
40.53942774364521
72.69166014023531
79.33646912495753
79.95399853129388
38.84350914979874
70.90278873443067
78.93951740251593
79.94225858734336
43.0955741193376
71.34532172592485
78.93719522060317
79.95871505158502
47.14031340091352
72.35024829738359
79.25293587386972
79.9814922778169
49.62394528020987
73.40571545037085
79.51890243108143
79.99215717872293
53.3989421599619
75.18318061831359
79.81430979841576
79.99703805465262
55.23100153806597
75.4155313107749
79.54520737074016
79.98278392052214
55.34640262297246
74.98168944782765
79.54084658895293
79.98483916508357
55.01537176323607
74.37674687188645
79.52265899228094
79.9866548733991
54.69450443417683
73.85475557871206
79.50253348256173
79.98795929451188
53.3989421598813
75.18318061823489
79.81430979853864
79.99703805431078
49.62394528022448
73.40571545024031
79.51890243090052
79.99215717845587
47.14031340084851
72.35024829725437
79.25293587363861
79.98149227758041
43.09557411931316
71.34532172570144
78.93719522055792
79.95871505155137
80.02937682404939
80.2072397198436
74.14177624783574
40.91423816324684
79.96201319272801
79.73319058258596
73.14417823346498
40.12588559978477
79.95399853143967
79.33646912506487
72.69166013988553
40.53942774349216
79.94225858742821
78.93951740281015
70.90278873423006
38.84350914976368
37.85029674296312
76.06199429088036
80.8149672550755
80.30856286981253
39.19061247236664
78.43483747214522
81.44220953254903
80.69240714078781
51.48934335576925
81.07836979599486
82.51850794690101
81.23756624720947
76.35166296421902
87.66009862173608
84.81001405984502
81.59117095930188
81.72227902304958
91.69910551286125
129.6413053703793
150.2808355689161
82.1742666082404
91.16043002351374
118.9928988380029
135.9428441934287
82.2714431391814
88.41281314751805
107.8967095297766
119.3005134152512
81.46419373977817
85.2812454528455
96.60983874069811
99.72085649320923
158.406546867882
128.188475954816
88.54209470780474
81.04162961485476
160.1658589675983
122.9981509188135
85.43356847182294
80.58838590032316
160.1548028881118
114.4487447756079
83.2022512194813
80.31947039030709
159.3556745281323
106.1909243393728
81.71511795202575
80.15392661853146
80.00221463339878
80.13441749701052
85.53121152284056
143.3390034443474
80.00868487925612
80.18406215411633
88.17333626479935
147.5576478577325
80.02578180956399
80.3902852860472
92.76844804336339
153.6321072501163
80.06912204500867
80.85668508072908
98.69055070783777
156.8650117211241
80.00467909088003
80.01805976022652
80.04566927251447
80.07144011684964
80.21997442299417
80.34137588487009
80.51339791600262
80.62131878358171
83.17403943607501
82.46566898718785
82.86666143649121
83.30948132727227
111.5429915009483
89.11064168239145
84.76106700363357
85.08805455780261
80.09988094834092
80.70317196436889
83.58606627251505
85.030862261522
80.12365800676329
80.76048735966349
83.88876115615896
84.93846997150389
80.13633969118081
80.72817711405258
84.05658801229868
85.14807560384916
80.12874463376028
80.62966158038773
84.16297377689619
85.6212618693835
80.01187678436413
80.13418506516533
83.1130434103346
89.93701485634274
80.03162570109488
80.25856914358502
83.64779543615867
87.52098662050442
80.06507026475416
80.39133016544729
84.05241621326905
86.71491412314123
80.1041011231533
80.51987909426899
84.20392850333725
86.1333902527515
94.79845072819366
81.67109893063467
80.034865307838
80.00327093219248
94.59701905359924
81.21147788854407
80.02054090471894
80.0010887890714
93.52988432159998
80.83875914330908
80.00904143150892
80.00030941240377
91.88463172004282
80.48917886892764
80.00313341549787
80.00006691571765
90.68884670259386
80.09931931036715
80.0001344992972
80.00001800046272
89.71956720190819
80.15270460729455
80.00021438187296
79.99999984886776
87.62958420139591
80.07478457934982
80.00000663223811
79.99999999822107
84.99021122831668
80.03965760485956
80.00000041474838
79.99999999828555
79.99999999999999
80.00000001421101
80.0008474981597
80.39353600009208
80
80.00000000576784
80.00173756837418
80.75222522232157
80.00000000000668
80.00000008905923
80.00468465136868
81.41022771615874
80.00000000004081
80.00000001273429
80.01351780736115
82.50631180156442
80.83716494607667
81.55785777388792
82.91584836911315
86.71890821404332
81.55785777399717
82.54063412441506
85.29389385073497
91.63050426284256
82.91584836917383
85.2938938507168
90.63522203495421
99.47914465849736
86.7189082140754
91.63050426286256
99.47914465861011
110.2745228117029
121.957366324088
112.3314745816629
107.8927617428475
99.558276204791
119.5644523294096
116.8361629972172
116.7940037286504
112.3154460166839
119.8189424630688
118.9326735131262
118.5455722029675
116.7153257822908
118.6033082066785
118.2610888194404
118.1433913484809
116.9638560694573
115.1592727318648
114.6169970087738
113.1772205625263
110.2141665564208
115.9502082296128
114.8205674317301
113.2804310307573
110.4412237771746
116.1583279481994
114.9191872056666
113.3724452362701
110.7330371121563
116.5398185944255
115.031015240184
113.4014460195525
108.2078376375504
84.73739311324755
74.68101767885548
74.79311195780895
75.89209904920142
77.40725871091875
71.98402177316667
74.10136383647011
75.48352722245174
71.12134009890865
71.92959803364553
74.64837727500337
76.00960535498641
61.83964304667045
69.63505632476256
73.66847677907099
75.1550918436679
76.79259068100671
77.71019916974404
78.75145318817026
79.83933612798943
76.41265631961528
77.48881263846427
78.58007303136164
79.78989323717447
76.76092635862859
77.6922310961598
78.43472588563473
79.75621133269453
76.0733756833264
77.23576556149781
78.51932832995307
79.80337483200678
80.79064708312123
83.88937213464203
114.8495328160538
155.6117162712523
80.81432384876121
85.66713070913623
122.4008123336826
152.5948814371519
80.82805027227579
86.94460954124119
126.8910801195969
148.6083846414134
80.82435725708457
87.58400265813114
131.5505166498809
150.6485160598156
204.5582931729078
193.8651853508963
188.8482957248788
184.5357663647591
206.1653645483709
196.4083422095474
190.2828769259013
185.3793827233596
206.0054689443313
198.2934003914114
191.4112640678785
185.5381907572711
202.9668183513126
200.1029733745824
193.1463829389712
186.2647373537583
185.9832339398826
184.8149447949635
181.4475449765554
175.8905704510413
186.6167133825963
186.0846874960511
183.0242626086712
176.9024029975731
186.5705331017877
186.2057097655702
184.284433525881
178.7585921853097
187.3739296004999
187.8378019498721
184.3821350413756
178.1693551267882
161.2984933903925
145.2788382859011
129.1509741227514
109.7597433782387
162.5950394688334
146.3070630753147
129.0066618158909
117.1532983430574
165.1439866861461
149.2797577603508
131.4902135084227
121.3181072161143
165.7483935284609
153.1601375957919
135.5227720482398
135.4810693237825
66.11401500710666
15.37439696331657
3.979362514210762
4.365921785174456
50.64586832834913
10.01834850015913
3.998635597334442
4.35171440382437
35.41943000667722
6.289448175173749
4.088639924664431
4.914028219542371
19.90667311127926
3.529612976822138
4.205068651359759
5.090467920669278
7.178921972091423
10.53244530127764
14.19270831810488
17.91736752203499
7.199798207272726
11.23781416954372
15.14563835456218
19.2636080566638
7.653400292069758
11.68834740122822
15.65118883664553
20.57715581300687
8.076524220771494
12.53140465706842
17.40762207348793
22.73684590367315
27.76902603854178
31.38116856485813
32.39423682024313
34.01652034394905
27.0362141783688
31.98236735096143
33.44772682659558
35.41358454233505
25.99616473478385
31.56375004374698
33.60103560346224
36.26016275235902
23.93819076067997
29.81820101634062
32.96668403632801
38.41031401983004
30.10183540720741
29.72587502093578
31.46106021033903
30.72460418613403
26.08633913568168
24.17258760063313
26.38408289329425
26.06455720271238
22.96245899662021
21.17145663993823
23.71259065119837
23.7571734360482
17.2391258436769
18.04037689617956
20.59837586533892
21.55788447774221
22.62749835114609
23.57302318306354
24.36585401855992
24.94342559068697
24.07415336088328
24.43645333158214
24.86018530074599
25.28982901821337
25.71015129085091
25.42905916748495
25.12184879718207
24.98333404047804
29.51385338391832
27.85246521545226
26.375091656851
25.43539710898234
24.94342559068872
25.28982901821299
24.98333404047818
25.43539710898567
24.36585401856001
24.86018530074544
25.12184879717745
26.37509165683368
23.57302318306565
24.43645333157977
25.42905916747535
27.85246521542096
22.6274983511465
24.07415336087848
25.71015129083768
29.51385338391216
30.72460418614347
31.46106021033328
29.72587502091448
30.10183540718559
26.06455720270353
26.38408289328592
24.17258760062266
26.08633913567208
23.75717343604559
23.71259065119237
21.1714566399235
22.96245899661026
21.55788447773985
20.59837586533418
18.04037689617111
17.2391258436628
38.4103140198052
32.96668403630069
29.81820101631825
23.93819076073825
36.26016275234375
33.60103560344526
31.56375004371348
25.9961647348115
35.41358454232098
33.44772682659356
31.98236735093131
27.03621417838211
34.01652034393364
32.39423682025061
31.38116856482844
27.76902603853161
17.91736752216382
14.19270831818902
10.53244530131053
7.178921972089324
19.26360805678637
15.14563835466724
11.23781416961661
7.199798207295266
20.57715581312571
15.65118883675109
11.68834740130635
7.653400292095575
22.73684590376392
17.40762207360172
12.53140465716821
8.076524220810388
4.365921785189987
3.979362514185806
15.37439696320462
66.11401500705726
4.351714403842227
3.998635597331071
10.01834850013239
50.64586832831532
4.914028219559089
4.088639924665347
6.289448175176697
35.41943000668238
5.090467920682195
4.205068651363707
3.529612976826927
19.90667311130294
109.7597433782737
129.1509741228292
145.2788382859866
161.2984933904199
117.1532983431195
129.0066618160192
146.3070630754501
162.5950394689807
121.3181072162001
131.4902135085944
149.2797577605155
165.1439866863703
135.4810693239427
135.5227720484758
153.1601375960524
165.7483935287516
175.8905704510937
181.447544976436
184.8149447946059
185.9832339398706
176.9024029977787
183.0242626086585
186.0846874957877
186.6167133826206
178.7585921856106
184.2844335258841
186.2057097653721
186.5705331017583
178.1693551270718
184.382135041322
187.837801949681
187.3739296003126
184.5357663642428
188.8482957246362
193.86518535044
204.5582931726236
185.3793827227638
190.2828769256648
196.4083422090563
206.1653645481461
185.5381907566109
191.4112640676599
198.2934003909239
206.0054689441345
186.26473735304
193.1463829387785
200.1029733740929
202.9668183511416
155.611716271066
114.8495328159468
83.88937213466515
80.79064708318678
152.5948814370021
122.4008123335847
85.66713070913431
80.81432384883463
148.6083846412936
126.8910801194921
86.94460954122263
80.82805027235348
150.6485160597027
131.5505166497879
87.58400265810724
80.82435725716165
79.83933612818542
78.75145318815018
77.71019916946128
76.79259068098429
79.78989323739444
78.58007303125176
77.48881263817579
76.41265631959327
79.75621133293966
78.43472588557776
77.69223109586736
76.76092635861106
79.80337483225722
78.51932832988525
77.2357655612029
76.07337568331067
75.89209904894953
74.79311195755972
74.68101767895028
84.73739311336793
75.48352722216953
74.10136383627159
71.98402177328779
77.40725871102474
76.0096053547073
74.64837727482471
71.929598033785
71.12134009898764
75.15509184337992
73.66847677887475
69.63505632491
61.8396430467613
110.2141665563802
113.1772205624966
114.6169970089468
115.1592727318866
110.4412237771163
113.280431030792
114.8205674319174
115.9502082296124
110.7330371120874
113.3724452363059
114.9191872058341
116.158327948191
108.2078376375249
113.4014460196065
115.0310152403476
116.5398185944169
116.9638560693038
116.7153257822123
112.3154460166914
99.55827620485462
118.1433913483758
118.5455722029016
116.7940037286017
107.8927617428314
118.2610888193513
118.9326735130332
116.836162997163
112.3314745815618
118.6033082066224
119.8189424629724
119.5644523293229
121.9573663239059
55.49356177425403
75.25847092220559
79.70067581712426
79.9951147753623
53.32699318937195
74.49675485648078
79.58052150340383
79.99171054785077
53.09479946173759
73.94477279713203
79.51901389986753
79.98989949413648
52.84571259768251
73.61532018491575
79.50088221015871
79.98897321059246
79.98278392060028
79.5452073707652
75.41553131076019
55.23100153801529
79.98483916508552
79.54084658882955
74.98168944781784
55.34640262289453
79.98665487352538
79.52265899215027
74.37674687185395
55.01537176320944
79.98795929455837
79.50253348247512
73.85475557867288
54.69450443423877
79.98897321043954
79.98989949409882
79.99171054785657
79.99511477519688
79.50088221000716
79.519013899765
79.58052150322149
79.70067581712023
73.61532018489353
73.94477279715336
74.49675485656122
75.25847092222838
52.84571259765269
53.09479946167841
53.32699318930037
55.49356177415637
)
;

boundaryField
{
    back
    {
        type            empty;
    }
    inlet
    {
        type            zeroGradient;
    }
    front
    {
        type            empty;
    }
    top
    {
        type            zeroGradient;
    }
    outlet
    {
        type            fixedValue;
        value           uniform 80;
    }
    bottom
    {
        type            zeroGradient;
    }
    wall
    {
        type            zeroGradient;
    }
}


// ************************************************************************* //
