/*--------------------------------*- C++ -*----------------------------------*\
  =========                 |
  \\      /  F ield         | OpenFOAM: The Open Source CFD Toolbox
   \\    /   O peration     | Website:  https://openfoam.org
    \\  /    A nd           | Version:  11
     \\/     M anipulation  |
\*---------------------------------------------------------------------------*/
FoamFile
{
    format      ascii;
    class       surfaceScalarField;
    location    "0.169";
    object      phi;
}
// * * * * * * * * * * * * * * * * * * * * * * * * * * * * * * * * * * * * * //

dimensions      [0 3 -1 0 0 0 0];

internalField   nonuniform List<scalar> 
1652
(
2.843686947071611
0.8895636090847481
0
1.954123337988149
0.8895636090834618
-2.220446049250313e-16
1.064559729013905
0.8895636080244891
-2.34301467116893e-12
0.889544918226618
-3.86761733750518e-11
0.1749979564499166
2.843686947076741
1.779127218162428
1.954123337998014
1.779127218162188
1.064559729400644
1.779127212148723
1.779032567445177
0.1750303779228383
2.843686947090741
2.668690827246526
1.954123338008367
2.668690827244108
1.064559732118743
2.66869078330542
2.668335596638628
0.1751830698290681
2.843686947092868
3.558254436328659
1.954123338013186
3.558254436468771
1.064559763910094
3.558253842493513
3.556010516712353
0.1756310620119363
4.418652025448556
2.872852967045247
5.279049614570531
2.872852967043178
6.139447204006306
2.872852967037131
2.872852966872951
6.999844793451254
4.418652004706074
2.012455378672824
5.279049840590853
2.012455367708843
6.13944442147109
2.012455497392283
2.012454402948511
6.999856813702267
4.418652663665042
1.15206100709495
5.279049326429957
1.152050227198072
6.139962249559309
1.151842610134402
1.152860460878858
6.999717885753543
4.43685592069567
0.2494032480957369
5.432763240536455
0.1078619188883471
6.477771705382598
0.04211571087194244
7.531224595106289
0.03172654859305812
6.941512535972781
0.05833192868416193
6.883168826604554
0.05833017860679246
6.824844830774258
0.05831263144736376
0.05831260643310376
6.766513284868084
6.941525963124108
0.1166365784169903
6.883241976343719
0.1165672661712105
6.825046845469925
0.1164128612240408
0.1163159659600473
6.76689226984071
6.946875210953326
0.1646944811062848
6.898541410929816
0.1585280299592255
6.854081566727706
0.1529552318276535
0.1463312756913909
6.812387653930649
7.619958905607275
0.01752878367196897
7.703423615057228
0.01128203043458975
7.768092658881063
0.01350455090327313
7.823791769389514
0.006050540121579351
7.878190221852229
0.06380607041776143
-0.1712229120944476
7.773480021039713
0.1207958736733594
-0.05457271382112883
7.65695747518205
0.1056761506786679
-0.01173249284249439
0.0892727513426026
7.582553848549186
-0.009296419431168379
6.851676727829594
0.00111743707782308
6.931943753875917
0.004153117971456677
6.985687164745112
0.008633384907422381
0.01153966180965516
7.007466734567075
6.767443651274606
6.028186729978291e-05
6.769484605053996
0.000210521557651
6.773217749138913
0.0005710567751959772
0.0009430775631869004
6.776517404974282
6.766517171329816
6.76653659351155
6.766549140077
6.766540796197803
6.766472207269055
-0.001003388080509371
6.766413162749965
-0.000931705672539529
6.766384911332611
-0.0007647986377361526
-0.0005208148634605614
6.76640724410625
6.777209023114983
-0.01112594732730443
6.776672639819735
-0.009586237343611415
6.774999424723722
-0.007683309971344032
-0.005500812421075141
6.772252104843449
7.000057188984579
-0.07299969156301417
6.977987247618005
-0.05611498707013873
6.943931814759834
-0.0421133342224424
-0.03142368786151956
6.901531266351257
7.529611023551917
-0.007867720008813084
7.453735283394543
-0.004198094610531944
7.358999508081283
-0.0004640555323350282
7.254539250276527
0.001039209412049436
0.02327745904188205
7.143773237244502
0.0001482590034624365
0.00332652734188843
6.855027354990948
0.0002682825924854582
6.769228184846568
6.766457055386296
0.01689815749175017
7.029602047879181
-0.0004928085409869332
0.001535092321635623
6.810418332901313
9.092629407969621e-05
6.767202125706276
6.766500812265368
0.004726880357034613
6.938252720435522
-0.002894165112823421
0.0003148712166654022
6.777244476476842
1.255234062724764e-05
6.766586029906812
6.766519021968444
0.004828241984455306
6.994086205187017
-0.1825359198348601
5.190399489807263e-05
6.771962613445482
3.391549981301978e-06
6.766521120042786
6.76651063057893
0.155551704935767
6.610958766473126
0.3110405155710128
6.611008813116232
0.4499007326538304
6.622693864478715
7.035477328701393
0.1270152974835255
0.155539635457504
6.455407151404303
0.3107021589942813
6.455614644306278
0.4159409122026313
6.486827846384804
6.910472530827338
0.1467587901783926
0.155478738882168
6.299880006370818
0.3097337460423608
6.30053932637723
0.3689985706358685
6.358279070554718
6.793977320333155
0.1032618406498464
0.1553649808266656
6.144350910566928
0.3079165680332903
6.145745893481583
0.3114492886638741
6.23815076013753
6.637493877361693
0.08028647683767143
-0.2437991507690581
6.394779241616887
0.04682257704781301
-0.3041757848718465
6.11583509535912
-0.1550588715833224
5.991416667321321
5.988897224445984
-0.1576748720029342
6.11248881629264
0.02324676033095407
-0.2981768000624667
6.006160506032132
-0.1544921694727301
5.838660721200108
5.833482379727007
-0.06647089936287232
5.793473675811112
0.001973875424181259
-0.2888349585497039
5.887796140751794
-0.1537984501257029
5.685142708894352
5.67806619439184
0.04055742717011224
5.483883949668821
-0.00591997677092948
-0.2743442352380824
5.758638687209001
-0.1522620642415519
5.533735379192795
5.522925488477023
0.1947307931222029
5.323842864587962
0.3426431141093872
5.337209444058606
-0.0551474057140855
5.582230874682961
5.243497178540633
0.02223001390176038
0.191339225359283
5.125521504989499
0.3136023021179214
5.141026178025998
-0.07327600370126675
5.336758775666103
5.005707459573919
0.06455149533447435
0.1896187961870736
4.917619623368029
0.3181302458471594
4.939385595456238
0.1046387855036532
5.092973566249048
4.899213744738175
0.1718523474380997
0.1929918659798012
4.728644709141002
0.3441018008839911
4.738363872088755
0.2929816508040751
4.840251714640726
4.794278415489411
0.3479011879903124
-0.3503144779181137
5.066593741592129
-0.7803213694769708
5.088035364262651
-1.312547082172877
5.193114378328217
4.867950628502435
-1.41371977513519
-0.3544852044684829
5.401296870175438
-0.7705806964100211
5.448418779309875
-1.080438056815528
5.479346793923528
4.270321524530472
-0.4388919334940182
-0.3471214220742731
5.734713893794824
-0.7078574756227025
5.775109879451988
-0.9546567885305824
5.768632073111394
3.540625599095793
-0.04798740291778713
-0.3388028742908071
6.068563153510573
-0.6709733396585323
6.088493328391078
-0.8003638973602777
5.978403443678734
3.096229916389809
-0.03609090424960995
0.3405300516891466
3.016999272138895
-0.01828582588863968
0.3370528504341208
6.061401620514284
0.173185659168137
6.244158623187316
6.242248267015052
0.2967370543276097
2.994585540866521
-0.01367097771390258
0.3296300993319304
6.117378208701923
0.1744748303861874
6.405219438538385
6.416779265985995
0.2742903956386633
2.92545638791117
-0.006511550203661655
0.3277138731004923
6.161186377396854
0.1744810379518039
6.575809949271515
6.591534578375833
0.2468218861431741
2.862613581942714
0.007047833136078221
0.3237593931083812
6.203822734867024
0.1744773538316259
6.746537672328136
6.766383073833663
-0.2275495352653104
3.276728429783025
0.08437457422048231
-0.02898426108685581
6.293629707080465
-0.0005179605693463873
6.75536429675815
6.766464048593608
-0.166636517510014
3.566380549835229
0.1270981678391317
-0.01451122823296203
6.441836142051161
-0.0001725763214384113
6.762130682293451
6.766502343312948
-0.1208650470451579
3.945139803733487
0.1210748433324448
-0.007043259639247346
6.596907912738903
-6.281130335206164e-05
6.765765426200909
6.766514124729018
-0.09614758025694103
0.1247166531313474
4.417548239003538
-0.003138363744461969
6.662505816101675
-2.167179841494615e-05
6.764259961297291
6.766514944840713
0.9874273687741516
-0.8591403259954853
-0.004983083314628326
9.3626439934269e-11
1.967634550668235
-0.8688844755877514
1.166045038303309e-10
2.85777793634636
-0.8741191966553923
7.936051815704559e-11
-0.8749633072090561
-8.960121533618803e-11
0.9825018281018367
-1.669722539357604
-0.006877890094025257
1.968630816420675
-1.733753819356913
2.857801927323607
-1.7481588875883
-1.749926726933864
0.9703206645994961
-2.358491192955991
-0.01470046247291428
1.968679087992456
-2.596869171176154
2.857833703826978
-2.623039209981838
-2.624900559365911
0.9642324435537655
-0.02929774562449933
-2.84604044085604
1.970424207527616
-3.451877483289769
2.857916303911878
-3.498588645530424
-3.499899806720009
-0.09614758025760195
-3.945139803748056
0.1247166531295544
4.41754823901493
-0.003138363758249607
-6.596907912760002
6.66250581612503
-2.167186513357677e-05
-6.76576542620627
6.764259961344762
-6.76651412476873
6.766514944961745
-0.1208650470537509
-3.566380549861762
0.1210748433348448
-0.007043259654308187
-6.441836142061531
-6.28112634932787e-05
-6.762130682326385
-6.766502343243622
-0.166636517533599
-3.276728429779354
0.1270981678366614
-0.01451122826720153
-6.293629707053662
-0.0001725763390925117
-6.755364296759918
-6.766464048628333
-0.2275495352653081
-2.862613581928637
0.08437457421861715
-0.02898426106526286
-6.203822734858861
-0.0005179605588812031
-6.746537672316685
-6.766383073808464
-0.1731856591789889
6.242248267060886
-6.068563153566199
-0.3370528504310978
6.244158623217746
-6.08849332844638
-0.3405300516823178
6.061401620469577
-5.978403443629246
3.01699927211266
-3.096229916339373
-0.01828582588885294
-0.1744748303581313
6.41677926602121
-0.3296300993148207
6.405219438558182
-0.2967370543225988
6.117378208664036
2.99458554084482
-0.01367097771318674
-0.1744810379432489
6.591534578349426
-0.3277138730815709
6.575809949283618
-0.2742903956327053
6.161186377380446
2.925456387895745
-0.006511550202942272
-0.1744773538248852
-0.3237593930851892
-0.2468218861340017
0.007047833134666469
0.8003638973603284
-3.540625599046329
-0.03609090424962641
0.6709733396852375
-5.768632073083071
0.3388028743055054
-5.775109879549738
-5.734713893803229
0.9546567885362829
-4.270321524503308
-0.0479874029166601
0.7078574756457423
-5.479346793905595
0.3471214220854769
-5.448418779385102
-5.401296870171032
1.080438056828991
-4.86795062849623
-0.4388919334922039
0.7705806964359032
-5.193114378320191
0.3544852044753438
-5.088035364299622
-5.066593741627116
1.312547082187856
-4.794278415488165
-1.413719775140639
0.7803213694891131
-4.840251714615526
0.3503144778902523
-4.738363872042592
-4.728644709455221
0.1947307931370146
5.323842864599833
-5.522925488499388
0.3426431141493445
5.337209444080842
-5.533735379150984
-0.05514740571490662
5.582230874603368
-5.758638687142286
5.243497178500341
-5.483883949665549
0.02223001389840129
0.1913392253521131
5.125521505021343
0.3136023021168826
5.141026178002077
-0.07327600367722709
5.33675877559911
5.005707459554811
0.06455149533173565
0.189618796183314
4.917619624030495
0.3181302458621031
4.939385595441945
0.1046387855160905
5.092973566208784
4.899213744732456
0.1718523474419473
0.1929918659947775
0.344101800910123
0.2929816508053489
0.3479011879921839
0.04055742718799926
-5.793473675848956
-0.005919976764444335
-0.274344235172635
-5.887796140885863
-0.1522620641984068
-5.685142708999805
-5.67806619439802
-0.06647089938640793
-6.112488816255262
0.001973875422398463
-0.2888349585972694
-6.006160506053979
-0.1537984501498272
-5.838660721324153
-5.83348237976961
-0.1576748719755425
-6.39477924154012
0.02324676033379458
-0.2981767999749824
-6.115835095216367
-0.1544921694193671
-5.991416667218919
-5.988897224466679
-0.2437991507089515
-6.637493877371507
0.04682257704897175
-0.3041757848812372
-6.238150760131643
-0.1550588715891077
-6.145745893516368
-6.144350910586303
0.1555517049394602
6.610958766583284
-6.766510630690107
0.3110405155717032
6.611008813092873
-6.766521120020192
0.4499007326603404
6.622693864480743
-6.771962613453351
7.035477328675839
-6.994086205176324
0.1270152974743648
0.155539635462123
6.455407151435957
0.3107021589971384
6.455614644314866
0.4159409122023692
6.486827846373161
6.910472530830747
0.1467587901776428
0.1554787388922809
6.299880006376456
0.3097337460584521
6.30053932638915
0.3689985706323031
6.358279070591404
6.793977320385877
0.1032618406526279
0.1553649808153478
0.3079165680098164
0.3114492886760933
0.08028647684353907
-6.76651902193078
-3.391554767362415e-06
-6.766500812272146
-1.255234004038375e-05
-6.766457055389839
-9.092629268692143e-05
-0.0002682825903037589
-6.766407244111524
-6.766586029897383
-5.190399742771579e-05
-6.767202125729108
-0.0003148712161177292
-6.769228184848573
-0.00153509231289306
-0.003326527344768682
-6.772252104847452
-6.77724447648653
-0.004828241985550819
-6.810418332888023
-0.004726880355011787
-6.855027354963364
-0.01689815750581947
-0.02327745904147566
-6.901531266349085
-6.938252720431652
-0.1825359198252242
-7.029602047867489
-0.002894165114612435
-7.14377323723519
-0.0004928085462230225
-7.254539250289864
0.000148259007885454
-0.0005208148714525018
-6.766384911317932
-0.005500812429681368
-6.774999424718286
-0.03142368785738642
-6.943931814789588
-7.35899950810094
0.001039209414121611
-0.0007647986399823559
-6.766413162748585
-0.00768330997549882
-6.776672639826811
-0.04211333420892321
-6.977987247624161
-7.453735283408851
-0.0004640555288584758
-0.0009317056730541173
-6.766472207275593
-0.009586237347622095
-6.777209023125616
-0.05611498707587781
-7.000057188989997
-7.529611023567499
-0.004198094611703562
-0.001003388083094858
-6.766540796215046
-0.01112594733555461
-6.776517404985853
-0.0729996915563012
-7.007466734555078
-7.582553848566801
-0.007867720007309897
-6.028188348128349e-05
6.766517171321751
-6.766513284893012
-0.001117437100706553
6.767443651254169
-6.766892269814812
-0.06380607042967884
6.851676727909768
-6.812387654149596
7.878190221868847
-7.823791769422156
-0.1712229120932696
-0.0002105215660532789
6.766536593516115
-0.004153117978559329
6.769484605061108
-0.1207958736880687
6.931943753854304
7.773480021050599
-0.05457271382727052
-0.0005710567750314421
6.766549140085978
-0.008633384902665742
6.773217749153832
-0.105676150690577
6.985687164698945
7.656957475198675
-0.01173249284513056
-0.0009430775679234449
-0.01153966181489974
-0.08927275134804258
-0.009296419432980152
-0.1463312757090707
-7.768092658894904
0.006050540130139392
-0.1163159659720928
-6.854081566983236
-0.05831260644131053
-6.825046845466883
-6.824844830579853
-0.1529552318642466
-7.703423615032262
0.0135045509080195
-0.1164128612369246
-6.898541411066792
-0.05831263144845578
-6.883241976326977
-6.883168825486326
-0.1585280299890545
-7.61995890554396
0.01128203044406328
-0.116567266198139
-6.946875210882773
-0.05833017859317224
-6.941525963167239
-6.94151253596628
-0.1646944810884401
-7.531224595033008
0.0175287836600575
-0.1166365784400754
-6.999717885344583
-0.05833192868962522
-6.999856813757154
-6.9998447934526
-1.152860460837056
-6.477771705360523
0.03172654860807922
-2.012454402928374
-6.139962249448388
-2.872852966878451
-6.139444421486646
-6.139447203994983
-1.1518426101634
-5.432763240486758
0.04211571091863231
-2.012455497380715
-5.279049326417301
-2.872852967037729
-5.279049840607311
-5.279049614567432
-1.152050227198359
-4.436855920650558
0.1078619189259532
-2.012455367701061
-4.41865266365632
-2.872852967044603
-4.418652004711953
-4.418652025446894
-1.15206100709209
-3.556010516692211
0.2494032479837356
-2.012455378668154
-3.558253842500097
-2.87285296704692
-3.558254436468766
-3.55825443632866
2.843686947076677
0.8895636090796828
1.954123337995112
0.8895636090815646
1.064559729020128
0.8895636080273808
0.8895449182342989
0.1749979564696772
2.843686947077599
1.7791272181565
1.954123337999196
1.77912721815997
1.064559729401257
1.77912721215438
1.779032567504183
0.1750303779168398
2.843686947089469
2.668690827241873
1.95412333800662
2.668690827242345
1.06455973211623
2.668690783319192
2.668335596673747
0.1751830697395897
2.843686947088214
1.954123338006788
1.06455976390254
0.1756310621085432
0.1749966274142331
0.1749966274067496
0.1749876514547065
0.1750333749433955
0.1749851997690812
0.175169013616904
0.1756376323891399
0.1748584416720617
0.1750333750049014
0.1749876514018567
0.1750277181465634
0.1750277180251435
0.1750317950562587
0.1751353963388414
0.1747116512761857
0.175747772684284
0.1751690137217173
0.1749851996916691
0.1751353964620835
0.1750317949175343
0.1750852594890803
0.1750852594849169
0.1718862982312916
0.1773657654624235
0.1756376321834656
0.1748584416131987
0.1747116509641677
0.1757477725132542
0.1718862979249856
0.1773657655301786
0.1715295854206018
0.1715295852759838
-0.07326580287888701
0.2435454115149533
-0.1350390632205581
0.2375494416855788
-0.2011546312099734
0.2402120548843014
0.2216465495789209
-0.01215262548072871
0.2540274278551491
-0.03199096568152004
0.2559037445883844
-0.06076921640710475
0.2666880242939221
0.2666115399414946
-0.003286043111714321
0.2558330541973071
-0.01557203999770207
0.2665324234091444
-0.02689693174612207
0.2762367546718153
0.279259617486275
-0.006473892692128502
0.2600854602484535
-0.01715545216172476
0.2746955453925687
-0.02467699311881566
0.2812074863137123
0.2832738101989771
0.2849193502238195
0.01438607647080659
0.2862055026299863
0.00911898092202279
0.2883938508053324
0.01098456323474839
0.005369479175066583
0.2891241268397518
0.2838265261388134
0.01058347689202738
0.2859175442556171
0.006248210698043155
0.2894458040217677
0.007193014395119823
-0.001482200663124489
0.2968452942397412
0.2796337330783094
0.005043822660061981
0.2839679978530747
0.001346204639839865
0.28888260842567
0.001935080425576607
-0.02770852374283933
0.315535712661716
0.2646694017412217
0.2657103926200637
0.2673918534652333
0.2411819229592471
0.2667776488872113
-0.1476528645950559
0.2405819667083922
-0.02678996035949399
0.2343450932054714
-0.003366660980434866
-0.006897595020516067
0.2351398825367817
0.2609277125658053
-0.1105090190548227
0.2430259779142936
-0.007602790067492593
0.2403212370853011
0.001487432165834968
-0.004587311747441092
0.2413248574592853
0.2673353258808343
-0.06101612810799062
0.2525061837431859
0.008297136044443598
0.2472149415072346
0.008518401348715343
0.0006267644222879287
0.245160145033424
0.1809434217426731
0.1898336497381028
0.2000505716931504
0.2035758088998069
0.2393354604059799
-0.008294190137241364
0.2425722377861859
-0.004208738728037231
0.2431820857798093
0.0005060919679129028
0.002095363723681631
0.2431670219216109
0.2418257384708024
-0.004958732186365722
0.2431958991099767
-0.002075864435741759
0.2435446386049824
0.002092091135794172
0.003345701023979852
0.2433083531130827
0.2442775222838167
-0.000156346867200452
0.2439112028498
0.001875443515300113
0.2439037085963529
0.004471390547864107
0.004715989875228699
0.2438540610159088
0.2073186134622343
0.2126415952293289
0.2195157541646832
0.225526956617945
0.2422694713978803
0.001633176250495805
0.2412431871895639
0.0002741587808748891
0.2420095141691129
-0.005715016476389445
-0.1960401094779718
0.2458845972971398
0.2425408564228024
0.002901979519894959
0.2418104526765108
0.001162937952455201
0.243742611091105
-0.01017717458579792
-0.1748633960032511
0.212677722290554
0.2432513923477692
0.004135445190189935
0.2426887501558011
0.002292656506241941
0.2437593531932397
-0.01353048877889385
-0.1081979381941047
0.167088120046021
0.2296983134622159
0.2325568199360933
0.215876352108185
0.09741768341802801
0.2641618933031567
0.09748443083169689
0.2660792682443655
0.1350753271301451
0.2678740161938719
0.09466481450548447
0.06815138366306805
0.2758588244523929
0.2402600012599565
0.06146682501472045
0.260379652478802
0.1069129543102475
0.2672021415015353
0.08179537531419845
0.05575474542167547
0.2767303729968983
0.1974034174227519
0.02305768669256358
0.2349421604443584
0.06040636353430151
0.2573571667228113
0.05320813344090125
0.03793958819594201
0.2733341103716057
0.1145433634136056
0.1668640373774002
0.2143339525679694
0.2501798037636566
0.2777553094686115
0.03729851920320693
0.2768955901056711
0.0173512528769334
0.2753257769053781
0.000301293775528455
-0.004263538204152595
0.2752498326441458
0.2796581162025478
0.02902754030641697
0.2787991216334016
0.01271692904708288
0.2776684764021877
-0.0007225174004273915
-0.002803711398917663
0.2782560950829065
0.2788137590285573
0.01978454062332946
0.2790054719577365
0.007563919979833078
0.278618861216928
-0.00117909448446285
-0.001754669637719974
0.2804384916213323
0.2664691460452476
0.2685880388947548
0.2667202195714457
0.2677876742726454
0.2862844429371952
0.01498803763519163
0.3122756000537332
0.04535337603631029
0.3475073887789623
0.1457832041959529
0.2799959904074064
0.4205240669928645
0.2912548850893779
0.007824697342624809
0.314228035426695
0.03232026922442011
0.3518253945154802
0.1183020818796028
0.1865210341582829
0.4520272656318778
0.2928812635409125
0.003256733032741099
0.314352873953265
0.02344367267427649
0.3603115043459189
0.08491133967544306
0.04097713274428827
0.5165732491485432
0.2790201646608326
0.3151017823965165
0.4161395058422586
0.4703394436257791
0.2133801304658886
-1.199944433945294
0.02125556885769354
-0.2452806630212214
0.003110640337103968
-0.02647929618130773
-0.02607812162321903
-0.00224061086284271
0.1498811639834857
-0.8921593809863136
0.009413257248450931
-0.1037534708076563
0.0004908422406239791
-0.01362143189808832
-0.0154165507943766
-0.005503172161694662
0.07631104074515102
-0.4478349344199395
0.003005578850804225
-0.02919451158234483
-0.003176178374476429
-0.004306592474904551
-0.007226847416183037
-0.006450071221035352
0.02575974938627502
-0.001985416174909029
-0.003359802568121816
-0.005872862242858366
-0.0008196570005413271
-0.01609137714299592
0.00010212546633139
-0.01158233943491677
-0.0001294744627691365
-0.004345435974908753
0.003997826586659967
0.003602633004602149
-0.004933725848864586
-0.01298843946393048
-0.00413908340640194
-0.009314453634979562
-0.00291932097169333
-0.003768202695993879
0.001981363969431743
-0.0008295846338326821
-0.007108911981591901
-0.007694865474187525
-0.005938217495367647
-0.006120886026199895
-0.00491883201552408
-0.002589088585458137
0.00193548246374204
-0.005500466936046042
-0.007836142324040498
-0.007395711888431085
-0.007606530217175514
-0.006820219138854323
0.04242917913117301
0.04747559507170689
0.07747080482384772
0.09609249626454913
0.1076066481559039
0.09809320091038408
0.1082058587050223
0.1358928392991803
0.02305554392705268
0.02159413971330759
0.05915577934780421
0.05996955546988379
0.08991677344936123
0.07001985585144183
0.08061701543422151
0.1244979599695899
0.006606995469929017
0.005206988632157725
0.03742041615835075
0.02498855857314107
0.06800155652007531
0.03834800332492851
0.0486856786853698
0.1039502687948002
-0.006596773734916593
0.01115273433178294
0.0446879085074508
0.09443858904200356
0.1091546980223794
-0.1134303025473616
0.1473924177226948
0.08302466317864889
-0.08829293737665596
0.1113219261582669
0.06003647040436262
-0.07725478161798693
0.09798068267604683
-0.05403371632713007
0.03358328553258577
0.08078360361165562
0.09541662713395689
-0.08129497171495477
0.06801294349918745
-0.06499542823916214
0.04152954565715539
-0.0478300368357913
-0.02701810885206843
0.01745721151674027
0.07423358991348122
-0.05082428080460481
0.04640154034036155
-0.03472956057874849
0.02146101863980011
-0.01825709301705842
-0.009045150518983337
0.004244068814211494
0.04573862069412724
0.01561991971031178
0.0003982823590666859
-0.007158003611203737
-0.009641646073373717
0.002576965554118547
-0.009173549120165686
-0.0004571501934805093
-0.005757798583082462
-0.002431184211058035
-0.003129885778125511
-7.806949531286023e-14
-0.003029850555169342
0.008888699414915352
-0.004801810880044697
0.0005008114103947515
-0.002842007787601755
-0.003887896138747437
-0.005037475653989508
3.963496197911809e-14
0.009082248341758289
0.01663415776327433
0.004724547438234711
0.004330459873447745
0.001895963264469589
-0.001368822078257287
-0.002417684154153738
1.264682802926131e-13
0.02152756108845418
0.01274111181204616
0.005815097456454275
3.291880656952628e-13
-0.003129885778156335
0.005757798583003768
-0.005037475654042025
0.00284200778765311
-0.002417684154336876
-0.001895963264044277
-0.005815097454967964
0.004983083313665017
-0.002431184211066707
0.009173549120167268
-0.003887896138816804
0.00480181088008283
-0.00136882207831018
-0.004724547437797561
-0.01274111181118849
0.006877890094476109
-0.0004571501935264483
0.009641646073404325
0.0005008114103065807
0.003029850555253281
0.004330459873438601
-0.009082248341487895
-0.02152756108800221
0.01470046247326735
0.0025769655540617
0.007158003611257707
0.008888699414808809
-0.004244068814059282
0.01663415776321272
-0.01745721151649119
-0.03358328553217096
0.0292977456245302
-0.06003647040379059
-0.054033716326995
0.08078360361141461
-0.08302466317790232
-0.077254781617752
0.09798068267573996
-0.1091546980216016
-0.08829293737634283
0.1113219261579863
-0.1134303025467831
-0.1358928392983781
0.1473924177219628
-0.04152954565691687
-0.02701810885196582
-0.06801294349875882
-0.04783003683564344
-0.09541662713337457
-0.06499542823890292
-0.08129497171450684
-0.1244979599689697
-0.02146101863957851
-0.009045150518939574
-0.04640154034004756
-0.01825709301698214
-0.07423358991306897
-0.03472956057859526
-0.05082428080427624
-0.1039502687942566
-0.0003982823589560383
-0.01561991971004367
-0.04573862069371883
-0.09443858904130836
-0.04468790850689069
-0.0486856786852469
-0.01115273433135193
-0.03834800332486502
0.006596773734461235
-0.02498855857229221
-0.005206988632585285
0.0068202191386495
-0.0680015565196854
-0.08061701543386243
-0.03742041615735628
-0.07001985585199991
-0.006606995469844834
-0.05996955546797197
-0.0215941397134447
0.005500466935865599
-0.08991677344923101
-0.1082058587040178
-0.05915577934677151
-0.09809320091206686
-0.02305554392633781
-0.09609249626200471
-0.04747559507085433
0.0008295846337185615
-0.1076066481556741
-0.07747080482301222
-0.04242917913004274
-0.003602633004283796
0.0001294744628434139
0.003997826585933645
-0.000102125466142371
-0.004345435974554591
0.0008196570007195352
-0.01158233943423766
-0.01609137714298056
0.002240610862927885
0.002919320971386192
0.001981363969001754
0.004139083406300474
-0.003768202695815119
0.004933725849011319
-0.009314453634426408
-0.0129884394638026
0.005503172161904386
0.004918832015271832
0.001935482463622441
0.005938217495298551
-0.002589088585437105
0.007108911981633962
-0.006120886025788627
-0.007694865474079694
0.006450071221351481
0.007606530216846753
0.007395711888026155
0.007836142324129519
0.005872862243099974
-0.003110640336850215
-0.02607812162350946
-0.02125556885684375
-0.02647929618092579
-0.2133801304645525
-0.2452806630198724
-1.199944433949038
-0.4205240669935041
-0.0004908422406428459
-0.01541655079452375
-0.009413257248096659
-0.01362143189819672
-0.1498811639825486
-0.1037534708070401
-0.892159380989008
-0.4520272656325613
0.003176178374679255
-0.007226847416267907
-0.003005578850674697
-0.004306592475096127
-0.07631104074463171
-0.02919451158207028
-0.4478349344215569
-0.5165732491498581
0.003359802568312185
0.00198541617493638
-0.02575974938609723
-0.4703394436276189
-0.347507388780507
0.2799959904098169
-0.312275600054397
0.1457832042001403
-0.2862844429398798
0.04535337603713574
0.01498803763430878
-0.2752498326463644
-0.3518253945167527
0.1865210341598781
-0.3142280354279176
0.1183020818804527
-0.2912548850917787
0.03232026922650977
0.007824697344157139
-0.27825609508606
-0.3603115043473867
0.04097713274400672
-0.3143528739548812
0.08491133967409048
-0.2928812635435538
0.02344367267665048
0.003256733034023518
-0.2804384916236734
-0.4161395058459428
-0.3151017824023442
-0.2790201646656423
-0.2677876742762568
-0.275325776906002
-0.004263538199588357
-0.2768955901046335
0.0003012937741596611
-0.277755309466679
0.01735125287983275
0.03729851920764271
-0.2758588244528059
-0.2776684764027448
-0.002803711396626385
-0.2787991216326066
-0.0007225174004822366
-0.2796581162010535
0.01271692905101618
0.02902754031291932
-0.2767303729974926
-0.2786188612176174
-0.001754669636709449
-0.2790054719573871
-0.001179094484054954
-0.2788137590273136
0.007563919983710865
0.01978454062819668
-0.2733341103718977
-0.2667202195743243
-0.2685880388964743
-0.2664691460424995
-0.2501798037586487
-0.2678740161951731
0.06815138366664486
-0.2660792682443998
0.094664814507326
-0.2641618933034178
0.1350753271301142
0.09748443082024383
-0.2458845972972695
-0.2672021415026988
0.05575474542334979
-0.2603796524787313
0.08179537531564618
-0.2402600012595309
0.1069129543093393
0.06146682500292866
-0.2126777222911627
-0.2573571667233286
0.03793958819507048
-0.2349421604427475
0.0532081334410841
-0.1974034174188724
0.06040636353231654
0.02305768668302033
-0.1670881200445578
-0.214333952566482
-0.1668640373749982
-0.1145433634128097
-0.09741768342590376
-0.2420095141674654
-0.1960401094717503
-0.2412431871899794
-0.005715016476045776
-0.242269471399494
0.0002741587772628895
0.001633176253206081
-0.2431670219222416
-0.2437426110895397
-0.1748633960009655
-0.2418104526770485
-0.01017717458395634
-0.2425408564243722
0.001162937949951537
0.002901979521291287
-0.2433083531136408
-0.2437593531923344
-0.1081979381917314
-0.2426887501569669
-0.01353048877474217
-0.243251392349169
0.002292656504538526
0.004135445190693088
-0.2438540610167341
-0.215876352115315
-0.2325568199381957
-0.2296983134644147
-0.225526956619496
-0.2431820857805773
0.002095363726249799
-0.2425722377865282
0.000506091970582323
-0.2393354604062691
-0.0042087387287571
-0.008294190136216018
-0.235139882536167
-0.2435446386056735
0.003345701026317094
-0.2431958991102185
0.002092091137634033
-0.2418257384707991
-0.002075864436160035
-0.004958732185727677
-0.2413248574586005
-0.2439037085968114
0.004715989876297955
-0.2439112028499144
0.004471390549616927
-0.2442775222832802
0.00187544351471497
-0.0001563468667155066
-0.2451601450323959
-0.219515754166097