/*--------------------------------*- C++ -*----------------------------------*\
  =========                 |
  \\      /  F ield         | OpenFOAM: The Open Source CFD Toolbox
   \\    /   O peration     | Website:  https://openfoam.org
    \\  /    A nd           | Version:  11
     \\/     M anipulation  |
\*---------------------------------------------------------------------------*/
FoamFile
{
    format      ascii;
    class       volScalarField;
    location    "2.625";
    object      p;
}
// * * * * * * * * * * * * * * * * * * * * * * * * * * * * * * * * * * * * * //

dimensions      [0 2 -2 0 0 0 0];

internalField   nonuniform List<scalar> 
4455
(
13310.763
13318.04
13334.473
13362.931
13402.013
13458.32
13524.711
13624.419
13696.663
13362.383
13365.011
13377.541
13402.848
13442.531
13498.906
13570.286
13670.558
13777.611
13408.024
13407.182
13416.185
13439.611
13478.653
13536.272
13608.333
13712.909
13817.673
13447.407
13444.155
13450.599
13472.548
13511.525
13570.682
13644.676
13756.618
13869.93
13480.645
13475.852
13480.711
13501.793
13541.079
13601.748
13679.157
13802.634
13930.829
13507.952
13502.635
13506.587
13527.133
13566.971
13629.935
13711.712
13850.1
13994.64
13529.894
13524.912
13528.235
13548.708
13589.648
13654.386
13741.01
13898.146
14062.167
13547.106
13542.75
13546.219
13566.895
13608.31
13675.188
13767.233
13945.268
14135.614
13560.193
13556.699
13560.848
13581.521
13623.473
13692.591
13790.816
13990.874
14217.627
13569.92
13576.941
13581.859
13585.198
13587.386
13588.784
13589.71
13590.505
13591.507
13567.445
13575.497
13581.334
13585.334
13587.803
13589.04
13589.268
13588.646
13587.131
13572.465
13581.283
13587.528
13591.621
13593.903
13594.813
13594.96
13594.929
13595.313
13593.516
13602.551
13608.938
13613.097
13615.2
13615.618
13614.371
13611.032
13605.93
13636.451
13646.501
13653.365
13657.792
13659.729
13659.561
13658.011
13656.087
13655.146
13708.369
13721.202
13730.754
13737.046
13738.987
13737.147
13732.244
13724.644
13715.922
13815.691
13841.015
13864.028
13881.693
13892.762
13897.857
13897.116
13891.573
13883.559
14042.073
14088.758
14121.424
14141.917
14148.572
14144.405
14130.577
14111.285
14088.692
14337.369
14485.819
14576.927
14591.144
14564.797
14520.359
14464.835
14400.562
14332.149
13592.436
13592.056
13591.311
13590.593
13590.001
13589.307
13588.559
13587.548
13586.204
13585.465
13584.597
13584.036
13583.676
13583.348
13582.721
13581.616
13579.667
13576.694
13595.554
13596.545
13598.257
13599.483
13600.019
13599.51
13598.121
13597.01
13595.77
13601.174
13601.169
13603.34
13606.497
13609.613
13612.003
13613.433
13613.525
13612.326
13655.092
13659.019
13664.494
13669.991
13674.379
13677.121
13678.488
13678.916
13678.754
13709.751
13712.872
13720.463
13728.771
13735.913
13741.79
13745.031
13745.633
13744.283
13876.155
13877.943
13884.09
13889.468
13891.407
13888.997
13883.638
13878.076
13872.82
14066.706
14050.144
14035.714
14019.417
13999.07
13974.878
13949.893
13923.528
13897.083
14270.831
14214.64
14155.557
14094.933
14036.922
13984.572
13942.019
13896.632
13852.566
13832.134
13812.779
13816.34
13849.845
13903.985
13982.484
14076.601
14178.154
14278.616
13877.964
13865.641
13857.874
13857.431
13863.447
13874.471
13893.151
13921.411
13956.043
13869.214
13867.573
13865.576
13864.331
13866.626
13872.468
13880.194
13889.575
13901.77
13740.903
13738.098
13736.758
13735.46
13733.039
13730.245
13727.432
13724.667
13722.021
13678.407
13677.995
13676.954
13674.543
13670.916
13666.474
13661.513
13656.16
13650.32
13609.846
13606.983
13603.821
13600.07
13595.406
13589.684
13582.655
13573.988
13563.687
13593.654
13591.201
13587.734
13582.283
13575.385
13567.909
13559.625
13550.068
13539.293
13573.569
13569.716
13564.094
13558.085
13552.052
13544.228
13534.01
13522.481
13509.732
13584.293
13580.928
13576.663
13571.539
13565.953
13559.554
13551.952
13543.352
13533.618
13521.672
13506.866
13489.79
13470.205
13447.897
13422.93
13394.501
13362.312
13326.135
13494.271
13476.831
13457.557
13435.466
13410.735
13383.463
13353.169
13319.404
13281.517
13526.935
13512.797
13495.977
13477.346
13457.11
13434.435
13408.718
13380.053
13347.685
13551.951
13539.275
13524.128
13507.953
13489.945
13468.655
13445.489
13419.775
13389.981
13644.187
13637.558
13630.183
13621.798
13612.352
13601.724
13589.739
13575.837
13560.108
13719.671
13718.121
13717.316
13717.219
13717.376
13717.305
13716.399
13713.891
13710.084
13918.166
13938.628
13961.41
13984.858
14009.052
14032.965
14057.032
14080.924
14104.215
13995.236
14038.834
14086.186
14139.914
14199.775
14260.661
14320.978
14383.517
14447.697
14382.813
14491.986
14603.456
14714.066
14820.886
14929.271
15044.528
15161.254
15280.949
15406.13
14509.146
14126.624
13704.194
13541.21
13356.149
13312.09
13239.961
13285.025
15528.632
14571.181
14147.787
13695.875
13518.849
13321.028
13272.375
13193.696
13239.144
15647.903
14631.917
14165.091
13683.417
13493.226
13278.955
13228.249
13142.472
13187.534
15761.941
14686.898
14179.01
13666.459
13464.02
13231.732
13178.733
13085.874
13129.906
15859.167
14732.561
14187.955
13642.886
13428.463
13179.406
13124.535
13024.121
13065.774
15943.855
14768.445
14188.61
13611.654
13387.359
13121.325
13063.895
12955.581
12994.942
16029.962
14795.565
14181.866
13572.564
13340.987
13055.373
12996.855
12880.737
12916.987
16117.996
14811.201
14165.412
13523.63
13285.027
12982.42
12922.907
12799.372
12831.994
16179.609
14807.805
14135.241
13463.754
13221.3
12903.358
12841.317
12710.677
12740.369
12645.367
12614.963
12748.091
12813.152
13142.616
13390.008
14083.808
14782.453
16192.728
12547.998
12511.419
12642.914
12714.279
13042.745
13295.788
13991.52
14695.599
16049.891
12435.299
12397.855
12525.851
12603.753
12927.441
13178.041
13862.589
14549.081
15841.629
12297.65
12273.991
12397.809
12479.607
12793.63
13039.669
13710.076
14375.205
15621.131
12141.577
12137.726
12258.952
12343.393
12647.717
12887.587
13540.118
14190.097
15398.993
11973.717
11991.065
12108.975
12197.734
12490.238
12723.432
13355.811
13996.673
15171.949
11797.066
11832.086
11947.458
12038.873
12319.051
12547.884
13157.219
13785.443
14931.383
11610.875
11664.313
11776.327
11870.567
12139.801
12361.852
12944.578
13550.082
14683.38
11412.775
11485.235
11596.1
11693.598
11951.702
12162.69
12721.5
13300.453
14424.825
14156.595
13038.232
12485.678
11952.191
11753.476
11504.892
11404.074
11296.706
11201.376
13879.279
12759.561
12236.693
11730.777
11547.616
11307.327
11201.714
11098.83
10976.368
13594.284
12466.121
11977.161
11499.923
11330.866
11103.502
10990.567
10891.828
10740.828
13299.385
12158.86
11706.283
11260.795
11107.03
10888.227
10770.306
10675.901
10493.508
12993.176
11836.79
11427.63
11016.864
10876.403
10668.39
10541.143
10451.424
10236.658
12670.665
11501.436
11142.662
10768.27
10640.155
10441.104
10304.399
10219.128
9969.9191
12332.911
11155.317
10854.069
10517.713
10399.758
10208.107
10062.265
9979.8707
9695.3974
11971.441
10797.829
10564.324
10267.867
10155.948
9972.735
9812.8382
9732.814
9413.3606
11588.612
10429.628
10277.514
10020.635
9911.0683
9731.1034
9560.549
9480.5322
9130.1325
8856.0395
9219.5051
9301.3673
9482.8493
9658.9241
9768.2603
9988.0958
10030.237
11137.857
8590.599
8949.0661
9038.094
9226.8383
9398.5637
9507.794
9700.5311
9602.9684
10571.252
8303.4305
8673.5624
8772.3788
8964.6465
9140.2905
9256.0894
9436.1655
9195.167
9938.8744
8002.5786
8395.1856
8505.2097
8702.3001
8880.0461
9006.7407
9203.9008
8835.8107
9200.6739
7704.7907
8115.247
8235.3764
8436.0851
8619.3283
8760.2861
9005.9076
8566.1096
8352.4686
7418.0158
7836.3883
7967.3361
8169.0987
8357.9307
8514.6208
8837.5165
8401.1815
7376.1674
7141.6296
7559.5798
7700.6448
7905.7428
8096.0388
8264.6137
8687.9227
8374.5928
6350.7213
6879.3704
7289.6275
7438.8175
7646.3006
7832.3888
7999.9503
8533.0326
8534.2522
5379.3529
6585.2564
7028.1741
7184.94
7396.8299
7575.1673
7725.4794
8355.8029
8916.5075
4722.2047
6300.1431
6780.2927
6937.9311
7155.4575
7320.7738
7413.7551
8062.882
9304.2756
4262.9271
6058.2792
6551.7394
6698.8747
6920.8836
7074.7381
7123.7958
7723.8122
9489.7715
3385.7355
5856.044
6336.9006
6471.1119
6695.7996
6846.659
6894.7747
7409.8752
9482.1146
2382.7568
5679.3722
6132.7889
6252.9578
6473.2501
6624.8625
6691.4992
7163.9145
9299.4447
3067.9653
5516.5983
5938.0506
6043.8583
6250.6129
6390.7741
6484.4295
7055.3808
8946.8568
4229.5241
5359.3365
5753.607
5838.9355
6022.5613
6137.692
6256.3665
6985.3498
8401.6381
3616.795
5218.2197
5584.6606
5640.9544
5795.2393
5862.9942
5991.6789
6932.0312
7984.3021
3169.8501
5102.2137
5426.8148
5447.1769
5573.5729
5581.0695
5698.7029
6910.9952
7834.7721
3101.378
4987.2904
5281.997
5258.9139
5361.0497
5297.6693
5368.178
6932.6363
7506.8524
2833.8688
2854.3333
7277.8586
7006.695
5057.1204
5038.2065
5171.5864
5085.1955
5155.1276
4882.824
2839.7455
7175.0165
7021.2334
4764.8518
4803.1643
4995.4019
4924.5673
5046.6799
4793.3243
2856.6062
7039.747
6952.8832
4457.3423
4570.0845
4825.3685
4775.1262
4953.7192
4719.4557
2833.5359
6877.5112
6816.2579
4163.0065
4340.6288
4661.7598
4638.014
4877.0812
4653.4044
2810.3571
6658.8274
6619.4963
3886.3628
4120.5174
4509.3775
4514.9814
4815.8652
4597.5981
2754.9507
6418.0957
6394.0482
3635.5778
3911.6051
4366.6713
4409.1965
4771.3106
4545.1295
2708.4026
6164.5528
6138.8398
3391.9837
3713.001
4234.1253
4321.2155
4739.2837
4498.9164
2636.1863
5897.9686
5893.8127
3173.0665
3523.469
4110.2968
4251.8216
4715.5262
4452.6805
2602.241
5586.8517
5607.9348
2942.62
3342.1771
3996.1762
4200.0308
4696.876
4426.5642
2532.7448
5356.2947
5400.3339
2622.8653
3078.7871
3840.4781
4145.8954
4676.328
4389.389
2563.7795
5161.4075
4861.3942
1862.0918
2737.7409
3709.8294
4125.3611
4676.8705
4290.3983
2557.149
4946.1121
4466.7617
1155.0576
2544.5806
3670.4767
4173.5972
4712.0129
4143.9742
2512.9388
4749.9283
3936.6153
538.12317
2492.7426
3746.9786
4265.1862
4714.6635
3959.4613
2559.3793
4597.5583
3573.615
15.741035
2598.7686
3867.5386
4383.0704
4675.6675
3727.4501
2620.7608
4457.1293
3046.6321
-425.65797
2828.4902
4039.1401
4493.0465
4559.9433
3461.977
2589.722
4325.7432
2965.2644
-776.33983
3158.4037
4190.4837
4567.6582
4334.7422
3182.0444
2462.7972
4230.9873
2407.2127
-1037.96
3568.817
4313.9739
4607.5939
4022.0558
2906.6752
2316.5356
4181.4216
2441.0531
-1180.5367
4038.8473
4339.2675
4568.6598
3610.2317
2645.5641
-2041.1315
-1374.7856
479.52698
3330.3967
3679.6986
4323.5562
5809.9092
4155.6663
1788.0155
-1836.3104
-1035.748
503.87769
2588.8336
3276.6996
4056.0563
5919.5263
4267.3982
1993.2718
-1626.6768
-684.75125
583.85028
1827.0364
2933.25
3846.242
6103.4249
4415.5401
2152.7373
-1412.2884
-340.64806
703.62912
1069.2376
2645.8156
3691.8708
6338.516
4700.6734
2395.1343
-1190.0032
-11.394872
846.36863
329.14644
2413.4209
3596.7068
6596.4104
4916.7773
2591.8084
-966.79398
297.68207
1000.2595
-347.45629
2238.1668
3554.8459
6884.1445
5030.1124
2710.9022
-737.70527
589.41775
1131.0996
-902.77943
2120.1687
3576.1909
7096.1408
5037.7424
2767.1399
-509.67446
868.90878
1230.9395
-1348.8433
2062.4533
3657.6783
7225.1275
4877.3912
2760.3355
-275.48599
1110.4227
1326.2586
-1669.0786
2072.1487
3776.4269
7333.4032
4690.333
2742.4245
-5389.9791
-3807.6605
5539.8871
9138.2285
11016.588
11103.514
11450.062
9713.0337
4238.7224
-5648.9311
-4117.7176
4595.4758
8743.4743
10935.979
11361.866
11823.634
11085.707
6400.54
-5154.9197
-4429.7582
3650.3114
8177.5684
10497.011
11405.761
11989.852
12280.039
8106.8862
-5288.9183
-4780.405
2764.1413
7529.9742
9886.5485
11304.689
11831.032
12724.43
9869.7681
-5460.906
-5208.0823
1914.6901
6832.0262
9399.6841
11041.374
11575.591
12919.245
11020.313
-6025.4441
-5710.6544
1134.545
6058.0676
8842.9518
10736.088
11209.652
12605.775
11865.211
-6860.1725
-6248.1133
478.2937
5232.9808
8276.647
10311.093
10804.548
12356.246
12196.941
-8067.1166
-6816.4813
-56.491295
4453.661
7688.0506
9753.5566
10335.491
11772.036
12180.344
-9331.5685
-7485.4976
-500.01193
3820.8455
7138.069
9197.3719
9897.4643
11261.487
11849.855
9998.0929
9005.2793
8247.5785
7431.9063
5512.2468
2989.9134
-452.30767
-8932.6108
-9664.8551
10216.525
9230.0359
8396.2495
7593.5672
5594.0554
2979.1935
-627.87581
-9007.8596
-9683.5509
10429.189
9461.7224
8554.4741
7772.4083
5713.2644
3009.7847
-720.84396
-9043.8799
-9662.0787
10643.904
9701.6953
8719.1065
7954.5302
5863.5167
3057.5693
-780.32198
-8971.3744
-9590.0462
10840.21
9942.1897
8883.1488
8141.8345
6029.9955
3113.4139
-826.68879
-8839.2702
-9481.424
11026.337
10179.006
9047.4483
8322.7477
6204.3797
3174.282
-863.36348
-8662.0465
-9384.869
11212.712
10412.439
9213.4283
8505.4633
6383.9653
3249.5003
-883.44687
-8482.6812
-9272.9277
11398.963
10641.871
9386.1243
8685.4237
6565.5135
3339.4241
-894.67275
-8305.3579
-9359.9099
11573.596
10865.75
9567.8988
8870.0339
6756.0361
3469.1874
-884.46908
-8171.5758
-9431.8697
-9739.5114
-8857.1823
-87.983918
3067.7439
5460.3666
7283.0569
8103.5332
8780.1625
9763.3509
-9423.1485
-8394.2121
441.72227
3224.5135
5439.7921
7134.2548
7963.4951
8561.1429
9532.6129
-8109.088
-7231.9208
964.37737
3407.8715
5438.0168
6998.9188
7835.4509
8356.1071
9307.587
-7068.2185
-5773.3208
1394.195
3608.2548
5451.498
6872.5238
7717.4666
8162.0903
9083.4413
-7313.5818
-4248.7631
1783.9741
3821.7616
5486.1285
6764.276
7603.7368
7983.9815
8858.1936
-9318.2911
-2751.6408
2233.3111
4059.5344
5546.1797
6684.6295
7501.3348
7821.8508
8635.835
-10114.926
-1276.861
2785.7494
4322.4298
5621.5247
6627.8875
7407.2024
7676.1187
8418.6599
-8498.5711
265.41936
3350.4424
4539.9471
5671.0522
6570.4265
7304.7944
7542.4383
8219.9905
-6735.1016
1202.8874
3587.6516
4645.7007
5654.9642
6481.8819
7176.0236
7415.7945
8046.0688
7075.059
6931.1592
6679.4096
6279.8613
5752.9885
5116.9571
4452.2649
4313.6956
6182.2146
7072.5987
6891.7346
6619.681
6178.4462
5593.4646
4857.9681
4001.8562
3493.2018
5274.2315
7104.5019
6877.3563
6591.2168
6109.2245
5478.5582
4654.4077
3607.523
2654.8911
4221.7388
7165.8263
6888.5393
6596.2101
6075.6956
5405.6309
4514.9881
3289.8333
1861.8145
2997.1727
7256.2839
6924.3673
6631.5054
6074.2378
5374.2667
4443.3808
3068.6312
1163.2067
1520.7981
7373.4779
6985.7329
6696.0548
6104.9168
5381.7507
4433.6094
2972.9377
653.83104
-209.83355
7516.3705
7069.049
6785.2983
6165.2337
5417.3762
4470.5945
3021.4572
389.98361
-2196.4697
7680.749
7172.2616
6898.991
6251.1489
5484.665
4541.3814
3201.9243
416.58175
-4026.0265
7863.8582
7289.6499
7030.2243
6357.8371
5566.6141
4613.9122
3427.8398
802.40729
-5420.7179
6890.5432
5047.7889
4925.0704
5410.4287
5946.1492
6410.9463
6768.6967
6996.4284
7103.2563
7474.9884
5699.4406
5388.4315
5720.9546
6160.0687
6563.0121
6880.5565
7082.4069
7155.5941
8014.7482
6317.2545
5859.6026
6050.3988
6393.8664
6735.2348
7014.3959
7189.0792
7245.1833
8510.1562
6898.7411
6320.3003
6391.1173
6647.3025
6925.0736
7166.6315
7316.0683
7357.3549
8964.4303
7444.0563
6773.1626
6737.9432
6910.9474
7128.8861
7334.9384
7460.4047
7487.3811
9388.1305
7951.6306
7210.1364
7083.3517
7181.7053
7343.2388
7514.7584
7617.6266
7635.9167
9787.2187
8426.2669
7636.2656
7427.3729
7458.2517
7565.1703
7705.1473
7786.4532
7798.7961
10165.302
8869.0983
8042.1781
7762.473
7732.4362
7791.2418
7902.7576
7962.9453
7975.021
10524.668
9284.3029
8430.2761
8089.2883
8006.0756
8019.4247
8104.1065
8146.3784
8158.9385
9831.3518
9749.7224
9809.2216
9833.417
10029.269
10335.689
10936.303
11892.054
13328.764
9681.526
9590.9109
9645.1811
9670.0045
9859.8569
10165.016
10766.954
11729.755
13080.455
9511.2453
9426.9134
9472.5274
9493.7006
9673.4713
9967.1371
10551.77
11500.767
12764.954
9323.6266
9255.828
9292.6737
9308.3579
9471.1784
9747.7841
10306.71
11238.896
12439.543
9130.2752
9078.1653
9105.4528
9109.5368
9253.2736
9508.2644
10039.568
10959.248
12128.248
8935.2809
8895.483
8911.8065
8904.1672
9024.0925
9252.4811
9754.7348
10667.052
11833.398
8739.9885
8709.7446
8713.3096
8690.4154
8782.683
8984.318
9452.9469
10359.915
11543.163
8544.1032
8521.0868
8512.0855
8470.1966
8530.8945
8702.4371
9135.4455
10030.855
11225.392
8349.745
8332.9437
8307.4734
8245.9624
8272.1637
8402.4057
8794.4688
9671.4409
10879.103
9985.8034
10141.039
10291.725
10436.062
10574.399
10706.227
10831.603
10950.44
11063.439
9901.2877
10048.134
10189.527
10323.615
10453.838
10576.844
10695.365
10807.704
10915.721
9962.7754
10108.61
10245.831
10377.076
10501.301
10619.263
10732.306
10838.249
10941.427
9986.901
10129.83
10264.088
10391.458
10510.16
10622.762
10729.014
10829.732
10925.26
10180.704
10315.489
10440.752
10555.082
10660.564
10760.687
10852.143
10938.224
11021.054
10478.11
10600.697
10710.073
10807.498
10896.003
10976.735
11049.198
11116.531
11178.825
11058.69
11154.485
11233.238
11297.183
11350.155
11394.67
11431.076
11462.513
11490.012
11977.173
12024.895
12047.743
12052.541
12045.114
12029.865
12006.162
11978.916
11949.079
13379.983
13377.608
13333.881
13262.896
13174.154
13082.677
12979.017
12878.875
12779.167
11170.393
11018.573
11038.269
11016.569
11098.734
11237.665
11513.791
11917.652
12677.244
11271.415
11116.896
11130.617
11104.127
11171.587
11293.298
11536.447
11887.572
12582.825
11367.165
11210.593
11219.912
11187.391
11242.806
11347.27
11558.19
11857.253
12487.235
11457.451
11300.023
11304.667
11268.215
11311.734
11399.47
11579.359
11830.004
12391.821
11542.575
11385.511
11384.696
11345.998
11378
11451.26
11602.453
11805.887
12302.601
11622.588
11466.919
11462.541
11420.39
11443.047
11502.832
11625.858
11784.687
12217.363
11698.302
11544.245
11537.165
11493.08
11507.339
11554.547
11650.963
11768.294
12134.191
11768.961
11618.198
11606.616
11563.034
11569.73
11606.235
11678.953
11757.783
12048.129
11835.457
11688.538
11672.92
11629.625
11631.116
11658.105
11709.453
11752.328
11967.347
12255.377
12167.914
12141.231
12124.366
12117.354
12129.739
12127.187
12027.839
11711.138
12218.976
12127.308
12100.23
12079.555
12069.769
12078.439
12072.177
11965.912
11652.508
12181.7
12083.376
12056.51
12031.924
12020.085
12025.802
12017.784
11910.16
11614.515
12143.211
12036.386
12010.449
11981.954
11968.668
11972.705
11964.744
11863.055
11608.491
12102.414
11985.998
11961.302
11929.162
11915.776
11919.612
11914.181
11824.175
11634.332
12057.655
11933.433
11910.185
11874.44
11861.492
11866.924
11866.803
11793.97
11686.364
12008.441
11876.979
11855.461
11817.054
11806.096
11814.434
11822.162
11771.688
11747.348
11955.168
11818.011
11797.798
11756.946
11749.063
11762.168
11781.579
11758.516
11820.26
11897.322
11754.88
11737.586
11695.366
11691.11
11709.998
11743.593
11751.742
11896.653
11770.674
12093.319
12184.08
12180.977
12163.621
12167.169
12179.92
12205.168
12286.242
11857.218
12169.275
12242.778
12231.879
12208.124
12207.914
12216.229
12239.52
12310.479
11953.995
12248.562
12299.722
12280.287
12249.522
12245.795
12249.567
12270.845
12330.792
12054.75
12327.741
12353.766
12325.684
12287.698
12280.843
12279.985
12299.439
12348.991
12160.764
12408.426
12404.243
12368.133
12322.786
12313.023
12307.596
12325.225
12363.692
12265.28
12488.875
12451.304
12407.506
12355.155
12342.713
12332.833
12348.245
12376.492
12372.157
12569.835
12495.576
12444.492
12385.493
12370.414
12356.148
12368.141
12386.22
12478.847
12650.458
12538.951
12480.294
12415.181
12396.627
12378.034
12384.774
12393.352
12584.503
12726.547
12585.268
12517.17
12446.416
12421.965
12398.877
12397.737
12396.542
12710.596
12805.857
12646.048
12564.75
12488.413
12453.819
12424.973
12410.676
12399.069
12861.41
12890.456
12719.241
12622.204
12541.606
12497.908
12462.529
12433.457
12410.335
13015.191
12973.013
12792.089
12680.264
12595.049
12544.143
12502.217
12461.623
12428.147
13169.466
13054.944
12864.686
12740.125
12650.028
12592.773
12544.523
12495.107
12452.092
13318.895
13135.691
12935.097
12800.619
12706.038
12643.53
12589.505
12533.475
12482.21
13460.953
13213.466
13002.55
12860.992
12762.948
12696.254
12637.441
12576.389
12518.358
13594.227
13286.916
13065.746
12920.739
12820.576
12750.861
12688.242
12623.394
12560.496
13705.275
13353.393
13125.813
12980.087
12878.908
12807.086
12741.587
12674.312
12608.406
13771.078
13409
13182.947
13038.307
12937.357
12864.211
12797.236
12728.788
12661.731
13253.559
13266.566
13289.181
13322.899
13364.919
13424.203
13495.558
13602.74
13673.932
13191.438
13210.989
13241.11
13280.541
13328.7
13393.396
13477.809
13595.396
13716.973
13125.301
13152.446
13190.107
13235.65
13288.493
13358.955
13452.039
13582.565
13726.157
13056.394
13091.951
13136.774
13187.597
13244.568
13321.414
13421.718
13566.795
13733.809
12986.445
13030.12
13081.419
13136.963
13198.017
13279.933
13389.125
13548.943
13749.304
12916.599
12967.836
13024.81
13084.318
13149.175
13235.659
13353.889
13528.744
13761.959
12848.186
12905.822
12967.568
13030.105
13097.885
13188.871
13316.004
13505.347
13772.598
12782.228
12844.894
12910.265
12975.117
13045.427
13140.462
13274.593
13477.913
13778.592
12719.888
12785.76
12853.539
12920.169
12992.56
13091.139
13231.196
13446.887
13778.839
13947.422
13994.866
14045.247
14104.241
14169.761
14235.908
14294.185
14332.421
14336.941
14019.038
14063.2
14114.981
14176.335
14243.514
14308.958
14363.961
14398.54
14397.514
14090.027
14138.681
14194.518
14258.98
14326.927
14391.397
14442.873
14474.743
14468.993
14177.265
14230.147
14289.855
14356.208
14423.7
14486.602
14534.099
14561.496
14549.475
14282.81
14340.103
14402.514
14469.972
14536.725
14597.143
14641.507
14661.52
14638.115
14406.008
14467.541
14533.379
14601.779
14668.235
14727.529
14769.648
14780.316
14750.129
14553.051
14617.665
14686.08
14757.017
14823.379
14882.24
14926.458
14928.455
14852.161
14731.793
14799.03
14870.37
14944.946
15018.103
15078.233
15123.677
15129.565
15097.062
14947.432
15013.784
15091.421
15176.594
15265.583
15329.132
15361.125
15298.613
15170.585
17414.873
16699.08
16398.967
16052.15
15802.944
15605.642
15456.449
15341.88
15257.661
15953.399
16036.747
16033.89
15981.892
15903.952
15798.206
15689.49
15570.54
15472.569
15436.601
15498.118
15521.87
15535.088
15533.345
15515.632
15481.852
15429.231
15365.039
15217.973
15237.373
15237.183
15241.721
15241.955
15237.489
15230.046
15214.432
15184.778
15045.933
15060.058
15056.182
15055.412
15051.056
15043.719
15037.635
15032.896
15016.046
14890.307
14899.614
14895.118
14895.306
14890.049
14882.144
14874.572
14868.682
14856.31
14756.043
14759.168
14755.685
14755.218
14751.651
14746.097
14740.507
14736.211
14727.104
14637.291
14635.983
14630.414
14628.844
14623.309
14618.26
14611.958
14607.256
14599.861
14520.916
14513.761
14507.041
14500.585
14493.424
14486.304
14479.191
14472.919
14464.881
14338.767
14219.812
14086.55
13925.426
13753.756
13566.275
13292.287
12963.716
12759.783
14345.548
14225.928
14091.146
13929.166
13747.435
13551.696
13276.073
12943.727
12692.087
14350.287
14228.15
14090.284
13925.34
13736.517
13530.443
13243.153
12912.128
12608.451
14357.568
14232.103
14094.047
13926.336
13735.052
13515.342
13222.437
12868.866
12509.014
14364.076
14237.022
14096.681
13928.392
13730.633
13504.598
13207.166
12816.741
12389.19
14372.427
14242.948
14103.261
13932.236
13733.641
13500.788
13194.459
12767.267
12268.205
14378.526
14249.744
14107.431
13939.878
13734.639
13508.105
13183.698
12735.669
12171.987
14387.04
14255.82
14114.479
13944.008
13742.768
13507.542
13185.102
12711.563
12123.622
14397.363
14267.748
14126.329
13959.562
13758.739
13529.352
13205.874
12733.829
12089.895
12784.377
12981.289
13297.532
13558.098
13764.537
13934.602
14088.831
14216.204
14368.863
12684.927
12897.608
13259.086
13545.697
13757.462
13926.104
14080.423
14211.832
14367.057
12560.965
12809.345
13231.617
13539.691
13747.783
13918.772
14075.356
14213.545
14364.762
12410.25
12714.183
13206.246
13532.224
13736.513
13910.308
14070.966
14216.94
14369.265
12234.93
12616.312
13170.212
13508.335
13715.567
13898.09
14063.799
14211.924
14361.963
11977.228
12583.397
13197.756
13523.942
13723.445
13905.65
14072.362
14222.149
14371.024
11577.063
12380.862
13127.556
13470.244
13684.553
13880.304
14054.992
14209.596
14362.145
11278.831
12485.445
13199.539
13501.707
13709.49
13899.184
14069.226
14221.013
14370.111
10081.938
12288.272
13158.743
13458.514
13682.486
13882.938
14058.029
14213.259
14365.653
14504.954
14634.444
14750.189
14876.54
15000.02
15118.671
15245.848
15429.717
15660.441
14508.22
14641.384
14758.097
14886.969
15014.099
15126.987
15251.287
15437.756
15675.399
14506.913
14645.884
14764.015
14896.699
15029.007
15130.815
15254.366
15448.043
15692.894
14514.054
14655.798
14772.243
14911.803
15038.703
15133.516
15258.562
15458.207
15712.815
14510.155
14656.621
14776.301
14931.72
15046.772
15133.84
15252.423
15459.369
15723.684
14518.635
14663.517
14792.264
14950.715
15067.756
15139.813
15253.572
15467.419
15738.27
14512.816
14654.257
14809.847
14963.71
15084.884
15118.587
15235.846
15465.331
15740.15
14519.598
14660.284
14825.017
14997.185
15112.331
15125.127
15229.763
15464.504
15740.466
14517.913
14657.887
14812.628
15014.288
15126.094
15130.006
15233.062
15465.591
15740.529
15877.267
16056.201
16235.132
16374.593
16413.161
16459.676
16598.517
16786.136
16827.302
15896.083
16079.266
16271.307
16415.252
16447.743
16486.439
16630.675
16816.678
16863.024
15915.811
16105.651
16309.492
16454.13
16476.355
16508.995
16662.072
16844.465
16884.984
15936.935
16132.809
16347.664
16492.79
16502.333
16526.434
16686.67
16870.449
16868.412
15950.771
16154.595
16381.428
16528.547
16525.336
16536.823
16707.261
16897.224
16824.244
15966.094
16180.614
16419.628
16566.273
16548.889
16543.868
16726.462
16924.322
16788.761
15973.462
16197.121
16447.621
16591.871
16566.589
16545.385
16736.37
16921.122
16773.008
15979.72
16221.116
16477.08
16627.685
16593.707
16555.353
16744.285
16946.414
16731.464
15981.244
16227.04
16483.558
16640.329
16612.884
16564.955
16745.054
16940.377
16763.325
17286.335
17067.042
16815.967
16557.262
16266.954
15962.413
15647.524
15335.921
15029.445
17352.186
17131.234
16888.374
16630.785
16332.173
16019.242
15698.471
15383.358
15074.544
17405.134
17182.749
16956.405
16692.634
16391.055
16072.197
15749.375
15430.921
15121.374
17459.266
17234.072
17025.818
16753.404
16450.261
16125.723
15801.137
15474.438
15163.727
17509.595
17285.614
17092.394
16811.351
16509.738
16182.844
15857.22
15528.832
15212.892
17533.841
17337.888
17156.529
16862.365
16560.778
16224.377
15897.148
15559.874
15246.585
17516.366
17381.131
17217.367
16921.134
16622.169
16287.156
15960.101
15622.526
15306.1
17494.734
17414.493
17258.052
16951.307
16652.903
16311.061
15983.818
15639.574
15324.388
17470.812
17441.673
17311.124
17014.973
16721.037
16382.196
16055.399
15711.514
15394.647
14728.988
14433.72
14135.574
13836.024
13529.463
13211.435
12885.967
12547.713
12198.497
14769.268
14471.541
14170.483
13870.014
13562.06
13244.212
12918.158
12579.228
12229.703
14813.489
14513.923
14212.088
13910.755
13603.861
13286.968
12963.053
12624.931
12279.382
14850.172
14552.535
14245.553
13947.834
13636.377
13323.746
12997.873
12661.346
12318.971
14899.947
14598.076
14292.488
13991.44
13682.564
13367.798
13044.971
12707.696
12367.84
14925.547
14627.509
14315.592
14019.795
13705.247
13396.092
13070.858
12734.715
12399.773
14985.75
14684.21
14374.041
14074.573
13762.701
13452.179
13128.855
12794.768
12457.898
14997.748
14699.488
14384.275
14088.771
13773.231
13465.265
13141.757
12806.145
12475.998
15067.502
14767.041
14452.222
14155.725
13841.76
13534.181
13212.808
12880.307
12547.367
11803.908
11355.702
10898.587
10484.771
10055.902
9631.8764
9007.9104
8119.4356
6612.8867
11837.444
11404.392
10959.158
10563.193
10144.721
9759.0349
9173.57
8367.8611
6904.1097
11889.918
11472.276
11027.376
10623.662
10186.75
9770.1854
9188.9478
8469.2684
7199.3685
11932.484
11533.177
11090.397
10688.045
10246.483
9830.9096
9282.9348
8620.2907
7536.8089
11983.477
11594.872
11164.533
10761.602
10327.46
9902.3485
9408.2427
8803.3773
7996.5723
12017.834
11646.694
11227.079
10820.214
10395.26
9957.2225
9491.9604
8983.8568
8579.7221
12082.466
11717.516
11323.893
10915.775
10506.892
10056.474
9626.5303
9028.5294
9560.441
12100.678
11750.216
11361.991
10959.2
10549.813
10108.773
9593.9684
9202.3477
9077.9454
12183.424
11841.454
11487.775
11098.294
10722.247
10305.967
9885.3471
8700.1065
12539.518
4974.8781
3040.3669
2203.3656
2730.1837
2676.179
2509.1576
3057.7793
3858.1441
4277.8415
5013.5928
2873.1741
2244.1334
2867.6809
2780.2448
2728.5506
3191.905
3912.9421
4302.6006
4945.5932
2627.2618
2349.6755
2850.3484
2710.7967
2675.843
3311.74
3954.299
4305.0756
4722.3579
2343.1223
2465.874
2884.0123
2765.0413
2827.3928
3409.6425
3989.0556
4319.3735
4353.4853
2127.0772
2724.6844
2890.687
2748.9485
2887.8839
3501.7135
4028.1802
4345.6574
4301.294
2249.8256
2823.7848
2824.8762
2798.4518
3019.1523
3601.3505
4064.4466
4367.0632
4873.4191
2631.9002
2827.463
2864.699
2847.4897
3119.573
3696.6195
4098.9273
4387.4875
4180.8865
1408.4456
2907.4992
2782.4553
2867.8478
3192.2545
3765.3436
4126.9265
4404.193
-4489.8053
3580.7433
2851.0634
2851.8001
2965.8399
3330.7716
3857.1053
4159.2781
4416.8758
4381.4254
4362.247
4293.9189
4149.0017
3962.5702
3724.3616
3564.2913
3373.538
3392.7519
4431.1798
4414.4502
4340.6846
4184.9174
3980.8725
3739.8469
3571.9023
3427.922
3430.5389
4427.2112
4412.4796
4333.6448
4170.7088
3948.2958
3700.8178
3542.2886
3420.4755
3516.2019
4441.4229
4425.6074
4339.7539
4169.3267
3935.3488
3695.768
3550.3926
3494.5245
3646.185
4461.5733
4446.8475
4354.8108
4174.7442
3932.6046
3695.6001
3557.272
3554.7406
3791.9204
4480.6408
4468.6808
4368.0126
4181.706
3933.4715
3706.9513
3578.2533
3668.3215
3962.7432
4493.1757
4486.8349
4377.7272
4178.7172
3925.6178
3712.171
3627.6803
3801.0295
4151.8172
4502.1991
4497.859
4383.0764
4179.0673
3926.6827
3721.0901
3676.8719
3870.366
4250.7613
4507.5567
4501.5119
4374.7249
4153.7235
3894.9934
3716.2832
3736.588
4032.6764
4517.0053
3219.0954
1984.8069
1892.85
1541.1129
1363.6325
1818.6165
2523.607
2817.3299
2614.5992
3341.7998
2107.0556
1921.2164
1571.306
1307.7435
1693.6161
2463.8802
2874.6196
2676.6597
3567.2204
2288.8569
1999.227
1675.2798
1417.6558
1596.686
2338.2087
2885.0468
2746.0418
3795.6723
2476.7769
2115.7313
1766.7479
1411.0904
1502.4071
2158.514
2860.4202
2808.3607
4049.9754
2713.7834