/*--------------------------------*- C++ -*----------------------------------*\
  =========                 |
  \\      /  F ield         | OpenFOAM: The Open Source CFD Toolbox
   \\    /   O peration     | Website:  https://openfoam.org
    \\  /    A nd           | Version:  11
     \\/     M anipulation  |
\*---------------------------------------------------------------------------*/
FoamFile
{
    format      ascii;
    class       surfaceScalarField;
    location    "2.625";
    object      phi;
}
// * * * * * * * * * * * * * * * * * * * * * * * * * * * * * * * * * * * * * //

dimensions      [0 3 -1 0 0 0 0];

internalField   nonuniform List<scalar> 
8667
(
15.889441
1.798082
0.090254459
13.994316
1.6653181
0.22980764
12.0965
1.4956515
0.40216449
10.203154
1.3732633
0.52008258
8.3034839
1.2706605
0.62900925
6.4297504
1.1505482
0.72318525
4.5463592
1.0800101
0.80338117
2.7398154
0.90456987
0.90197393
0.70009245
1.0800547
0.95966827
15.889291
3.6865688
13.990318
3.5642913
12.091776
3.3941936
10.18855
3.276489
8.2939595
3.1652515
6.4115345
3.0329733
4.5417746
2.9497699
2.7395295
2.706815
2.4941595
0.94546242
15.888538
5.5758091
13.988248
5.4645805
12.085655
5.2967868
10.179356
5.1827884
8.282293
5.0623143
6.400801
4.9144653
4.528835
4.8217358
2.7284493
4.5072008
4.2934529
0.92915595
15.888181
7.465406
13.986818
7.3659433
12.081639
7.2019659
10.172871
7.0915567
8.2722192
6.9629662
6.3863864
6.8002981
4.5100519
6.6980704
2.7055891
6.3116635
6.0958958
0.90314622
15.887911
9.3552705
13.986344
9.267511
12.079149
9.1091602
10.167448
9.0032578
8.2635324
8.8668821
6.3740032
8.6898272
4.4976195
8.5744541
2.69177
8.1175131
7.8833495
0.90431628
15.887769
11.245279
13.987075
11.168205
12.077207
11.019029
10.164023
10.916441
8.2584142
10.772491
6.3594147
10.588827
4.4750501
10.458819
2.6637226
9.9288405
9.6620756
0.88499647
15.887549
13.135508
13.987808
13.067946
12.077857
12.928979
10.160268
12.834031
8.2522415
12.680517
6.3527435
12.488325
4.4635297
12.348033
2.6436086
11.748762
11.433135
0.87254942
15.887677
15.02561
13.988772
14.966851
12.077627
14.840124
10.160797
14.750861
8.2483647
14.592949
6.3379064
14.398783
4.4406038
14.245335
2.6121902
13.577175
13.193804
0.8515208
15.887934
16.915453
13.990607
16.864179
12.079638
16.751092
10.160798
16.669701
8.2465877
16.50716
6.3346548
16.310716
4.4309222
16.149068
2.5853548
15.422743
14.95174
0.82741905
18.74257
15.950662
20.568776
15.951572
22.394069
15.952491
24.218784
15.953065
26.04236
15.954184
27.86496
15.95518
29.686549
15.956191
31.506637
15.957692
15.960808
33.323609
18.697409
14.117431
20.530514
14.118467
22.363211
14.119795
24.195124
14.121152
26.025569
14.123739
27.854991
14.125757
29.684046
14.127136
31.515269
14.126469
14.126552
33.349524
18.598288
12.270236
20.444743
12.272012
22.290308
12.274229
24.134877
12.276583
25.978833
12.279783
27.819577
12.285014
29.655173
12.29154
31.484171
12.297472
12.304982
33.30574
18.525149
10.414787
20.381344
10.415817
22.2347
10.420873
24.086596
10.424686
25.938063
10.428316
27.791879
10.431198
29.655152
10.428267
31.52038
10.432243
10.434931
33.390432
18.362356
8.5595918
20.219519
8.5586542
22.083429
8.556963
23.949262
8.5588537
25.818268
8.5593094
27.684115
8.5653517
29.541911
8.5704711
31.397429
8.5767246
8.5841877
33.248173
18.176145
6.6941623
20.050852
6.6839478
21.940439
6.6673763
23.844788
6.6545038
25.75986
6.6442383
27.686177
6.6390346
29.618795
6.637853
31.558586
6.6369337
6.6421421
33.500631
17.997961
4.8452687
19.867799
4.8141101
21.749487
4.7856887
23.652009
4.7519812
25.559674
4.7365734
27.484269
4.7144403
29.411228
4.7108932
31.353156
4.6950066
4.7080105
33.287287
17.242825
3.0251861
19.146479
2.9104558
21.105229
2.8269394
23.128814
2.7283958
25.184357
2.6810306
27.294135
2.6046622
29.412081
2.5929466
31.556349
2.5507388
2.5559812
33.708379
16.690239
1.2866873
18.649592
0.95110222
20.87816
0.59837168
23.209864
0.39669243
25.559064
0.33182978
27.925572
0.23815485
30.30626
0.21225847
32.66672
0.19027878
35.017339
0.20536165
33.199501
0.12410832
33.075347
0.12415428
32.952281
0.12306601
32.829562
0.12271847
32.708586
0.12097603
32.588197
0.12038906
32.470582
0.11761477
32.354228
0.11635427
0.11363496
32.240593
33.233193
0.2404395
33.118925
0.23842278
33.006228
0.23576265
32.896368
0.23257882
32.788545
0.22879835
32.685606
0.22332825
32.585478
0.2177426
32.492111
0.20972135
0.20418459
32.401562
33.189984
0.356196
33.078609
0.34979771
32.969665
0.34470657
32.865766
0.33647819
32.764594
0.3299697
32.670503
0.31741914
32.579393
0.30885302
32.497402
0.29171183
0.28243541
32.419152
33.292905
0.45372297
33.202196
0.44050618
33.117044
0.42985842
33.038259
0.41526394
32.964149
0.40407905
32.896777
0.38479179
32.833427
0.37220245
32.777339
0.3477997
0.3350398
32.724735
33.165363
0.53653306
33.09112
0.5147493
33.021452
0.49952619
32.959818
0.47689729
32.90281
0.46108732
32.853537
0.43406495
32.807934
0.41780561
32.769306
0.38642752
0.37169046
32.732655
33.460414
0.57675049
33.432575
0.54258809
33.407754
0.52434708
33.390411
0.49423997
33.375695
0.47580336
33.364817
0.44494294
33.357912
0.4247113
33.350609
0.39372995
0.37682925
33.345471
33.280708
0.58332921
33.27967
0.54362661
33.28324
0.52077717
33.291552
0.48592761
33.29996
0.4673957
33.311757
0.4331458
33.322373
0.41409538
33.326448
0.38965442
0.37824158
33.325036
33.877406
0.41430158
34.041442
0.3795909
34.208004
0.35421517
34.359959
0.33397278
34.514349
0.31300533
34.653528
0.2939673
34.773556
0.29406713
34.845394
0.31781585
0.3464674
34.877169
35.273569
0.1580717
35.485595
0.16756543
35.674773
0.16503696
35.857066
0.15167977
36.005904
0.164167
36.038208
0.26166318
35.98274
0.34953545
35.830819
0.46973677
35.635967
0.54131978
35.462438
0.61715446
-0.44362555
35.151814
0.58819535
-0.27757122
34.803741
0.56673951
-0.21866705
34.469999
0.56030099
-0.22655895
34.16619
0.5642732
-0.26046402
33.884174
0.5705229
-0.28850716
33.592672
0.56948414
-0.27798212
33.243882
0.56970067
-0.22090998
0.55415743
32.85546
-0.16573634
34.994272
0.50005124
35.066224
0.5162432
35.102088
0.53087545
35.115535
0.5468539
35.117431
0.56237691
35.106454
0.58150055
35.07718
0.59875817
35.028632
0.61824859
0.6341263
34.948663
33.43575
0.38933714
33.538932
0.41306147
33.629296
0.44051149
33.712922
0.46322802
33.784614
0.49068482
33.853716
0.51239803
33.912019
0.54045541
33.967063
0.56320428
0.5913903
34.009799
33.456396
0.27841173
33.569422
0.30003561
33.67531
0.33462305
33.783064
0.35547414
33.881372
0.39237657
33.980146
0.41362472
34.068191
0.45241
34.157067
0.47432826
0.51415583
34.234302
32.824933
0.18613435
32.922981
0.20198721
33.024786
0.23281817
33.131213
0.24904666
33.239781
0.28380955
33.35254
0.30086527
33.465423
0.33952654
33.582113
0.35763827
0.40033188
33.695937
32.799635
0.11123387
32.878868
0.12275502
32.963973
0.14771245
33.053089
0.1599311
33.147196
0.18970249
33.245797
0.2022641
33.348948
0.23637534
33.457399
0.24918737
0.28801092
33.56972
32.474566
0.055819656
32.536755
0.060565877
32.605689
0.078777968
32.681268
0.084352733
32.764384
0.10658598
32.854882
0.11176608
32.952099
0.1391582
33.057336
0.14395083
0.17584518
33.169502
32.440079
0.017302791
32.482383
0.018261581
32.533409
0.027752056
32.587972
0.029789734
32.652768
0.041789267
32.721628
0.042906053
32.802389
0.058398081
32.886874
0.059465654
0.07717546
32.985543
32.257896
32.276158
32.30391
32.333699
32.375489
32.418395
32.476793
32.536258
32.613434
32.69108
-0.077645883
32.788959
-0.097879215
32.890613
-0.10165362
33.012895
-0.1222821
33.139111
-0.12621665
33.29035
-0.151239
33.448367
-0.15801678
33.628175
-0.17980814
-0.19348098
33.821656
33.088119
-0.18022172
33.20794
-0.21769973
33.329698
-0.22341146
33.471722
-0.26430671
33.616653
-0.27114691
33.783385
-0.31797156
33.953435
-0.3280666
34.146326
-0.37269963
-0.39021679
34.343062
33.290204
-0.30092406
33.418375
-0.34587038
33.553115
-0.35815203
33.698201
-0.40939201
33.849789
-0.42273551
34.009008
-0.47719087
34.174044
-0.49310185
34.353058
-0.55171423
-0.57042058
34.533262
33.688345
-0.41954889
33.808798
-0.46632353
33.936677
-0.48603057
34.064836
-0.53755132
34.201121
-0.55902072
34.338597
-0.61466682
34.485229
-0.63973405
34.635254
-0.7017386
-0.73056303
34.795396
33.813719
-0.53733079
33.926176
-0.57878016
34.043675
-0.60352964
34.154
-0.64787597
34.271134
-0.67615521
34.381899
-0.72543163
34.500736
-0.75857145
34.613619
-0.81462112
-0.85284926
34.735905
34.311248
-0.61427721
34.375974
-0.64350578
34.442569
-0.67012474
34.497729
-0.70303605
34.557259
-0.73568515
34.604462
-0.77263523
34.657554
-0.81166302
34.697589
-0.85465605
-0.9003611
34.745101
34.047074
-0.65155196
34.068674
-0.66510606
34.081521
-0.68297093
34.079112
-0.70062784
34.064815
-0.72138743
34.030575
-0.73839507
33.983224
-0.76431222
33.920525
-0.7919571
-0.83063258
33.850796
34.831231
-0.53412022
34.664875
-0.49874999
34.458573
-0.47666866
34.217708
-0.45976313
33.957879
-0.46155804
33.682495
-0.46301184
33.407534
-0.48935047
33.142251
-0.52667457
-0.5835245
32.895143
32.454284
-0.13294329
32.070837
-0.11530358
31.717339
-0.12317076
31.39901
-0.14143342
31.089425
-0.15197389
30.791913
-0.16549899
30.52063
-0.21806801
30.241839
-0.24788299
29.978567
-0.32025293
0.63845011
29.689896
-0.34977876
0.87716836
32.656425
0.95236304
33.775602
0.91720143
34.780262
0.79953113
34.853575
0.63292521
34.962002
0.43629769
34.72989
0.21475998
34.5646
34.036416
0.6983172
29.347639
-0.3560605
0.93078499
32.423957
1.0048959
33.701491
0.96127112
34.823887
0.83291461
34.981932
0.65617772
35.138739
0.45970636
34.926361
0.23296026
34.791346
34.269376
0.76170478
28.978517
-0.39258278
0.99719327
32.188468
1.0722796
33.626404
1.0367878
34.859379
0.91412741
35.104592
0.72650251
35.326364
0.5047129
35.148151
0.25261617
35.043443
34.521993
0.85326249
28.654215
-0.52896073
1.0650374
31.976694
1.1320548
33.559387
1.0840868
34.907347
0.94764465
35.241035
0.74927595
35.524733
0.5339686
35.363458
0.27695033
35.300461
34.798943
0.92301499
28.333632
-0.60243199
1.151525
31.748184
1.2180201
33.492892
1.171837
34.95353
1.0403433
35.372528
0.82986636
35.735209
0.58391967
35.609405
0.29842117
35.58596
35.097364
1.0207598
27.933837
-0.62096474
1.2269918
31.541952
1.2819968
33.437887
1.2217799
35.013747
1.0751184
35.51919
0.8541221
35.956206
0.61667945
35.846847
0.324546
35.878093
35.42191
1.1121139
27.345037
-0.523314
1.3337527
31.320313
1.3875171
33.384122
1.3243169
35.076947
1.181386
35.66212
0.9428877
36.194704
0.66892151
36.120814
0.34737818
36.199636
35.769288
1.2349883
26.770663
-0.6606144
1.4137074
31.141594
1.4510447
33.346785
1.3717216
35.15627
1.2135534
35.820289
0.96716157
36.441096
0.70431663
36.383658
0.37697928
36.526974
36.146268
1.3292984
26.092383
-0.65101831
1.5442629
30.926629
1.5803058
33.310742
1.4946033
35.241973
1.3393674
35.975524
1.0686463
36.711817
0.76210876
36.690196
0.40115759
36.887925
36.547425
-0.063033549
36.610459
-0.041235508
36.866127
0.016373037
36.632587
0.12163678
36.606553
0.24434918
35.852812
0.42834117
35.057981
0.60695887
33.132124
0.85654507
30.677043
26.060425
0.8885032
-0.071355228
36.681814
-0.077503574
36.872275
-0.065882298
36.620966
0.020428069
36.520243
0.13624888
35.736991
0.30947371
34.884756
0.46797752
32.973621
0.69746503
30.447555
26.052368
0.70552266
-0.092985527
36.774799
-0.097291397
36.876581
-0.05894383
36.582619
0.029750591
36.431549
0.13412797
35.632614
0.30514701
34.713737
0.45426674
32.824501
0.69896019
30.202862
26.012994
0.73833354
-0.10034625
36.875146
-0.13569032
36.911925
-0.14632339
36.593252
-0.078256084
36.363481
0.023266305
35.531091
0.18862105
34.548382
0.32994671
32.683175
0.56787848
29.96493
26.014383
0.56648923
-0.11978162
36.994927
-0.14677772
36.938921
-0.12747127
36.573945
-0.052984242
36.288994
0.036610803
35.441496
0.20133584
34.383657
0.33672247
32.547789
0.55869634
29.742956
25.98317
0.58990966
-0.13061446
37.125542
-0.19028376
36.998591
-0.21993088
36.603592
-0.1657072
36.234771
-0.072588393
35.348378
0.086028413
34.22504
0.21652142
32.417296
0.39565954
29.563818
25.972677
0.40615236
-0.14648329
37.272025
-0.19146361
37.043571
-0.18745175
36.599581
-0.12305585
36.170375
-0.044990473
35.270312
0.1102383
34.069812
0.23918654
32.288347
0.39716097
29.405844
25.929147
0.44069093
-0.1584479
37.430473
-0.23321028
37.118333
-0.27611093
36.642481
-0.23257527
36.126839
-0.15208745
35.189824
-0.0061601331
33.923884
0.11389471
32.168292
0.24280592
29.276933
25.872439
0.29951411
-0.17183311
37.602306
-0.22685074
37.173351
-0.23415216
36.649783
-0.17935743
36.072044
-0.10965334
35.12012
0.031169225
33.783062
0.14830028
32.051161
0.27100303
29.15423
25.788795
0.35464724
-0.13822168
25.686947
0.2400693
-0.017100092
29.033108
0.087919208
31.946142
0.21199624
33.658985
0.28128034
35.050836
0.31821811
36.035107
0.26600829
36.701992
0.18106423
37.258295
37.78337
-0.19149572
25.561571
0.31687221
-0.072840007
28.914452
0.027148971
31.846153
0.15237505
33.533759
0.21535343
34.987858
0.26168987
35.98877
0.24173344
36.721949
0.18533351
37.314695
37.968704
-0.081481619
25.426156
0.21689614
0.038765197
28.794206
0.13420034
31.750718
0.24590024
33.422059
0.31170159
34.922056
0.34266304
35.957809
0.27997796
36.784634
0.19492064
37.399752
38.163625
-0.15461675
25.276022
0.30475148
-0.039292308
28.678881
0.050034582
31.661391
0.16526856
33.306825
0.22458066
34.862744
0.26981133
35.912578
0.24827874
36.806167
0.19146079
37.45657
38.355085
-0.067782898
25.135351
0.20845325
0.042922926
28.568175
0.13697961
31.567334
0.24883079
33.194974
0.31422229
34.797353
0.34363293
35.883167
0.27971898
36.87008
0.19676426
37.539525
38.55185
-0.15677807
24.994392
0.2977371
-0.054744014
28.466141
0.031095928
31.481494
0.14913665
33.076933
0.21103028
34.735459
0.25834404
35.835854
0.23896308
36.889461
0.1881507
37.590337
38.74
-0.09187694
24.875074
0.21119544
0.0020420168
28.372222
0.097119427
31.386417
0.22004256
32.95401
0.29003538
34.665466
0.32469679
35.801192
0.26186788
36.95229
0.18694349
37.665262
38.926944
-0.19648057
24.792936
0.27861866
-0.12090799
28.29665
-0.026333488
31.291842
0.1046829
32.822993
0.17184575
34.598304
0.2240752
35.748963
0.20961252
36.966753
0.17147635
37.703398
39.09842
-0.15823912
24.719409
0.2317662
-0.09307376
28.231484
0.020277232
31.178492
0.16308127
32.680189
0.23581064
34.525574
0.27298937
35.711784
0.22475288
37.01499
0.16563481
37.762516
39.264055
0.00061007281
39.263445
0.079265832
37.68386
0.17881774
36.915438
0.30523381
35.585368
0.43037067
34.400437
0.58435009
32.52621
0.69730551
31.065536
0.62861008
28.30018
24.946682
0.4013367
0.022075962
39.241369
0.088229453
37.617707
0.15629632
36.847371
0.26940234
35.472262
0.39789049
34.271949
0.57118369
32.352917
0.7233549
30.913365
0.66804702
28.355488
25.165947
0.44878182
0.062254339
39.179115
0.17140574
37.508555
0.29400424
36.724772
0.43406523
35.332201
0.57424701
34.131767
0.75525804
32.171906
0.93855485
30.730068
0.8914165
28.402626
25.704153
0.35321059
0.10056569
39.078549
0.20031414
37.408807
0.28847991
36.636607
0.41144498
35.209236
0.55490924
33.988303
0.76025403
31.966561
1.0029223
30.4874
1.0684921
28.337056
26.255501
0.51714404
0.1458015
38.932747
0.29139557
37.263213
0.44288453
36.485118
0.59677771
35.055343
0.7418087
33.843272
0.93971413
31.768655
1.2181444
30.20897
1.3484467
28.206754
27.112338
0.4916104
0.18851214
38.744235
0.33167967
37.120045
0.45501697
36.36178
0.59167529
34.918684
0.73799407
33.696953
0.950107
31.556542
1.2798988
29.879178
1.5962773
27.890375
27.85312
0.85549532
0.24069235
38.503543
0.43356011
36.927178
0.62405325
36.171287
0.79469448
34.748043
0.93167672
33.559971
1.1124466
31.375773
1.4379908
29.553633
1.9011679
27.427198
28.63263
1.1216578
0.29391828
38.209625
0.48533782
36.735758
0.64873614
36.007889
0.80934382
34.587436
0.94834029
33.420975
1.1179758
31.206137
1.4646493
29.20696
2.1805298
26.711318
28.831282
1.9818775
0.34436057
37.865264
0.59423444
36.485884
0.83573425
35.766389
1.0501517
34.373018
1.1842678
33.286859
1.2936142
31.096791
1.6128358
28.887738
2.4692877
25.854866
28.417012
2.8835581
-1.5067079
39.371972
-3.0117054
37.990882
-4.5183384
37.273022
-5.8981259
35.752806
-7.0561642
34.444897
-7.9703802
32.011007
-8.4769219
29.39428
-8.9878511
26.365795
29.832175
-10.403014
-1.5155273
40.887499
-3.0302441
39.505598
-4.5452846
38.788063
-5.9467198
37.154241
-7.1703748
35.668552
-8.0932069
32.933839
-8.5934728
29.894546
-8.8903085
26.662631
29.651941
-8.7100745
-1.49337
42.380869
-3.0089397
41.021168
-4.5611311
40.340254
-6.0288582
38.621968
-7.2640966
36.90379
-8.1267681
33.79651
-8.5700224
30.3378
-8.3967613
26.48937
24.762803
-3.5076238
-1.4674635
43.848333
-3.0117286
42.565433
-4.5828485
41.911374
-6.0719187
40.111038
-7.3733163
38.205188
-8.2448622
34.668056
-8.4928631
30.585801
-7.6997397
25.696246
17.16093
-0.097866756
-1.444689
45.293022
-2.9746439
44.095388
-4.5817049
43.518435
-6.1374556
41.666789
-7.4612162
39.528948
-8.3174101
35.52425
-8.3345536
30.602945
-6.8617948
24.223488
10.420428
-0.12129212
-1.4234576
46.716479
-2.9538957
45.625826
-4.5858698
45.150409
-6.1642091
43.245128
-7.5653113
40.930051
-8.4328623
36.391801
-8.0756453
30.245728
-5.6154447
21.763287
4.8337622
-0.028779247
-1.3616757
48.078155
-2.90765
47.171801
-4.5787085
46.821467
-6.1999837
44.866403
-7.63306
42.363127
-8.413126
37.171867
-7.4008516
29.233453
-3.0128555
17.375291
0.57460437
1.2463023
-1.3150305
49.393186
-2.8571505
48.713921
-4.5488463
48.513163
-6.2072033
46.52476
-7.7108666
43.86679
-8.4205872
37.881588
-6.5370784
27.349945
-1.535465
12.373677
-2.113489
1.1526284
-1.2557432
50.648929
-2.7912132
50.249391
-4.5408862
50.262836
-6.2485155
48.23239
-7.7498127
45.368087
-8.235855
38.36763
-5.0422371
24.156327
-0.42767922
7.7591196
-3.4931761
0.95200785
-0.26241118
-3.7686708
0.53790582
2.3061527
5.1905557
5.0243506
21.438129
4.8259197
38.566061
3.8011801
46.392827
2.6535848
49.379985
1.529697
51.386724
0.61469359
51.164394
51.263622
-0.55533468
-3.7464052
0.53306905
1.8262915
2.8089297
4.8786951
18.385725
4.8129857
38.631771
3.7591042
47.446708
2.5903497
50.54874
1.4328615
52.544212
0.54835949
52.048896
51.811982
-0.63389086
-3.6317598
0.51924544
1.5788676
0.59617124
4.702376
15.262217
4.7864357
38.547711
3.7083554
48.524789
2.5028197
51.754275
1.3553484
53.691684
0.51082104
52.893423
52.322803
-0.47925169
-3.6404692
0.48796101
1.6329685
-1.5160489
4.5449638
12.350221
4.7402479
38.352427
3.6431626
49.621874
2.4198576
52.97758
1.248391
54.86315
0.44438837
53.697426
52.767191
-0.3259064
-3.7406012
0.42603841
1.6712601
-3.5132154
4.3954492
9.6260324
4.6973019
38.050574
3.5753922
50.743784
2.3196886
54.233284
1.1680942
56.014745
0.41570114
54.449819
53.182892
-0.23850381
-3.9008774
0.39877995
1.680358
-5.4320772
4.2650183
7.0413721
4.6282353
37.687357
3.4934972
51.878522
2.2275052
55.499276
1.0592853
57.182965
0.35405267
55.155052
53.536945
-0.14294346
-3.9900007
0.23206672
1.6739487
-7.2489693
4.1293163
4.5860045
4.5829034
37.23377
3.4144388
53.046986
2.1155374
56.798177
0.97796356
58.320539
0.33216191
55.800853
53.869107
-0.091921976
-4.1186699
0.22059109
1.6616765
-9.0025678
4.005648
2.2420331
4.4936841
36.745734
3.3228018
54.217869
2.0174824
58.103497
0.87423627
59.463785
0.28273021
56.392359
54.151837
-0.050573702
-3.8072833
-0.26081289
1.5561583
-10.6093
3.8011601
-0.0029685955
4.4202313
36.126663
3.2339364
55.404163
1.8918644
59.445569
0.79792347
60.557726
0.26971569
56.920567
54.421553
1.0488922
-5.5222579
0.66608242
3.8993636
-13.459771
5.2260185
-1.3296235
3.4647152
37.887966
0.90379416
57.965084
-0.83721319
61.186576
-1.6773829
61.397895
-1.0066968
56.249881
53.414856
1.661153
-7.7027347
0.51932386
4.2502472
-16.048866
4.8186519
-1.8980281
2.482963
40.223655
-0.33141906
60.779466
-1.8508615
62.706019
-2.1161985
61.663233
-0.93785768
55.07154
52.476998
2.0607246
-10.139997
0.37653763
4.4016071
-18.389748
4.4392257
-1.9356466
1.5226152
43.140265
-1.0996857
63.401767
-2.3182227
63.924556
-2.4017163
61.746726
-0.96814226
53.637966
51.508856
2.327807
-12.731365
0.26356074
4.4513889
-20.51333
3.9894259
-1.4736835
0.57939458
46.550297
-2.1746302
66.155792
-3.1568264
64.906752
-2.462628
61.052528
-0.56611842
51.741457
50.942738
2.375703
-14.350998
-0.7560699
4.3094123
-22.447039
3.4571907
-0.62146182
-0.47038945
50.477877
-2.8183913
68.503794
-3.2089742
65.297335
-2.281591
60.125145
-0.36075675
49.820622
50.581981
2.4213451
-14.955657
-1.8166863
4.3322401
-24.357934
2.9598349
0.75094344
-1.4035451
54.841257
-3.6154925
70.715741
-3.9050202
65.586863
-2.1761778
58.396302
0.13835279
47.506092
50.720334
2.1066153
-15.244569
-1.8177028
4.0340266
-26.285346
2.2028476
2.5821225
-2.5428438
59.586948
-4.0301525
72.20305
-3.5296817
65.086392
-1.4167526
56.283373
0.548758
45.540581
51.269092
1.9537522
-16.369661
-0.82866026
3.9924636
-28.324057
1.7904285
4.7841577
-3.2494956
64.626872
-4.5160411
73.469595
-3.9355406
64.505892
-0.96706553
53.314898
1.0080356
43.56548
52.277127
1.6926293
-0.31595548
-17.746335
3.5534854
-30.184913
0.73037567
7.6072675
-4.5890206
69.946268
-4.7181821
73.598757
-2.8853163
62.673026
0.71284788
49.716734
1.6935317
42.584796
53.970659
-0.91952271
3.2879617
0.4076548
-2.7760938
-1.3330493
42.279208
-41.865682
-0.71423425
67.010598
-67.629413
2.9026758
22.089793
-25.706703
4.8534266
-25.240529
23.289778
5.0075752
-41.406564
41.252416
3.0818803
-44.551136
46.476831
1.811937
-29.59897
30.868913
-1.8040569
0.75563233
-0.98283603
3.8677436
0.40305414
-1.6046814
42.901054
-0.74890305
66.15482
3.31363
18.02726
5.3694613
-27.29636
6.0143201
-42.051423
4.004274
-42.54109
2.8737553
-28.468451
-4.1748368
-1.0278881
4.4999993
0.39563234
-1.7389156
43.612081
-0.61245475
65.028359
3.8217894
13.593016
6.0051402
-29.479711
6.8661038
-42.912387
4.7159446
-40.390931
2.1822667
-25.934774
-5.5073184
-1.0583618
5.1601647
0.39819644
-1.7897304
44.34345
-0.38787454
63.626503
4.3995357
8.8056058
6.669053
-31.749228
7.6196109
-43.862944
5.6999505
-38.471271
1.3528096
-21.587633
-4.6994574
-1.0867333
5.858164
0.38873406
-1.7538643
45.010581
-0.072364351
61.945003
4.9965466
3.7366949
7.4331635
-34.185845
8.4381677
-44.867949
7.1441139
-37.177217
2.5807453
-17.024264
-3.2261763
-1.1136932
6.5728652
0.398992
-1.6390506
45.535938
0.40317353
59.902779
5.5965038
-1.4566353
8.2475402
-36.836881
9.4129818
-46.03339
8.3954198
-36.159655
3.7377969
-12.366641
-1.7315719
-1.1339295
7.3126015
0.39419316
-1.4757088
45.877717
0.96222506
57.464846
6.1804487
-6.674859
9.025749
-39.682182
10.428893
-47.436534
10.018215
-35.748977
5.7920251
-8.1404513
-0.31287399
-1.1556101
8.061472
0.40673965
-1.3064508
46.028558
1.5844855
54.573909
6.9016118
-11.991985
9.8657711
-42.646341
11.440383
-49.011146
11.366603
-35.675197
8.731675
-5.5055229
-0.76922091
-1.1574276
0.40235699
8.8165426
-1.1067028
45.977833
2.2706302
51.196576
7.6737359
-17.395091
10.730185
-45.70279
12.657306
-50.938267
12.655394
-35.673285
11.449218
-4.2993466
-3.4927093
-3.9274068
-7.3315103
-2.7314965
13.990413
-8.9233935
-70.025584
75.02157
-8.085843
-76.704331
75.866781
-3.6117893
-53.710127
49.236073
4.907862
-24.990999
16.471348
11.81886
-2.2275634
-4.6834349
12.661593
-8.5899381
7.7472057
5.6653034
-31.35367
38.34996
-73.484538
79.149842
-2.869864
-0.053559504
-4.4080871
-8.1757573
-64.719691
-8.3520768
-76.528012
-5.5874674
-56.474737
1.9154711
-32.493938
9.4411722
-9.7532645
12.375843
-11.524609
7.9180787
-26.895906
-65.56646
-2.5961012
7.3169173
-4.7743757
-8.0219816
-59.29381
-8.3792761
-76.170717
-5.8713399
-58.982673
0.052587178
-38.417865
7.0116038
-16.712281
9.991701
-14.504706
6.1990373
-23.103242
-59.367422
-1.7394554
13.635177
-4.578805
-7.3280716
-53.705194
-8.571402
-74.927387
-6.493066
-61.061009
-1.427536
-43.483395
4.4919363
-22.631753
8.8026288
-18.815399
7.7902729
-22.090886
-51.57715
-1.4403485
19.16248
-4.086954
-7.013253
-48.13229
-8.5479476
-73.392692
-6.938023
-62.670934
-3.3563601
-47.065058
1.5496512
-27.537765
5.8588743
-23.124622
5.4785072
-21.710519
-46.098642
-0.8603193
23.853271
-3.8304721
-6.2514017
-42.741207
-8.4329317
-71.211162
-7.6131855
-63.49068
-4.9096232
-49.76862
-0.53393347
-31.913454
4.4061715
-28.064727
6.1547762
-23.459124
-39.943866
-0.31697863
27.942095
-3.7718461
-5.7540406
-37.304146
-8.0222208
-68.942981
-7.4161285
-64.096772
-5.4074052
-51.777343
-2.068056
-35.252804
1.7849138
-31.917696
3.7165472
-25.390758
-36.227319
0.17293394
29.128365
-1.3592055
-4.7203129
-32.4109
-7.6073552
-66.055938
-7.6787941
-64.025333
-5.7213645
-53.734773
-2.5999677
-38.3742
0.54610173
-35.063766
3.1397526
-27.984408
-33.087566
-0.065742658
27.669693
1.5244138
-4.0089435
-28.4677
-6.7893383
-63.275542
-7.3399492
-63.474722
-6.1138658
-54.960856
-3.3656174
-41.122449
-1.1826407
-37.246742
1.1920202
-30.359069
-31.895546
0.086499196
29.856545
-29.943044
0.2788458
34.085715
-34.278062
0.088120322
37.466967
-37.276241
-0.1829039
41.141217
-40.870193
-1.1307656
48.806053
-47.858191
-2.3875141
54.245594
-52.988846
-3.3759958
56.737652
-55.74917
-1.8699814
42.84675
-44.352765
-10.070549
7.6137666
0.58680043
0.041140757
29.815405
0.29245801
33.834398
0.13011199
37.629313
-0.07771945
41.349048
-0.97941837
49.707752
-2.1894279
55.455604
-3.1545263
57.702751
-1.6034857
41.29571
-12.493801
0.81976635
-0.0068967839
29.822301
0.32437139
33.50313
0.19152511
37.762159
0.035617269
41.504956
-0.85859502
50.601964
-2.0805668
56.677576
-2.9753344
58.597519
-1.2288246
39.5492
-15.022507
1.2998811
-0.076555748
29.898857
0.30371442
33.12286
0.21131943
37.854554
0.12293326
41.593342
-0.70976434
51.434662
-1.8852921
57.853104
-2.7606254
59.472852
-0.97173981
37.760314
-17.461804
1.4675567
-0.17035296
30.06921
0.30006089
32.652446
0.26085122
37.893764
0.21506874
41.639125
-0.60688161
52.256612
-1.7813822
59.027604
-2.5981234
60.289593
-0.72242309
35.884614
-19.832444
1.648217
-0.23574444
30.304955
0.24348461
32.173217
0.26220757
37.875041
0.30196414
41.599368
-0.44524947
53.003826
-1.5875937
60.169948
-2.3869579
61.08896
-0.49309737
33.990752
-22.099308
1.7737653
-0.39547601
30.700431
0.189552
31.588189
0.29742586
37.767167
0.37150255
41.525292
-0.34399799
53.719326
-1.4762474
61.302198
-2.2409343
61.853648
-0.34616112
32.095978
-24.181355
1.7358852
-0.46822858
31.168659
0.086443425
31.033517
0.27451001
37.579101
0.45969927
41.340102
-0.1895205
54.368546
-1.2918265
62.404504
-2.0356593
62.597482
-0.20536528
30.265682
-26.293088
1.9063664
-0.72688681
-0.052438965
0.27991933
0.49757288
-0.094736933
-1.1649555
-1.8430154
-0.045032658
1.3315729
4.1322584
2.7898454
0.69166295
7.3509029
-47.57141
5.8390146
-54.237281
3.7811736
-50.931005
2.070209
-46.147226
1.2306081
-40.030592
0.54708497
-36.592718
0.24218208
-33.973159
-29.700862
5.8854831
-3.5692455
0.47360766
7.930901
-49.616828
6.0491326
-52.355513
3.886968
-48.76884
2.2087644
-44.469023
1.3285212
-39.150348
0.58890624
-35.853103
0.23711402
-33.621367
-29.463748
8.3412601
-11.865725
-0.044780675
8.2045711
-49.480139
6.1784513
-50.329393
4.0593298
-46.649719
2.3677703
-42.777463
1.4226576
-38.205236
0.67761357
-35.108059
0.22691272
-33.170666
-29.236836
9.0085633
-20.70257
-0.17171768
8.3820674
-48.853643
6.2969191
-48.244245
4.1374606
-44.49026
2.5045121
-41.144515
1.5286343
-37.229358
0.74112876
-34.320554
0.24706686
-32.676604
-28.989769
9.7868067
-29.447009
-1.0423675
8.5065746
-47.573411
6.3596128
-46.097283
4.2887845
-42.419432
2.6682407
-39.523971
1.638515
-36.199632
0.83512699
-33.517166
0.25635192
-32.097829
-28.733417
10.312633
-37.799565
-1.9600778
8.5941186
-45.854896
6.3302481
-43.833412
4.3478743
-40.437058
2.7770615
-37.953158
1.7146035
-35.137174
0.89982153
-32.702384
0.28850889
-31.486516
-28.444908
10.682598
-42.732196
-5.7499667
8.7332996
-43.905597
6.4020731
-41.502186
4.4751429
-38.510128
2.947215
-36.42523
1.8426364
-34.032596
0.99914006
-31.858887
0.3133296
-30.800706
-28.131578
11.016355
-42.539309
-11.209242
8.6183328
-41.507575
6.322427
-39.20628
4.498804
-36.686505
3.0329944
-34.959421
1.911701
-32.911302
1.0636776
-31.010864
0.36095116
-30.097979
-27.770627
10.941026
-40.674324
-12.806011
8.4279474
-38.994497
6.3317576
-37.11009
4.5960611
-34.950808
3.1695987
-33.532958
2.0395484
-31.781252
1.1468415
-30.118157
0.39133399
-29.342472
-27.379293
0.65715
34.324755
-34.981905
1.1917454
34.816482
-35.351077
1.6703014
35.449684
-35.92824
2.0371035
36.303228
-36.67003
2.2726207
37.100302
-37.335819
2.2916013
37.929392
-37.948373
1.9527673
37.634828
-37.295994
1.2634887
35.440127
-34.750849
28.644573
-27.95193
0.57084529
0.71761086
33.607144
1.2839802
34.250113
1.7910511
34.942613
2.1925102
35.901768
2.4664946
36.826318
2.5467827
37.849104
2.1784891
38.003121
1.3729743
36.245642
29.5307
0.48684759
0.75937391
32.84777
1.3713621
33.638125
1.9457835
34.368192
2.4007175
35.446834
2.737734
36.489301
2.9116013
37.675237
2.647145
38.267577
1.8479208
37.044866
30.743316
0.63530492
0.82253462
32.025235
1.4576452
33.003014
2.0568048
33.769032
2.5485818
34.955057
2.9151646
36.122718
3.1835413
37.40686
2.9659601
38.485159
2.1383292
37.872497
32.305409
0.57623626
0.85016989
31.175065
1.5360104
32.317173
2.1971726
33.10787
2.7434938
34.408736
3.1797828
35.686429
3.5233823
37.06326
3.4983597
38.510181
2.8242261
38.546631
34.18866
0.94097467
0.90862477
30.266441
1.6072119
31.618586
2.2927217
32.42236
2.872244
33.829214
3.3349765
35.223697
3.7695933
36.628644
3.8561496
38.423625
3.3265664
39.076214
36.275813
1.2394133
0.92670674
29.339734
1.6676833
30.87761
2.4101735
31.67987
3.0510161
33.188371
3.5757197
34.698993
4.0777213
36.126642
4.3799076
38.121439
4.0586532
39.397468
38.107793
2.2266737
0.97602682
28.363707
1.7231556
30.130481
2.4781498
30.924876
3.1481535
32.518368
3.6954912
34.151656
4.2585606
35.563573
4.6196654
37.760334
4.6314289
39.385705
39.765552
2.9736696
0.9844139
1.7724229
2.5791416
3.3162573
3.9349545
4.547719
5.197963
5.5891709
4.6803987
-0.5146768
-27.691566
0.2543132
-0.97995399
-34.285571
-1.3214982
-36.954449
-1.4154495
-37.854422
-1.3457561
-37.405513
-1.1430858
-36.8727
-0.84851363
-36.222812
-0.48422504
-35.715366
-35.46613
-0.52733297
-27.494628
0.33039459
-0.90979124
-33.903113
-1.1924051
-36.671835
-1.2884072
-37.758419
-1.227446
-37.466474
-1.042807
-37.057339