/*--------------------------------*- C++ -*----------------------------------*\
  =========                 |
  \\      /  F ield         | OpenFOAM: The Open Source CFD Toolbox
   \\    /   O peration     | Website:  https://openfoam.org
    \\  /    A nd           | Version:  11
     \\/     M anipulation  |
\*---------------------------------------------------------------------------*/
FoamFile
{
    format      ascii;
    class       volScalarField;
    location    "0.35921";
    object      T;
}
// * * * * * * * * * * * * * * * * * * * * * * * * * * * * * * * * * * * * * //

dimensions      [0 0 0 1 0 0 0];

internalField   nonuniform List<scalar> 
880
(
500.0000000000027
500.0000002920847
500.0240511126204
503.3403115224322
500.0000000004407
500.0000008564922
500.0298553981137
504.8865084041583
500.0000000016356
500.0000033359722
500.0553273679935
506.7149083135799
500.0000000211684
500.0000146120232
500.1147370319063
509.427519880147
499.9999999006574
500.0000000752312
500.0000101602286
500.000163683981
500.0000671266571
500.0002569297822
500.0016141770702
500.0023561186752
500.2633132006426
500.4346294520095
500.7185505450865
500.9605692037181
514.9168322505144
521.1114522239044
526.3730249950538
529.0279316095717
500.0004089745759
500.0033840021867
500.0128208544651
500.0397683287616
500.0227872536639
500.0985434453453
500.2004627616591
500.4219242097319
502.4153032690488
503.6980034893229
505.2856035032802
507.2299975696179
531.2561111893967
533.8972998201582
534.3916606610599
533.1634710144882
522.839856339084
517.6387843619763
515.444102751663
513.9697410893193
511.0467066102362
512.6632956723062
513.5771152844329
513.7068143200626
501.1770224728892
502.0599395914352
503.0078114516203
503.7659876455562
500.1411123653054
500.3405267984397
500.6411345230492
501.0637300333485
501.5571561321975
502.0495032294146
502.53508795874
502.8865933695907
504.3921569087976
504.7482846306293
504.9497696463362
504.8998830659694
513.0672558580782
512.1687797011723
510.9864370452239
509.7489976817005
512.2218526366158
511.0326253645395
510.280866538512
509.5133501951577
508.9396606548246
508.8783707308093
504.7591480692429
503.0944765272554
519.1925872159464
508.0399920848299
504.3856396909989
503.0551609190728
571.3010541327261
510.4319306871443
503.9286730430051
502.6025189381139
620.3336738080591
523.8908891306635
504.7796766404618
502.4441840510158
502.3951497700215
506.0660060637206
539.6711425532079
637.4053219276267
501.5148249729513
508.5879236145888
556.2944902665274
635.1862400596161
501.8907102891137
514.4375935633312
576.600668055533
636.1931848304067
503.322879681829
524.8594303694379
594.7398108300354
633.4396464293361
628.3202839356062
604.8013835241677
539.8048864950929
506.4833682528027
621.8170474338687
607.4541531323786
554.9868194267054
512.1587680917515
614.5027149818995
605.2851870252146
566.9860920974905
521.1510990121878
606.6451734348602
594.2608335115272
569.0809860836107
532.079102077092
541.2824631983128
563.5978859209279
579.7613356390652
597.1545058616567
539.8242644538811
552.0536687745624
562.8298857003732
582.2097558213574
535.8279573456111
540.3195642546856
544.5127320499759
560.5785246146374
530.6312055985767
529.8340914240014
525.3140857892167
530.4076040330688
526.7474776653994
520.449364150418
508.4979160238239
495.5335649555639
520.5874119541377
511.276951903126
491.9716419445231
459.8373442043229
515.7597812469988
506.0167026034601
477.9399797641668
425.1153620328329
511.5856923479678
504.5828878655297
477.6919792642676
399.8420858706602
410.5800122161784
486.8384896016897
503.2606070342517
507.7665841010133
477.9630248409355
493.0436420468331
502.4041642336377
505.1681456954252
517.271414958503
495.7400328930686
500.8739941969237
503.3583243089064
530.1839659510421
500.4122283855017
500.2276853588944
502.2891773361316
539.003625296638
504.3300356581008
498.9656534986282
500.3922143317099
533.7900654292091
504.2978788088138
497.6633213464224
499.2218377262873
525.7840730930244
503.482913220874
497.2756657409674
499.1944964906492
517.6954698649821
499.1124427686972
497.0798472822962
499.4042304402156
479.7638597753116
469.4036250186547
488.9389903588417
498.6813237488264
474.2449707352268
471.2951608796092
489.4279026448672
498.681133003187
465.2187276169794
473.419752325169
490.3294587441947
498.6952267985504
459.4927099810992
476.2518025431299
491.3810434839016
498.7844560481506
517.6954698650534
499.1124427683928
497.0798472826816
499.4042304399577
525.7840730931508
503.4829132202456
497.2756657409827
499.1944964899328
533.7900654292616
504.2978788080916
497.6633213452685
499.2218377253249
539.003625296717
504.3300356573758
498.9656534984519
500.3922143311244
507.7665841012612
503.2606070344935
486.8384896020124
410.58001221525
505.1681456953418
502.4041642336849
493.043642047452
477.963024840067
503.3583243088617
500.8739941969899
495.7400328922182
517.2714149583153
502.2891773359643
500.2276853592865
500.4122283848772
530.1839659513892
399.8420858719953
477.6919792641
504.5828878655402
511.5856923481001
425.1153620328552
477.9399797642208
506.0167026038537
515.7597812469921
459.837344204541
491.9716419449328
511.2769519031183
520.5874119542833
495.5335649559242
508.4979160235678
520.4493641499407
526.747477665505
541.2824631983127
563.5978859215173
579.7613356397272
597.1545058621191
539.8242644534337
552.0536687742422
562.8298857005653
582.2097558219133
535.8279573448273
540.319564254404
544.512732049904
560.5785246149794
530.6312055983412
529.8340914235999
525.314085789022
530.407604033462
606.6451734352037
594.2608335118982
569.0809860839009
532.0791020780376
614.5027149823489
605.2851870255862
566.9860920975975
521.1510990121079
621.8170474343791
607.4541531326776
554.9868194263956
512.1587680917416
628.3202839360819
604.801383524524
539.8048864955369
506.4833682527204
502.3951497699242
506.0660060636901
539.6711425530726
637.4053219276068
501.514824973701
508.5879236150087
556.2944902666325
635.186240059744
501.8907102901724
514.4375935643332
576.6006680558853
636.1931848302543
503.3228796818581
524.8594303692278
594.7398108305712
633.4396464295769
502.4441840508387
502.6025189379733
503.0551609196133
503.0944765274039
504.7796766397304
503.928673042705
504.3856396909204
504.7591480691152
523.8908891299349
510.4319306871283
508.0399920843119
508.8783707306558
620.3336738078053
571.301054132323
519.1925872160057
508.9396606546986
502.8865933700704
504.8998830662817
509.7489976821045
509.5133501956438
502.5350879585604
504.9497696467904
510.9864370456447
510.2808665387794
502.0495032294367
504.748284630834
512.168779701097
511.0326253639399
501.5571561317679
504.3921569086645
513.0672558584715
512.2218526367964
500.1411123648567
501.177022472571
511.0467066108244
522.8398563395053
500.3405267977882
502.0599395909871
512.663295672946
517.6387843621155
500.6411345233608
503.0078114513684
513.5771152848336
515.4441027509108
501.0637300329308
503.765987645477
513.7068143206282
513.9697410888806
533.1634710145269
507.2299975697496
500.4219242095871
500.0397683292001
534.3916606611725
505.2856035034559
500.2004627614176
500.012820854312
533.8972998205629
503.6980034892704
500.0985434441363
500.0033840015709
531.2561111895112
502.4153032688237
500.0227872532885
500.0004089752399
529.02793160935
500.9605692039856
500.0023561189265
500.000163684738
526.3730249945584
500.7185505451145
500.001614176718
500.0000101607671
521.1114522232783
500.4346294519532
500.0002569293735
500.0000000748995
514.9168322499831
500.2633132005443
500.0000671263577
499.999999901189
500.0000000001753
500.000000292227
500.0240511125573
503.3403115222054
500.0000000005271
500.0000008561941
500.0298553980608
504.8865084042171
500.0000000018922
500.0000033357712
500.0553273680949
506.7149083140735
500.0000000219066
500.0000146118576
500.1147370319731
509.4275198803804
506.2245779808272
508.9267889761027
513.2478399026838
521.8938917006182
508.926788976594
512.3854698753287
518.7539733328048
531.3302447497595
513.2478399029508
518.753973332894
528.8788108271198
544.0750381921546
521.8938917006932
531.3302447496094
544.0750381926724
560.2580053981533
577.2405035344468
564.2345405045176
557.3528431621562
544.9480844077675
575.4548782936974
571.5443142184175
570.3300446539992
564.6272848247092
575.3913216002727
574.3208051517385
573.7602895860343
572.0560449865726
571.9791969818073
571.5442271629514
571.6830893757752
570.9787008357144
567.8979844066582
565.5531122621688
560.4610073206724
553.2867020957808
567.5574801266409
565.1528255379118
560.2392983421665
553.9646481753019
567.5738968922221
564.9921602413199
559.9823034338374
554.5585889883342
567.6362638022754
564.7355095877674
560.1858140042573
550.9725540031392
512.3818336402064
492.810495886651
489.9508520615484
490.4511672905395
501.8270275077671
488.7089819430373
489.9715147681545
491.0977690404351
491.5803880241832
488.8783392203965
491.5604432937062
492.8384528081584
469.9270163954938
484.124024483227
489.9024605065231
491.5998123910592
490.7942152208285
491.8116961279724
493.3338026142664
494.8478866834438
491.0051623095158
491.4822028550232
492.8638996246558
494.8625947356291
492.3178380117214
492.340111264241
493.2686064669358
494.7370201834152
491.2497175456215
491.4209995409113
492.7270562950112
494.8416687735588
505.0175397910439
567.6609227181448
639.346522778585
664.5378855523801
510.9346277634799
581.1484165943787
641.9961069176464
660.244847484993
516.4120506653496
589.480512317912
641.9662124273765
660.9440101655216
520.2195978853408
597.7496042466219
642.1730918906378
661.3560232747458
694.2998453323365
681.4477788634911
670.1462515528835
656.8819578815445
702.7499018825044
690.0094569111475
676.9029664351482
662.5560498217113
708.7280006136571
697.4747239292637
683.0185174293413
668.0458876656724
706.6516110129999
701.2966737554983
687.1965152949234
671.83909243811
643.6255505366026
633.0346743572155
623.2218697878395
618.9686397581438
648.7255535735131
637.1208809341919
625.9544967344393
621.0678536618827
653.8879908989998
640.6317558064133
629.5127691835066
623.1784679995783
658.3056425652148
643.7012966135518
633.0024100286855
625.5999579347728
615.0672557487389
607.6470413648475
590.9815968277682
565.0088183091825
616.843987051479
609.2346943367645
593.7796031321125
592.6515203974449
617.8377023357413
610.1532701405374
602.7700419887894
620.416219392635
619.7321897132101
614.0035997736663
616.3490271627633
603.9814125094297
522.5300529047431
460.1999787013254
422.6196390672247
426.3074868018351
512.0688929380327
421.9816037786654
305.5063263075617
252.9393046185819
468.7328997377326
368.0995447381264
252.1743322578701
231.8554918118579
368.00863879575
282.5873298877077
227.8297683844753
239.594612725544
375.9470161697288
403.9613467246669
471.0992436114364
522.9324169828864
306.4862239787269
380.3775305239993
441.8244149628404
491.7060587204329
291.6744194971705
350.909198854431
404.3970485269157
445.1213537699595
298.9407692922716
351.4310307107607
402.1127890589385
431.137101342281
487.0565582920283
510.3422165200213
509.2706356302198
509.6758956317855
435.7704499909453
473.9291002473452
492.6679687495345
510.5568535333464
407.3476672123884
432.9138086815635
470.550843141732
514.1667162281597
392.4876913860985
408.2751111586768
445.0626108598197
512.9416292329645
491.8174809008869
470.6071691818804
459.3875842476446
459.693276498318
495.1697771761658
486.0144573859947
482.0132829525032
475.8925398765929
504.2302942120465
507.4058984060496
501.6102574640302
488.6193392065725
503.5927387465273
508.6055400121209
498.7244234223528
484.0937420716063
465.9347767062943
450.6319548433328
442.2421465622583
439.9009003119016
471.5326627380194
455.6926412113463
444.4235559180963
441.06022066348
469.7963567456547
461.3010776043645
452.6217658467227
449.0055142415696
462.7951162393571
460.2244737155572
455.4901845010697
452.3550379662081
439.9009003118659
441.0602206634554
449.0055142415846
452.3550379663005
442.2421465620852
444.4235559179326
452.6217658467187
455.4901845013301
450.6319548430479
455.6926412110837
461.3010776042984
460.2244737157455
465.9347767059023
471.5326627378144
469.7963567456065
462.7951162394921
459.6932764984696
459.3875842476893
470.6071691822017
491.8174809011514
475.8925398766177
482.0132829525976
486.0144573862463
495.169777176409
488.6193392064545
501.6102574639791
507.4058984060521
504.2302942121107
484.0937420714023
498.724423422262
508.6055400120844
503.5927387464952
512.9416292330516
445.0626108602484
408.2751111592889
392.4876913867063
514.1667162282668
470.5508431421376
432.9138086821542
407.3476672130569
510.55685353352
492.6679687498279
473.9291002478888
435.7704499918344
509.6758956319238
509.2706356304137
510.3422165204354
487.0565582927807
522.9324169827239
471.0992436113516
403.9613467231903
375.9470161784479
491.7060587204289
441.8244149630715
380.3775305233195
306.4862239789077
445.1213537702557
404.397048527451
350.9091988542639
291.6744194969262
431.1371013426693
402.1127890595289
351.4310307110624
298.9407692920628
426.3074868232305
422.6196390691127
460.1999787014605
522.5300529053642
252.9393046215493
305.5063263076219
421.9816037786827
512.068892938122
231.8554918119002
252.1743322575746
368.0995447385667
468.732899738131
239.5946127257581
227.8297683840479
282.5873298883118
368.0086387961002
565.0088183095395
590.9815968281649
607.6470413653479
615.0672557491495
592.6515203978133
593.7796031322474
609.2346943370267
616.8439870518334
620.4162193928296
602.7700419888033
610.1532701405308
617.8377023359672
603.9814125098784
616.3490271627032
614.0035997735398
619.7321897134543
618.9686397586893
623.2218697882457
633.0346743571514
643.6255505364458
621.0678536623726
625.9544967345463
637.1208809338362
648.7255535731315
623.1784679998266
629.5127691836549
640.6317558060607
653.8879908987882
625.5999579350996
633.0024100288992
643.7012966134736
658.3056425647891
656.8819578812626
670.1462515526157
681.4477788631801
694.2998453322136
662.5560498213463
676.9029664351033
690.0094569109096
702.7499018823003
668.0458876654552
683.0185174290616
697.4747239287544
708.7280006135243
671.8390924378845
687.196515294735
701.2966737551817
706.6516110127501
664.5378855523738
639.3465227783303
567.6609227181052
505.0175397915039
660.2448474848538
641.9961069173589
581.1484165942792
510.9346277640382
660.9440101652866
641.9662124270415
589.4805123177076
516.4120506659252
661.356023274621
642.1730918903012
597.7496042464023
520.2195978859074
494.847886684096
493.333802614227
491.8116961272407
490.7942152204765
494.8625947362804
492.8638996244827
491.4822028540575
491.0051623091073
494.7370201840605
493.2686064665625
492.3401112632544
492.3178380111805
494.8416687741901
492.7270562946396
491.4209995398564
491.2497175449984
490.4511672897559
489.9508520609257
492.8104958870241
512.3818336405727
491.0977690396894
489.971514767309
488.7089819435625
501.8270275080574
492.8384528073878
491.5604432927299
488.8783392208483
491.5803880243965
491.5998123902613
489.902460505358
484.1240244836038
469.9270163957066
553.286702095998
560.4610073209695
565.55311226275
567.8979844065392
553.9646481753745
560.2392983423871
565.1528255384209
567.557480126518
554.5585889883089
559.9823034339724
564.9921602416588
567.573896891925
550.9725540031205
560.1858140043072
564.7355095880021
567.6362638020435
570.9787008347953
572.0560449854397
564.6272848238456
544.9480844078884
571.683089374779
573.7602895846068
570.3300446523531
557.3528431616207
571.5442271618706
574.3208051500321
571.5443142156679
564.2345405025774
571.9791969808849
575.3913215984009
575.4548782902609
577.2405035307963
505.1251442534658
497.2514515076329
496.8139704568411
499.484549949261
485.4173250952028
492.0344913109459
495.3932739101556
499.3457347245329
470.3730627949561
486.3983129018455
493.9800441008995
499.1484080676402
460.1359119854218
480.4293557117001
492.4969645377451
498.941534013682
498.6813237484408
488.9389903588296
469.4036250186278
479.7638597754001
498.6811330028203
489.4279026450237
471.2951608795574
474.2449707355792
498.6952267985756
490.3294587445949
473.4197523249561
465.2187276172737
498.7844560482641
491.3810434840831
476.2518025429579
459.4927099812218
498.9415340135814
499.1484080674793
499.3457347248809
499.4845499494151
492.4969645374992
493.9800441007008
495.3932739098544
496.8139704570082
480.4293557118014
486.3983129021577
492.0344913114885
497.2514515080233
460.1359119852412
470.3730627947071
485.4173250952115
505.1251442535943
)
;

boundaryField
{
    back
    {
        type            empty;
    }
    inlet
    {
        type            zeroGradient;
    }
    front
    {
        type            empty;
    }
    top
    {
        type            zeroGradient;
    }
    outlet
    {
        type            fixedValue;
        value           uniform 500;
    }
    bottom
    {
        type            zeroGradient;
    }
    wall
    {
        type            zeroGradient;
    }
}


// ************************************************************************* //
