/*--------------------------------*- C++ -*----------------------------------*\
  =========                 |
  \\      /  F ield         | OpenFOAM: The Open Source CFD Toolbox
   \\    /   O peration     | Website:  https://openfoam.org
    \\  /    A nd           | Version:  11
     \\/     M anipulation  |
\*---------------------------------------------------------------------------*/
FoamFile
{
    format      ascii;
    class       volScalarField;
    location    "0.1175";
    object      p;
}
// * * * * * * * * * * * * * * * * * * * * * * * * * * * * * * * * * * * * * //

dimensions      [0 2 -2 0 0 0 0];

internalField   nonuniform List<scalar> 
880
(
80
80
80.00000000003537
80.00036645809224
80
80
80.00000000069699
80.00141187487247
80
79.99999999999999
80.00000000920127
80.00763955710555
80
80
80.00000024083334
80.01782774623285
80
80.00000000000001
79.99999999999994
79.99999999905546
79.99999999999999
80
79.99999999999983
80
79.9999978985024
80.00000923479151
80.03092042533547
79.94866181195339
81.01172884348145
83.7776272637478
85.99261771573011
86.92639615824608
80.00000565613071
80.00002946197672
80.0000378038262
80.00002498198118
80.00011746070675
80.00030921011323
80.00093315366327
80.00071752772402
80.05926704742576
80.13062492739917
80.23419680118951
80.24822555492489
87.98164198719513
89.38771868805208
90.77240893062316
92.61181397509041
92.02744381807814
89.37429482250806
87.35548557894896
86.16239186501969
80.43515898098656
80.84477623480829
81.05141312438975
80.96920819923248
80.00201123068992
80.0057271099042
80.01165894431682
80.01362285834443
80.00009027547084
80.0002297856346
80.00046082487123
80.00049129840237
80.00036967217645
80.00016386021943
80.0000322099791
80.00000168173104
80.01185828950253
80.0078464353257
80.00298577698123
80.00048814482896
80.80071678414906
80.5743854364444
80.30032401992612
80.08744410113698
84.92711033741951
83.67753504890177
82.49095291321598
81.39912799430726
80.52849874186938
80.01228320031795
80.00002969140506
80.00000002340825
80.10293236080139
80.00098087276682
80.00000234530349
79.99999999974973
80.00331331890314
79.99968900279175
79.99998993393677
80.00000034904947
82.21060037104974
80.01234934662199
79.99978230239351
79.99997946567433
79.99996011756311
79.99989389458061
80.07776202676415
97.61016952551687
79.999990838366
80.00091025118233
80.4200405979232
112.2400847943714
80.00010257491142
80.00234937340491
80.80938934853904
120.293910404857
80.00032144808384
80.0072995090099
81.45510626387866
127.268653840775
133.1727226488941
82.07269033395163
80.01024072758385
80.00047650018305
140.8158822710606
82.99633944288925
80.01985387940873
80.0008787650055
146.9219324461635
83.67366495357122
80.02295329916426
80.00095138255425
153.9007158178052
84.67724347089178
80.03799332459643
80.00173045673908
80.00194845340064
80.04607062387571
85.9324622037367
160.441235185825
80.0030267825192
80.06983148801318
87.44616772540003
161.6742777703151
80.00573449756637
80.09625420858535
87.71415766032013
151.4000751189427
79.99989346162759
80.0404767263512
84.70302603834411
127.4784887683641
80.01034696912616
80.22011567424418
85.03270859084238
98.63982296060406
80.01302260605316
80.2395483371037
81.70713470010138
69.79975637091647
80.00235843071586
80.08797378520023
80.01353177670381
55.61921941048391
79.99834396978376
79.93767775831505
77.85315946690022
49.25629227592066
47.89979665998448
76.63142232119627
79.88837669948718
79.9987974273517
45.55822803778178
76.06464891714697
79.87991714806087
79.9991875283857
44.19738245306582
75.97736502268204
79.91593938877243
79.99968265467906
40.82954856635189
75.5805894036276
79.91925908165597
79.99969849519827
46.44634644254969
77.40033833459763
79.97096228407351
79.99989589194035
53.82357567523448
78.86413403937647
79.9920670944269
79.9999754555993
60.12286534466099
79.47319028138082
79.99722680861156
79.99999268247794
65.89632931744917
79.80786610961088
79.99923791691587
79.99999665315255
70.55858373602072
79.34360728911555
79.98638949291242
79.99989551151815
71.45012984764959
79.37155664463266
79.98648297774486
79.99989569305019
72.16704389773953
79.39317384407498
79.98617673267988
79.99989412476715
73.16685346146562
79.47841041380583
79.98564329495136
79.99989205770096
65.89632931729612
79.80786610913657
79.99923791637423
79.99999665387904
60.12286534427
79.47319028096258
79.99722680704419
79.9999926824344
53.82357567491199
78.86413403976574
79.992067094345
79.99997545580328
46.44634644270388
77.40033833562757
79.97096228405279
79.99989589155274
79.99879742812477
79.88837670064881
76.63142232160271
47.89979665985029
79.99918752872405
79.87991714862908
76.06464891778216
45.55822803810823
79.99968265373403
79.91593938989082
75.97736502244098
44.19738245317641
79.99969849554016
79.91925908191438
75.58058940499868
40.82954856604919
49.25629227516729
77.85315946584608
79.93767775733168
79.9983439694103
55.61921940940231
80.01353177587151
80.08797378423584
80.00235842892506
69.7997563708491
81.70713469916869
80.23954833729903
80.01302260547919
98.63982296080377
85.0327085906182
80.22011567366745
80.01034697096635
80.00194845283075
80.0460706260007
85.93246220478814
160.4412351871615
80.00302678267187
80.06983148821929
87.44616772564119
161.6742777703912
80.00573449815442
80.09625420849687
87.71415765942962
151.4000751188616
79.99989346399362
80.04047672636671
84.70302603774427
127.478488768213
153.900715819425
84.67724346901595
80.03799332560317
80.00173045681625
146.9219324479708
83.67366495641248
80.0229532992674
80.00095138291395
140.8158822716168
82.99633944482068
80.01985388249599
80.00087876451285
133.1727226501658
82.07269033166976
80.01024072689434
80.00047649982299
79.99996011862309
79.9998938954525
80.07776202705013
97.61016952430589
79.99999083778491
80.00091025005378
80.42004059781408
112.2400847947826
80.00010257420109
80.0023493733357
80.80938934930917
120.293910405269
80.0003214473132
80.00729950892908
81.45510626350489
127.2686538406766
79.99997946526098
80.00000034953983
79.99999999982123
80.00000002328484
79.99978230127877
79.99998993406521
80.00000234646006
80.00002969062736
80.01234934693389
79.99968900313412
80.00098087193993
80.01228320007992
82.21060037140288
80.0033133193205
80.10293236028505
80.52849874206802
80.00000168064457
80.00048814502212
80.08744410177408
81.39912799463707
80.00003220978215
80.00298577660607
80.3003240214853
82.49095291344537
80.00016386090229
80.0078464353651
80.57438543574408
83.67753504878328
80.00036967251597
80.0118582894213
80.80071678490498
84.92711033708339
80.00009027422971
80.00201122962943
80.43515898022967
92.02744381796633
80.00022978452429
80.0057271099643
80.84477623466823
89.37429482171234
80.00046082438976
80.01165894552028
81.05141312455847
87.35548557857142
80.00049129799292
80.01362285921057
80.96920819941526
86.16239186436172
92.61181397570789
80.2482255559796
80.00071752705176
80.00002498137192
90.77240893086008
80.23419680276425
80.00093315349264
80.00003780356177
89.38771868913062
80.13062492875808
80.0003092101539
80.00002946218932
87.98164198682592
80.05926704686055
80.00011746040468
80.00000565648848
86.92639615829222
79.94866181169003
80
79.99999999928384
85.99261771533286
80.03092042279326
80
79.99999999999999
83.77762726380777
80.00000923453916
80
79.99999999999999
81.01172884315066
79.99999789807696
80
79.99999999999989
80
79.99999999999997
80.00000000007614
80.00036645799388
80.00000000000003
80.00000000000001
80.00000000071836
80.00141186966793
80
80
80.00000000926529
80.00763955385852
80
80
80.00000024019617
80.01782774605721
80.00075946795262
80.00287111896986
80.01398845391708
80.23016529385885
80.0028711462629
80.00366628624083
80.01276754343377
80.87700993039822
80.0139884357877
80.01276750182016
80.34294166451053
85.4621818157426
80.23016527644985
80.87700991564641
85.46218186455846
103.3738668913413
133.425348132292
112.5167207976669
101.0928796483924
89.86946514136667
128.3407054912644
123.9087397993871
121.5923727552365
112.5260219988508
125.5951752748519
124.0694829927509
123.7550794842805
119.6324827447091
125.5069496936372
124.5941290544274
124.5738024447658
121.7924482445711
123.5051741497061
123.8895879098389
124.7901663646377
127.1251727054065
124.8684587336389
125.0387830326071
125.9031472018669
128.3854157038864
125.3697218745519
125.3319062658213
126.1277568773202
128.039123936826
125.8947310704693
125.3629092171495
126.1080642628137
126.3578435029267
106.6792482144554
86.466860945286
80.5747583103273
81.29861420817849
97.07225768175952
78.8050274943194
78.36125464727101
80.99901496156329
87.67555999384828
75.13304858729073
79.24226511986322
81.99817448162125
69.15138014364693
70.12458744820584
78.07895957950618
81.29437792273059
81.74222853227803
81.86028624765645
81.98215111275489
81.90117862291586
81.73355654259167
81.74020618375899
82.05125943117487
81.80313295379187
82.32392521489008
82.16139005980591
82.33578732697764
82.00538842757695
81.6979586725203
81.56307430710305
81.88739909515259
81.77051298008756
81.17014888059012
80.40330550481134
80.03992790843147
106.0610641580516
81.08589333249056
80.42857677464063
80.02746362398847
119.3893390910729
81.23367000951494
80.51484056958589
80.13377254165648
126.0600828675108
80.92490017688594
80.26802077451119
80.27117841761563
129.814488927791
198.0554283430585
210.8799929959934
211.5223245700452
210.2209103111605
219.575680597138
220.4167808361447
215.9016719937297
212.5761048865338
217.0758816585554
215.0475183301146
216.1601048930193
213.5115998028773
228.5644901800533
221.285962376044
217.3658330659789
213.7625988394281
208.1877589095969
212.2412802842728
215.7556979744448
220.651749154907
209.4631991835754
212.797072199843
215.5802591932227
220.2582110431482
209.504837084375
212.4608569409364
215.4793153030291
220.1419288392549
209.7532099075214
212.2743938010242
215.051197665153
219.8615200530042
221.0948857097574
213.8188438715868
196.6241421794143
163.6646775425786
220.3458085225218
213.8047557188948
196.5533658532103
173.1418393303919
220.6423156636996
214.6920208518859
198.4851863934645
184.3425279190465
220.4116826849014
216.0601634889436
201.7148042995188
204.6129092940408
98.94177075678866
19.9277676266133
5.398766828678898
7.243724444475152
76.51933855600882
11.57682308357398
6.201900890116274
7.317937113359316
52.03279746657072
6.315543390416913
5.288936657026579
7.796081758450565
28.8134835531154
3.043081285255531
5.969699777368266
7.965501850721211
9.565982580369472
10.64115092090847
11.09801881388446
10.04488290600733
9.345687013818177
10.07147741148577
9.935611538476108
9.125363015932283
9.557594149255312
9.872771599443405
9.683988506406619
9.438939157285519
9.422688848038366
9.378961030837322
9.375820393323927
10.75110702667222
20.50151501230491
28.48869503107204
35.11590753573129
44.74121243879449
19.64944440327022
27.68653731707437
33.11447066281809
43.02767088443522
17.62242073906043
26.37868389649364
32.73485968400745
41.55758414842779
14.27915817095553
22.13080239160663
28.83351418815122
38.76540635067042
31.5313304961802
20.34842609910918
9.553675164375845
9.329881036370923
28.66653381993892
16.89970133114077
7.119809803285562
12.56557449523063
22.92159244669681
9.949141541785982
7.831979422423319
15.48064596445745
14.73296145149258
5.678733730617153
11.54775960756747
16.38101782687966
17.6683543005884
16.38978735301257
14.43690205016398
14.32549091895652
16.54931077384092
14.10446793687276
12.99952149577596
12.61566324690452
16.85897495678059
15.52614465065858
16.04007355127115
16.63346145823309
19.29401118216903
26.25058033534467
26.40892780755246
26.69067818606565
14.32549091896012
12.61566324690305
16.63346145824838
26.69067818604599
14.43690205017328
12.99952149577888
16.04007355130852
26.40892780755179
16.38978735300844
14.10446793690584
15.52614465069253
26.25058033529259
17.66835430059093
16.5493107739086
16.85897495680646
19.29401118210325
9.32988103632235
9.553675164296621
20.34842609898584
31.53133049593039
12.56557449520259
7.119809803260408
16.89970133110486
28.66653381979004
15.48064596445649
7.831979422425666
9.949141541738866
22.92159244665505
16.38101782688203
11.54775960757514
5.678733730606372
14.73296145144598
38.76540635056755
28.83351418803055
22.13080239133004
14.2791581707142
41.55758414835203
32.73485968394311
26.37868389626411
17.62242073878129
43.02767088434382
33.11447066277764
27.68653731690718
19.64944440300244
44.74121243869535
35.11590753565178
28.48869503088389
20.50151501207623
10.04488290588282
11.09801881393498
10.64115092094114
9.565982580298714
9.125363015875514
9.935611538533905
10.07147741150796
9.345687013759029
9.438939157238307
9.683988506463171
9.872771599466422
9.55759414919801
10.75110702658282
9.375820393348944
9.378961030870684
9.42268884797886
7.243724444330732
5.398766828544499
19.92776762640216
98.94177075666282
7.317937113246142
6.201900889988385
11.57682308346076
76.51933855558403
7.796081758324438
5.288936656925164
6.315543390363857
52.0327974663507
7.96550185059244
5.96969977719817
3.043081285175367
28.81348355301152
163.6646775423197
196.6241421796752
213.8188438719041
221.0948857107976
173.1418393302173
196.5533658534624
213.8047557194137
220.3458085238724
184.342527918911
198.4851863937138
214.6920208526633
220.6423156649468
204.6129092939903
201.7148043000327
216.0601634897731
220.4116826861822
220.6517491562277
215.7556979751735
212.2412802841849
208.1877589118502
220.2582110441742
215.5802591936024
212.7970721998836
209.4631991856904
220.1419288399319
215.4793153033142
212.4608569412285
209.5048370863569
219.8615200538404
215.0511976653042
212.274393801396
209.7532099099842
210.2209103132206
211.5223245678392
210.8799929967049
198.0554283410706
212.5761048885456
215.9016719909482
220.4167808369654
219.5756805947975
213.5115998046013
216.160104889587
215.04751832978
217.0758816549924
213.7625988407883
217.3658330628623
221.2859623756208
228.5644901753833
106.0610641567419
80.0399279049787
80.40330550556938
81.17014888059869
119.3893390883781
80.02746362042215
80.42857677658776
81.08589333185618
126.0600828639189
80.13377253994013
80.51484057269494
81.23367000815512
129.8144889236859
80.27117841690412
80.26802077883585
80.92490017476388
81.90117862303349
81.98215111275327
81.86028624742244
81.74222853213072
81.80313295399647
82.05125943096623
81.74020618362765
81.73355654236967
82.00538842792417
82.33578732664759
82.16139005992376
82.32392521455874
81.7705129804782
81.88739909474154
81.56307430752837
81.69795867209125
81.29861420744916
80.57475831013984
86.46686094462783
106.6792482145823
80.99901496087905
78.36125464717809
78.80502749368986
97.07225768191844
81.9981744809855
79.24226511979731
75.13304858676642
87.67555999389511
81.29437792202035
78.07895957951435
70.12458744763269
69.15138014332069
127.125172705129
124.7901663635799
123.8895879107025
123.5051741516395
128.3854157030057
125.9031472012643
125.0387830343571
124.8684587351202
128.0391239357413
126.127756876697
125.3319062673924
125.3697218756532
126.3578435021528
126.1080642620787
125.3629092183891
125.8947310709586
121.7924482444738
119.6324827440169
112.5260219950404
89.86946514345223
124.5738024436733
123.7550794828531
121.5923727543669
101.0928796426122
124.5941290536856
124.0694829920414
123.908739798483
112.5167207877132
125.5069496932192
125.5951752738451
128.3407054860798
133.4253481284458
69.82904433181898
79.74596934949122
79.99777332907129
79.99999050503831
70.28304870472319
79.70670856792539
79.99665149621572
79.99998107145653
71.24615492558335
79.66129248448793
79.99483493523762
79.99996538289068
72.04250128041097
79.57604793102857
79.98940816527278
79.99992373581894
79.99989551199673
79.98638949323745
79.34360728830687
70.55858373461153
79.99989569351472
79.98648297849292
79.37155664365309
71.45012984753252
79.99989412401662
79.98617673322701
79.39317384377975
72.16704389735295
79.99989205568875
79.98564329573725
79.47841041255856
73.16685346100739
79.99992373504702
79.99996538205897
79.99998106897866
79.99999050262373
79.98940816564705
79.99483493522526
79.99665149594433
79.99777332829238
79.57604793058884
79.66129248347936
79.70670856867838
79.74596934919791
72.04250128016949
71.24615492463347
70.28304870412695
69.8290443323372
)
;

boundaryField
{
    back
    {
        type            empty;
    }
    inlet
    {
        type            zeroGradient;
    }
    front
    {
        type            empty;
    }
    top
    {
        type            zeroGradient;
    }
    outlet
    {
        type            fixedValue;
        value           uniform 80;
    }
    bottom
    {
        type            zeroGradient;
    }
    wall
    {
        type            zeroGradient;
    }
}


// ************************************************************************* //
