/*--------------------------------*- C++ -*----------------------------------*\
  =========                 |
  \\      /  F ield         | OpenFOAM: The Open Source CFD Toolbox
   \\    /   O peration     | Website:  https://openfoam.org
    \\  /    A nd           | Version:  11
     \\/     M anipulation  |
\*---------------------------------------------------------------------------*/
FoamFile
{
    format      ascii;
    class       surfaceScalarField;
    location    "0.1175";
    object      phi;
}
// * * * * * * * * * * * * * * * * * * * * * * * * * * * * * * * * * * * * * //

dimensions      [0 3 -1 0 0 0 0];

internalField   nonuniform List<scalar> 
1652
(
2.843686947071611
0.8895636090847481
0
1.954123337988149
0.8895636090834615
-2.220446049250313e-16
1.06455972890359
0.889563609064064
-2.517097641430155e-12
0.8895540508975299
-8.695710818074076e-12
0.1749972255539217
2.843686947076741
1.779127218162428
1.954123337998014
1.779127218162188
1.064559728925554
1.779127218009847
1.779079181506964
0.1750087771117799
2.843686947090741
2.668690827246526
1.954123338008367
2.668690827244562
1.064559729115141
2.668690826043004
2.668424141992502
0.1750406526376628
2.843686947092868
3.558254436328659
1.954123338013008
3.558254436324421
1.064559734094149
3.558254407879697
3.557087772160315
0.1751377913412478
4.418652025448567
2.872852967045247
5.279049614570498
2.872852967043177
6.139447203695335
2.872852967042497
2.87285296704152
6.999844793246646
4.418652025437511
2.012455377932159
5.27904961455098
2.012455377929711
6.139447203663581
2.012455377929233
2.012455377926275
6.999844792777337
4.418652025896411
1.152058130206664
5.279050951870335
1.152056291000963
6.138216253804867
1.152179589256839
1.152099387198248
6.999022135014544
4.43865849949385
0.2498202333187891
5.419524517548653
0.1138835058518851
6.445734985094113
0.04904837093434156
7.47838011114607
0.02987169117221955
6.941512775447652
0.05833172649942886
6.883178925496602
0.05832987236297915
6.824848003898218
0.05832545276326784
0.05832767482703682
6.766516009766273
6.941522477915595
0.1166473130198949
6.88322610828796
0.1166131719525051
6.824928179157641
0.1165481720302507
0.1165533687499952
6.766626941606741
6.946650984601814
0.1677145056961937
6.895655322793085
0.1643547509081447
6.842246717894521
0.1613722467908089
0.1574146157929994
6.789601040548082
7.543723876660391
0.02280477188835184
7.602448351316726
0.01542048588233896
7.663949345500952
0.01407062580205476
7.713870673161263
-0.002599090786989389
7.738421219911686
0.03637132482195543
-0.1831929947089342
7.621149959161487
0.07345444315714011
-0.05360008639889524
7.49193467042965
0.070439517161764
-0.01714177641389819
0.05144052575563179
7.360634726720368
-0.007691720332283714
6.805038221906403
0.0003087941742951905
6.835006810619384
0.001017750901683323
6.855588175916331
0.001989645028592446
0.002035267678699881
6.853422855616938
6.766728583343566
1.322688508820224e-05
6.767041925655258
3.683956033817548e-05
6.767575555770756
8.517565833643381e-05
9.976579770909488e-05
6.767679810819096
6.766516569715296
6.766516251767063
6.766514528060734
6.766510950549851
6.766508743800802
-8.857365585401844e-05
6.766510938264093
-5.535462764427734e-05
6.766514844966434
-1.883906366861865e-05
-2.753610801153883e-06
6.766516480568185
6.767549585033059
-0.001751300721198001
6.767095991615771
-0.001166559091548169
6.76665495345752
-0.0004699804499780358
-8.136656084145599e-05
6.766526926213343
6.838106599380668
-0.03582706891534748
6.813102079746745
-0.02444954930602006
6.785014030523746
-0.01581863040037984
-0.005376922964909547
6.769783804823307
7.226641572464458
-0.004277657242411359
7.096869397526473
-0.003968789522679594
6.972942117229996
-0.00409995288042081
6.862945396215387
-0.001630811035032764
0.001101566566843182
6.791620386195008
-0.002594016855881232
6.526294146658174e-06
6.766761211819976
1.595270852083885e-07
6.766517012358251
6.766516627945558
0.0001247483413847061
6.76886199385473
-0.001327005685608174
4.306634870943071e-07
6.766511322464932
1.631680845992634e-08
6.766516239794795
6.766516638598298
-5.232603053073603e-06
6.767021817732379
-5.767651110211158e-06
-3.009316724145172e-06
6.766502115850833
-2.708015256480678e-09
6.766515292094502
6.766516641857846
0.001425864440534108
6.845814000675656
-0.1281127533978325
4.519396937574527e-06
6.767004423822254
-1.79459665983206e-06
6.76651164407266
6.766514056273397
0.1555539998778074
6.610962116216636
0.3110901039917894
6.610973234175527
0.4585812566070949
6.616020246363369
6.935506023365934
0.1317905832308016
0.155550780127269
6.455411425212451
0.3109838134815072
6.455434680876624
0.4411594719952606
6.466342887800912
6.859666976781159
0.1497684330915852
0.1555369152146966
6.299864302282332
0.3107691149969738
6.300011317124837
0.4196791745002449
6.321241551999338
6.709134358420561
0.09549212365529858
0.1555087670139789
6.14431483600918
0.3103677216239961
6.144544069469257
0.3935328492362143
6.177893368646253
6.542357389987091
0.05643400462260839
-0.3590103232273847
6.423224139352357
0.01222155912209588
-0.3098124752320323
6.039959334774659
-0.1554789731884662
5.989279897328499
5.988769694594412
-0.326817747804471
6.30304674401112
0.004896804486563933
-0.3089924937703433
5.898144497675324
-0.1554138701745524
5.833761214461361
5.833222568857106
-0.2917210420784908
6.117745254862869
-0.007783833328178891
-0.3082995214316614
5.74794020188755
-0.1554004316938313
5.67849867628369
5.677677145683092
-0.2553626953068887
5.822278309352454
0.0004388208822837525
-0.3070529381413474
5.599644043300842
-0.1552808674595795
5.523115400581003
5.522142469090094
0.1989952251544815
5.322849618051959
0.3932916276346398
5.323843180129135
0.3231468967391762
5.395381032149706
5.465727299253479
0.02648825600530724
0.1987996419364227
5.12358906323397
0.390517476969754
5.124990360538186
0.2805311053853241
5.197409537699605
5.132547676662491
0.06989287088301599
0.1985978505827223
4.924098943338541
0.3888099491417805
4.925501887921652
0.3228737805119772
4.982558095467484
4.924706265939309
0.179343100855007
0.1989258610423366
4.725170199467627
0.3927094202049258
4.727422444612935
0.4295072203593177
4.771272907426463
4.759163395634485
0.3680254456351889
-0.336904753638714
5.060614478540325
-0.6960744563879604
5.066367832932198
-1.239040382310957
5.145482025702322
4.88671049709579
-1.441261145927533
-0.3374727339512429
5.395844008869052
-0.7000814636088983
5.407742332121407
-1.025179576052376
5.432931653786844
4.414325043808018
-0.4583467544167871
-0.3365004019310915
5.731261477419459
-0.6714345643882006
5.734568535423052
-0.9301770088915583
5.705666397427245
3.857292127600444
-0.06298572194419108
-0.3353373061151643
6.06656129659425
-0.6641487186432162
6.065147992009823
-0.7984031645174938
5.899534959866533
3.455400255626985
-0.03630350787803335
0.3545041956015282
3.304846043455258
-0.01101556213254856
0.3420258942348505
5.99080678136592
0.17490448978423
6.23766192550787
6.241509505604063
0.3351107616431211
3.171957753031206
-0.004642996244383232
0.3411155661556515
6.101043059315674
0.1749025999868252
6.411153777671353
6.416511742433983
0.3429640755879056
3.012836759695032
0.0002230796598036155
0.3423716607793478
6.244333373513881
0.1749430819548468
6.586454762173335
6.591508282332529
0.3258306242127376
2.862231010974497
0.01185408377220077
0.3419900031116252
6.402539187087594
0.174944425215211
6.76250547385966
6.766506887869595
-0.141950388569751
3.513143538107971
0.08227277998479247
-0.005973129587835579
6.591643028176641
-4.064295130223883e-05
6.765491977841191
6.766514352985777
-0.0862526393503914
4.321402489204799
0.1119537943166429
-0.002000594551080148
6.6994808724575
-1.055736188426692e-05
6.766275325528144
6.766516215932828
-0.05144024589450069
5.097071344487906
0.1304005603363715
-0.0007599853813395896
6.749555339191314
-3.415759052494138e-06
6.766514547084699
6.766516627462242
-0.03190476645906515
0.1168070490950509
5.79129508383816
-0.0003412484588039
6.751427653591883
-1.477517640458004e-06
6.766392067551987
6.766516619067147
1.035899761284968
-0.8472644961755007
-0.02184204173601629
-6.674083508073636e-11
1.979690984842239
-0.8686791449895566
-3.502975687297294e-12
2.858220565138489
-0.8748214122157614
3.131095382968851e-11
-0.874979307362501
-2.970335089003129e-11
1.042200759483003
-1.741331213363393
-0.02442497331232258
1.979789861756559
-1.73751883030951
2.858220931516885
-1.74962678911975
-1.749958554755748
1.042830655851863
-2.592585832841851
-0.03861155276246084
1.979820706099188
-2.610161373389842
2.858220654429451
-2.624478900248698
-2.624937898873475
1.046570894644881
-0.05436865075374615
-3.411116188241516
1.980236702885827
-3.489208731051352
2.858223169277518
-3.499581702964169
-3.49991931681186
-0.03190476645845908
-5.097071344497208
0.116807049094048
5.791295083849159
-0.000341248467216948
-6.749555339195098
6.751427653607529
-1.477552715956065e-06
-6.766514547104126
6.766392067568441
-6.76651662750529
6.766516619137859
-0.05144024589767282
-4.321402489227872
0.1304005603384345
-0.0007599853890998265
-6.699480872476906
-3.415748546675701e-06
-6.766275325550687
-6.766516215911135
-0.08625263936782601
-3.513143538108549
0.1119537943163327
-0.002000594569635084
-6.591643028182226
-1.055736218069647e-05
-6.765491977851181
-6.766514352987877
-0.1419503885643443
-2.862231010958157
0.08227277998191868
-0.00597312957843732
-6.402539187069094
-4.064294834993376e-05
-6.762505473843052
-6.766506887871379
-0.1749044897796361
6.241509505624017
-6.066561296652355
-0.3420258942187182
6.23766192553096
-6.065147992033555
-0.3545041955951995
5.990806781340307
-5.899534959808665
3.304846043420072
-3.455400255582973
-0.01101556213279063
-0.1749025999646739
6.416511742453396
-0.341115566130703
6.411153777695376
-0.3351107616393755
6.101043059317849
3.171957752996514
-0.004642996243951633
-0.1749430819427215
6.591508282341776
-0.3423716607586496
6.586454762181946
-0.3429640755797786
6.244333373499194
3.012836759673931
0.0002230796604900873
-0.1749444252049273
-0.3419900030864697
-0.3258306242015858
0.01185408377086448
0.798403164520473
-3.857292127562812
-0.03630350787851341
0.6641487186819087
-5.705666397396609
0.3353373061406889
-5.734568535456402
-5.731261477428575
0.9301770088977073
-4.414325043781274
-0.06298572194287935
0.6714345644040182
-5.432931653767526
0.3365004019341826
-5.407742332164403
-5.395844008869783
1.025179576063161
-4.88671049708553
-0.4583467544145918
0.7000814636289121
-5.145482025697746
0.3374727339516401
-5.066367832963704
-5.060614478527887
1.239040382324804
-4.759163395632145
-1.441261145931978
0.6960744564049424
-4.771272907430741
0.3369047536435275
-4.727422444623985
-4.725170199448639
0.198995225158717
5.322849618068643
-5.522142469113967
0.3932916276519107
5.323843180104417
-5.523115400669914
0.3231468967462323
5.395381032132875
-5.599644043237053
5.465727299244746
-5.822278309306641
0.02648825600728721
0.1987996419358221
5.123589063253895
0.390517476972451
5.124990360533002
0.2805311053959646
5.197409537671793
5.132547676653625
0.06989287088315388
0.1985978505900931
4.92409894340753
0.3888099491593514
4.925501887924156
0.3228737805154699
4.982558095454101
4.924706265933109
0.1793431008539862
0.1989258610533515
0.3927094202246953
0.4295072203622738
0.3680254456353094
-0.2553626952738975
-6.117745254806856
0.0004388208890578893
-0.3070529381214698
-5.747940201781835
-0.1552808674484016
-5.678498676274945
-5.677677145706094
-0.2917210420686325
-6.303046743997736
-0.007783833330637924
-0.3082995214184511
-5.898144497724961
-0.1554004316880828
-5.833761214513582
-5.833222568869695
-0.3268177478240884
-6.423224139381553
0.004896804483726536
-0.308992493751182
-6.039959334795244
-0.1554138701638635
-5.989279897413798
-5.988769694598916
-0.3590103232031975
-6.54235739000782
0.01222155913482381
-0.3098124752251953
-6.177893368584486
-0.1554789731830504
-6.144544069533312
-6.144314836015935
0.1555539998796096
6.61096211623709
-6.766514056294172
0.311090103992994
6.610973234190607
-6.766511644065546
0.4585812566150332
6.616020246372852
-6.767004423829805
6.935506023382314
-6.845814000695921
0.131790583219443
0.155550780126857
6.455411425201014
0.310983813480105
6.455434680898287
0.441159471982589
6.466342887809485
6.859666976790159
0.1497684331037179
0.1555369152190911
6.29986430228
0.3107691150052429
6.300011317116478
0.4196791745130416
6.321241552018497
6.70913435840196
0.09549212364621062
0.1555087670069308
0.3103677216082436
0.3935328492237726
0.05643400462520287
-6.766516641860325
1.794601884541613e-06
-6.766516638599934
2.708249513538874e-09
-6.766516627946855
-1.631696711079655e-08
-1.59524420895174e-07
-6.766516480561252
-6.766515292077151
-4.519395192859044e-06
-6.766516239799513
3.009313086610454e-06
-6.766517012372756
-4.306624356020805e-07
-6.526291548292207e-06
-6.766526926207129
-6.766502115858399
-0.001425864441032987
-6.766511322469579
5.232604861016288e-06
-6.766761211814099
-0.0001247483402675442
-0.001101566571716839
-6.769783804815058
-6.767021817754811
-0.1281127533975318
-6.768861993849851
-5.767676956314194e-06
-6.791620386183401
-0.001327005684217952
-6.862945396216372
-0.002594016855016312
-2.753613832839896e-06
-6.766514844968322
-8.136656497648165e-05
-6.766654953457922
-0.005376922968265752
-6.78501403052824
-6.972942117238297
-0.001630811032999002
-1.883906330724106e-05
-6.766510938262399
-0.0004699804506921312
-6.767095991616554
-0.01581863038578579
-6.813102079737495
-7.096869397532102
-0.004099952878053426
-5.535462782757516e-05
-6.766508743802654
-0.001166559090830188
-6.767549585030013
-0.02444954930886212
-6.838106599389151
-7.226641572466285
-0.00396878952177504
-8.857365780789994e-05
-6.766510950550054
-0.00175130072846752
-6.767679810834748
-0.03582706890761156
-6.853422855636219
-7.360634726719462
-0.004277657241046451
-1.322689598037829e-05
6.766516569705855
-6.766516009752155
-0.0003087941888270107
6.766728583324151
-6.766626941586828
-0.0363713248406603
6.805038221870869
-6.789601040490092
7.738421219930069
-7.71387067320636
-0.1831929947107183
-3.683956316435921e-05
6.766516251761182
-0.001017750905962789
6.767041925652598
-0.07345444316526906
6.835006810641745
7.621149959171817
-0.05360008640309311
-8.5175660044845e-05
6.766514528058137
-0.001989645033037446
6.767575555783139
-0.07043951717044622
6.855588175943629
7.491934670432668
-0.01714177641419856
-9.976580487025544e-05
-0.002035267691170017
-0.05144052576069608
-0.007691720334820906
-0.1574146158010215
-7.663949345545423
-0.002599090783888203
-0.1165533687662073
-6.842246717838105
-0.05832767482665446
-6.824928179160918
-6.824848003889327
-0.1613722468071219
-7.60244835135498
0.01407062579856777
-0.1165481720479737
-6.895655322910647
-0.05832545277159129
-6.883226108291084
-6.883178925399523
-0.1643547509418372
-7.543723876668858
0.01542048589122735
-0.1166131719712953
-6.946650984831733
-0.05832987236332288
-6.941522477924439
-6.941512775440551
-0.1677145057037855
-7.478380111116829
0.02280477188676971
-0.1166473130437985
-6.999022135132781
-0.058331726506195
-6.999844792820455
-6.999844793243367
-1.152099387137276
-6.445734985078289
0.02987169117096322
-2.012455377911033
-6.138216253680485
-2.872852967041442
-6.139447203691533
-6.139447203692439
-1.152179589267065
-5.419524517517861
0.04904837094807135
-2.012455377916468
-5.279050951860686
-2.872852967042254
-5.279049614566448
-5.279049614567396
-1.152056291000614
-4.438658499466511
0.1138835058847302
-2.012455377921992
-4.418652025892907
-2.872852967044603
-4.418652025443835
-4.418652025446893
-1.152058130204421
-3.557087772159794
0.2498202333085076
-2.012455377927508
-3.558254407881615
-2.872852967046921
-3.558254436324423
-3.558254436328661
2.843686947076677
0.8895636090796828
1.954123337995112
0.8895636090815642
1.064559728909561
0.8895636090658101
0.8895540508342781
0.1749972255184149
2.843686947077599
1.7791272181565
1.954123337999196
1.77912721815997
1.064559728926772
1.779127218011709
1.779079181497901
0.175008776870578
2.843686947089469
2.668690827241873
1.95412333800662
2.668690827242819
1.064559729113413
2.66869082605039
2.668424141982818
0.1750406527266891
2.843686947088214
1.954123338006611
1.064559734087561
0.175137791290694
0.1749964459110531
0.1749964458380238
0.1749949247592914
0.1750054040524428
0.1749994182972167
0.1750185796544536
0.1751066922900045
0.1749530758295238
0.1750054043260175
0.1749949246704234
0.1750021111838711
0.1750021109427751
0.1749919557472921
0.1750084881380497
0.1744123539371901
0.1754796807869249
0.175018579591309
0.1749994182299971
0.1750084880118418
0.1749919556513642
0.1749574202642106
0.1749574204532983
0.1719456249238006
0.1767656506719723
0.1751066923393466
0.1749530757809858
0.1744123539192514
0.1754796807803646
0.1719456249192145
0.176765650804333
0.1715108588479921
0.1715108589327205
-0.07329380031635946
0.2434465556206955
-0.1365619116108746
0.2379528582560671
-0.2030952429816617
0.2397399219116138
0.2196884839730888
-0.01456912556045464
0.2568350251759224
-0.03470832401277524
0.2564391700342551
-0.0644319494586354
0.266961239293663
0.2659182380387272
-0.008426182869992083
0.2637298349198328
-0.02140199187026259
0.2679108501588963
-0.03292477347775469
0.2772837445870482
0.2808496825215024
-0.001859556878722302
0.2665595060321589
-0.01284852227173428
0.2786520332494025
-0.02214096561750456
0.2854109915926147
0.2877143049422206
0.2900425192798302
0.01976153350728221
0.2919871838570373
0.013429034516171
0.2950674905512717
0.01161687951971352
-0.002276152205862858
0.2969467475922225
0.2910737022257446
0.01355647713486424
0.2942997578237117
0.01098906878533756
0.2982253600939917
0.008617288692628455
-0.007358413050497725
0.3058624808800567
0.2885466176180314
0.00294242000527678
0.2938721365050106
0.005959451061100018
0.2986925404419458
0.00450294788567529
-0.03239616157645231
0.325832007403546
0.2683509857446091
0.2743603783043299
0.2799658158032316
0.2503341195944732
0.2756819610374283
-0.1595333846340378
0.2530312240023217
-0.02952538609557237
0.2456750100549224
-0.005266080540807905
-0.004327373786549182
0.2444286849308436
0.2687694011516077
-0.1205983082296624
0.2523306895281672
-0.01096988499847795
0.2507416876471675
0.0008861067330139805
-0.001370356807240347
0.2502728250795934
0.2740081500677328
-0.06761159193404481
0.2595087690315727
0.006148878303819549
0.2566046540197445
0.008361013565626352
0.004627775373270637
0.253186832836152
0.1831169344865371
0.1913367597002648
0.2040910365924601
0.2118657111108403
0.2432277648204313
-0.002838755576755947
0.2419367043827358
-0.002636223957341532
0.2411980751395521
-0.001988811338502428
-0.001046490965967373
0.2400033465077057
0.2463922459289138
0.0009619609057885392
0.2440406721776336
0.0008622175209954119
0.2430488080178907
0.0002960048019490236
0.0003140692028537062
0.2407794147272426
0.2491126026586829
0.005991296971915472
0.2466117501498121
0.005508856859299749
0.2450558492722719
0.003251973283836307
0.002212588773699398
0.2421615676138262
0.2196782408520797
0.2274335856135347
0.2332283616172084
0.2340686979279106
0.2362390248561258
-0.00140729838024739
0.2338991737286296
-0.0008868580064325671
0.2334933871660344
-2.020459108581507e-05
-0.148064801316151
0.2459478487514043
0.2368645735159964
0.0002576966604831421
0.2341699060711936
5.183838397243568e-05
0.2335600639646569
0.0001838383031573243
-0.1404363861890954
0.2166958801863111
0.2378598538917652
0.002156147468346858
0.234603476859181
0.001328872351868848
0.2333897661494305
0.0003395770861975844
-0.09547665728107496
0.178374717627779
0.2335966455503083
0.2334150951797066
0.2318378334770425
0.125024169158278
0.270809848126766
0.09748231239044747
0.2751444998724728
0.1360214078814754
0.2785188257818357
0.08195596191411536
0.04736413896245861
0.2801407126359826
0.2483957565748722
0.06066160800677312
0.2709710278963386
0.1075280491669717
0.279721703080503
0.06596424188500005
0.03815734656019876
0.2834190709616894
0.2016659604892999
0.03265724583626994
0.2455924424602385
0.0567975344743733
0.2734750902730551
0.0324033494142989
0.02379399908480428
0.2831798673988348
0.1550804787208359
0.2080826859202267
0.2354114308601952
0.2549202332311861
0.2819146512093927
0.0102909877215982
0.288779180719663
0.003243494331608532
0.2951507778599848
-0.00727112412487696
-0.0007037893833380382
0.301295478181009
0.285630527419094
0.009279566895213143
0.2927671978532824
0.002640634502306338
0.2993714620181825
-0.004842172738620087
-0.0004379378239827147
0.3057898492341153
0.2869691783060797
0.008102745137282485
0.2949294127025773
0.002176431313233529
0.302797662240706
-0.002494781724566186
0.0009473319683404036
0.3092762266840412
0.2654304675018713
0.2755970523756403
0.2839199437927397
0.2931908948543483
0.3087510727667218
0.01911742378616021
0.3245033920613645
0.05561985332821839
0.3546216494091147
0.1511954223462059
0.2998187158797903
0.4261921473544413
0.3141210189535911
0.01225223491463923
0.3303814121174757
0.04091145899058379
0.3596006446043361
0.1244523035000383
0.1954893337234075
0.4674803040325441
0.3171243222284623
0.008028342142676004
0.3323847923117452
0.02821896909691979
0.3702457981587862
0.09122051388648755
0.04684046085057647
0.525583367357413
0.3054523168536376
0.336181179992899
0.4301092573557042
0.4855923795167809
0.2224811320430663
-1.226951266720211
0.02478327608734509
-0.2548693051622143
0.003999822302774057
-0.03421537173557705
-0.02606952671469021
0.0008083184163033292
0.1560886566856073
-0.9103140507405086
0.01391112764904345
-0.1090029932186311
0.003934601718157104
-0.0171441142662151
-0.01485795751585843
-0.00124606777363827
0.07705252660544386
-0.459003425415841
0.005782327952166882
-0.03439379498803576
0.0002499819190721324
-0.004959478947075897
-0.00720021347436136
-0.001151366638307023
0.02893744100079649
-0.001938975594154515
0.0003224843600727733
-0.0003558527637947343
0.001674348448329742
-0.009575263300521192
0.001310383895370922
-0.002550192041596559
-8.274977911764195e-05
0.00196516829166813
0.004456720624771017
0.005923901191831882
-0.001794450074723394
-0.00682637836214884
-0.002760345786853427
-0.0009333487195233234
-0.002523643959847615
0.0006293240198438563
0.00241912098253539
-0.003957280786252709
-0.00206345485906711
-0.003584775619581246
-0.00342510648073277
-0.0002594428524221037
-0.005472562304633997
3.623268733488061e-05
0.002615800068877579
-0.00946574899651834
-0.00106998692965332
-0.004070483075367472
-0.009085832397046186
-0.01032424146837643
0.05850073209155186
0.03536042407710112
0.1115400505243764
0.07485448335039235
0.1561658408853374
0.1043332616035592
0.1071868135722436
0.1897774082630235
0.0280185391996449
0.009194576146018318
0.08113426011019052
0.03533760465804626
0.1319170299659966
0.06939426934189413
0.0844228164707691
0.1780883286440623
0.00617493187173937
-0.001381103248499813
0.0482449296777335
0.006948117851989538
0.1028570660574272
0.03502366695116223
0.05355964498040613
0.1568751683122882
-0.009784976676118294
0.006705298855279949
0.05882361310090662
0.1337185567290782
0.1528263380602105
-0.1826184796030836
0.2336932575217466
0.1193811659198274
-0.1287741719993221
0.1735694636090887
0.08424518574360558
-0.06612164172671796
0.1108081279559171
-0.06746293877879855
0.06069849947334451
0.07963426960103341
0.1379487093111056
-0.1296620963410468
0.0951479200543234
-0.08081024737444319
0.0676482894244715
-0.04169730479106838
-0.04374874576510916
0.03269482732579265
0.1090898838646849
-0.07395345458302841
0.06979028979096281
-0.037940055985709
0.02100955011923339
-0.01826042122474097
-0.01125822011645559
-0.01369641526276221
0.06592455536480722
0.02314217947492928
-0.02760022224385326
-0.0420275093691115
-0.0389048878784634
0.001841567499003723
-0.02883030948789563
-0.002842683605592596
-0.01555703696194347
-0.005137029346847455
-0.004782643051552429
-6.557254739192331e-15
-0.02000380490075829
0.01403536539600478
-0.01705983559880321
-0.0003466646781356587
-0.009588306855193091
-0.006909315941012226
-0.007556387576795687
6.705747068735946e-14
0.0114182512430766
0.03410263790493033
0.003801502605290399
0.01263816583013547
0.001491269074850449
0.0004002135865057814
-0.003100668447992557
1.389444115318383e-13
0.04453671008120771
0.02957169219947648
0.01579818809241184
3.832836825701236e-13
-0.00478264305153648
0.0155570369619179
-0.007556387576815085
0.009588306855317235
-0.003100668448060256
-0.001491269074540676
-0.01579818809147465
0.02184204173580341
-0.005137029346823276
0.02883030948788326
-0.006909315941008697
0.01705983559881655
0.0004002135864974304
-0.003801502605002269
-0.02957169219871895
0.02442497331246122
-0.002842683605615431
0.03890488787843831
-0.0003466646781245739
0.02000380490067356
0.01263816583016835
-0.01141825124292019
-0.04453671008052647
0.03861155276256817
0.001841567498953301
0.04202750936911413
0.01403536539601599
0.01369641526277346
0.03410263790493036
-0.03269482732549378
-0.06069849947268317
0.05436865075367117
-0.08424518574291204
-0.0674629387786335
0.07963426960096694
-0.1193811659193879
-0.0661216417264178
0.110808127955786
-0.1528263380599377
-0.1287741719994931
0.1735694636092834
-0.1826184796031358
-0.1897774082629937
0.2336932575218264
-0.06764828942396106
-0.04374874576505219
-0.09514792005398021
-0.04169730479097013
-0.1379487093108805
-0.08081024737438515
-0.1296620963410765
-0.1780883286439814
-0.02100955011896397
-0.01125822011645999
-0.0697902897907518
-0.01826042122474725
-0.1090898838645254
-0.03794005598562058
-0.07395345458297604
-0.156875168312195
0.02760022224392848
-0.02314217947479789
-0.06592455536463336
-0.1337185567288468
-0.05882361310077581
-0.05355964498026602
-0.006705298854967144
-0.03502366695119173
0.00978497667614725
-0.006948117851481861
0.001381103248760729
0.01032424146820136
-0.1028570660574883
-0.08442281647046618
-0.04824492967710944
-0.06939426934255316
-0.006174931871239464
-0.03533760465719549
-0.009194576145080624
0.009465748996394692
-0.1319170299661866
-0.1071868135714936
-0.08113426010958444
-0.104333261605212
-0.02801853919865157
-0.07485448334962784
-0.03536042407498248
0.003957280786139779
-0.1561658408853382
-0.1115400505239822
-0.05850073209063541
-0.005923901191485746
8.274977876212425e-05
0.004456720624228167
-0.001310383895225564
0.001965168291943827
-0.001674348448071766
-0.002550192041236722
-0.00957526330060874
-0.0008083184161582074
0.002523643959652338
0.002419120982167039
0.00276034578684742
0.0006293240199999675
0.001794450074948875
-0.000933348719282398
-0.006826378362085293
0.001246067773848366
0.005472562304385458
0.002615800068759229
0.003425106480792075
3.623268731183654e-05
0.00206345485935156
-0.0002594428522161712
-0.003584775619467781
0.001151366638532764
0.00908583239680949
0.004070483075308867
0.001069986929886234
0.0003558527640454643
-0.00399982230270898
-0.02606952671504872
-0.02478327608650028
-0.03421537173504122
-0.2224811320413732
-0.2548693051607367
-1.226951266722686
-0.4261921473541719
-0.003934601718151362
-0.01485795751581146
-0.01391112764870469
-0.01714411426600014
-0.1560886566843764
-0.1090029932179512
-0.9103140507417199
-0.4674803040321979
-0.0002499819189453866
-0.007200213474256853
-0.005782327952058468
-0.004959478946921992
-0.0770525266047813
-0.03439379498775952
-0.459003425416346
-0.525583367357635
-0.0003224843599614526
0.001938975594130857
-0.02893744100054991
-0.4855923795171568
-0.3546216494087406
0.2998187158801984
-0.3245033920607188
0.1511954223453666
-0.3087510727664647
0.05561985332829522
0.01911742378885251
-0.3012954781804474
-0.3596006446043821
0.1954893337235118
-0.3303814121173919
0.1244523034996423
-0.3141210189537103
0.04091145899078708
0.01225223491870198
-0.3057898492345544
-0.3702457981593636
0.04684046085013827
-0.3323847923120598
0.09122051388543018
-0.3171243222295294
0.02821896909803623
0.008028342145631195
-0.3092762266843108
-0.4301092573576173
-0.336181179996804
-0.3054523168571788
-0.2931908948559897
-0.2951507778590083
-0.0007037893753759628
-0.2887791807200133
-0.007271124127185002
-0.2819146512119597
0.003243494328335816
0.01029098773276726
-0.2801407126371867
-0.2993714620170578
-0.0004379378179734106
-0.2927671978539954
-0.00484217273988885
-0.2856305274236979
0.002640634501399619
0.009279566902923864
-0.2834190709639434
-0.3027976622398065
0.00094733197202157
-0.2949294127040588
-0.002494781725155493
-0.2869691783104769
0.002176431313575811
0.008102745143095724
-0.2831798674014441
-0.2839199437920188
-0.275597052378046
-0.2654304675066392
-0.2549202332301949
-0.2785188257787777
0.04736413896503178
-0.2751444998738543
0.08195596190835752
-0.2708098481283396
0.1360214078949022
0.09748231237852167
-0.2459478487497208
-0.279721703077462
0.03815734656314373
-0.2709710278976783
0.06596424188139327
-0.2483957565717896
0.1075280491763224
0.06066160799982845
-0.2166958801837919
-0.2734750902693496
0.0237939990855377
-0.2455924424595187
0.03240334941091116
-0.2016659604835963
0.05679753448049074
0.03265724583183316
-0.1783747176226194
-0.2354114308540415
-0.2080826859199133
-0.1550804787126026
-0.1250241691557441
-0.2334933871605684
-0.1480648013183126
-0.2338991737266384
-2.020461087820502e-05
-0.2362390248560055
-0.0008868580009671057
-0.001407298378669375
-0.240003346508654
-0.2335600639588332
-0.140436386191056
-0.2341699060714346
0.0001838382930986482
-0.2368645735148513
5.183838794936557e-05
0.0002576966634562083
-0.2407794147279599
-0.233389766146621
-0.09547665728127547
-0.2346034768620979
0.00033957708140403
-0.2378598538897742
0.00132887235260265
0.002156147472094527
-0.2421615676144369
-0.2318378334791633
-0.2334150951875639
-0.233596645549605
-0.2340686979288221
-0.2411980751403672
-0.001046490964319302
-0.2419367043829146
-0.001988811337245655
-0.243227764821136
-0.002636223956165973
-0.00283875557616825
-0.2444286849303735
-0.243048808018005
0.00031406920330046
-0.2440406721775503
0.0002960048022249695
-0.2463922459290467
0.0008622175220840411
0.000961960905187631
-0.250272825078216
-0.2450558492719124
0.002212588773758961
-0.2466117501498102
0.00325197328429111
-0.2491126026585659
0.005508856860061029
0.005991296971211091
-0.2531868328357467
-0.233228361616568