/*--------------------------------*- C++ -*----------------------------------*\
  =========                 |
  \\      /  F ield         | OpenFOAM: The Open Source CFD Toolbox
   \\    /   O peration     | Website:  https://openfoam.org
    \\  /    A nd           | Version:  11
     \\/     M anipulation  |
\*---------------------------------------------------------------------------*/
FoamFile
{
    format      ascii;
    class       volVectorField;
    location    "0.0045";
    object      U;
}
// * * * * * * * * * * * * * * * * * * * * * * * * * * * * * * * * * * * * * //

dimensions      [0 1 -1 0 0 0 0];

internalField   nonuniform List<vector> 
880
(
(25 -9.520540535154897e-17 0)
(25 -6.472551698262024e-17 0)
(25 2.022743790224957e-16 0)
(25 -2.099613424502874e-16 0)
(25 9.139560171939103e-17 0)
(25 -1.225589986162979e-16 0)
(25.00000000000002 9.011669034207352e-16 0)
(25 -3.390950313445587e-14 0)
(25 0 0)
(25.00000000000001 2.325828376796829e-16 0)
(25 -1.176942811048277e-15 0)
(25.00000000000787 2.854306954028789e-13 0)
(25 0 0)
(25 -2.213117864849525e-16 0)
(25 3.198512742842251e-19 0)
(25.00000000030213 -7.954093409906672e-10 0)
(25 -7.928019501769083e-17 0)
(25 -6.564959951705565e-17 0)
(25.00000000000001 3.923431385173153e-16 0)
(25 -3.380312812271091e-16 0)
(25 0 0)
(25 0 0)
(25.00000000000003 1.320947502715524e-15 0)
(25 -1.196421225373149e-15 0)
(25 1.603701349639284e-17 0)
(25 -1.349132403973372e-16 0)
(25 3.586731964287505e-16 0)
(25 -4.322235991711371e-15 0)
(24.99999999679005 1.515858132857221e-08 0)
(24.99999999680752 1.702566914588759e-08 0)
(24.9999999971448 1.535138548425752e-08 0)
(24.99999999747842 1.409171287452527e-08 0)
(25 9.797053106509231e-17 0)
(25 -2.196754318441579e-20 0)
(25.00000000000001 4.23974263073755e-16 0)
(25 -4.530124969497151e-16 0)
(25 -1.740233218642421e-16 0)
(25.00000000000001 1.037612685226354e-16 0)
(25 3.74755558122163e-17 0)
(25 -1.187160262729418e-16 0)
(25 3.791222453112765e-13 0)
(25.00000000000002 3.836787436450256e-13 0)
(25 3.993194230488117e-13 0)
(25 -1.497282644486125e-14 0)
(24.99999999886158 7.321131662893578e-09 0)
(24.99999999882092 7.267104156735093e-09 0)
(24.99999999880211 7.374027044015388e-09 0)
(24.99999999759585 3.29226456256519e-09 0)
(25.00000001682556 1.329282721404317e-07 0)
(25.00000001588717 4.656808105995261e-08 0)
(25.00000000083725 1.14930348971079e-09 0)
(25.00000000000197 1.377613959636416e-12 0)
(25.00000000000195 1.446864444012269e-11 0)
(25.00000000000158 5.439548496623092e-12 0)
(25 1.560134760611162e-13 0)
(25 8.064663853749036e-18 0)
(25 7.764948859719678e-16 0)
(25 2.177540537527146e-16 0)
(25 -9.901976384948651e-17 0)
(25 1.218371259626276e-16 0)
(25 -2.043184403711963e-16 0)
(25 1.720098348986744e-16 0)
(25 5.106258166410089e-17 0)
(25 3.757606609787493e-17 0)
(25.00000000000001 3.574834807926186e-16 0)
(25.00000000000001 -1.203342297999925e-17 0)
(25 -7.662792935358049e-17 0)
(24.99999999999999 -1.0217057247144e-16 0)
(25 -2.715862269570654e-16 0)
(25 2.788487602662364e-17 0)
(25 -2.436132791640406e-16 0)
(25 -6.101340949836898e-17 0)
(25.00000000000002 8.667833504478738e-16 0)
(25 -8.810141218735185e-16 0)
(25.00000000000002 5.354432757396583e-16 0)
(25 -5.183898719656838e-16 0)
(25.00000000000001 -4.416995169899928e-16 0)
(25 -6.295765612913168e-16 0)
(25.00000000000001 6.078839861636026e-16 0)
(25 -2.922224757423241e-16 0)
(25 -4.184318122037062e-17 0)
(25 -8.528382025343983e-17 0)
(25 1.219184229772586e-16 0)
(25 1.532104495639773e-16 0)
(25 -2.726300734935769e-16 0)
(25 -3.780311181446821e-17 0)
(25 6.09456619861879e-17 0)
(25 0 0)
(25.00000000000157 1.29674129275683e-12 0)
(25.00000000000002 1.541484889421452e-15 0)
(25 -1.980869509576139e-16 0)
(25 0 0)
(25.00000000035252 -7.388471015342647e-09 0)
(25.00000000000001 -6.785050612652554e-13 0)
(25 2.484978747948243e-17 0)
(25.00000000000001 0 0)
(25.00000000000002 3.600201137416925e-16 0)
(25.00000000000001 -7.410597819271556e-17 0)
(25.00000000000002 5.718650832043413e-16 0)
(24.99999999997831 1.540191965232971e-11 0)
(25 -1.055230674164312e-16 0)
(25 -9.001238887489947e-17 0)
(25.00000000000002 2.294571410995861e-16 0)
(24.99999999998614 2.898672525098487e-11 0)
(25 0 0)
(25 3.242653466369154e-17 0)
(25 1.29267999567504e-15 0)
(24.99999999998476 3.048353962173606e-11 0)
(25 0 0)
(25 8.338921527584476e-18 0)
(25 1.623985115372935e-15 0)
(24.99999999998268 3.201567254990346e-11 0)
(24.99999999998158 3.368265110744142e-11 0)
(25.00000000000001 1.762399848663167e-15 0)
(25 -3.447453549755792e-17 0)
(25 5.719775079348951e-17 0)
(24.99999999998017 3.552245220429224e-11 0)
(25.00000000000003 1.734343272812519e-15 0)
(25 -9.13258130146982e-17 0)
(25 0 0)
(24.99999999998044 3.759914898476177e-11 0)
(25 2.981067090103189e-15 0)
(25.00000000000001 -1.201238504083255e-16 0)
(25 -9.082586419883151e-17 0)
(24.99999999997871 3.546940009546444e-11 0)
(25 1.93864534854207e-15 0)
(25 1.532676858071644e-16 0)
(25 0 0)
(25.00000000000001 -6.395115417640599e-17 0)
(25 1.541033191285906e-16 0)
(25 2.735269746198389e-14 0)
(24.99999999981204 2.90757727427716e-10 0)
(25 2.664296672534949e-16 0)
(25 0 0)
(25 3.034772116945472e-14 0)
(24.99999999981051 2.75822930522794e-10 0)
(25 0 0)
(25 0 0)
(25 6.094721774222461e-14 0)
(24.99999999982138 5.172032826991756e-10 0)
(25 -2.826218719169805e-18 0)
(25 -2.267741255598776e-13 0)
(25.0000000000529 -2.341123329476359e-10 0)
(24.99999999158065 -1.005114097354549e-07 0)
(25.00000000000002 -5.529485903715464e-14 0)
(25.00000000006558 4.993368655158835e-11 0)
(25.00000046470891 1.237070420378508e-07 0)
(25.00083622225387 1.24357231357794e-05 0)
(25 -2.488653301391365e-14 0)
(25.00000000003574 3.436057080535275e-11 0)
(25.0000004105432 1.005725257380395e-07 0)
(25.00095733732376 1.680673170486911e-06 0)
(25 -1.944936029257583e-14 0)
(25.0000000000259 2.091075381437663e-11 0)
(25.00000029881792 7.297142505312559e-08 0)
(25.00085954619396 7.204682544394557e-08 0)
(25 -9.34906984264283e-15 0)
(25.00000000001177 1.323929531383283e-11 0)
(25.00000022185988 5.580702018486168e-08 0)
(25.0007768112575 7.451233483639806e-06 0)
(25.00100533968923 1.566350893941739e-05 0)
(25.00000031395941 1.475831171475579e-07 0)
(25.00000000002667 3.018949202486505e-11 0)
(25 -3.354502148126609e-14 0)
(25.00097466448975 5.041027681485739e-07 0)
(25.00000027075344 1.246176594182301e-07 0)
(25.00000000002387 2.327148462707337e-11 0)
(25 -3.02969542887211e-14 0)
(25.00090917457443 2.098809539255023e-06 0)
(25.00000022475458 1.044210824373818e-07 0)
(25.00000000001914 1.759396041740006e-11 0)
(25 -2.526799957740262e-14 0)
(25.00092695919859 -2.139333854424772e-05 0)
(25.00000022073012 9.609456975703726e-08 0)
(25.00000000001627 1.684456250472858e-11 0)
(25 -1.837187689868722e-14 0)
(25.00001392382121 -1.524923922045242e-06 0)
(25.00000000267504 9.970486320037316e-10 0)
(25 1.195957042404542e-13 0)
(25.00000000000003 -6.148335010444176e-16 0)
(25.00000000475715 -2.250558003197942e-08 0)
(25.00000000000129 -1.534998270375739e-11 0)
(25 -1.255374448984502e-15 0)
(25 8.734971054342212e-16 0)
(24.99999999823825 -4.579527991058083e-09 0)
(24.99999999999899 -1.100035807840426e-12 0)
(25 3.415036668864212e-16 0)
(25 6.594300044007889e-17 0)
(24.99999988141045 -1.804117813697892e-07 0)
(24.99999999998689 -4.600671894870356e-11 0)
(25 -1.160537486749109e-14 0)
(25 -4.370301943737254e-17 0)
(25.00000337139143 -9.80686091564668e-14 0)
(25.00000000072083 -5.208900835553171e-14 0)
(24.99999999999476 -9.145799373449565e-16 0)
(25.00000000000001 7.380412732143504e-17 0)
(25.00000337133654 2.314427738694752e-11 0)
(25.00000000071706 1.316637332828115e-13 0)
(24.99999999999429 3.649051349743466e-14 0)
(25 -1.852507219501241e-16 0)
(25.00000336349709 1.290922831280421e-08 0)
(25.00000000072403 2.261253407098125e-12 0)
(24.99999999999995 2.718212765413437e-14 0)
(25 -4.712167430067869e-17 0)
(25.00000326391246 2.154560906870912e-07 0)
(25.00000000072477 6.020085619285531e-11 0)
(25.0000000000001 3.790294535205547e-14 0)
(25 1.264278262202978e-16 0)
(24.99999988141473 1.804117751242598e-07 0)
(24.99999999998857 4.613323073011799e-11 0)
(25 5.495993743400089e-15 0)
(25 3.492939549077108e-16 0)
(24.99999999824238 4.579698740289653e-09 0)
(25.00000000000028 1.108059074472064e-12 0)
(25.00000000000001 2.812178154870131e-16 0)
(25 4.370301943745634e-17 0)
(25.00000000475857 2.250566276053208e-08 0)
(25.00000000000113 1.538270306810691e-11 0)
(25 1.300875083320649e-15 0)
(25 -6.550791260561692e-16 0)
(25.00001392381418 1.524924052384925e-06 0)
(25.00000000266892 -9.96931680070426e-10 0)
(25 -1.225505323600808e-13 0)
(25.00000000000003 4.122068793570495e-16 0)
(25 2.905205324129841e-14 0)
(25.00000000002179 -3.017668737370641e-11 0)
(25.00000031395566 -1.475833325647493e-07 0)
(25.00100533968701 -1.5663509372314e-05 0)
(25 3.068162530651325e-14 0)
(25.00000000002389 -2.331376010495064e-11 0)
(25.00000027075043 -1.246175341197321e-07 0)
(25.00097466448603 -5.041033054833205e-07 0)
(25 2.07393668262049e-14 0)
(25.00000000001549 -1.764032326904465e-11 0)
(25.00000022475465 -1.044211896128301e-07 0)
(25.000909174564 -2.09880961207637e-06 0)
(25 1.795526223287501e-14 0)
(25.00000000001583 -1.677813543907681e-11 0)
(25.00000022072134 -9.609485193184117e-08 0)
(25.00092695920504 2.139333917553669e-05 0)
(25.00077681126229 -7.451233600245545e-06 0)
(25.00000022186397 -5.580711069365403e-08 0)
(25.00000000001291 -1.33163156322164e-11 0)
(25 9.351127064315137e-15 0)
(25.00085954620289 -7.20469426650999e-08 0)
(25.00000029882317 -7.297142968801157e-08 0)
(25.00000000002902 -2.089433830590366e-11 0)
(25 2.276590562880233e-14 0)
(25.00095733732631 -1.680672793733787e-06 0)
(25.00000041055056 -1.005725238867647e-07 0)
(25.00000000003601 -3.431484636798162e-11 0)
(25.00000000000001 2.639995537369724e-14 0)
(25.00083622225136 -1.243572318175649e-05 0)
(25.00000046471149 -1.237068340401326e-07 0)
(25.0000000000673 -4.990449506205232e-11 0)
(25 5.661417225824005e-14 0)
(25.00000000000001 1.27888090665784e-16 0)
(25 -4.677231019865086e-16 0)
(25 -2.775580696711611e-14 0)
(24.99999999980805 -2.907712130535481e-10 0)
(25 -4.491632207154199e-16 0)
(25 3.237630457058449e-16 0)
(25 -3.012459959569199e-14 0)
(24.99999999981264 -2.757352829390765e-10 0)
(24.99999999999999 -1.782924918541399e-17 0)
(25 1.704866584824879e-16 0)
(25 -6.032381180519338e-14 0)
(24.99999999982258 -5.171858764969598e-10 0)
(25 1.699284192176708e-16 0)
(25 2.294824012524952e-13 0)
(25.00000000005483 2.341504557046434e-10 0)
(24.99999999158071 1.005113484998812e-07 0)
(24.99999999997396 -3.551303132299102e-11 0)
(25 -2.435685492505686e-15 0)
(25 0 0)
(25 0 0)
(24.99999999997587 -3.763744497416128e-11 0)
(25 -2.81409607668827e-15 0)
(25 0 0)
(25 0 0)
(24.99999999998025 -3.552487578495459e-11 0)
(25 -2.223702480522786e-15 0)
(25 0 0)
(25 0 0)
(24.99999999997867 -3.371276908763004e-11 0)
(25 -2.262889606517429e-15 0)
(25 2.546710547281292e-17 0)
(25 0 0)
(25 5.146902537844671e-17 0)
(25 2.278703103026411e-17 0)
(25 -4.572784178239723e-16 0)
(24.99999999998279 -1.537510509707524e-11 0)
(25 0 0)
(25 0 0)
(25 -1.180095250367587e-15 0)
(24.99999999998423 -2.897784081820553e-11 0)
(25 0 0)
(25 0 0)
(25 -1.417044030325729e-15 0)
(24.99999999998308 -3.050362429504888e-11 0)
(25 -5.564924965155544e-17 0)
(25 2.718043675512123e-16 0)
(25.00000000000002 -1.339981189965035e-15 0)
(24.99999999998239 -3.201843940924391e-11 0)
(25 0 0)
(25 0 0)
(25 0 0)
(25 2.334370535257805e-16 0)
(25 -3.569616418466065e-17 0)
(25 -3.048638049553863e-17 0)
(25 0 0)
(25 0 0)
(25.00000000000002 6.783853094077123e-13 0)
(25 -1.203793891928482e-15 0)
(25 5.428526856557728e-17 0)
(25 5.61569426349661e-16 0)
(25.00000000035302 7.38845652681932e-09 0)
(25.00000000000157 -1.296504006382174e-12 0)
(25 2.245748019691681e-16 0)
(25 2.489810215265671e-17 0)
(25.00000000000002 -4.594497121186425e-16 0)
(25 -6.101340949841828e-17 0)
(25.00000000000002 -6.042785420085902e-16 0)
(25 -7.442349469204914e-17 0)
(25 -2.927754515606306e-17 0)
(25 -6.097276099115e-17 0)
(25 0 0)
(25.00000000000001 0 0)
(25 0 0)
(25 1.21959071484565e-16 0)
(25 7.558942224584199e-17 0)
(25 -2.871157395848696e-17 0)
(25 5.10852862357514e-17 0)
(25.00000000000001 6.097276099106361e-17 0)
(25 -1.511452417255959e-16 0)
(25 1.605692701088982e-16 0)
(25 1.061438725122167e-16 0)
(25 -2.25734710691678e-16 0)
(25.00000000000436 -1.446825265702388e-11 0)
(25.00000001682697 -1.329284303378593e-07 0)
(25 -2.042957357999391e-16 0)
(25 -1.309694906089628e-16 0)
(25.00000000000144 -5.404019821618549e-12 0)
(25.00000001589323 -4.656815943002951e-08 0)
(25.00000000000001 1.021705724716095e-16 0)
(25 -1.248180165000738e-16 0)
(25 -1.605501183007395e-13 0)
(25.0000000008375 -1.149143922111126e-09 0)
(25 0 0)
(25 -2.438097469497481e-16 0)
(25 -1.511116389595581e-16 0)
(25.00000000000216 -1.383244020187149e-12 0)
(24.99999999759393 -3.292120826478587e-09 0)
(25 -6.603717249993156e-15 0)
(25 -2.255760499222957e-16 0)
(25 1.766413173295173e-16 0)
(24.99999999880427 -7.374045384691981e-09 0)
(25 -3.993077017064375e-13 0)
(25 -4.664282151574786e-16 0)
(25 6.985843839031109e-16 0)
(24.99999999881669 -7.267097538538659e-09 0)
(25 -3.83616726453744e-13 0)
(24.99999999999999 3.209573291289562e-16 0)
(25.00000000000002 -8.162809534190369e-16 0)
(24.99999999886303 -7.321124008462719e-09 0)
(25 -3.788276892377993e-13 0)
(25 -8.716911960151327e-18 0)
(25 -9.797053106515919e-17 0)
(24.99999999747442 -1.409191954688366e-08 0)
(25 4.156409641650832e-15 0)
(25 -8.075802892220267e-17 0)
(25 0 0)
(24.99999999714658 -1.535118522636787e-08 0)
(25 -9.535882051230076e-17 0)
(25 8.581528317967927e-17 0)
(25.00000000000001 7.119620141048333e-17 0)
(24.99999999680404 -1.702576803995215e-08 0)
(25 -4.692521102689729e-19 0)
(25 0 0)
(25.00000000000001 6.001009968971622e-16 0)
(24.99999999679111 -1.515849151899782e-08 0)
(25 5.304046205986062e-16 0)
(25 -9.810203513406926e-17 0)
(25.00000000000002 -5.555349002017482e-16 0)
(25 1.901992431354718e-16 0)
(25 1.295085933397134e-16 0)
(25 0 0)
(25 1.630657697027976e-16 0)
(24.99999999999999 -2.843418720158383e-19 0)
(25 1.837840272582805e-16 0)
(25 0 0)
(25 2.194587460628591e-14 0)
(25 -1.752892668493517e-16 0)
(25 -1.162914188399364e-16 0)
(25 -9.488762256754486e-17 0)
(25.0000000000085 -3.170817120624111e-13 0)
(25 -8.316261079194424e-17 0)
(25 -3.690886859242907e-18 0)
(25.00000000000002 -3.440266997668392e-16 0)
(25.00000000030545 7.95319292460158e-10 0)
(25 4.615861779118546e-15 0)
(24.99999999999992 2.081596121413425e-12 0)
(25.00000000318332 -1.280675221979624e-10 0)
(25.00000012431942 9.444795963676032e-08 0)
(25.00000000000397 -2.059319300657372e-12 0)
(25.00000000020309 4.253995256780725e-13 0)
(25.00000000335963 -1.562670202510409e-09 0)
(25.00000686595572 2.261134073287043e-06 0)
(25.00000000318289 1.276311187141941e-10 0)
(25.00000000336114 1.562542982200714e-09 0)
(25.00000077510575 1.847979689734262e-13 0)
(24.9966210601675 0.0001552041273926701 0)
(25.00000012431581 -9.444829279618356e-08 0)
(25.00000686595364 -2.261134987154026e-06 0)
(24.99662106017044 -0.0001552041282970589 0)
(24.64979558622441 2.014988529979257e-12 0)
(24.76624234797764 0.3603371003183088 0)
(24.89410112281017 0.3524456902275218 0)
(24.99954088039174 0.005135508372945626 0)
(24.99999873735479 8.174839096727122e-06 0)
(24.842821104249 0.5703792125825625 0)
(24.90526173813059 0.4273130298373143 0)
(24.9997306451589 0.006534976389326443 0)
(24.99999870161842 1.063552815421078e-05 0)
(24.84342116062843 0.5726422606203407 0)
(24.90640997087351 0.4275259395110683 0)
(24.99974355077217 0.006532782323099248 0)
(24.9999987146862 1.062955922856667e-05 0)
(24.84391492577678 0.5730359922570601 0)
(24.90729115452292 0.4266983554774833 0)
(24.99974079614423 0.006504248783986854 0)
(24.99999872043293 1.055712731958862e-05 0)
(24.99999953284999 6.55434844035084e-06 0)
(24.99999945200044 6.424376839330431e-06 0)
(24.99999945165843 6.424613233753359e-06 0)
(24.99999785157458 4.229650730106309e-06 0)
(24.99986079477648 0.006715981987152236 0)
(24.99987510435403 0.006751044054579071 0)
(24.99987529307442 0.006751262897786553 0)
(24.99985902573309 0.006642617795337936 0)
(24.89016635724122 0.4636193828831295 0)
(24.89075522366909 0.4669547921879472 0)
(24.8907694691972 0.466979807165697 0)
(24.91074316025304 0.4955529088907845 0)
(24.84185039546243 0.5637619519670327 0)
(24.85097615850665 0.5645105099585224 0)
(24.85115131660405 0.5645272416634534 0)
(25.19732400701026 0.6295889997861545 0)
(25.00001425466622 5.833739825464851e-05 0)
(25.00001137075838 1.772658058135964e-05 0)
(25.00000032792739 1.838621286524774e-07 0)
(25.00000000035492 5.053228518238883e-11 0)
(25.00211310229311 0.004202637272651313 0)
(25.000207535754 0.0001445206105897448 0)
(25.00000240169503 -1.702189357935412e-06 0)
(25.00000003805359 -3.171525246065227e-08 0)
(25.01144178063489 0.03997816920815246 0)
(25.00099720079336 -0.0005926129907380593 0)
(25.00004147416566 -3.78015593901439e-05 0)
(25.00000031590693 5.350239232544056e-08 0)
(24.82856235078598 0.008447519273001107 0)
(24.98842274653337 -0.0001624333858327615 0)
(25.00012004176107 -1.050471939446731e-05 0)
(25.0000016761666 3.32065471130998e-09 0)
(25 5.92268900293602e-14 0)
(25.00000000000001 5.954797364729272e-15 0)
(25 1.925359738600699e-15 0)
(25.00000000000001 0 0)
(24.99999999981979 9.244055372271777e-11 0)
(24.9999999999991 -3.62055562470156e-14 0)
(25 5.98292786782971e-14 0)
(25 1.763332318952438e-15 0)
(24.99999999456595 4.039039806627409e-09 0)
(24.99999999993249 1.846145250620348e-11 0)
(24.99999999999982 -6.152542620523697e-13 0)
(25 -1.053592697997628e-15 0)
(25.00000007338552 2.753632057371463e-09 0)
(24.99999999948533 -1.544087730822019e-11 0)
(24.99999999996302 -1.327255947690052e-12 0)
(25 4.099668719796215e-16 0)
(25.00000000000001 1.903281671214642e-19 0)
(25.00000000000001 1.903281671214642e-19 0)
(25 -3.36294645050248e-14 0)
(25.00000044466793 -3.851606620482404e-06 0)
(25 8.56857408380798e-16 0)
(25 8.56857408380798e-16 0)
(25.00000000000001 -2.974067939439827e-15 0)
(25.00084080995294 -0.00235129905691276 0)
(25 5.843074730628943e-17 0)
(25 0 0)
(25.00000000000001 0 0)
(25.09095426084209 -0.1541531644554594 0)
(25 0 0)
(25 0 0)
(25.00000000000001 9.994132055547471e-16 0)
(23.06667385101492 -0.3339878006849324 0)
(24.99999996826539 5.807198341729458e-08 0)
(24.9999999648657 6.872706740578955e-08 0)
(24.9999999647436 6.920833339698491e-08 0)
(24.99999996473365 6.920979124733259e-08 0)
(24.99938099106546 0.001373215976526953 0)
(24.99931934798722 0.001548693796221589 0)
(24.99931793754833 0.001554137147028388 0)
(24.99931795999982 0.001553982441140123 0)
(24.64203763894747 0.6383166216152327 0)
(24.59567118185898 0.6719424511139459 0)
(24.59465047434332 0.6708953682992678 0)
(24.5946359530383 0.6708459848429655 0)
(24.43053103054786 1.743835419579093 0)
(23.86747982418437 1.714859639688237 0)
(23.83155926883313 1.709797702936532 0)
(23.83207215547119 1.709869403444295 0)
(24.99999996472987 6.921195566459871e-08 0)
(24.99999996472208 6.921604729623915e-08 0)
(24.99999996472013 6.921954977944244e-08 0)
(24.99999996452793 7.011529645776639e-08 0)
(24.99931796038592 0.001553971845736103 0)
(24.99931796035557 0.001553971955620373 0)
(24.99931796035754 0.001553971964736068 0)
(24.99932107272099 0.001565742165887852 0)
(24.59463630215044 0.6708467811776907 0)
(24.59463629906159 0.6708468086264558 0)
(24.59463629797702 0.6708468073441933 0)
(24.59310715841359 0.6732692276602515 0)
(23.83208973523901 1.709875045986549 0)
(23.83208933407363 1.70987501084978 0)
(23.8320893054895 1.709875005370056 0)
(23.82903513112247 1.709702099664964 0)
(24.99999979361083 3.351076750056747e-07 0)
(24.99999981860706 2.996015289874035e-07 0)
(24.99999997747372 5.414776298428381e-07 0)
(24.99993692939708 -9.603913554387664e-05 0)
(24.99929697829556 0.001396865828103272 0)
(24.99934762493785 0.00127219456387796 0)
(24.99945701576541 0.001051728805598292 0)
(24.98811822766373 0.002665271970442311 0)
(24.66137205945845 0.5730855867751457 0)
(24.67656910988247 0.5426621587579521 0)
(24.69558402741525 0.5089907171799438 0)
(24.77040004254122 0.5232862577535008 0)
(23.84948931424528 1.698464096895081 0)
(23.87841262355095 1.646916814590593 0)
(23.85697499473775 1.589542837184839 0)
(26.15991062515599 1.757007048123354 0)
(25.03566612664046 -0.0003038624858583564 0)
(25.04641572441377 -1.544578754705702e-05 0)
(25.04625841414522 -9.811879788666728e-06 0)
(25.0472238243846 0.0008917962291984739 0)
(25.10891101562673 -0.01207698979820491 0)
(25.11653079611513 -0.0005275690502381135 0)
(25.11563905984583 -1.968728522887895e-05 0)
(25.11849174137756 0.00168092298763623 0)
(25.19336633251546 -0.3961843054414639 0)
(25.03262490064336 -0.01820721981018293 0)
(25.01497467113954 0.0001347206305218575 0)
(25.02470140453362 -0.01456248196450442 0)
(13.18531760811251 -2.539804737438617 0)
(11.38609983059079 -0.05277315608601436 0)
(11.40129912647739 -0.0009500146979853305 0)
(11.40837046965629 -0.04512337790606263 0)
(25.08764536699957 0.001707562957643079 0)
(25.09013797362704 8.291867652438756e-06 0)
(25.08985814011988 -2.303266314414515e-05 0)
(25.08038864233999 -0.000716864053742652 0)
(25.22595564321304 0.002804164661788079 0)
(25.23225356850529 8.688599124194497e-06 0)
(25.2316390838736 -0.0001569930783358075 0)
(25.15412365322734 0.009199320174383623 0)
(25.42374635350258 -0.01764875155111785 0)
(25.44092953457314 -0.0004306109579127332 0)
(25.43076351168146 -0.00201913771536561 0)
(24.21359171579873 0.3266457989569171 0)
(10.77667933639625 -0.04909161767235267 0)
(10.78327239979288 -0.0002812176225719182 0)
(10.79567547525978 -0.009366968023781567 0)
(7.25201636615482 1.417484982905919 0)
(25.00364479046607 -0.0004488586186481598 0)
(25.000001746912 -3.149534200605401e-06 0)
(24.99999903461104 -1.427659649559148e-06 0)
(24.99990608539649 -8.117994368394426e-05 0)
(25.02423257714551 -0.002532292520535908 0)
(25.00029770882876 -0.0001631535560011058 0)
(25.00000792556123 -3.33384655002903e-05 0)
(24.9984905836396 -0.0002842295197332377 0)
(25.05114545117999 0.0001971582385866709 0)
(25.00448265026291 -0.001469423477703916 0)
(25.00155366166994 -0.0006766562282619617 0)
(25.11931377742238 0.01150315432243088 0)
(24.68213889529976 0.4625365098010254 0)
(24.99796743328558 0.001942633060261817 0)
(25.01706045889213 0.0007444010860553713 0)
(26.32459754970223 -0.1023886990776801 0)
(25.0026488026451 0.0001022860320211088 0)
(25.00168908459315 -7.20415902030806e-06 0)
(25.00161788012679 7.356753602524765e-07 0)
(25.00144217147653 0.0001439464338973881 0)
(25.04374968115758 -0.001337492717661914 0)
(25.06109368886166 -0.000452303174875298 0)
(25.06152501118431 -1.281978366471821e-05 0)
(25.06576925822245 0.002042848204009538 0)
(25.64692257440435 -0.0985000217900136 0)
(25.78411909909116 -0.01089254925454233 0)
(25.79489696493564 -0.0005160496454225231 0)
(25.82120343648421 -0.002909889856038192 0)
(19.68390609889418 -1.957240451909311 0)
(21.18699029161041 -0.3372938073185982 0)
(21.27577039096418 -0.02461087490326297 0)
(21.36203588443047 -0.1233998738636151 0)
(20.55418837361284 -0.1451216189105309 0)
(20.60723375926747 -0.01155143829311909 0)
(20.60491987301897 -0.0003430743533241878 0)
(20.60478239066998 -9.493482285367742e-07 0)
(26.2223544384812 -0.002547477185651617 0)
(26.27684796548791 -0.0003193360434571513 0)
(26.27813711613249 -2.447623104231205e-05 0)
(26.27817282182332 -1.035226203257776e-06 0)
(25.12104978618716 0.004152011398736866 0)
(25.12973682103533 0.0001400293541248173 0)
(25.12988265546514 -1.169364622356526e-06 0)
(25.12988228598234 -7.042220622543983e-08 0)
(25.00146853546178 0.0002847519037089331 0)
(25.00141741612671 1.049098409185023e-05 0)
(25.00142108335763 1.362415310708404e-08 0)
(25.00142117558836 -8.395233659977706e-10 0)
(20.60478239067031 9.493485094470549e-07 0)
(26.27817282182472 1.03522531339584e-06 0)
(25.1298822859811 7.042289422708265e-08 0)
(25.00142117558834 8.394122037497205e-10 0)
(20.60491987301442 0.0003430743573302013 0)
(26.27813711613894 2.44762295232394e-05 0)
(25.12988265545495 1.169367809646487e-06 0)
(25.00142108335875 -1.362449633128578e-08 0)
(20.60723375926626 0.01155143828754954 0)
(26.27684796548558 0.0003193360475706186 0)
(25.12973682104203 -0.0001400293623630325 0)
(25.00141741612902 -1.049098493043249e-05 0)
(20.55418837361473 0.1451216189105765 0)
(26.22235443847408 0.002547477185221719 0)
(25.1210497861916 -0.004152011395590841 0)
(25.00146853546904 -0.0002847519046859479 0)
(25.00144217148109 -0.0001439464333571428 0)
(25.00161788012826 -7.356749030249653e-07 0)
(25.00168908459504 7.204158703256252e-06 0)
(25.00264880265344 -0.0001022860318519022 0)
(25.0657692582297 -0.002042848203536307 0)
(25.06152501118391 1.281978516232487e-05 0)
(25.06109368884996 0.0004523031748108365 0)
(25.04374968116932 0.00133749271637679 0)
(25.82120343648368 0.00290988985590223 0)
(25.79489696493306 0.0005160496448011923 0)
(25.784119099093 0.01089254925427116 0)
(25.64692257440373 0.09850002179029373 0)
(21.36203588443201 0.1233998738642961 0)
(21.2757703909641 0.02461087490388299 0)
(21.18699029160883 0.3372938073189208 0)
(19.68390609889441 1.957240451909013 0)
(26.32459754970111 0.1023886990773103 0)
(25.01706045889247 -0.0007444010852869138 0)
(24.99796743328562 -0.001942633060218565 0)
(24.6821388952976 -0.462536509801333 0)
(25.11931377742212 -0.01150315432316226 0)
(25.00155366167213 0.0006766562237631782 0)
(25.00448265026279 0.001469423478024522 0)
(25.05114545117816 -0.0001971582390360943 0)
(24.99849058364035 0.0002842295187344174 0)
(25.00000792557159 3.33384700780175e-05 0)
(25.00029770882863 0.0001631535559207227 0)
(25.02423257714668 0.002532292520378145 0)
(24.99990608539711 8.117994330108307e-05 0)
(24.99999903461121 1.427659392040037e-06 0)
(25.00000174691307 3.149534205334869e-06 0)
(25.00364479046598 0.0004488586198982344 0)
(25.080388642341 0.0007168640532778121 0)
(25.08985814012409 2.303266356504621e-05 0)
(25.09013797362979 -8.29186761750914e-06 0)
(25.08764536700541 -0.001707562958674452 0)
(25.15412365322725 -0.009199320174729419 0)
(25.23163908387101 0.0001569930794117944 0)
(25.23225356849855 -8.688599134780183e-06 0)
(25.22595564320882 -0.002804164661731368 0)
(24.21359171578487 -0.3266457989577762 0)
(25.4307635116827 0.002019137716003915 0)
(25.44092953457224 0.000430610957684407 0)
(25.4237463535014 0.01764875155117835 0)
(7.252016366149755 -1.417484982905552 0)
(10.79567547525809 0.009366968022599396 0)
(10.78327239979073 0.0002812176219072803 0)
(10.77667933639566 0.04909161767396125 0)
(25.04722382439748 -0.0008917962283419966 0)
(25.04625841413882 9.811879907221085e-06 0)
(25.04641572440545 1.54457874605636e-05 0)
(25.03566612663668 0.0003038624855731895 0)
(25.11849174136654 -0.001680922987946726 0)
(25.11563905984438 1.968728511938753e-05 0)
(25.11653079611417 0.0005275690501341462 0)
(25.10891101562915 0.0120769897979883 0)
(25.02470140453524 0.01456248196387211 0)
(25.01497467114379 -0.0001347206295453744 0)
(25.03262490063544 0.01820721980969986 0)
(25.19336633252426 0.396184305440518 0)
(11.40837046964687 0.04512337790361334 0)
(11.40129912647555 0.0009500146981337354 0)
(11.38609983059716 0.05277315608670437 0)
(13.18531760812273 2.539804737437632 0)
(24.99993692939613 9.60391356358291e-05 0)
(24.99999997747061 -5.414787691265714e-07 0)
(24.99999981861134 -2.996008600023811e-07 0)
(24.99999979360765 -3.351077240285618e-07 0)
(24.98811822767056 -0.002665271968277177 0)
(24.99945701576157 -0.001051728806094374 0)
(24.9993476249374 -0.001272194565259496 0)
(24.99929697828929 -0.001396865828754399 0)
(24.77040004255131 -0.5232862577520797 0)
(24.69558402741653 -0.5089907171773392 0)
(24.67656910987968 -0.5426621587582803 0)
(24.66137205946222 -0.5730855867704667 0)
(26.15991062516272 -1.757007048124498 0)
(23.85697499474106 -1.589542837184809 0)
(23.87841262355592 -1.646916814589289 0)
(23.84948931425311 -1.698464096895713 0)
(24.99999996452873 -7.011476623415431e-08 0)
(24.99999996471234 -6.922090367302992e-08 0)
(24.99999996472337 -6.921589554497137e-08 0)
(24.99999996472222 -6.921304429954226e-08 0)
(24.99932107272272 -0.00156574216503448 0)
(24.99931796035035 -0.001553971964640646 0)
(24.99931796034701 -0.001553971959827269 0)
(24.99931796038635 -0.001553971842355846 0)
(24.59310715842209 -0.6732692276569411 0)
(24.59463629797454 -0.6708468073415524 0)
(24.59463629905915 -0.6708468086219452 0)
(24.59463630215474 -0.6708467811771064 0)
(23.82903513113601 -1.70970209966505 0)
(23.8320893054947 -1.709875005369226 0)
(23.8320893340754 -1.709875010849772 0)
(23.83208973524352 -1.709875045987236 0)
(24.99999996474262 -6.920789660494954e-08 0)
(24.99999996474056 -6.920889999132158e-08 0)
(24.99999996486492 -6.872705251745997e-08 0)
(24.99999996826366 -5.807301389049535e-08 0)
(24.99931796000189 -0.001553982443694516 0)
(24.99931793754241 -0.001554137148869462 0)
(24.99931934799749 -0.001548693790693919 0)
(24.99938099105525 -0.001373215981299645 0)
(24.59463595304094 -0.6708459848420403 0)
(24.59465047433912 -0.6708953682982373 0)
(24.59567118186191 -0.6719424511184476 0)
(24.64203763894286 -0.6383166216111227 0)
(23.83207215547253 -1.709869403444574 0)
(23.83155926883433 -1.709797702935815 0)
(23.86747982419119 -1.714859639687068 0)
(24.43053103053953 -1.743835419579327 0)
(25.00000044466787 3.85160658818106e-06 0)
(25 3.272749932103643e-14 0)
(25.00000000000001 0 0)
(25.00000000000001 -5.709845013643929e-19 0)
(25.00084080995355 0.002351299057484816 0)
(25.00000000000001 2.73216083902846e-15 0)
(25 -8.56857408380798e-16 0)
(25 -9.58273576437828e-16 0)
(25.09095426084229 0.154153164454985 0)
(25.00000000000001 2.96911940709483e-17 0)
(25 0 0)
(25 -4.917812775821039e-17 0)
(23.06667385101751 0.3339878006848769 0)
(25.00000000000001 0 0)
(25 0 0)
(25 0 0)
(25.00000000000001 0 0)
(25 -6.261796698296144e-16 0)
(25.00000000000001 -5.988675778476893e-15 0)
(25 -5.760670027338391e-14 0)
(25 -1.204777297878825e-15 0)
(25 -2.646551229457404e-14 0)
(24.9999999999991 3.565379489053093e-14 0)