/*--------------------------------*- C++ -*----------------------------------*\
  =========                 |
  \\      /  F ield         | OpenFOAM: The Open Source CFD Toolbox
   \\    /   O peration     | Website:  https://openfoam.org
    \\  /    A nd           | Version:  11
     \\/     M anipulation  |
\*---------------------------------------------------------------------------*/
FoamFile
{
    format      ascii;
    class       volVectorField;
    location    "2.1";
    object      U;
}
// * * * * * * * * * * * * * * * * * * * * * * * * * * * * * * * * * * * * * //

dimensions      [0 1 -1 0 0 0 0];

internalField   nonuniform List<vector> 
5472
(
(10.194895 2.6954381 1.7153389e-18)
(10.380816 2.7146408 -1.7861963e-18)
(10.575192 2.705619 -1.810126e-18)
(10.772945 2.6884713 -1.8461328e-18)
(10.925545 2.6603341 5.7334816e-18)
(11.138498 2.5969123 -3.1237597e-20)
(11.301175 2.5472498 -3.0374222e-18)
(11.485646 2.4659904 1.0573678e-18)
(11.643196 2.3765115 0)
(11.809168 2.2910603 0)
(11.925409 2.1675804 0)
(12.085433 2.0740543 -3.3612628e-18)
(12.209206 1.9230303 1.7273556e-18)
(12.304417 1.8095885 -1.818755e-20)
(12.435102 1.6546141 1.177684e-18)
(12.498137 1.5151602 -6.0436086e-19)
(12.594663 1.3769419 -9.0874353e-19)
(12.661114 1.2336826 3.0963052e-19)
(12.712382 1.1028986 0)
(10.230825 2.4931538 -1.5665843e-18)
(10.385843 2.5153232 3.235971e-18)
(10.562177 2.5060818 -1.6715878e-18)
(10.72421 2.5091323 -1.6880953e-18)
(10.888019 2.4674823 2.0673428e-20)
(11.108531 2.4311422 0)
(11.235421 2.3851103 1.8227403e-18)
(11.423383 2.3097256 -3.7294981e-18)
(11.578986 2.2419969 4.815088e-18)
(11.695384 2.1556055 9.8512645e-19)
(11.874513 2.0552571 0)
(11.998573 1.9480276 2.0561814e-18)
(12.119536 1.8343675 0)
(12.238978 1.7135306 5.2522233e-19)
(12.342265 1.5786238 -5.3950678e-19)
(12.42625 1.4661019 0)
(12.513365 1.3194536 0)
(12.574841 1.2049462 -2.7372391e-19)
(12.645154 1.0636076 0)
(10.188754 2.3136485 0)
(10.334156 2.3415319 1.4705039e-18)
(10.48899 2.3539213 1.5090074e-18)
(10.654858 2.3559813 0)
(10.851004 2.3339419 -1.6791784e-20)
(10.99783 2.3106464 -2.3433244e-20)
(11.141927 2.2774985 -1.6732713e-18)
(11.324843 2.2138546 0)
(11.441212 2.174791 -1.728847e-18)
(11.624567 2.0812817 -4.4342219e-18)
(11.773586 1.9982034 1.0901156e-20)
(11.880111 1.9164807 -9.0764333e-19)
(12.022549 1.7962327 -9.3461151e-19)
(12.130487 1.6984324 1.9154696e-18)
(12.233196 1.5769167 1.4487506e-18)
(12.335175 1.4554514 4.8926382e-19)
(12.415346 1.3282409 2.450991e-19)
(12.495016 1.2060475 -3.7047e-19)
(12.559862 1.0685952 1.2357329e-19)
(10.20447 2.1389668 0)
(10.338935 2.1745329 -1.3272569e-18)
(10.526271 2.1947762 -1.360549e-18)
(10.669479 2.1926581 2.7794653e-18)
(10.812807 2.1872373 -1.4577286e-18)
(10.950423 2.1780265 0)
(11.110925 2.1367791 -1.5092932e-18)
(11.279098 2.0993321 1.5274993e-18)
(11.419471 2.0400864 -1.5816678e-18)
(11.592638 1.9702453 -1.5346713e-20)
(11.687584 1.9012742 -1.6415838e-18)
(11.834535 1.805287 0)
(11.959685 1.7098638 0)
(12.062891 1.610912 -8.5228067e-19)
(12.182887 1.4844817 -8.6216563e-19)
(12.274053 1.3812439 0)
(12.35874 1.2444799 -2.1966232e-19)
(12.436782 1.1326511 1.111857e-19)
(12.49422 1.0002082 2.2144421e-19)
(10.17681 1.9907536 0)
(10.332451 2.0190831 0)
(10.45532 2.0337445 0)
(10.571016 2.0568054 -2.513583e-18)
(10.708074 2.0481907 1.3080925e-18)
(10.856791 2.0520999 -3.9684897e-18)
(11.021827 2.0212796 5.4346998e-18)
(11.165473 1.9904129 -2.7756611e-18)
(11.302018 1.9561636 3.4544357e-21)
(11.444922 1.8958327 1.4365913e-18)
(11.570042 1.8400732 1.4635018e-18)
(11.720906 1.7542527 -2.9904769e-18)
(11.829584 1.6693919 2.2799134e-18)
(11.959278 1.5694617 -7.7245479e-19)
(12.060035 1.4661698 0)
(12.157063 1.3563474 7.8674941e-19)
(12.242315 1.237117 -3.9563389e-19)
(12.319969 1.1264492 1.9723282e-19)
(12.385701 0.99842261 -1.9679057e-19)
(10.223098 1.8362267 0)
(10.336442 1.8732862 -4.326848e-18)
(10.438646 1.9004916 2.2355625e-18)
(10.577119 1.9057356 2.2847829e-18)
(10.720922 1.9235691 1.1655118e-18)
(10.863712 1.9057851 -1.1847001e-18)
(10.993895 1.8977191 2.4617843e-18)
(11.126499 1.8870294 1.2419563e-18)
(11.26825 1.8405318 2.5335205e-18)
(11.412034 1.7954399 -2.5980997e-18)
(11.547559 1.7380757 1.4955348e-20)
(11.672299 1.6560965 2.6853186e-18)
(11.794402 1.5924263 0)
(11.902532 1.4905191 -6.9133687e-19)
(12.010456 1.3976406 6.9246608e-19)
(12.106427 1.2890349 -1.7489266e-18)
(12.200537 1.1766731 7.0328452e-19)
(12.270662 1.0645317 -1.7601444e-19)
(12.348789 0.94782134 3.9781245e-22)
(10.168649 1.6757773 3.8216432e-18)
(10.283758 1.7239082 3.9004532e-18)
(10.405282 1.7350211 0)
(10.527328 1.7712525 -6.7759235e-21)
(10.629391 1.779407 -4.2054331e-18)
(10.744481 1.799643 4.3174243e-18)
(10.880893 1.7901823 0)
(11.021164 1.7658501 -1.1262404e-18)
(11.168403 1.7444081 -4.5647688e-18)
(11.291269 1.7015662 2.3440735e-18)
(11.421518 1.6644772 1.1779512e-18)
(11.539809 1.592928 -1.2083337e-18)
(11.667973 1.5345037 0)
(11.777714 1.4234966 6.125164e-19)
(11.894952 1.3576391 0)
(11.984305 1.2336358 -6.2274759e-19)
(12.082932 1.1497837 9.4238552e-19)
(12.15017 1.0238037 3.3655621e-22)
(12.234671 0.92611613 -6.0505099e-22)
(10.222295 1.5535281 1.7094977e-18)
(10.325859 1.564775 -3.5050028e-18)
(10.408796 1.6253186 -3.5812185e-18)
(10.522958 1.6513149 3.6921312e-18)
(10.618306 1.6589882 -1.8966314e-18)
(10.767753 1.6632175 -1.9270835e-18)
(10.879384 1.6551168 0)
(11.004196 1.6607748 3.0053145e-18)
(11.131691 1.6374086 -1.1993765e-20)
(11.244024 1.6181481 -3.1213089e-18)
(11.388691 1.5653792 3.1937355e-18)
(11.494953 1.5110154 0)
(11.634604 1.4491669 0)
(11.729046 1.3661862 1.0930536e-18)
(11.852569 1.2956516 -5.6029421e-19)
(11.933544 1.1815509 -1.1133055e-18)
(12.039766 1.1017588 2.8192609e-19)
(12.102613 0.97470242 2.8252385e-19)
(12.192109 0.88908562 6.9332365e-20)
(10.179862 1.4052189 -1.5341327e-18)
(10.268073 1.4683563 4.7048771e-18)
(10.357468 1.4818 -4.8496776e-18)
(10.470526 1.5093273 3.3039842e-18)
(10.552829 1.524516 0)
(10.67354 1.5452136 1.7216687e-18)
(10.758345 1.5573925 -1.7746599e-18)
(10.904063 1.5508163 0)
(11.008196 1.5330887 9.1005688e-19)
(11.14915 1.5109782 -1.8795581e-18)
(11.266363 1.4737992 -9.4228071e-19)
(11.386543 1.43449 -7.8995226e-21)
(11.514453 1.3660465 -2.9098247e-18)
(11.614637 1.3026245 4.9927618e-19)
(11.741402 1.217734 -4.8590398e-19)
(11.822558 1.1329666 9.9335976e-19)
(11.931366 1.0388529 -4.9470541e-19)
(11.99421 0.9338985 2.5214046e-19)
(12.086207 0.83885966 2.4770583e-19)
(10.210022 1.2926074 -2.7557941e-18)
(10.305234 1.3076364 0)
(10.373703 1.3734297 1.4422372e-18)
(10.466625 1.382764 -4.4218069e-18)
(10.545499 1.413079 1.5222841e-18)
(10.663193 1.4229054 -1.5480804e-18)
(10.756225 1.4342153 1.5703189e-18)
(10.899259 1.4477265 -1.6153509e-18)
(10.979852 1.4331468 0)
(11.130362 1.4258642 8.2819616e-19)
(11.214819 1.3890477 0)
(11.361109 1.3527871 8.4974284e-19)
(11.452134 1.2967449 7.2829911e-22)
(11.580261 1.2380025 -4.3159437e-19)
(11.673028 1.1569508 4.354835e-19)
(11.780597 1.0845442 4.375227e-19)
(11.860457 0.98243272 -2.8711064e-21)
(11.949943 0.89813921 -6.6068006e-19)
(12.012137 0.78839201 0)
(10.188447 1.1506453 0)
(10.271928 1.2145406 1.2580442e-18)
(10.334893 1.2526677 0)
(10.430035 1.2721832 1.3102656e-18)
(10.498356 1.3025306 -4.0498672e-18)
(10.61024 1.3100123 4.1446631e-18)
(10.688476 1.3411508 -1.3920269e-18)
(10.813073 1.3283511 4.3117101e-18)
(10.89988 1.3407356 0)
(11.04269 1.322483 7.4087815e-19)
(11.121077 1.3004604 0)
(11.273265 1.2657718 -1.5081878e-18)
(11.348043 1.2194074 3.0598046e-18)
(11.489485 1.1625208 -7.3378204e-21)
(11.561598 1.0951431 -3.8871563e-19)
(11.687406 1.0210644 0)
(11.751054 0.93247673 0)
(11.860704 0.84594921 0)
(11.910431 0.74430845 -4.8567398e-20)
(10.203919 1.0427117 4.3654242e-18)
(10.275549 1.0765462 -5.6244219e-18)
(10.338567 1.1300481 2.2923975e-18)
(10.41113 1.1572971 -6.594562e-21)
(10.480681 1.1940255 0)
(10.577046 1.2069753 -2.445414e-18)
(10.661014 1.2286367 1.262414e-18)
(10.776947 1.2337603 -1.2708998e-18)
(10.861949 1.2430639 0)
(10.989972 1.2254511 -6.5461246e-19)
(11.076054 1.2205604 1.3231496e-18)
(11.213047 1.1781421 -1.2134787e-20)
(11.293677 1.150897 -1.3615187e-18)
(11.432873 1.0880881 -2.7235793e-18)
(11.501591 1.0348858 2.4021895e-18)
(11.630287 0.95641419 -1.3760875e-18)
(11.681119 0.87833819 8.6387175e-19)
(11.792708 0.78533656 1.7256992e-19)
(11.828959 0.69623852 4.2626788e-20)
(10.190862 0.92621595 -6.8398293e-18)
(10.254437 0.97110248 4.0081548e-18)
(10.313737 1.0190531 0)
(10.383152 1.0397689 -5.2189283e-18)
(10.454375 1.0806237 4.2862441e-18)
(10.538892 1.096023 1.0910139e-18)
(10.620533 1.1273884 3.3247718e-18)
(10.713594 1.1297839 -2.2677827e-18)
(10.803535 1.1468518 -2.8596804e-18)
(10.913333 1.1349219 1.7532332e-18)
(11.004402 1.1297016 2.3440199e-18)
(11.126299 1.0936526 -3.5721474e-18)
(11.21204 1.0746467 2.3975952e-18)
(11.338134 1.0145472 -6.1011578e-19)
(11.418018 0.97769565 2.9978748e-19)
(11.540936 0.89839565 -4.4347927e-21)
(11.603837 0.83705976 -7.6139086e-19)
(11.715066 0.74098846 -1.5130226e-19)
(11.760609 0.66629935 -3.7811924e-20)
(10.185558 0.82381619 2.6128627e-18)
(10.243094 0.8678541 3.5493556e-18)
(10.302288 0.90537444 -3.6437951e-18)
(10.360186 0.94012567 9.2907894e-19)
(10.423475 0.98010255 -2.8341626e-18)
(10.498456 1.0005526 2.9120384e-18)
(10.578826 1.0307528 9.7853564e-19)
(10.672036 1.0349367 -5.0028232e-18)
(10.758757 1.0508651 3.5511033e-18)
(10.859331 1.0418606 -1.552021e-18)
(10.954821 1.0419416 0)
(11.057193 1.0137456 -5.2619017e-19)
(11.152112 0.99062114 -1.5841419e-18)
(11.256102 0.93705717 5.4199988e-19)
(11.34355 0.89655196 1.6065637e-18)
(11.443282 0.82250501 5.334026e-19)
(11.515962 0.7671706 -1.0710442e-18)
(11.607856 0.67322616 2.6979298e-19)
(11.66196 0.60638922 2.9950422e-19)
(10.194036 0.7247317 -3.8538272e-18)
(10.247527 0.77498725 3.162973e-18)
(10.294624 0.79941659 0)
(10.345352 0.83927683 -8.2354887e-19)
(10.412376 0.87287575 3.3522956e-18)
(10.471386 0.90904764 -6.8457889e-18)
(10.556166 0.93383653 8.9200844e-19)
(10.628929 0.94766444 3.5545777e-18)
(10.721856 0.96272674 2.6958672e-18)
(10.812984 0.95769265 -4.5475819e-19)
(10.911797 0.9621391 0)
(11.010412 0.94119861 2.306914e-18)
(11.106535 0.92756743 -9.4019993e-19)
(11.203855 0.88440573 9.3583946e-19)
(11.295225 0.84676927 -1.4142029e-18)
(11.385732 0.77983503 -2.3602842e-19)
(11.465907 0.72184199 0)
(11.549001 0.63572819 0)
(11.61335 0.56798935 -2.9256623e-20)
(10.160071 0.63777397 6.6776573e-19)
(10.202207 0.6830134 -6.307152e-18)
(10.247628 0.70090884 2.8532595e-18)
(10.300691 0.73894064 -3.6501852e-18)
(10.359039 0.76791964 -7.4281914e-19)
(10.421082 0.80477327 0)
(10.492852 0.83204561 -3.8351212e-18)
(10.563456 0.85424636 2.3512358e-18)
(10.654302 0.8600551 -7.9193583e-19)
(10.729733 0.8651294 -1.1000671e-21)
(10.832078 0.8613875 0)
(10.916398 0.85457377 0)
(11.01912 0.83322072 -4.0936242e-19)
(11.109612 0.80735161 -4.1114622e-19)
(11.207112 0.76313353 2.06143e-19)
(11.290222 0.71372905 1.2384437e-18)
(11.380153 0.65057538 -8.3004397e-19)
(11.452232 0.58149895 1.0339851e-19)
(11.531288 0.51006465 2.5559844e-20)
(10.170472 0.55126113 4.234468e-18)
(10.218854 0.59262138 -4.3436587e-18)
(10.259437 0.62355384 0)
(10.309176 0.65608358 6.4433315e-19)
(10.36599 0.6815828 0)
(10.421276 0.72021089 6.6752529e-19)
(10.489963 0.74858034 6.7820723e-19)
(10.563037 0.77266493 0)
(10.639349 0.7837791 3.4735538e-18)
(10.718643 0.79022976 -2.4746224e-18)
(10.805676 0.78859099 1.7731356e-18)
(10.88645 0.78258028 -1.4380714e-18)
(10.983124 0.767607 1.4359648e-18)
(11.063542 0.74429015 -1.0609799e-20)
(11.158757 0.70171879 -1.4559888e-18)
(11.232745 0.65722949 -1.8106849e-19)
(11.324354 0.59089159 -1.8169407e-19)
(11.387712 0.53030551 -9.0242918e-20)
(11.469219 0.44881689 0)
(10.131926 0.45727739 4.8320402e-18)
(10.165923 0.49660324 0)
(10.202934 0.53237737 0)
(10.253339 0.56324679 5.6864404e-19)
(10.301617 0.59157263 0)
(10.357168 0.62046984 -5.8779647e-19)
(10.422566 0.6481184 -5.9650261e-19)
(10.488939 0.6758341 -2.4134512e-18)
(10.566637 0.69101372 2.4558328e-18)
(10.646187 0.7030838 0)
(10.73095 0.70256931 -2.8006707e-18)
(10.819634 0.70353301 2.2085483e-18)
(10.90652 0.69235995 1.2596512e-18)
(10.996032 0.67467577 -2.5374397e-18)
(11.081988 0.64041262 2.5425919e-18)
(11.165786 0.59838877 -1.9099579e-18)
(11.24869 0.54044691 6.3669201e-19)
(11.319576 0.48335259 0)
(11.390786 0.41069893 0)
(10.154573 0.38293571 7.5774376e-18)
(10.179567 0.41747438 -3.872753e-18)
(10.218831 0.45626077 3.9350726e-18)
(10.252893 0.48978367 -4.5158941e-18)
(10.300621 0.52265449 -4.068832e-18)
(10.348844 0.54974818 4.1463567e-18)
(10.404442 0.57789389 2.0942241e-18)
(10.464564 0.59520664 -9.9634741e-21)
(10.533092 0.61223828 -2.1556847e-18)
(10.606043 0.6185122 0)
(10.685406 0.62223473 0)
(10.767002 0.6217166 2.7506473e-19)
(10.849778 0.61271129 0)
(10.93431 0.59808754 1.1067588e-18)
(11.015359 0.56660614 -1.1161443e-18)
(11.09903 0.52751019 -5.5436859e-19)
(11.173159 0.47376157 6.9583337e-19)
(11.247828 0.41913948 -3.4544462e-19)
(11.308046 0.34915909 2.7584029e-19)
(10.101426 0.30626703 0)
(10.12525 0.33787798 0)
(10.169595 0.36371462 3.4674358e-18)
(10.212164 0.39532524 -3.5336091e-18)
(10.263531 0.42340179 4.0267332e-18)
(10.315329 0.45574695 -4.0973799e-18)
(10.37472 0.48752234 0)
(10.433496 0.5120555 4.6649235e-19)
(10.500126 0.53378493 1.880368e-18)
(10.56916 0.54399736 -1.9073752e-18)
(10.645447 0.55278581 1.9112207e-18)
(10.724314 0.55375584 -1.201641e-20)
(10.806991 0.54987995 -3.8728843e-18)
(10.890907 0.53808829 1.9481462e-18)
(10.970642 0.51360041 0)
(11.051381 0.47854092 -9.6857666e-19)
(11.123588 0.43136682 1.5174802e-18)
(11.193058 0.37979422 -6.6580929e-19)
(11.24968 0.31541851 2.4083119e-19)
(10.117411 0.23416467 1.1430787e-17)
(10.126907 0.27944608 -6.0153129e-18)
(10.161002 0.30065495 0)
(10.18352 0.33576538 -3.8794792e-19)
(10.225824 0.35842232 -3.935453e-19)
(10.267758 0.38682367 3.9886461e-19)
(10.327196 0.40942344 0)
(10.376957 0.43098601 -4.0832099e-19)
(10.44745 0.44997571 3.2930445e-18)
(10.509777 0.45915206 -3.3371229e-18)
(10.587642 0.46655747 0)
(10.658036 0.46843302 0)
(10.737267 0.46502806 2.1165956e-19)
(10.819463 0.45936623 1.0607504e-19)
(10.898251 0.43906746 -1.0616336e-19)
(10.982812 0.41020043 0)
(11.055578 0.37031824 -4.7454862e-19)
(11.127113 0.32656501 4.2300999e-19)
(11.188715 0.27066151 0)
(10.07104 0.16336023 -1.0396411e-17)
(10.092447 0.19973707 1.0906294e-17)
(10.135557 0.22059863 -1.0090408e-20)
(10.162807 0.25517308 -5.1150317e-18)
(10.216273 0.27950907 0)
(10.251935 0.31107061 2.793815e-18)
(10.308901 0.33753338 -5.8387887e-18)
(10.357292 0.3606817 2.8662235e-18)
(10.426561 0.37943459 0)
(10.486849 0.39498425 -2.9021859e-18)
(10.560556 0.4031315 2.9353804e-18)
(10.629239 0.40640617 1.4665063e-18)
(10.705521 0.39999919 -1.4796075e-18)
(10.778743 0.3920614 1.288831e-18)
(10.8528 0.37258985 -1.3912628e-18)
(10.928397 0.34525396 0)
(10.997106 0.30836797 -4.6115951e-20)
(11.060273 0.26363423 -1.3710847e-19)
(11.115968 0.21438909 1.9429539e-19)
(10.063435 0.11622401 2.8572496e-19)
(10.070971 0.14316346 -5.8092509e-19)
(10.098149 0.15998083 4.7113741e-18)
(10.119566 0.18843416 2.8880169e-19)
(10.166908 0.20893874 -3.1493764e-19)
(10.196396 0.2371778 -4.9078242e-18)
(10.260281 0.25560298 1.5475405e-19)
(10.297376 0.27984862 2.6530819e-18)
(10.368178 0.29413044 -2.5277033e-18)
(10.423113 0.31410094 -1.5889676e-19)
(10.501268 0.32391364 0)
(10.571655 0.33226072 2.7193294e-18)
(10.650553 0.33572361 -2.7412557e-18)
(10.725854 0.33686674 -1.203754e-18)
(10.799416 0.32369069 8.8751484e-20)
(10.878618 0.304013 1.9315193e-18)
(10.950709 0.27627875 -6.0348007e-19)
(11.01629 0.23867777 -5.9875523e-20)
(11.069437 0.20001156 -9.9029526e-21)
(10.041794 0.072317024 0)
(10.054728 0.095445809 2.5492159e-19)
(10.088661 0.10594909 4.1322917e-18)
(10.107473 0.12965779 -4.5862824e-18)
(10.153526 0.14699555 4.3679802e-18)
(10.18014 0.17366849 -4.2935974e-18)
(10.240601 0.19341936 1.3545521e-19)
(10.279498 0.21418529 -1.3647217e-19)
(10.348114 0.22439075 2.0590691e-18)
(10.401038 0.23666747 -2.0819227e-18)
(10.477966 0.23934871 2.0811093e-18)
(10.543485 0.24874937 -2.3097291e-18)
(10.619791 0.24023749 0)
(10.690713 0.24312192 1.1169083e-18)
(10.765576 0.22583065 -1.2633352e-18)
(10.841948 0.20563003 5.5712506e-19)
(10.909193 0.18268399 -5.2420119e-19)
(10.962361 0.15536204 -2.4204695e-19)
(11.012035 0.12111875 2.8078508e-19)
(10.022366 0.038677645 -6.15655e-21)
(10.034401 0.052682446 -7.1570228e-18)
(10.050054 0.066481537 1.1327285e-19)
(10.070918 0.080905771 -9.0701246e-23)
(10.10196 0.092300303 1.1587915e-19)
(10.135011 0.10827687 0)
(10.180061 0.12578829 3.7786299e-18)
(10.223549 0.14899513 -3.9408297e-18)
(10.283266 0.16415863 1.1994968e-19)
(10.341371 0.18083812 -1.8681175e-18)
(10.40979 0.18932254 3.9429965e-18)
(10.482072 0.20302299 -3.894034e-18)
(10.555952 0.20803448 1.955805e-18)
(10.635829 0.21456428 0)
(10.716725 0.20545009 -9.4046563e-19)
(10.791998 0.19654495 9.749161e-19)
(10.860168 0.18515579 -1.5087772e-20)
(10.920484 0.16307852 2.2006137e-23)
(10.977385 0.13728748 -3.7356249e-21)
(10.017494 0.014686407 6.2137851e-18)
(10.025342 0.022646449 -6.2624608e-18)
(10.040869 0.029111024 6.2470182e-18)
(10.062526 0.03982992 1.0020303e-19)
(10.085788 0.045392716 0)
(10.120716 0.054047955 0)
(10.158975 0.058509028 -5.144529e-20)
(10.207882 0.066300818 -3.2669616e-18)
(10.267029 0.069262701 3.4037896e-18)
(10.326112 0.076347776 3.3280383e-18)
(10.397185 0.075566399 -1.6200822e-18)
(10.46382 0.079077406 -1.7748076e-18)
(10.543815 0.073584237 0)
(10.620475 0.076139777 2.6489662e-20)
(10.696177 0.06767805 2.6389667e-20)
(10.770369 0.066043836 8.2652685e-19)
(10.832135 0.054700094 -8.5526587e-19)
(10.892035 0.041375222 1.8867209e-19)
(10.946219 0.026640593 -2.0806011e-19)
(10.004513 0.0053429815 -4.2025703e-20)
(10.010048 0.0076792898 5.4197356e-18)
(10.02044 0.011629069 -3.8604063e-21)
(10.03645 0.017086372 -5.8259071e-21)
(10.058681 0.023877706 -5.6062712e-18)
(10.087789 0.03108256 0)
(10.124426 0.03837394 2.8021739e-18)
(10.169058 0.045238264 -2.8293457e-18)
(10.221558 0.051466741 -4.5007982e-20)
(10.281649 0.056748489 -2.2601709e-20)
(10.349493 0.061516804 -2.267036e-20)
(10.418488 0.066307152 2.2734724e-20)
(10.490569 0.071786465 0)
(10.565666 0.078630281 1.4376475e-18)
(10.641778 0.081996212 -1.4710844e-18)
(10.722459 0.084840994 -7.1737138e-19)
(10.79679 0.087050932 7.3086403e-19)
(10.86866 0.072565933 3.666913e-19)
(10.923377 0.072657063 -3.6069722e-19)
(12.774663 0.9845334 -1.4944453e-19)
(12.81305 0.86292798 -5.9668572e-19)
(12.848514 0.75499517 5.8436161e-19)
(12.866638 0.63916114 0)
(12.902051 0.55553803 -1.0921919e-18)
(12.913712 0.46918224 -2.0964343e-18)
(12.934146 0.3882549 0)
(12.941315 0.31220373 -8.5753953e-21)
(12.969092 0.23846185 3.5389537e-18)
(12.983036 0.17530518 1.6670532e-18)
(13.006353 0.10586715 -1.5576059e-18)
(13.054545 0.071010518 2.9051248e-18)
(13.100224 0.0089308062 -2.7461862e-18)
(13.161086 -0.018388583 0)
(13.236732 -0.072817653 1.1952385e-18)
(13.338761 -0.1036634 -1.1209049e-18)
(13.4277 -0.14311482 -2.0729255e-18)
(13.605524 -0.18877903 1.9451886e-18)
(13.728221 -0.20209451 -9.0693393e-19)
(12.686327 0.94124266 -1.2869368e-19)
(12.736978 0.80393431 7.6775518e-19)
(12.771672 0.68684239 -5.0245445e-19)
(12.794703 0.56506775 0)
(12.832073 0.4703971 -9.4759786e-19)
(12.842664 0.37034233 2.7194466e-18)
(12.875228 0.29769505 0)
(12.891529 0.21774654 0)
(12.926316 0.16045123 0)
(12.964989 0.10353079 0)
(12.990848 0.039866638 2.7518064e-18)
(13.040834 -0.0024577423 -3.8690234e-18)
(13.084619 -0.072027144 -3.6388224e-18)
(13.154573 -0.12345041 2.271823e-18)
(13.24381 -0.18513112 -2.1215654e-18)
(13.315022 -0.26551202 1.9752117e-18)
(13.453198 -0.33851317 -3.6859427e-21)
(13.573298 -0.43135337 -1.7275517e-18)
(13.709352 -0.55460872 1.5906256e-18)
(12.602848 0.94944275 0)
(12.667404 0.81118334 -4.4342127e-19)
(12.684338 0.69357 -8.6924212e-19)
(12.723066 0.57289873 -2.0415976e-21)
(12.737464 0.46112544 -3.7120892e-21)
(12.756613 0.36054565 1.5875994e-18)
(12.787791 0.27070153 -3.0255259e-18)
(12.785543 0.17796267 1.4377122e-18)
(12.831151 0.10693301 4.7109018e-21)
(12.857551 0.019348688 0)
(12.917169 -0.029269406 3.6556978e-18)
(12.957081 -0.12180888 -2.7896746e-22)
(13.025245 -0.1738281 2.1510712e-18)
(13.100799 -0.26270833 2.0137867e-18)
(13.176928 -0.34601418 2.8221914e-18)
(13.289491 -0.43446318 -3.5319515e-18)
(13.384739 -0.57316792 2.1719902e-20)
(13.508398 -0.68062462 3.0799523e-18)
(13.65286 -0.8768418 1.3926067e-18)
(12.55718 0.89108828 3.839398e-19)
(12.603756 0.74300374 -7.6396135e-19)
(12.644805 0.63872935 1.1255528e-18)
(12.677255 0.4998941 0)
(12.698826 0.40819099 2.1336186e-18)
(12.723649 0.29184073 -3.4310318e-18)
(12.745736 0.21560301 2.6372948e-18)
(12.740989 0.10076716 -1.2033062e-21)
(12.797358 0.039410846 4.5243504e-21)
(12.799182 -0.061454363 -1.1382118e-18)
(12.876985 -0.12433356 0)
(12.889379 -0.22926129 -1.0117971e-18)
(12.977819 -0.31374097 9.515183e-19)
(13.029654 -0.40960008 -1.7872301e-18)
(13.092079 -0.55053226 0)
(13.211683 -0.63794908 0)
(13.240172 -0.83797684 -1.4670251e-18)
(13.386112 -0.96538326 0)
(13.421062 -1.229434 1.2528587e-18)
(12.453501 0.8813418 3.3084861e-19)
(12.501922 0.7287997 -3.2880342e-19)
(12.558607 0.62206397 2.1798928e-21)
(12.581792 0.47684997 -6.3278508e-19)
(12.614242 0.38595784 6.1322269e-19)
(12.633577 0.2539922 -1.343554e-21)
(12.650436 0.17564615 -1.1466376e-18)
(12.66567 0.05459809 0)
(12.69945 -0.013364306 -2.0984042e-18)
(12.713101 -0.12325361 9.9602878e-19)
(12.76834 -0.2064393 0)
(12.802419 -0.30783296 0)
(12.855951 -0.43866734 -1.6817122e-18)
(12.935158 -0.53305184 -1.5825408e-18)
(12.959826 -0.71568519 1.4870237e-18)
(13.069003 -0.83153402 2.7768146e-18)
(13.057128 -1.0537667 1.2877495e-18)
(13.175794 -1.2248431 -1.2315098e-18)
(13.097173 -1.5226679 -1.2004638e-20)
(12.398167 0.82696113 0)
(12.468798 0.68808049 2.8418209e-19)
(12.503287 0.56026556 -1.3956401e-18)
(12.552123 0.43282453 5.4849832e-19)
(12.564919 0.3178125 1.6000904e-18)
(12.600713 0.20797664 -1.0390004e-18)
(12.608876 0.10214948 -1.9986333e-18)
(12.632462 0.0042332294 1.916596e-18)
(12.64497 -0.10418112 -9.1841239e-19)
(12.676498 -0.19321312 1.747693e-18)
(12.692399 -0.32018207 0)
(12.733883 -0.41859034 0)
(12.73651 -0.58039404 -1.4862868e-18)
(12.808233 -0.6874583 4.1938355e-18)
(12.783473 -0.88119995 -5.2767652e-18)
(12.857939 -1.0229671 2.495383e-18)
(12.796062 -1.2544794 -4.6871529e-18)
(12.831822 -1.4204499 1.1165952e-18)
(12.706654 -1.7264563 2.0913263e-18)
(12.280962 0.78590312 6.1707645e-20)
(12.371394 0.65972984 2.4492276e-19)
(12.388619 0.51543939 -4.8198134e-19)
(12.462605 0.40238442 0)
(12.45425 0.26740158 -9.2562971e-19)
(12.514158 0.16674394 2.6903762e-18)
(12.503818 0.044623981 -1.7339063e-18)
(12.555074 -0.044678855 8.3645851e-19)
(12.543909 -0.17968624 -1.6006087e-18)
(12.593412 -0.26000216 4.5857655e-18)
(12.592483 -0.41840938 -2.9148643e-18)
(12.63381 -0.51748754 0)
(12.612535 -0.69955532 1.3096159e-18)
(12.653411 -0.81851513 2.477487e-18)
(12.598402 -1.0214479 -3.5266612e-18)
(12.614779 -1.1656111 3.340577e-18)
(12.507784 -1.3888498 -3.1721357e-18)
(12.478074 -1.5392237 -2.0006764e-18)
(12.305634 -1.7921376 -9.4423538e-19)
(12.238763 0.74165523 1.589005e-19)
(12.336554 0.63181115 2.0989382e-19)
(12.349381 0.46236985 -4.1581987e-19)
(12.425323 0.36041042 0)
(12.417227 0.21094025 1.5967161e-18)
(12.471498 0.11449407 -7.7878872e-19)
(12.451263 -0.020510628 0)
(12.501837 -0.12312186 -1.4530623e-18)
(12.46554 -0.25684432 6.9943196e-19)
(12.52042 -0.36873903 0)
(12.469494 -0.52151926 -1.2794446e-18)
(12.514617 -0.64093061 1.2192667e-18)
(12.443337 -0.81425121 1.1607621e-18)
(12.459409 -0.94664 -2.2002363e-18)
(12.355049 -1.1362472 2.0965539e-18)
(12.32745 -1.2726215 -9.9160616e-19)
(12.170035 -1.4708321 -9.5677388e-19)
(12.088629 -1.5856732 -9.1420424e-19)
(11.864758 -1.784435 -8.7551668e-19)
(12.134603 0.7066988 3.6481251e-19)
(12.233628 0.57681523 -1.8145702e-19)
(12.247444 0.42817132 0)
(12.3314 0.3098939 0)
(12.312232 0.16583737 -1.3800428e-18)
(12.387527 0.064496132 1.3455258e-18)
(12.360616 -0.078887919 0)
(12.417246 -0.17761771 6.3058958e-19)
(12.377252 -0.33009075 -6.076769e-19)
(12.420585 -0.44667502 0)
(12.365196 -0.59356369 1.1179959e-18)
(12.372022 -0.74022319 5.0349525e-21)
(12.286328 -0.88828743 6.1292829e-21)
(12.260514 -1.0373104 0)
(12.113086 -1.1934236 -3.7385126e-18)
(12.058028 -1.3247253 3.5699248e-18)
(11.859699 -1.462257 4.2789434e-18)
(11.752419 -1.5513129 -5.7548535e-18)
(11.508063 -1.682053 3.9274713e-18)
(12.095961 0.67533952 0)
(12.14977 0.52361455 9.3297698e-22)
(12.210343 0.38727496 0)
(12.234564 0.24256591 0)
(12.261046 0.12111445 5.9474532e-19)
(12.2788 -0.016423755 2.4561029e-21)
(12.279713 -0.13251618 -5.6743658e-19)
(12.278665 -0.27202924 -1.6452809e-18)
(12.258226 -0.40144459 2.121967e-18)
(12.26307 -0.53296884 0)
(12.191534 -0.67721635 -9.8420934e-19)
(12.177236 -0.81787659 -5.6546188e-18)
(12.066835 -0.94913135 2.7152389e-18)
(11.989315 -1.1004832 0)
(11.833565 -1.2025253 -3.3345126e-18)
(11.731427 -1.3241693 3.9965434e-18)
(11.506867 -1.3895354 -3.0828849e-18)
(11.391766 -1.4722945 3.6947995e-18)
(11.139895 -1.4952316 0)
(12.02263 0.63510145 -2.70727e-19)
(12.061211 0.47816709 1.3570982e-19)
(12.155291 0.35579779 0)
(12.15984 0.20349211 -1.0485906e-18)
(12.219606 0.085150011 1.5455083e-18)
(12.196499 -0.065356275 -5.0252097e-19)
(12.230435 -0.1780465 -1.4730831e-18)
(12.186252 -0.33667663 3.3382094e-18)
(12.190043 -0.44747973 -1.8474436e-18)
(12.12449 -0.61152789 0)
(12.083126 -0.71502825 8.5817647e-19)
(11.995104 -0.88153016 4.9759077e-18)
(11.888432 -0.96402987 -3.1912063e-18)
(11.774618 -1.1113758 0)
(11.604156 -1.1583588 0)
(11.472678 -1.2638362 -1.4266851e-18)
(11.258117 -1.2625981 6.9113888e-19)
(11.125197 -1.3230921 -1.9920318e-18)
(10.896943 -1.2720754 0)
(11.942245 0.57454541 -2.3313656e-19)
(11.965937 0.43390216 6.9603978e-19)
(12.059792 0.29453598 -6.8938347e-19)
(12.047404 0.14730242 0)
(12.107771 0.024074855 1.3337128e-18)
(12.068107 -0.12943496 -1.7419825e-18)
(12.102474 -0.2359097 0)
(12.039278 -0.39184063 8.2935255e-19)
(12.035943 -0.50242741 8.0540398e-19)
(11.933578 -0.65604874 0)
(11.891641 -0.75633756 0)
(11.749343 -0.89904143 -7.2618729e-19)
(11.66008 -0.95446072 -2.113962e-18)
(11.484707 -1.0807433 -9.4758681e-21)
(11.35299 -1.0713908 1.9649153e-18)
(11.171731 -1.1580995 1.2697381e-18)
(10.994895 -1.0984332 -6.1088738e-19)
(10.841833 -1.1359075 1.1798671e-18)
(10.676681 -1.0107414 0)
(11.879588 0.53547962 0)
(11.915298 0.40743583 -7.9792353e-19)
(12.011904 0.25000405 1.5803194e-18)
(12.000588 0.11747081 -1.1710846e-18)
(12.054474 -0.031643253 0)
(12.003316 -0.16264662 0)
(12.024732 -0.29406393 0)
(11.943297 -0.44106691 -7.1673663e-19)
(11.924915 -0.54750412 -6.9751143e-19)
(11.804093 -0.68850766 0)
(11.738976 -0.76827064 -6.612936e-19)
(11.574836 -0.87997786 -6.4154322e-19)
(11.478626 -0.91751366 -6.1767535e-19)
(11.281224 -0.99370713 2.4077938e-18)
(11.16853 -0.96321711 -2.3276494e-18)
(10.967768 -1.0089726 -5.614024e-19)
(10.828849 -0.91269944 3.2759759e-18)
(10.668285 -0.91894617 -5.263627e-18)
(10.530703 -0.75533632 3.0562204e-18)
(11.761561 0.47161552 -4.34221e-20)
(11.809722 0.3609439 8.6200287e-20)
(11.893406 0.19272243 8.4964763e-19)
(11.886772 0.079639784 -2.0169663e-18)
(11.932988 -0.07662125 9.9297829e-19)
(11.882954 -0.19068708 0)
(11.888348 -0.34280353 0)
(11.793707 -0.4525925 6.2408836e-19)
(11.761096 -0.57772371 -2.4331306e-18)
(11.619537 -0.67893184 -5.9732964e-19)
(11.545931 -0.75337421 5.6976221e-19)
(11.363135 -0.83227077 2.7992534e-18)
(11.260578 -0.8472354 5.4663137e-19)
(11.061167 -0.8851496 0)
(10.957296 -0.83437945 1.5423623e-18)
(10.769033 -0.82920847 0)
(10.666099 -0.71291537 -2.9030617e-18)
(10.530859 -0.68139122 8.4002485e-18)
(10.435726 -0.49845098 -7.2226443e-18)
(11.699073 0.4348296 7.4561072e-20)
(11.758964 0.31738747 -7.3852718e-20)
(11.811181 0.14246293 0)
(11.82696 0.034099483 -8.6782325e-19)
(11.84325 -0.13323336 2.8620856e-19)
(11.794442 -0.23170579 1.1231466e-18)
(11.775773 -0.38575668 0)
(11.683005 -0.46966606 -2.6994759e-18)
(11.623551 -0.59511246 1.5826196e-18)
(11.480462 -0.64940267 -2.4103299e-21)
(11.390527 -0.73013394 0)
(11.212647 -0.74785258 0)
(11.106523 -0.7666633 -4.7696996e-19)
(10.911673 -0.74425166 0)
(10.825411 -0.68640327 3.5558785e-21)
(10.646655 -0.6318649 8.7976229e-19)
(10.586069 -0.51707741 -2.558209e-18)
(10.453897 -0.45230189 6.5998461e-18)
(10.424438 -0.26145506 -3.1946002e-18)
(11.602109 0.39784137 2.239128e-19)
(11.678872 0.27461848 -1.9180205e-19)
(11.711378 0.1179112 0)
(11.731335 0.008030306 0)
(11.720499 -0.1508979 0)
(11.690472 -0.25368626 0)
(11.634688 -0.40504679 -1.906109e-18)
(11.545742 -0.47102608 1.8704162e-18)
(11.448187 -0.58369148 2.2934678e-18)
(11.310355 -0.61212523 -8.9653868e-19)
(11.201564 -0.67926898 0)
(11.041162 -0.65407918 3.4379638e-18)
(10.927009 -0.6621645 -6.2808986e-18)
(10.770939 -0.5837408 3.2612274e-18)
(10.698722 -0.53533963 -3.9752301e-18)
(10.564702 -0.43039534 2.3164516e-18)
(10.545315 -0.33191206 -7.4977781e-19)
(10.445181 -0.22834458 -7.2780533e-19)
(10.489449 -0.062546683 7.0496942e-19)
(11.531288 0.35544914 2.2014814e-19)
(11.613311 0.20826825 -7.1208229e-19)
(11.631898 0.07947055 4.3509342e-19)
(11.65944 -0.047340547 -8.5761694e-19)
(11.62546 -0.18403545 8.4866055e-19)
(11.596111 -0.27791554 0)
(11.518938 -0.39731601 -4.1234354e-19)
(11.439662 -0.4474443 1.6209751e-18)
(11.323165 -0.54251517 -1.5900654e-18)
(11.198904 -0.55222908 -3.8942789e-19)
(11.066352 -0.59651269 -3.0637916e-18)
(10.927798 -0.54260403 2.9910336e-18)
(10.811558 -0.53496728 -3.6529958e-19)
(10.689856 -0.43412575 2.1450178e-18)
(10.61462 -0.38418134 -2.0865502e-18)
(10.529839 -0.24388987 0)
(10.531412 -0.16682486 -5.2767661e-18)
(10.484973 -0.0300396 5.7646369e-18)
(10.58727 0.072885368 0)
(11.461478 0.32323612 -3.7867232e-19)
(11.53105 0.18397583 3.7838784e-19)
(11.553816 0.071046558 -7.4545841e-19)
(11.563576 -0.078635922 7.4007305e-19)
(11.523242 -0.18684472 1.6424332e-18)