/*--------------------------------*- C++ -*----------------------------------*\
  =========                 |
  \\      /  F ield         | OpenFOAM: The Open Source CFD Toolbox
   \\    /   O peration     | Website:  https://openfoam.org
    \\  /    A nd           | Version:  11
     \\/     M anipulation  |
\*---------------------------------------------------------------------------*/
FoamFile
{
    format      ascii;
    class       volScalarField;
    location    "0.35875";
    object      Ma;
}
// * * * * * * * * * * * * * * * * * * * * * * * * * * * * * * * * * * * * * //

dimensions      [0 0 0 0 0 0 0];

internalField   nonuniform List<scalar> 
880
(
1.118016635923818
1.11801663480877
1.117914021696672
1.101755089527276
1.118016635922822
1.118016632530133
1.117871435759829
1.096331988408372
1.118016635905757
1.118016621702732
1.117739092098964
1.089116632147316
1.118016635824737
1.118016567545145
1.11740289186983
1.069649142409145
1.118016636534317
1.118016634949917
1.118016603940616
1.11801614724044
1.118016285275575
1.118014703270727
1.118008409736764
1.11802182370412
1.116462895921709
1.115377180454789
1.113836447087258
1.113127503254045
1.031426581714632
0.9944605908167052
0.9724744969716661
0.9702100494841859
1.11801100771473
1.11799538394867
1.11796929492451
1.117860174445237
1.117903028638379
1.117470366010672
1.116776010315893
1.115517986168983
1.104462765442913
1.097477511907093
1.08833351259741
1.079979255771732
0.959196072198195
0.9592551352162958
0.9576261779002099
0.981140424952426
1.040121637813497
1.075660351961311
1.090002196570036
1.104410909140757
1.06571531858141
1.065295669162023
1.069417014865021
1.07777930273939
1.111172503662905
1.10559553525802
1.100487058485063
1.0977337558593
1.117320103178936
1.116408128551269
1.115090637402171
1.113459831380823
1.111917032102903
1.110769175674067
1.110022719211361
1.109877511307593
1.097125691133888
1.098778713435019
1.102582507375318
1.107865062064227
1.086193986903531
1.09622698108394
1.105691084592076
1.113571475803214
1.111639755354798
1.119240914658254
1.123416287968948
1.126417177432381
1.128842087516697
1.120942377213865
1.113491408152369
1.109983300884064
1.080136059584799
1.125856575904052
1.1202314021459
1.110340425064427
0.8062490465115933
1.115237495353007
1.125672048610305
1.111406873363781
0.5741525432052493
1.038473033014724
1.125620719273625
1.113063543312506
1.113306136807641
1.121464261886466
0.954819659944686
0.5181747651413395
1.108856554444719
1.108989806405167
0.8855837864257839
0.5552279586248722
1.106610419834758
1.080511522528176
0.8082899377359711
0.5748684604274975
1.101038524571169
1.03399861125034
0.7633293176536541
0.6141774006449933
0.6625123469610129
0.7511781778516023
0.9754945598459486
1.089703746347176
0.7143595837376563
0.7750300357100907
0.9225073206891199
1.069620418782375
0.767480103932337
0.8175896966693836
0.9056930317331885
1.038482417993897
0.81516098932536
0.8745043906399871
0.9234832635671963
1.006691166123906
0.9858973620624625
0.9757020756130467
0.9502254247808747
0.8753227537707868
1.010267115797511
1.039798902937324
1.036484371830666
0.957039008294173
1.038831298823204
1.101960681076005
1.127903367945164
1.064302916092639
1.064517545950491
1.149757427777332
1.215944491455522
1.192937126542961
1.084307917668723
1.190927145554103
1.305492533946421
1.394637206689763
1.109009361991421
1.221339429815828
1.365680815594968
1.585698215417052
1.124891696154599
1.226642857215577
1.410854191695225
1.77522161326975
1.134327770787523
1.212540686933975
1.385934470261687
1.941473085099618
1.716295526828571
1.321120472388297
1.200846474160074
1.140336488366051
1.179249177939709
1.274675037018869
1.188642144689206
1.140324655883887
1.026768791697602
1.252462198222383
1.17932574057935
1.136827014709168
0.8780244446008709
1.215432723170684
1.165220195082279
1.132792420948981
0.8048952037354965
1.161570739652903
1.142176123105803
1.125586453069707
0.7300893411297524
1.091933211692472
1.117034610580949
1.118932487329602
0.6972921296512385
1.04172866811149
1.105943886904582
1.117612739688342
0.6811214290344718
1.033263247587179
1.106975766530754
1.117615375835204
0.65067912715127
0.9394290227453393
1.069754551736198
1.113081795953338
0.6580702328809402
0.9376726090485508
1.069880428391109
1.112943913252615
0.6862928186957215
0.9366889042052059
1.070651056604791
1.112891570909969
0.709969915141909
0.9443628152186418
1.073996241826551
1.11316049822303
0.6811214290350139
1.033263247589208
1.106975766534354
1.117615375840435
0.6972921296523699
1.041728668115325
1.105943886906204
1.117612739691239
0.7300893411321607
1.091933211695873
1.117034610581894
1.118932487332906
0.8048952037363096
1.161570739656824
1.142176123106775
1.12558645307068
1.140336488365051
1.200846474160541
1.321120472387089
1.716295526829419
1.140324655883422
1.188642144689257
1.274675037018367
1.179249177943218
1.136827014707663
1.179325740579287
1.252462198227227
1.026768791696921
1.132792420947844
1.165220195079678
1.215432723174305
0.8780244446018255
1.94147308510586
1.385934470262719
1.212540686936256
1.1343277707871
1.775221613269391
1.410854191696506
1.226642857215813
1.124891696153411
1.585698215416539
1.36568081559448
1.221339429816667
1.10900936198704
1.394637206688569
1.30549253394715
1.190927145556158
1.084307917663814
0.9858973620600734
0.975702075610363
0.9502254247788573
0.8753227537704881
1.010267115797406
1.039798902937309
1.036484371829242
0.9570390082932216
1.038831298826352
1.101960681077351
1.127903367943925
1.064302916092053
1.064517545948773
1.149757427779764
1.215944491454723
1.192937126541704
0.8151609893256901
0.8745043906398278
0.9234832635652186
1.006691166116298
0.7674801039327538
0.8175896966693748
0.9056930317327632
1.038482417992621
0.7143595837380594
0.7750300357103721
0.9225073206892548
1.069620418780654
0.6625123469611747
0.7511781778513297
0.9754945598420038
1.089703746345615
1.113306136807713
1.121464261887742
0.9548196599465751
0.5181747651426506
1.108856554439052
1.108989806402494
0.8855837864266337
0.5552279586257755
1.106610419826586
1.080511522522104
0.8082899377352876
0.5748684604286523
1.101038524568256
1.033998611251903
0.763329317654579
0.614177400645228
1.113063543313008
1.111406873364186
1.110340425061604
1.109983300883564
1.125620719278978
1.12567204861215
1.120231402146593
1.113491408152747
1.038473033019773
1.115237495354627
1.125856575908013
1.120942377215749
0.5741525432070995
0.8062490465146328
1.080136059584909
1.128842087516416
1.10987751130554
1.107865062060945
1.113571475801042
1.126417177430746
1.110022719212661
1.102582507372702
1.105691084590758
1.123416287968944
1.110769175673986
1.098778713434258
1.096226981086494
1.119240914662128
1.111917032105842
1.097125691134482
1.086193986903196
1.111639755355753
1.117320103180008
1.11117250366823
1.065715318579475
1.040121637812101
1.116408128554654
1.105595535261373
1.065295669160678
1.0756603519608
1.115090637399532
1.100487058487136
1.069417014866643
1.090002196575295
1.113459831382908
1.097733755861444
1.077779302738968
1.104410909144759
0.9811404249530312
1.079979255772038
1.115517986172941
1.11786017444294
0.9576261779011865
1.088333512596429
1.116776010319892
1.11796929492569
0.9592551352156548
1.097477511908324
1.117470366018525
1.117995383951508
0.9591960721981548
1.104462765445681
1.117903028642496
1.118011007711563
0.9702100494834557
1.113127503253872
1.118021823704457
1.118016147238049
0.9724744969698238
1.113836447088412
1.118008409740114
1.11801660393906
0.9944605908119361
1.115377180456395
1.118014703273468
1.118016634951499
1.031426581705944
1.116462895923557
1.118016285278433
1.118016636531347
1.118016635923626
1.118016634808319
1.117914021696689
1.101755089526299
1.118016635921967
1.118016632532397
1.117871435760212
1.096331988397396
1.118016635905017
1.118016621705286
1.117739092099569
1.089116632131018
1.118016635822821
1.118016567548293
1.117402891871219
1.069649142397062
1.090109100884131
1.079916055253094
1.058373204456079
1.008625791622341
1.079916055262042
1.064282836738691
1.027958706997638
0.9531228522282442
1.058373204475703
1.027958707012309
0.9623913990975312
0.8592946104148845
1.008625791641192
0.9531228522499485
0.8592946104286764
0.7517049947366294
0.7260901669397484
0.7636205218199363
0.8355809585437004
0.9070767674089599
0.7810184835737081
0.7858534419651411
0.8158312839234613
0.861158191203855
0.7684859320905875
0.8087113177986641
0.8385702158537806
0.8599607594819348
0.8036572983043238
0.8476523477360038
0.8695946213950568
0.880907460029131
0.896774581227108
0.9096075803102808
0.9297060501564494
0.968533667493326
0.8951060673051757
0.9107009361904614
0.9353563490636243
0.9903910981047781
0.8840178793963255
0.9081997771079997
0.9366706379832779
1.054132932224257
0.8336083065889609
0.861101460276671
0.8995783382132032
1.14159434159868
1.14915176830052
1.190208417531875
1.162255486299828
1.155845766953849
1.270518729310157
1.298112709725542
1.24544492307942
1.213574267573883
1.425559947247784
1.363536323620272
1.296990508704108
1.251276532054828
1.160552214852559
1.100985371535163
1.087538987582772
1.089640014844344
1.158532794262921
1.159444599623132
1.157063416563764
1.153145511356802
1.197578086122989
1.18284207756883
1.168648811103478
1.156154809974734
1.223520581193166
1.198303475743142
1.174985172679779
1.153766175390956
1.08879519196362
1.078481872902389
1.068126155152573
1.050826342217867
1.122633910752756
0.8716140720006385
0.5656450758825303
0.3653362217076205
1.091789546318413
0.6996413243617932
0.3674516167612871
0.1745645852939049
1.034205456531989
0.5066400613992555
0.1487989509587304
0.03110675375019111
0.853676272479244
0.3024518855604643
0.02342018065601094
0.1010120540366295
0.3411941812205216
0.4414019655434845
0.5057945896174962
0.5694248661750804
0.2438052505363207
0.3992497376750064
0.492341793759974
0.56643253827871
0.1105623707494845
0.3091030459405522
0.4557639756915426
0.5500538549713315
0.009886366369955695
0.1613150470241719
0.3254431481714994
0.4612459779926786
0.6435432849827192
0.7089423362142837
0.7652705605309222
0.8044601018568174
0.6369813250898891
0.703476329896942
0.7598941422820662
0.7997655963122158
0.6206936951564181
0.6913531961116133
0.7536526896379422
0.7977847514773448
0.5746866623210716
0.6671329136904436
0.7486780512671048
0.7964999147095677
0.850642611151332
0.9213838978544595
1.016564988449975
1.130711919502301
0.842597090238862
0.9073305832146148
0.9950478290602249
1.146625352224654
0.8388772241176032
0.8957300807627447
1.009319742739312
1.465076813164225
0.836923304643418
0.8902917072180642
1.035300451735987
2.042823824988211
1.357827708821266
1.502304632102043
0.7482410511525847
1.54893233448538
1.440485089535712
1.291457283239685
1.122115499889657
1.901871098018714
1.484484176252857
0.9239302293248269
1.364231702316083
1.928202207435765
1.143583100225293
0.4368139264472428
1.648559823677152
1.862336424259643
1.324898645534754
0.886385870756541
0.684772073206634
0.4515660483354004
1.399562465252834
0.989471321022607
0.7120404436047273
0.3508437642351832
1.336731422000778
0.9686257457136336
0.6141041383927986
0.2352094409741756
1.274332902763098
0.9262057214255448
0.5547559175065732
0.1788189156185139
0.3120340003081579
0.08856928120993948
0.1534882808301906
0.3547838935105164
0.35622784780733
0.2724168339228507
0.06664271450915188
0.2749224025390111
0.3241567847522865
0.3749776053854544
0.2068665791149063
0.1806633420487846
0.2556454763455038
0.3756549886230312
0.2855198968071945
0.05336423886249755
0.3305623999714591
0.363646945718426
0.3682100807863746
0.3678781617486268
0.3133644014128315
0.2986341052628729
0.3028255550253749
0.2892330019116898
0.2135630499078305
0.1585828979598817
0.1539383280432779
0.1307992167883078
0.11774270425147
0.06835546985276776
0.08621438259863427
0.08088105245026794
0.06438632125859772
0.0607473008860552
0.05601000837711443
0.04988993220798043
0.08641216370666226
0.03582787678885574
0.01261174674678803
0.03246869904229039
0.235661178165201
0.1740807691935219
0.1026814246896549
0.04200267216994057
0.327671653265212
0.279473429495551
0.2190032232365251
0.1787804871777428
0.04988993220773268
0.03246869904230643
0.04200267216974977
0.1787804871776135
0.05601000837645901
0.012611746746923
0.1026814246896562
0.2190032232373108
0.06074730088540081
0.03582787678902367
0.174080769193709
0.2794734294962809
0.06438632125828006
0.08641216370681259
0.2356611781652559
0.3276716532653178
0.3678781617480214
0.3682100807859544
0.3636469457179681
0.3305623999712777
0.2892330019115352
0.302825555025272
0.2986341052623542
0.3133644014124184
0.1307992167884458
0.1539383280434004
0.1585828979598807
0.2135630499075773
0.08088105245033757
0.08621438259901022
0.06835546985328342
0.1177427042519554
0.05336423886220629
0.2855198968052348
0.3756549886204973
0.2556454763438608
0.1806633420486676
0.2068665791133417
0.3749776053824032
0.324156784749651
0.2749224025388696
0.06664271450851959
0.2724168339193982
0.3562278478037998
0.354783893510592
0.1534882808315599
0.08856928120588549
0.3120340003034799
0.4515660483308942
0.6847720732068452
0.886385870770891
1.324898645525836
0.3508437642323699
0.7120404436039507
0.9894713210284051
1.399562465254036
0.2352094409729872
0.6141041383923294
0.9686257457149356
1.336731422002934
0.1788189156186397
0.5547559175062764
0.9262057214252021
1.274332902765171
1.548932334448277
0.7482410511492601
1.502304632098434
1.357827708819265
1.901871098009918
1.122115499897269
1.291457283237558
1.440485089534861
1.92820220744004
1.36423170232449
0.923930229323052
1.48448417625209
1.862336424264526
1.648559823686898
0.4368139264481837
1.143583100225562
1.130711919501687
1.016564988449878
0.9213838978541611
0.8506426111518852
1.146625352224033
0.9950478290597325
0.9073305832140512
0.8425970902388761
1.465076813163047
1.009319742738555
0.8957300807618617
0.8388772241174798
2.042823824986311
1.035300451735294
0.890291707217149
0.8369233046431568
0.8044601018577365
0.7652705605317935
0.7089423362149323
0.643543284983094
0.7997655963128933
0.7598941422826833
0.7034763298976716
0.636981325089975
0.7977847514777189
0.7536526896382468
0.6913531961116064
0.6206936951562624
0.7964999147099211
0.7486780512670665
0.6671329136903238
0.5746866623205535
0.5694248661760288
0.5057945896195399
0.4414019655435231
0.3411941812212535
0.5664325382793184
0.4923417937617068
0.3992497376755703
0.2438052505372562
0.5500538549716119
0.4557639756921656
0.3091030459413911
0.1105623707502696
0.4612459779920421
0.325443148170548
0.1613150470243513
0.009886366370186554
0.3653362217086101
0.5656450758850768
0.8716140720014697
1.122633910750505
0.1745645852947835
0.3674516167637529
0.6996413243643002
1.09178954631645
0.03110675374959433
0.1487989509603547
0.5066400614018038
1.034205456529795
0.1010120540363422
0.02342018065614345
0.302451885561267
0.8536762724761009
1.153145511355663
1.157063416566064
1.159444599629257
1.158532794265969
1.156154809972703
1.168648811105618
1.18284207757383
1.197578086126432
1.153766175388536
1.174985172681179
1.198303475747919
1.223520581196963
1.050826342213622
1.068126155153826
1.078481872905333
1.088795191965835
1.155845766958695
1.162255486306841
1.190208417530605
1.149151768299548
1.213574267580101
1.245444923086347
1.298112709724422
1.270518729309746
1.251276532061385
1.296990508711012
1.363536323618656
1.425559947248346
1.089640014844921
1.08753898758834
1.100985371534212
1.160552214855021
0.9685336674936698
0.9297060501565878
0.9096075803075927
0.8967745812244654
0.9903910981055056
0.9353563490623379
0.9107009361869224
0.8951060673011422
1.054132932225175
0.9366706379812865
0.9081997771030162
0.8840178793913105
1.141594341599182
0.8995783382121889
0.8611014602745217
0.8336083065850028
0.8809074600279528
0.8599607594799579
0.8611581912010985
0.9070767673971977
0.8695946213924464
0.8385702158493007
0.8158312839182544
0.8355809585303685
0.8476523477306297
0.808711317791435
0.7858534419577308
0.7636205218109277
0.8036572982995912
0.7684859320844578
0.7810184835657022
0.7260901669363654
0.6234258341553062
1.002913337934602
1.099096399670754
1.116684018037929
0.6576612784689032
0.9788257126912135
1.091961585809796
1.115867025126734
0.690682414917925
0.9708735224075709
1.085951937666829
1.114864137196268
0.7070359949324078
0.9578139899099412
1.079601710881205
1.113886030085955
1.113081795951829
1.069754551736193
0.9394290227446527
0.6506791271496709
1.112943913252373
1.069880428390547
0.9376726090477117
0.6580702328818986
1.112891570910266
1.070651056606669
0.9366889042043792
0.6862928186963718
1.113160498223331
1.073996241828878
0.9443628152187499
0.7099699151411227
1.113886030086598
1.114864137194596
1.115867025127599
1.116684018042528
1.079601710884097
1.085951937668572
1.091961585811937
1.099096399673186
0.9578139899110305
0.9708735224090783
0.9788257126923755
1.002913337935134
0.707035994932007
0.6906824149181062
0.6576612784687372
0.6234258341554247
)
;

boundaryField
{
    back
    {
        type            empty;
    }
    inlet
    {
        type            calculated;
        value           nonuniform List<scalar> 
16
(
1.118016635923818
1.118016635923327
1.118016635921992
1.11801663590025
1.118016636034642
1.11801663584197
1.118016624675311
1.118016453173833
1.118016453172899
1.118016624674817
1.118016635842371
1.11801663603403
1.118016635923624
1.118016635923231
1.118016635921705
1.118016635899535
)
;
    }
    front
    {
        type            empty;
    }
    top
    {
        type            calculated;
        value           uniform 0;
    }
    outlet
    {
        type            calculated;
        value           nonuniform List<scalar> 
16
(
1.111627855288596
1.111489324794817
1.111451290876919
1.111817132687389
1.116114518690156
1.115143001505636
1.113921372712178
1.112715157376134
1.111627855286618
1.111489324794227
1.111451290877258
1.111817132687882
1.112715157376639
1.113921372710274
1.115143001506862
1.116114518694896
)
;
    }
    bottom
    {
        type            calculated;
        value           uniform 0;
    }
    wall
    {
        type            calculated;
        value           uniform 0;
    }
}


// ************************************************************************* //
