/*--------------------------------*- C++ -*----------------------------------*\
  =========                 |
  \\      /  F ield         | OpenFOAM: The Open Source CFD Toolbox
   \\    /   O peration     | Website:  https://openfoam.org
    \\  /    A nd           | Version:  11
     \\/     M anipulation  |
\*---------------------------------------------------------------------------*/
FoamFile
{
    format      ascii;
    class       volScalarField;
    location    "0.0945";
    object      p;
}
// * * * * * * * * * * * * * * * * * * * * * * * * * * * * * * * * * * * * * //

dimensions      [0 2 -2 0 0 0 0];

internalField   nonuniform List<scalar> 
880
(
80
80
80
80.00011050056173
80
80
80.00000000009796
80.00068497073225
80
79.99999999999999
80.00000000067574
80.00358667398397
80
80
80.00000002076305
80.00480741570375
80
80.00000000000001
79.99999999999994
80.00000000028751
79.99999999999999
80
79.99999999999983
80
79.99999975134477
80.00000099170073
80.01781281328762
79.96182070184348
80.711224555847
82.95877652753818
84.85604336199806
85.77026234380419
80.00000288662002
80.0000079135968
80.00000923412985
80.00000471141402
80.00006808589076
80.00017042427407
80.00032228341877
80.00019388309265
80.0471819155033
80.08436815487219
80.12444964732288
80.11518372833466
86.75001703567054
87.91862367049288
89.15891143510676
90.22062472980949
89.33597679802352
87.2297013916196
85.48789299186474
84.16808360654206
80.20373138777194
80.36942554485529
80.4723350146715
80.39663554249123
80.00064171797059
80.00153577862558
80.00276688803649
80.00257327551974
80.00002432818226
80.00004827379541
80.00007048940239
80.00005916194389
80.00002681677569
80.00000508283091
80.00000029397792
80.00000000335901
80.00157785176795
80.00049356131187
80.00006731810893
80.00000313363823
80.25935072885849
80.10127146897253
80.02157989174185
80.00189033955594
82.92240270986666
81.73819053030604
80.71868457841391
80.15276301682303
80.01145121904317
80.0000446228173
80.00000003603823
80.00000000011418
80.00079662964272
80.0000074866325
79.99999998656841
79.9999999981266
79.99760271118305
79.99987854536091
80.00000144538512
80.00000038194504
81.37735324113758
80.00236542484896
79.99967468033702
79.99998395474209
79.9999786696789
79.99984937244854
80.04009992290931
93.32408654984762
79.99999661531547
80.00022661018052
80.20204776244
104.8418695993965
80.0000365083587
80.00098219437835
80.41411227505172
110.961700194808
80.00008142192483
80.00240735840114
80.73249029200055
117.3745803347397
122.7887747206839
80.94647123295181
80.00302814749962
80.00010821712189
128.5348020979981
81.29415124442083
80.00499479541078
80.00016762050491
131.7636252935407
81.45462695603374
80.00548474164975
80.00018850546162
135.9466132916834
81.88637398096068
80.00916473913351
80.00033070302251
80.00034360858768
80.00968592453212
82.25000013920223
140.9836785454116
80.00049182633563
80.01393848737463
82.8514307389118
143.5613802090995
80.00078400567223
80.01897069336631
83.08486388491384
137.6749408347544
79.99998983444644
80.00621000552232
81.70752892892141
117.9960712807114
80.00157216940218
80.04970283807249
82.21983419646897
94.4002542911122
80.0009968715251
80.05226577845688
80.81625921737721
71.1780754281958
79.99957557655347
79.99928695723175
79.54772227451899
59.25861383455768
79.99962452607393
79.94716497238016
77.87401173205549
51.91447478272261
49.51507479999913
77.38015783925376
79.95004013608541
79.99982635177983
46.98529606013395
77.19167907320427
79.95878261282974
79.99986280294432
45.97213513902505
77.60293038158167
79.97752337047466
79.99994320554885
44.58952435231817
77.49811029178628
79.9769867081677
79.99994112651406
52.4820098899454
78.85207094066254
79.99287721534125
79.99998087791957
61.32831995805977
79.6067839929469
79.99834568393842
79.99999620049707
67.72454179925565
79.85078811012266
79.99949945397637
79.99999902406992
73.14871362509832
79.94599687151295
79.99982397870656
79.99999938132849
72.71567939148026
79.67929284910117
79.99577443472349
79.99997704549364
72.92572134317895
79.68669954801639
79.99580799229271
79.9999771092514
73.31997202921049
79.69267449179155
79.99581204845204
79.99997709697973
74.42612035913105
79.71933153530371
79.9959486693707
79.99997787951722
73.14871362490474
79.94599687116748
79.99982397821937
79.99999938188594
67.72454179883583
79.85078810967961
79.99949945273829
79.99999902417422
61.32831995784391
79.60678399324011
79.99834568390656
79.99999620061918
52.48200989017114
78.85207094163606
79.99287721538079
79.99998087759965
79.99982635200887
79.95004013732029
77.38015783970046
49.51507479990009
79.99986280359683
79.95878261312647
77.1916790734395
46.98529606028113
79.99994320486721
79.97752337128016
77.60293038129025
45.97213513928422
79.99994112668932
79.97698670837006
77.49811029300032
44.58952435198416
51.91447478206026
77.87401173139607
79.94716497153595
79.99962452580309
59.2586138336947
79.54772227379061
79.9992869562203
79.99957557490983
71.17807542803295
80.81625921656985
80.05226577860877
80.00099687147063
94.40025429132369
82.21983419625728
80.04970283761827
80.00157217089615
80.00034360812641
80.0096859256886
82.25000014006895
140.9836785465358
80.00049182649892
80.01393848764383
82.85143073894483
143.5613802090593
80.00078400642234
80.01897069336509
83.08486388419369
137.6749408347026
79.999989836075
80.00621000548163
81.70752892840183
117.9960712805456
135.9466132935028
81.88637397969576
80.00916474046367
80.00033070295886
131.763625294929
81.45462695795389
80.00548474144622
80.00018850577992
128.5348020971663
81.29415124624221
80.00499479721718
80.0001676201631
122.7887747215776
80.94647123106016
80.00302814757258
80.00010821682392
79.99997867047371
79.99984937315467
80.04009992313777
93.32408654870061
79.99999661472368
80.00022660929837
80.20204776224872
104.8418695997306
80.0000365078602
80.00098219438706
80.41411227595741
110.9617001946442
80.00008142135403
80.00240735832759
80.73249029130619
117.3745803358393
79.99998395452187
80.00000038229409
79.99999999812091
80.00000000007658
79.99967467949716
80.00000144534049
79.99999998737552
80.00000003565339
80.00236542509928
79.99987854564111
80.00000748613667
80.00004462251736
81.37735324126588
79.99760271149688
80.00079662957457
80.01145121900726
80.00000000272931
80.00000313368255
80.00189033997911
80.15276301712872
80.00000029383123
80.0000673178249
80.02157989329714
80.71868457852369
80.00000508328682
80.00049356136289
80.10127146810323
81.73819053031288
80.00002681703299
80.00157785163266
80.25935072959493
82.92240270954177
80.00002432718152
80.00064171707923
80.20373138744542
89.33597679779378
80.00004827292322
80.00153577873843
80.36942554497433
87.22970139089107
80.00007048906376
80.0027668890877
80.47233501465048
85.48789299157335
80.00005916163123
80.00257327617179
80.39663554251501
84.16808360606288
90.22062473011934
80.11518372940023
80.00019388249949
80.00000471091627
89.15891143534222
80.12444964838812
80.00032228328494
80.00000923423028
87.91862367147878
80.0843681543415
80.00017042454793
80.00000791344024
86.75001703548872
80.04718191466972
80.00006808547899
80.00000288690576
85.77026234405088
79.96182070363589
80
80.00000000038554
84.8560433616819
80.01781281040033
80
79.99999999999999
82.95877652803595
80.00000099150519
80
79.99999999999999
80.71122455587982
79.99999975102477
80
79.99999999999989
80
79.99999999999997
80
80.0001105003503
80.00000000000003
80.00000000000001
80.00000000007738
80.00068496252204
80
80
80.00000000073183
80.00358667161322
80
80
80.00000002037278
80.00480741495821
80.00017382751857
80.00082580561734
80.00565500477353
80.17005287675713
80.00082581812885
80.00085015995754
80.0024028635826
80.67977240359495
80.00565499733595
80.00240284055883
80.2516814466769
84.68193401572965
80.17005286948435
80.67977240253428
84.68193409617429
102.0285158865164
132.2347509731418
110.9307205920587
99.58159315092651
88.74974820904436
127.309149945074
122.6087021249866
119.9353636025879
110.7161385306512
124.6237320362443
123.4454424753466
123.1241910702082
118.8003743230924
125.1796480984712
123.7921320328095
123.2761485994483
120.7947164122998
123.0066811702563
124.2239609003509
125.4204997593863
128.1039677802023
124.3464696711133
125.6682978601408
126.7788793630239
130.3540255317857
124.5570091516869
125.542063884021
126.80131538732
129.7520463157153
124.7433737006491
125.0882017438906
126.3069334360664
127.6596157303515
107.5739149244174
88.28802655347704
82.55795870073156
81.52138613073598
97.99870473195224
81.02965728848024
80.47373923541001
81.37552218050141
88.38113372574541
77.45770702809887
80.96453280539947
82.37623726256331
69.52651644202504
71.53208176238796
78.95205955083375
81.52476780724747
81.97358467314599
82.2366060886845
81.4540054425421
80.49868259264353
82.1265720117715
82.2029006457431
81.39062891424535
80.53603797403763
82.71551388285511
82.53920677915552
81.5997258056919
80.66672613813381
82.02447753802392
82.1866371643524
81.22396330448369
80.35096801289858
80.08112025277762
80.00486370993924
79.99767337543734
100.9316328107586
80.10824848607051
80.00809311191985
79.99829525615345
112.8904708087271
80.14957305480546
80.01173537044187
80.00006153040896
119.0755608144432
80.03556316982171
79.99830234752869
80.00010470986861
121.15893260754
190.3720413709808
202.6418576107053
204.0273944468873
206.8899801634574
214.4487621815281
213.7897210467525
210.007952571267
211.4306009046983
213.4392903934027
207.61160111199
210.653775289875
212.0385198877316
226.6723855928859
214.7735874929434
211.4289368581763
211.5780651993595
211.4147067873855
218.2757498167286
220.6029183536852
222.2976307445743
213.9779937667624
219.8637769061
222.1749109649692
223.4375107261324
213.9989068264928
219.3543730275197
222.2963279706293
223.5050792049643
213.4517423525701
218.4644925611167
221.4191542674055
222.6983681248095
221.436570437948
215.6884308483117
199.8765632968086
165.7046470156695
222.1261746491541
216.1803765527164
199.9731236366752
176.6831822858863
222.5729413520565
216.5643351751722
200.8151275488137
187.8725765646892
221.9055916311918
217.3728269242304
202.9819399146706
208.5467153949451
101.230490997563
22.36678756211777
7.368408639855797
8.108253803704836
78.68657120892671
13.12620085782157
7.848516159354792
8.250651842350287
52.71756337697121
7.960011887327197
7.08432343901137
8.796804777805917
29.38110238287654
4.160993752211685
8.314268402011061
9.32971978072886
9.418645689737383
10.24739561113779
10.39283086591365
8.734455176552313
9.070784244609326
9.371120932284231
8.76966579422287
6.919328042426356
9.531755549862137
9.38101694748118
8.385905583705609
7.603925826764156
9.845690904020337
9.207420775107865
7.918726004322426
8.779684171236438
21.94242534063464
33.9036760277849
41.8573479483596
53.09496400198258
21.51360283076287
31.86646124154811
37.81682535916053
50.82104978990886
19.65631695848947
31.87347798183546
39.55903619645598
48.71854457715554
14.64725147396429
25.92599193427998
36.17587028411474
48.79385321514467
37.75831250725565
23.24776640544296
9.870983202205757
10.1533570934732
33.57468510667658
18.52498776812755
8.653622504096401
5.303463577336116
25.84222520175058
11.86117867319432
4.32768312201364
4.105102820599253
17.07001509569507
4.894787128408356
2.179934623255291
4.42821984925835
9.360074386897667
14.87737304251996
21.19166944061499
24.01807432655919
9.58192372217826
15.45207687832326
20.16991064732412
22.16257322673396
10.32753213826534
17.74981211471802
21.55209514423442
23.70077457689539
22.26763264626165
33.0412947394296
34.12680572524938
33.91301148857453
24.0180743265558
22.16257322672171
23.70077457688911
33.91301148856992
21.19166944063344
20.16991064729711
21.5520951442323
34.12680572517561
14.87737304252638
15.45207687831347
17.7498121146838
33.04129473936635
9.36007438690954
9.581923722184721
10.32753213825261
22.26763264601108
10.1533570933538
9.87098320214209
23.24776640530509
37.75831250696189
5.30346357734566
8.653622504094351
18.5249877681305
33.57468510654223
4.105102820619635
4.327683121999742
11.86117867312712
25.84222520170541
4.428219849255383
2.179934623252713
4.894787128403371
17.07001509566359
48.79385321507581
36.17587028409406
25.92599193416305
14.64725147375786
48.71854457710793
39.55903619647199
31.87347798179417
19.65631695828705
50.82104978983239
37.8168253591142
31.86646124150711
21.51360283060971
53.09496400185397
41.85734794821623
33.90367602763396
21.94242534048243
8.734455176441998
10.39283086603105
10.24739561116474
9.418645689676222
6.919328042391752
8.769665794305949
9.371120932319107
9.070784244578668
7.603925826751234
8.385905583779977
9.381016947519733
9.531755549821359
8.779684171202836
7.918726004377792
9.207420775163495
9.84569090396036
8.10825380359047
7.368408639692317
22.36678756194414
101.2304909975056
8.250651842244745
7.848516159218315
13.12620085772909
78.68657120847853
8.796804777670646
7.084323438881472
7.960011887323009
52.71756337681424
9.329719780576914
8.3142684018331
4.160993752165722
29.38110238284503
165.7046470153865
199.8765632965423
215.6884308483731
221.4365704386837
176.6831822856959
199.9731236363685
216.1803765529108
222.126174650128
187.8725765645291
200.815127548764
216.5643351757087
222.5729413530943
208.5467153950276
202.9819399152573
217.3728269248334
221.9055916324282
222.2976307459782
220.6029183543771
218.2757498154905
211.4147067876587
223.4375107273657
222.1749109654175
219.8637769048304
213.9779937670904
223.505079206017
222.2963279707796
219.3543730264289
213.9989068273312
222.6983681261149
221.4191542672093
218.4644925597681
213.4517423538665
206.8899801671789
204.027394444568
202.6418576116058
190.3720413699818
211.4306009083013
210.0079525686395
213.7897210480477
214.4487621806504
212.0385198909827
210.6537752869804
207.6116011129471
213.4392903923518
211.5780652028274
211.4289368550215
214.7735874942196
226.6723855914038
100.9316328097317
79.99767337155406
80.00486371103634
80.0811202527064
112.8904708073087
79.99829525286252
80.00809311315692
80.10824848605081
119.0755608129641
80.00006152904466
80.01173537133984
80.14957305484845
121.1589326060014
80.00010470899304
79.99830234856873
80.03556316991465
80.49868259275755
81.45400544240309
82.23660608883401
81.97358467315779
80.53603797392385
81.39062891416611
82.20290064572362
82.12657201156532
80.66672613793025
81.59972580569237
82.53920677894145
82.71551388248433
80.35096801255831
81.22396330438681
82.18663716417871
82.02447753769356
81.52138613030273
82.5579587004617
88.28802655345858
107.5739149245387
81.37552218002693
80.47373923515754
81.02965728833712
97.99870473210176
82.37623726210161
80.96453280520892
77.4577070277692
88.38113372587934
81.52476780663409
78.95205955068708
71.53208176194335
69.52651644194501
128.1039677798347
125.4204997583563
124.2239609004635
123.0066811716195
130.3540255310982
126.778879362513
125.6682978609167
124.3464696724055
129.752046314959
126.8013153869066
125.5420638846973
124.5570091527013
127.6596157298362
126.3069334359988
125.0882017450111
124.7433737013987
120.7947164118519
118.8003743233044
110.7161385313983
88.74974821173917
123.2761485992516
123.1241910700481
119.9353636044324
99.581593144376
123.7921320327687
123.4454424761567
122.6087021276311
110.9307205771268
125.1796480981326
124.6237320360071
127.3091499459496
132.2347509814858
75.54209729886115
79.92468975294877
79.99948459366492
79.99999811854335
74.50804655566286
79.88900484676248
79.99903432521837
79.99999560779413
74.64593841334458
79.84865175315481
79.99827975879177
79.99999114503638
74.48327515409964
79.77207896387564
79.99681363995367
79.99998305479563
79.9999770459618
79.99577443479735
79.67929284861381
72.71567939107976
79.99997710959363
79.99580799286917
79.68669954717406
72.92572134322643
79.99997709645152
79.99581204896531
79.69267449148165
73.31997202847704
79.99997787790308
79.99594867005976
79.71933153383901
74.4261203587409
79.99998305430968
79.9999911445218
79.99999560587895
79.99999811660005
79.99681364019563
79.9982797587659
79.99903432496255
79.99948459295439
79.77207896378336
79.84865175248378
79.88900484739007
79.92468975258532
74.48327515395458
74.64593841256587
74.50804655541806
75.5420972990667
)
;

boundaryField
{
    back
    {
        type            empty;
    }
    inlet
    {
        type            zeroGradient;
    }
    front
    {
        type            empty;
    }
    top
    {
        type            zeroGradient;
    }
    outlet
    {
        type            fixedValue;
        value           uniform 80;
    }
    bottom
    {
        type            zeroGradient;
    }
    wall
    {
        type            zeroGradient;
    }
}


// ************************************************************************* //
