/*--------------------------------*- C++ -*----------------------------------*\
  =========                 |
  \\      /  F ield         | OpenFOAM: The Open Source CFD Toolbox
   \\    /   O peration     | Website:  https://openfoam.org
    \\  /    A nd           | Version:  11
     \\/     M anipulation  |
\*---------------------------------------------------------------------------*/
FoamFile
{
    format      ascii;
    class       surfaceScalarField;
    location    "0.0575";
    object      phi;
}
// * * * * * * * * * * * * * * * * * * * * * * * * * * * * * * * * * * * * * //

dimensions      [0 3 -1 0 0 0 0];

internalField   nonuniform List<scalar> 
1652
(
1.706212168242967
0.5337381654508486
4.440892098500626e-16
1.172474002792889
0.5337381654500766
0
0.6387358378014947
0.5337381568466968
-1.210143096841421e-13
0.533737933701677
2.420286193682841e-14
0.1049976969081359
1.706212168246044
1.067476330897457
1.172474002798808
1.067476330897323
0.6387358410867008
1.067476238932561
1.067461229215246
0.1049992654757795
1.706212168254444
1.601214496347917
1.172474002805019
1.601214496346399
0.6387359175790542
1.601212842705812
1.600801045040523
0.1050126438503596
1.706212168255721
2.134952661797195
1.172474002807667
2.134952661800249
0.6387355784518848
2.134950610901736
2.132558069694271
0.1041917401565135
2.651191215269145
1.723711780227148
3.167429768742152
1.723711780225906
3.683668322214934
1.723711780225516
1.723711780393572
4.199906869645502
2.651191215210567
1.207473226762888
3.167429769052073
1.207473226716696
3.683668319881989
1.207473227125919
1.207473224445268
4.199906802155004
2.651196596392102
0.6911679284170904
3.167470453844485
0.6910420518251553
3.683077119560876
0.6909538269241466
0.6908391335845357
4.201022791071482
2.662905505283622
0.1380186676552265
3.237205650975019
0.066422367505793
3.825443230750873
0.03205278972810771
4.411425847426204
0.01410119443853464
4.16490762547209
0.03499908392718498
4.129908397597806
0.03499892838087859
4.094909178811842
0.03499889943009948
0.03499901984921905
4.059909969742324
4.164910732382465
0.06999191066710625
4.129912221129684
0.06998889554601934
4.094912869837184
0.06998834248071073
0.06998968165430147
4.05991627289802
4.166844672812186
0.1024324463313395
4.131975944239278
0.1017272869714672
4.096899490958933
0.1016394582909341
0.1011593127864183
4.062707266045705
4.417447763568808
0.002929508584854079
4.400710064640909
0.001266834307238562
4.367493382990366
0.001760244228034724
4.336274548926235
-0.003803812403892937
4.323798740150266
0.006352447474679723
-0.07837186318694572
4.259994655893879
0.008451972794995322
-0.02112238948940554
4.186079896192609
0.005944042702069163
-0.008434548242283457
0.002632027655024904
4.116677512851351
-0.005172811267776856
4.064053168722885
2.660241154545107e-05
4.064292836577622
3.711646960152803e-05
4.063075898932254
2.971298170223458e-05
1.352940640264588e-05
4.061076162385878
4.059920502850889
8.26398394715433e-07
4.059920941119574
9.971888303983434e-07
4.059918022043597
7.911489339207378e-07
3.537041705081734e-07
4.059912598069348
4.059909920455014
4.05990991463079
4.059909930727875
4.059909961892808
4.05990997786854
-6.833901011749077e-08
4.059909979791794
-4.008192000526378e-09
4.059909979828856
-4.932554364955877e-11
8.202327705930657e-13
4.059909979829604
4.059910236394677
-2.844502112409053e-06
4.059909984670194
-1.972574810715777e-07
4.059909979833064
-3.143270144168042e-09
-5.74473801862041e-12
4.059909979823108
4.060064032751131
-0.0006518727438068472
4.05991436428199
-6.099311869101065e-05
4.059909996830967
-1.418838989242222e-06
-6.33069896505134e-09
4.059909979681045
4.072475042511724
-0.002469037487048964
4.060721231457788
-0.0005688107063074321
4.059919078480637
-4.201360387956488e-05
4.059909983640273
-5.226091019383539e-07
6.329692325834912e-10
4.059909951526658
6.260668428126337e-09
-2.131628207280301e-13
4.059909978388337
-4.884981308350689e-15
4.059909979827567
4.059909979829605
-1.997389764696322e-08
4.059910041613035
-5.811156056356737e-09
-1.381774972220029e-09
4.059909969268249
-5.266453939611893e-12
4.059909979664608
4.059909979829614
1.226639071372215e-06
4.060143285438797
-0.0004376394516130699
5.075259934539389e-09
4.05991069693363
2.497540285695266e-09
4.059909981594414
4.059909980048815
0.0006010848094979981
4.082218784295595
-0.07751858941537348
-3.614970333631895e-07
4.059987926393626
-1.375703405748219e-06
4.0599067694771
4.059909770723338
0.09333145346060334
3.966578608633149
0.186654821984034
3.966578660020954
0.2758834597728845
3.96708094948726
4.00347327813494
0.08502758238374941
0.0933302967655622
3.873247558286134
0.1866330088878865
3.873254876479804
0.271292168430198
3.875284664704
3.945316049921221
0.07450742333082128
0.09332909827597774
3.77991638641551
0.1866038377277013
3.779927797168627
0.2658948734836258
3.783408693475521
3.911499518570989
0.03744741289021813
0.09332826115593884
3.686585203093003
0.1865808244371239
3.686597597931333
0.2618117204519376
3.690202369794371
3.825193808482848
0.01655160059608096
-0.2591706654203175
3.715411388903072
0.005014313382932567
-0.1865617650600596
3.597356132092065
-0.09332753047614573
3.593269876425044
3.593253980655444
-0.2558701500864253
3.578228954872996
0.005968082923156204
-0.1865314563800027
3.503390350087393
-0.09332626460330762
3.499937186204412
3.499922773936777
-0.2524704427348523
3.444232623850477
0.004525612774130883
-0.1865003912896851
3.410475684986618
-0.09332496829815251
3.406612921187195
3.406591665670518
-0.2477586126383949
3.296792839160005
0.006645520469771071
-0.1864398890905517
3.316388015684752
-0.09332184641264346
3.313278495479297
3.313260614813323
0.119570821402523
3.193680098970803
0.2389126978448265
3.193697367771134
0.3177010770123066
3.196443949531516
3.133216523640494
0.01998349806466893
0.1195671443135232
3.074099839560246
0.2388308609492985
3.074116018698962
0.3117957637556026
3.075611179164989
2.977554877454021
0.04365437107294512
0.1195651525536645
2.954518827529268
0.2388124799635112
2.954530128782423
0.3182912415260433
2.955406109787885
2.88285205520676
0.1264740514021573
0.1195726014481419
2.834939373727548
0.2389718392377467
2.834953230828392
0.3392356361046801
2.835800455796088
2.807362326624335
0.2830412575158494
-0.2012741510839516
3.036185412217668
-0.4033002416672528
3.036169826737332
-0.6271023537247739
3.044128577017154
3.01085672713015
-0.8263604561172881
-0.2012436217630328
3.23742892375876
-0.402329720728389
3.237381052498355
-0.5911885657369148
3.232778894286365
2.871566956162175
-0.3286687415696835
-0.2012436226823095
3.438673440013654
-0.4019389204345559
3.438527754644222
-0.557878162087128
3.414539751196826
2.532176907693865
-0.05363242976379476
-0.2012427416051141
3.639919056137097
-0.4014194182350225
3.639747664783926
-0.5168242721752292
3.587932504119015
2.238724302895188
-0.003294558196332453
0.2596485010300003
2.251634336803691
0.002842857483896066
0.2093559133629523
3.694314168679027
0.1049956689365905
3.744738534262423
3.744916736075392
0.2646304327776662
2.362047979041561
-0.001125102325348001
0.2094774205035725
3.811417187332403
0.104996094011734
3.849827696992305
3.849914561928285
0.2759175565632805
2.524619942979175
-0.004303909673099363
0.2096909137560168
3.921902445659643
0.1049968516150146
3.954831580577252
3.954912222153363
0.2737909640426722
2.688784404596448
0.00631656973265108
0.2096726290689279
4.032601571571393
0.1049968200322292
4.05984417242269
4.059909890841069
-0.02497010610440853
3.298507582360267
0.1458414834983128
-0.0002276200228007452
4.053546633128972
-7.43488002497017e-07
4.059899069614035
4.05990996657901
-0.008391885721893866
3.778350114679176
0.1158075329256189
-4.820114540116105e-05
4.059219140341642
-1.226807042620237e-07
4.059909532644852
4.059909979812119
-0.003775478855240322
4.040160466323743
0.1102940839573328
-1.753823098782359e-05
4.060304698217037
-4.381115648044442e-08
4.059911543754341
4.059909980962503
-0.00276602806231574
0.1066483338021974
4.073147830232521
-1.629219058907339e-05
4.059626887480104
-4.937546838057472e-08
4.059907705836146
4.059909979978787
0.653168191231242
-0.4982538229189202
-0.02322018860004588
-7.576161920042068e-13
1.189810389184906
-0.5243499402299232
-1.70530256582424e-13
1.71496110695523
-0.5249841564153854
-4.845013279464183e-13
-0.5249883465512282
6.732392421326949e-13
0.6535180100814986
-0.9996447354243392
-0.02248359920626518
1.189811725497532
-1.048708631211487
1.714961109097632
-1.04996833626929
-1.049976693128587
0.6537687640184777
-1.502972758937773
-0.02703739489046151
1.189813146821994
-1.573076077544484
1.714961113577767
-1.574952642575167
-1.574965040056538
0.6542520900341351
-0.0337993941934842
-2.021453813596203
1.189816908758929
-2.097593421778303
1.714961132390325
-2.099939546689208
-2.099953397715545
-0.002766028061896297
-4.040160466322929
0.1066483338021731
4.073147830231084
-1.629218981236136e-05
-4.060304698215806
4.059626887478744
-4.937560671436358e-08
-4.059911543753606
4.059907705833901
-4.059909980963071
4.059909979978551
-0.003775478854885717
-3.778350114677355
0.1102940839572024
-1.75382312208594e-05
-4.059219140342704
-4.381128659858291e-08
-4.059909532646452
-4.059909979811889
-0.008391885722174863
-3.298507582361704
0.115807532925495
-4.820114616899129e-05
-4.053546633129812
-1.226807699872268e-07
-4.059899069613991
-4.059909966579281
-0.0249701061042924
-2.68878440459293
0.1458414834988349
-0.0002276200229365255
-4.032601571572735
-7.434880817669409e-07
-4.059844172422737
-4.059909890841194
-0.1049956689300225
3.74491673609612
-3.639919056164266
-0.2093559133509152
3.744738534283174
-3.639747664812402
-0.2596485010254113
3.694314168660299
-3.587932504081708
2.25163433678141
-2.238724302873057
0.002842857483857347
-0.1049960940052404
3.8499145619429
-0.2094774204902312
3.849827697006529
-0.2646304327711552
3.811417187321544
2.362047979026521
-0.001125102325655811
-0.1049968516080194
3.954912222160814
-0.20969091374218
3.954831580583634
-0.2759175565570588
3.921902445653284
2.524619942968802
-0.004303909673129408
-0.1049968200246643
-0.2096726290539339
-0.2737909640353197
0.006316569732653245
0.51682427217884
-2.532176907674484
-0.003294558195788486
0.4014194182495824
-3.414539751177892
0.2012427416131274
-3.438527754664581
-3.438673440029989
0.5578781620923827
-2.871566956149268
-0.05363242976275666
0.401938920448538
-3.232778894275477
0.2012436226900319
-3.23738105251139
-3.237428923774564
0.5911885657446962
-3.010856727125184
-0.3286687415684225
0.4023297207420715
-3.044128577011931
0.2012436217687133
-3.036169826743508
-3.03618541222354
0.6271023537321235
-2.807362326624223
-0.8263604561196271
0.4033002416790534
-2.835800455796001
0.2012741510897183
-2.834953230828628
-2.834939373727493
0.1195708214064452
3.193680098980853
-3.313260614827693
0.2389126978536044
3.193697367785572
-3.313278495497053
0.3177010770171346
3.19644394952019
-3.316388015669316
3.133216523629083
-3.296792839144985
0.01998349806407818
0.1195671443173159
3.074099839566393
0.2388308609577708
3.074116018706669
0.311795763759632
3.075611179157528
2.977554877446865
0.04365437107330583
0.1195651525569002
2.954518827532551
0.2388124799707284
2.954530128786016
0.3182912415294452
2.955406109783705
2.882852055203614
0.1264740514024904
0.119572601451261
0.2389718392447393
0.3392356361076889
0.2830412575155952
-0.2477586126340748
-3.444232623838349
0.006645520469812816
-0.1864398890833334
-3.410475684972376
-0.09332184640949936
-3.406612921200775
-3.406591665681484
-0.2524704427305021
-3.578228954864417
0.004525612774003873
-0.1865003912817564
-3.503390350076241
-0.09332496829460585
-3.499937186213481
-3.499922773944092
-0.2558701500834959
-3.715411388895518
0.005968082922718776
-0.1865314563721138
-3.597356132090731
-0.09332626459977544
-3.593269876429894
-3.593253980659398
-0.2591706654154149
-3.825193808481779
0.00501431338239211
-0.1865617650515765
-3.690202369785251
-0.09332753047235914
-3.686597597930366
-3.686585203092863
0.09333145346071725
3.966578608633186
-4.059909770723296
0.1866548219843112
3.966578660021971
-4.059906769476754
0.2758834597729819
3.967080949489802
-4.059987926393526
4.003473278136716
-4.082218784295486
0.08502758238351871
0.09333029676562499
3.87324755828649
0.1866330088881508
3.873254876477688
0.2712921684313095
3.875284664699437
3.945316049918257
0.07450742333170979
0.09332909827597052
3.779916386415764
0.1866038377274507
3.779927797170209
0.2658948734821087
3.783408693484263
3.911499518571267
0.03744741288851183
0.09332826115592935
0.1865808244370782
0.2618117204531297
0.01655160059734095
-4.05990998004866
1.375704141381995e-06
-4.059909979830257
-2.497372419973942e-09
-4.059909979829605
5.295763827461997e-12
1.054711873393899e-14
-4.059909979829604
-4.05990998159426
3.614970848220267e-07
-4.059909979664487
-5.075274145394104e-09
-4.0599099798277
1.38177908004522e-09
1.683098105331737e-13
-4.059909979823218
-4.059910696933927
-0.000601084809609409
-4.059909969268208
-1.226639066709279e-06
-4.059909978388185
1.997365273176399e-08
-6.330356794315151e-10
-4.059909979680956
-4.060143285439283
-0.07751858941540435
-4.059910041614347
-0.0004376394518538218
-4.059909951527453
-5.810517234028367e-09
-4.059909983639961
6.260712781536171e-09
7.450706718259426e-13
-4.059909979828842
-5.75400838087603e-12
-4.059909979833182
-6.330715562885558e-09
-4.059909996831033
-4.05991907848082
-5.226089653809218e-07
-4.933708996901487e-11
-4.059909979791654
-3.143289128981763e-09
-4.059909984670173
-1.4188389597658e-06
-4.059914364282027
-4.060721231457872
-4.201360378375263e-05
-4.008195886306964e-09
-4.05990997786877
-1.972574618647194e-07
-4.059910236394684
-6.099311851348599e-05
-4.060064032750963
-4.072475042511496
-0.0005688107064010794
-6.83389753675101e-08
-4.059909961892809
-2.844502099585977e-06
-4.059912598069443
-0.0006518727439668304
-4.061076162386075
-4.116677512851178
-0.002469037487463022
-8.264012367753537e-07
4.059909920444277
-4.059909969733649
-2.660241740343183e-05
4.059920502841266
-4.059916272885147
-0.006352447477892098
4.064053168731956
-4.062707266058307
4.323798740158936
-4.336274548938124
-0.07837186318656636
-9.971918558671078e-07
4.059909914623907
-3.711647533738427e-05
4.059920941113623
-0.008451972797998641
4.064292836583789
4.259994655899785
-0.02112238948926376
-7.911519276371237e-07
4.05990993072404
-2.97129879109348e-05
4.059918022040716
-0.005944042705360031
4.063075898935232
4.186079896195471
-0.008434548242631679
-3.537071532333513e-07
-1.35294123131402e-05
-0.002632027657668345
-0.005172811267876387
-0.1011593127905234
-4.367493382998486
-0.003803812403854079
-0.06998968166629671
-4.09689949096498
-0.03499901985189591
-4.094912869832618
-4.094909178802478
-0.1016394582952099
-4.400710064644381
0.001760244227421603
-0.06998834249277852
-4.13197594423693
-0.03499889943280032
-4.129912221134994
-4.129908397591337
-0.1017272869760217
-4.417447763567056
0.001266834307034559
-0.06998889555810583
-4.166844672798905
-0.0349989283835267
-4.164910732398381
-4.164907625467129
-0.1024324463369047
-4.411425847420487
0.002929508584815665
-0.06999191067929994
-4.201022791052183
-0.03499908392967965
-4.199906802180887
-4.199906869643604
-0.6908391335814987
-3.825443230748101
0.01410119443834063
-1.207473224436204
-3.68307711955293
-1.723711780393695
-3.68366831989834
-3.683668322213224
-0.6909538269220951
-3.237205650974185
0.03205278972805292
-1.207473227118088
-3.167470453837687
-1.723711780225369
-3.167429769062375
-3.167429768740289
-0.6910420518246161
-2.662905505283484
0.0664223675056746
-1.20747322671218
-2.651196596389094
-1.723711780226761
-2.651191215214479
-2.651191215268145
-0.6911679284171169
-2.132558069694474
0.1380186676553066
-1.20747322676008
-2.134950610902004
-1.723711780228153
-2.13495266180022
-2.134952661797195
1.706212168246006
0.5337381654478088
1.172474002797067
0.5337381654489388
0.6387358378049418
0.5337381568475519
0.5337379337042105
0.1049976969081581
1.70621216824656
1.067476330893901
1.172474002799517
1.067476330896002
0.6387358410872376
1.06747623893361
1.067461229218107
0.1049992654761255
1.706212168253681
1.601214496345123
1.17247400280397
1.601214496345396
0.6387359175781726
1.601212842706416
1.600801045043644
0.1050126438500761
1.706212168252929
1.172474002803863
0.6387355784487329
0.1041917401556282
0.104997676677652
0.1049976766778497
0.1049956817919295
0.10499938743322
0.1049991140117751
0.1049564072454137
0.1038122150353589
0.1049198766325399
0.1049993874323529
0.1049956817927778
0.1049901584682005
0.1049901584692008
0.1049689213855308
0.1047424589854591
0.1016043633154249
0.1060996399305866
0.1049564072458089
0.1049991140124374
0.1047424589860045
0.1049689213860689
0.1042726163910222
0.104272616390186
0.09806545108757816
0.1061338199971147
0.1038122150363204
0.1049198766331187
0.1016043633161958
0.1060996399313038
0.09806545108841475
0.1061338199963133
0.09740987289463862
0.09740987289539058
-0.04350582938441661
0.1395225721482672
-0.07526548318744775
0.1352173952082731
-0.1098941224814546
0.1372699109083062
0.1297313343909825
-0.01026132062181551
0.1497533036823849
-0.02410797743833054
0.1486433861996021
-0.04121387786760067
0.1525115653442388
0.1523945106382478
-0.006195482163359634
0.1541130709687599
-0.01591780312876057
0.158292033028974
-0.0237345233445489
0.1611650150761965
0.1621860791244109
-0.002717693237958507
0.1574120779844171
-0.008955879238540909
0.165713135244402
-0.01282078000632653
0.1673492981913816
0.167411765002705
0.1692688440467834
0.004009943980034458
0.1698958787453285
0.002133610817640519
0.1699438085332732
0.002816136791861323
-0.0024433520835897
0.1701734402532575
0.1702746413794774
0.003803837996042225
0.1714928324074301
0.002325294456670512
0.1717566556859954
0.003255818511413822
-0.003613325668654133
0.1738283582391201
0.1693766753826864
0.001094754919410024
0.1706467816278366
0.0005915251722717896
0.1711720494533176
0.001544178642525484
-0.01379290603821237
0.1813334118654621
0.1610213659664365
0.1628854048385556
0.1647001332773083
0.1515049423937727
0.1608215347852613
-0.06617049220698604
0.15237426033832
-0.01164141093039617
0.1476162189322492
-0.003883199799762427
-0.003262226355969178
0.1440198706288578
0.1605439992026708
-0.05000951221242028
0.1541616986038684
-0.004337701179727593
0.1496179105149021
0.0004415556292535205
-0.0005089001749691291
0.1452631969438076
0.164853369198846
-0.03021186808033274
0.1582124809050574
0.00419306723022006
0.1524177284380615
0.006392597953224111
0.003314572758466028
0.1470894929415131
0.124314496180677
0.1301328651221303
0.137146765386082
0.1396548867635842
0.1412634875450827
-0.001894634330566802
0.1401516182802177
-0.0004662960414849593
0.1400015225225963
-4.093002638982934e-05
-7.284355880154969e-07
0.1399969180661773
0.1417936394345777
-0.000243408901707487
0.1402472769009199
1.239396186547559e-05
0.1400050310713757
2.999602703723792e-06
5.5646499297346e-08
0.1399969338079402
0.1425216131456504
0.002198971969346208
0.1403586773456162
0.00084876082508345
0.1400088669647299
9.715639138491161e-05
2.269915117980581e-06
0.1399969509108384
0.1399727691817893
0.1399972601573482
0.1399969447829167
0.1399968937478562
0.1399968897971774
5.605287400900494e-09
0.1399968896764388
-1.047739822679361e-08
0.1401725524174846
-0.001025980904269641
-0.08311556496765415
0.1363936194596181
0.1399968910478454
9.610193030251679e-09
0.139996890966384
-1.116726933148016e-08
0.1403478047987559
-0.00243175175677629
-0.07272892613189691
0.118847011997175
0.1399968918589839
1.599947507813226e-08
0.1399968920125572
-7.000854562733139e-09
0.1398564412982257
-0.004017134689558
-0.04623006811101338
0.1019726926604908
0.1399968934370013
0.1399968924678162
0.1334443470776251
0.07560140537393463
0.148531539585905
0.0658254791892896
0.1542190067741732
0.06242189945758347
0.159930125113572
0.03206358503998907
0.01322843792918882
0.1636127397421799
0.1383026983846736
0.0427144940564419
0.1526519734518015
0.04422758089170531
0.1612758091340994
0.02674476557208183
0.01263005093613634
0.1670005133448003
0.1168630955764357
0.02747834990243647
0.1427733480445119
0.01705821967560595
0.159606710823144
0.01264637095710186
0.01049364128958041
0.1669578112913364
0.1052229510766951
0.1227129011939357
0.1356107471058997
0.1483111154872321
0.1648608293632585
0.00141589043887691
0.165107187285187
0.0014642751856484
0.1646130865752001
0.00112542555800943
0.002633518347518793
0.1644351209471821
0.1692017831837176
0.003952974763787753
0.1696583167453968
0.003371243542915625
0.1696400597100509
0.003093693312545831
0.003999803133144741
0.1696416517065526
0.1693865233636898
0.004989822098063201
0.1697872138666498
0.0035132963920812
0.1698090427665327
0.0027769896331028
0.003438469791232301
0.1698781634470367
0.1542040917145938
0.1554807802044179
0.1554387742526919
0.1558581755230969
0.1674136701186
0.01239202536903961
0.1768227113614791
0.03288176864453807
0.2012701151602314
0.1043538227233669
0.2322981439430147
0.2545943039353336
0.172978341458544
0.01051060191576769
0.1836632192230564
0.02518740255879903
0.2042222662023897
0.08994390704284927
0.1623193661036836
0.2769129566718893
0.1734892102954229
0.006443493914261134
0.1834922279796737
0.0170220411893881
0.2120306770803925
0.06657579097318411
0.05759779762469497
0.3194233160796712
0.1614938065139596
0.1815056317844376
0.2506385429081421
0.3108960717187059
0.1509956457105209
-0.7215436488815307
0.03087984132211547
-0.1944222341515321
0.005441121043655857
-0.02224069520209648
0.0001621731621107986
-0.0002700366955430116
0.1108586852378898
-0.5470269208822894
0.01738513741327798
-0.08908008397460195
0.00491578184771232
-0.006090298268748712
-0.0009952149740206639
0.0001496167246240344
0.06389380399151241
-0.2886007986320573
0.009399969120917551
-0.02511619100010717
0.004357541014401264
0.002678117875197519
-0.001399922572655074
0.0004906212569338042
0.02063751266753176
-0.001876125922486888
0.002412347283505329
0.0009521572774595331
0.0002654178257130834
0.001395977974083216
0.0005413448745195601
-0.002439250111245628
0.003241716649276076
-0.006275027485783569
-0.003412530742482899
0.01466637336146415
-0.002050619315374468
-0.001446943466013963
-0.003042475123749533
-0.005336585642104527
-0.0006984361462502621
-0.008696255181916066
-0.004238157576710505
0.001394912191276357
-0.001888347061419524
-0.002747172276923789
-0.003388006830605476
-0.005163548912304208
-0.003133387298212123
-0.006510943947609767
-0.0006330918411955669
-0.004241029183271801
-0.001850589641035303
-0.003229185075206441
-0.004968649060033614
-0.006827021813276879
0.08924405051652994
0.08666579704978004
0.1252691229085845
0.1015342504832643
0.1445857372149155
0.1115030132014281
0.1074684845765839
0.1590184247294225
0.0573632270871029
0.03421433398553246
0.1060891653145831
0.06871327505476636
0.1348742624807003
0.09872041225618158
0.09400497867716603
0.1618975056599673
0.02026326426257258
0.008130277075271086
0.07258346558181152
0.02461844752144657
0.1182177647737621
0.06207023209776255
0.05552278413209585
0.1645743263118988
-0.003331933366766876
0.01853208022209522
0.08345929390475784
0.1436203145130717
0.1384371412263614
-0.1601595191104193
0.200599652172023
0.1250682098212598
-0.12242580847202
0.1774578872403632
0.1035276187794616
-0.1062020788382826
0.1481915106938535
-0.06117287154017649
0.07342562500672462
0.09989940912221935
0.1301176552128081
-0.1286280714978209
0.1152384511503273
-0.08384174081147031
0.1023912327101825
-0.0545236313586034
-0.01903134363479404
0.08206098858504565
0.1247989767639203
-0.08356449680391048
0.07379185653900169
-0.03104545084607627
0.03725757361221221
-0.01454831429379442
-0.002838679363348081
0.03312703335746621
0.05929121566435363
0.02540025546541502
0.0132175045486934
0.01327987158375526
0.0145640144441814
-0.002747103285717853
0.01100856762253821
-0.004709287685590625
0.001207711830729069
-0.00629184053813037
-0.01152765622789616
9.547918011776346e-15
0.04298964188363775
-0.0001272661417414493
0.04457460545492632
0.000491738722605873
0.02319349827559447
0.004600916031862516
0.006577729090416047
-5.176414852314792e-15
0.07635269098403222
0.01722201806133751
0.0704657612319345
0.01298396733778868
0.04645953830553375
0.01260193390465175
0.02009005618968857
-2.109423746787797e-15
0.06092366711165591
0.0484183320112843
0.02871652948091794
-3.226585665316861e-15
-0.01152765622788926
-0.001207711830732525
0.006577729090418996
-0.02319349827562448
0.02009005618967567
-0.04645953830553856
-0.0287165294809235
0.02322018860003137
-0.006291840538132611
-0.01100856762257159
0.004600916031856098
-0.04457460545494586
0.0126019339046452
-0.07046576123192459
-0.04841833201126815
0.0224835992062614
-0.004709287685589928
-0.01456401444420531
0.0004917387226095367
-0.04298964188364344
0.01298396733780381
-0.07635269098404157
-0.06092366711165632
0.02703739489050006
-0.002747103285709877
-0.01327987158376419
-0.0001272661417357941
-0.03312703335747737
0.01722201806132563
-0.08206098858505517
-0.07342562500673211
0.03379939419350271
-0.103527618779447
-0.06117287154016703
0.09989940912221204
-0.1250682098212297
-0.1062020788382435
0.148191510693821
-0.13843714122634
-0.1224258084719713
0.1774578872403538
-0.1601595191103973
-0.1590184247293899
0.2005996521719955
-0.1023912327101974
-0.01903134363479344
-0.1152384511503059
-0.05452363135860194
-0.1301176552127758
-0.08384174081145061
-0.1286280714978038
-0.1618975056599427
-0.0372575736122058
-0.002838679363352685
-0.07379185653900623
-0.01454831429379598
-0.1247989767638975
-0.03104545084607416
-0.0835644968038913
-0.1645743263118713
-0.01321750454869161
-0.02540025546541132
-0.05929121566434592
-0.143620314513046
-0.0834592939047345
-0.05552278413207684
-0.01853208022209892
-0.06207023209769363
0.003331933366742583
-0.02461844752141976
-0.008130277075312248
0.006827021813290837
-0.1182177647737278
-0.09400497867714214
-0.07258346558179031
-0.09872041225609976
-0.02026326426262301
-0.06871327505468869
-0.03421433398568141
0.004241029183289315
-0.1348742624806659
-0.1074684845765628
-0.1060891653145441
-0.1115030132013025
-0.05736322708716009
-0.1015342504831363
-0.08666579705011955
-0.001394912191218498
-0.1445857372148883
-0.1252691229085491
-0.08924405051657487
-0.01466637336135216
-0.003241716649222726
-0.003412530742456579
-0.000541344874485896
-0.006275027485792353
-0.0002654178257290411
-0.002439250111342717
0.001395977974099787
0.0002700366955060551
0.0006984361462563787
-0.004238157576674194
0.003042475123740323
-0.008696255181888837
0.002050619315369168
-0.005336585642196537
-0.001446943466029194
-0.0001496167246381151
0.003133387298223426
-0.0006330918411841108
0.003388006830585084
-0.006510943947589054
0.001888347061404019
-0.0051635489123774
-0.00274717227694489
-0.0004906212569525496
0.004968649060045262
0.003229185075185057
0.001850589641024067
-0.0009521572774828686
-0.005441121043529189
0.0001621731624574518
-0.03087984132147092
-0.02224069520167613
-0.1509956457094862
-0.1944222341506524
-0.7215436488827485
-0.2545943039354293
-0.004915781847652966
-0.0009952149737682686
-0.01738513741306106
-0.006090298268588326
-0.1108586852372004
-0.08908008397422196
-0.5470269208827558
-0.2769129566718954
-0.004357541014351452
-0.001399922572491386
-0.00939996912082555
0.002678117875245078
-0.0638938039911794
-0.02511619100000879
-0.2886007986322226
-0.319423316079624
-0.002412347283492954
0.001876125922497036
-0.02063751266746756
-0.310896071718785
-0.2012701151603785
0.2322981439427708
-0.1768227113615959
0.1043538227234808
-0.1674136701185236
0.03288176864462256
0.01239202536853257
-0.1644351209471849
-0.2042222662024856
0.1623193661035577
-0.1836632192231019
0.08994390704283184
-0.1729783414583835
0.02518740255877905
0.01051060191543429
-0.169641651706555
-0.2120306770804437
0.05759779762464445
-0.1834922279796593
0.06657579097306754
-0.1734892102953946
0.01702204118943396
0.006443493914113474
-0.1698781634470201
-0.250638542908192
-0.1815056317844391
-0.1614938065139114
-0.1558581755231004
-0.1646130865751924
0.002633518347472608
-0.1651071872850772
0.001125425557841009
-0.1648608293631592
0.001464275185237618
0.00141589043860868
-0.1636127397422977
-0.1696400597100086
0.003999803133095892
-0.1696583167452715
0.00309369331245124
-0.1692017831835671
0.003371243542656943
0.003952974763934636
-0.1670005133449267
-0.1698090427664967
0.003438469791178456
-0.1697872138666029
0.002776989632971794
-0.1693865233636213
0.003513296391831955
0.004989822098196539
-0.1669578112914789
-0.1554387742526927
-0.1554807802043903
-0.1542040917146374
-0.1483111154873119
-0.1599301251134931
0.01322843793024198
-0.1542190067741833
0.03206358503849049
-0.1485315395859373
0.0624218994583482
0.06582547918893178
-0.1363936194595657
-0.1612758091339132
0.01263005093679759
-0.1526519734517644
0.02674476557107675
-0.1383026983846021
0.0442275808922401
0.04271449405608019
-0.1188470119971273
-0.1596067108230078
0.01049364129000319
-0.1427733480446005
0.01264637095655441
-0.1168630955763977
0.01705821967590926
0.02747834990227027
-0.1019726926604759
-0.1356107471056493
-0.1227129011939993
-0.1052229510766034
-0.07560140537381378
-0.1401725524173226
-0.08311556496783951
-0.1399968896763084
-0.001025980904761636
-0.1399968897970555
-1.047732706149773e-08
5.605696351551614e-09
-0.1399969180664125
-0.1403478047985684
-0.07272892613210996
-0.139996890966171
-0.002431751757390022
-0.139996891047641
-1.116781944698886e-08
9.610671813931049e-09
-0.1399969338082349
-0.1398564412980693
-0.0462300681110337
-0.1399968920122373
-0.00401713469001902
-0.1399968918586537
-7.001788537852605e-09
1.599980736788353e-08
-0.1399969509111995
-0.1334443470770003
-0.1399968924669543
-0.1399968934367268
-0.1399968937484733
-0.1400015225224737
-7.284355750813987e-07
-0.1401516182802422
-4.093002624344644e-05
-0.141263487545094
-0.0004662960415044437
-0.001894634330960321
-0.1440198706288555
-0.1400050310712348
5.564644628419657e-08
-0.1402472769009284
2.999602760289655e-06
-0.1417936394345551
1.239396194413489e-05
-0.0002434089020941776
-0.1452631969437511
-0.1400088669645838