/*--------------------------------*- C++ -*----------------------------------*\
  =========                 |
  \\      /  F ield         | OpenFOAM: The Open Source CFD Toolbox
   \\    /   O peration     | Website:  https://openfoam.org
    \\  /    A nd           | Version:  11
     \\/     M anipulation  |
\*---------------------------------------------------------------------------*/
FoamFile
{
    format      ascii;
    class       volVectorField;
    location    "0.0575";
    object      U;
}
// * * * * * * * * * * * * * * * * * * * * * * * * * * * * * * * * * * * * * //

dimensions      [0 1 -1 0 0 0 0];

internalField   nonuniform List<vector> 
880
(
(25 -2.037219368215984e-15 0)
(25 0 0)
(25.00000000022242 -4.028332523308177e-09 0)
(24.99999858833785 1.178171194170477e-06 0)
(25 3.019439879028123e-16 0)
(25 -5.700355202308938e-15 0)
(24.9999999275135 -1.28035822194736e-07 0)
(25.00001801627736 -7.40946906762674e-05 0)
(25 2.109420934437478e-15 0)
(24.99999999999999 9.284444261634317e-14 0)
(25.00000006108379 8.913109638084903e-07 0)
(24.99990198040564 -0.001345724665136643 0)
(25.00000000000002 1.746836961919178e-15 0)
(24.99999999999699 -1.124811989720159e-12 0)
(24.99998632285113 -9.678292236743993e-06 0)
(24.98270008155372 -0.008831875418302422 0)
(25 -3.315382019201816e-15 0)
(25 6.424026320435679e-14 0)
(25.00000000000004 -1.897393807694268e-12 0)
(24.99999999811402 -3.481931271600402e-09 0)
(25.00000000004657 -3.331437564256272e-12 0)
(24.99999999942 2.266773717714637e-10 0)
(25.00000000503688 -3.126621498089138e-09 0)
(24.99999989836403 2.432714159799609e-08 0)
(24.9998777992942 5.961937162857029e-05 0)
(24.99968590612561 0.0002252627569187853 0)
(24.99999261550212 0.001139222025292615 0)
(24.99859534823201 -0.00211783649118093 0)
(24.86830375918168 0.09512194230215679 0)
(24.70552017042196 0.3521282291667792 0)
(24.65887107433112 0.6109000443932838 0)
(24.68298936016676 0.7646097169482282 0)
(24.99999990344683 -1.213657051808886e-07 0)
(24.99999976651952 -2.561508585687351e-07 0)
(24.99999973373403 -2.735175371295554e-07 0)
(24.99999987124761 -1.326384252765595e-07 0)
(24.9999973842156 5.519784248737035e-06 0)
(24.99999834866813 1.173804298913027e-05 0)
(24.99999869569515 1.288590492775758e-05 0)
(24.99999578037341 7.978483280864999e-06 0)
(24.99830843518347 0.005133894609097592 0)
(24.99853113823939 0.007050682961468316 0)
(24.99855506791345 0.007330127309591366 0)
(24.99734346722002 0.006644742818378365 0)
(24.7000408446084 0.8649832431741252 0)
(24.73543201308166 0.9890513428810681 0)
(24.74599973027472 0.9869832872933295 0)
(24.72200856458525 1.084034566519471 0)
(25.0433573715105 1.049088253707194 0)
(25.25312327243667 0.7346863204991111 0)
(25.2662085814289 0.4027340138223544 0)
(25.17182911230827 0.1830624341856096 0)
(24.99863814903416 0.01325540772176297 0)
(25.00003241146773 0.01543389712736073 0)
(25.00251016081585 0.01182969503054025 0)
(25.00259074516493 0.005329027116660117 0)
(24.99999721528528 3.249319800281083e-05 0)
(25.00000059364594 3.902825277277018e-05 0)
(25.00000534483416 3.089655541113531e-05 0)
(25.00000531988739 1.376591273373963e-05 0)
(24.99999932108099 -7.189929853646679e-07 0)
(24.99999920362648 -7.10848193748936e-07 0)
(24.99999935227057 -4.907152659761439e-07 0)
(24.99999970314629 -1.867672660000563e-07 0)
(24.99999994407447 -3.049708480731165e-08 0)
(24.99999999693857 -1.495685507735e-09 0)
(24.99999999997068 -1.453902694837595e-11 0)
(25 -5.284580818249275e-13 0)
(25.0000015397026 2.650620873366134e-06 0)
(25.00000011544409 1.549919227019179e-07 0)
(25.00000000164523 1.877482961689525e-09 0)
(25.00000000000447 -3.105566216320242e-11 0)
(25.00087089232794 0.001182394125946106 0)
(25.00008582032268 9.030598446660545e-05 0)
(25.00000174782127 1.565806632138912e-06 0)
(25.0000000046785 2.805928900575881e-09 0)
(25.06497538645281 0.05482679903125327 0)
(25.01029610939474 0.00743823621779991 0)
(25.00044493014948 0.0003020304579972773 0)
(25.00000333814644 2.495157618973769e-06 0)
(24.99999996089358 5.497766951468023e-08 0)
(24.9999999995858 -5.258631067028141e-10 0)
(24.99999999999009 -8.044493951505084e-12 0)
(25 -4.12466385166565e-17 0)
(25.00000035757288 -1.017477856409276e-06 0)
(25.00000001416495 -5.627344949550155e-08 0)
(25.00000000144238 -1.680079013203445e-09 0)
(25.00000000000195 -3.408395539679676e-12 0)
(24.99946417711785 0.0001468177245715657 0)
(24.99999736116473 1.595731901835796e-06 0)
(25.00000000243178 3.988681801177249e-08 0)
(24.99999999857307 6.110830057343316e-10 0)
(24.84646346458089 0.2093065280996923 0)
(25.00002505568358 0.0004944671305148354 0)
(25.00001879386288 -2.661768233170304e-05 0)
(25.00000030259484 -1.244324147510108e-06 0)
(24.99999963219976 -4.433662490426453e-07 0)
(24.99998497950813 -1.010067882618532e-05 0)
(24.99109291676115 0.003486284886110136 0)
(23.17321798232292 0.7831758904874899 0)
(24.99999942535284 -9.38892795668726e-07 0)
(24.99997035830216 3.519735648000279e-05 0)
(24.98117316067603 0.01764703229634988 0)
(22.66450367588378 1.937932843128124 0)
(24.99999855229505 -1.923910107560697e-06 0)
(24.99996662862481 8.193447385377338e-05 0)
(24.97704064399926 0.03521561384774801 0)
(22.55327615663192 2.955248371888 0)
(24.99999794328958 -2.695963707271505e-06 0)
(24.99996077907691 0.0001142691142434173 0)
(24.97471711126971 0.04710383787523104 0)
(22.64801659375654 3.477398706736773 0)
(22.5564941325855 3.752433504560784 0)
(24.96971101712662 0.05555822259015047 0)
(24.99994736756489 0.0001443442624610569 0)
(24.99999739224182 -3.502288621685409e-06 0)
(22.50128134550722 3.950978474747143 0)
(24.96564117488589 0.06694934428516326 0)
(24.99993790921858 0.0001929550788155565 0)
(24.99999629492497 -4.709771557979553e-06 0)
(22.30882544001286 4.173205439180198 0)
(24.95588897479416 0.07832298328880881 0)
(24.9999038089741 0.0002402799686507979 0)
(24.99999559029886 -6.067235223464724e-06 0)
(22.18651491926958 4.400248013774229 0)
(24.95009977392457 0.09879015115930977 0)
(24.99989656729047 0.0003600197875357158 0)
(24.99999265187033 -9.091092257088189e-06 0)
(24.99999262805207 -9.913491881609972e-06 0)
(24.99986956940293 0.0003646057102969488 0)
(24.93764204675705 0.1134795062789542 0)
(21.9047042903045 4.835386771634163 0)
(24.99998992267837 -1.323027250004357e-05 0)
(24.99983137073503 0.0004986331753001232 0)
(24.9301462449149 0.1390785163273432 0)
(21.995857696574 5.006324186652685 0)
(24.99998767271359 -1.698818245794527e-05 0)
(24.99982984700012 0.000572719424512683 0)
(24.93744573728006 0.1353478426089566 0)
(22.65546677018135 4.477954179171566 0)
(24.99999277687568 -9.585662621868027e-06 0)
(24.9999060066015 0.0002967454887703658 0)
(24.98310555091954 0.07876431465734353 0)
(24.15662638646073 2.952829736747536 0)
(24.99998230619165 -2.278061910996226e-05 0)
(24.99966795426263 0.001321613573738182 0)
(25.06332936188032 0.04478909782615213 0)
(26.14461714240324 1.059694384086045 0)
(24.99999746230723 -1.271557474148027e-05 0)
(24.99968951337977 -0.000653369737415227 0)
(25.00428083612593 -0.04841279249649166 0)
(25.10196731241003 -1.207936882051713 0)
(24.99999845378749 -2.225072402506148e-06 0)
(24.99926525407637 -0.0009313373399035763 0)
(24.90488749958825 -0.09656314429961405 0)
(22.80166759081062 -2.109610575930279 0)
(24.99999807223883 -2.560705706703654e-06 0)
(24.99841981976139 -0.001147396901896445 0)
(24.77024703181386 -0.09697263117938064 0)
(20.55833884457572 -1.344793016806263 0)
(20.11804811933523 -0.6358147795135065 0)
(24.81528907616991 -0.08640324887628612 0)
(24.99923494985754 -0.0008110334802645888 0)
(24.99999902967502 -1.923486865288635e-06 0)
(20.34142088006531 0.1231903118974613 0)
(24.82767222430905 -0.05327966856410039 0)
(24.99923547555058 -0.0005812888213196639 0)
(24.99999896757665 -1.432720829283961e-06 0)
(20.95439804495283 0.08213687691955616 0)
(24.88860308445063 -0.04467688601739272 0)
(24.9996494425354 -0.0003506546482254675 0)
(24.99999962583557 -7.507806467223842e-07 0)
(20.64561001511496 0.3206371343703635 0)
(24.86841033757545 -0.03747125821171595 0)
(24.99954865501246 -0.0003536553319007044 0)
(24.99999943865407 -7.91504376739982e-07 0)
(22.3687600072233 0.4648990339712373 0)
(24.94350781203288 -0.01931162427257829 0)
(24.99984483853882 -0.000123859686980069 0)
(24.99999982912074 -2.590735086520432e-07 0)
(23.90413728452484 0.3500891278471792 0)
(24.98662893221737 -0.0057348531487412 0)
(24.99997576448127 -2.175343861194078e-05 0)
(24.99999997569065 -3.607313663104887e-08 0)
(24.75041948931451 -0.07521535280438464 0)
(24.99877219272948 -0.002893263074468917 0)
(24.99999859085892 -8.502864588568801e-06 0)
(24.9999999991375 -1.409546622812806e-08 0)
(24.96986269314461 -0.2940745700345629 0)
(25.00030849035932 -0.003309093625896342 0)
(25.00000180696264 -1.106831298585229e-05 0)
(25.00000000070615 -1.985029407645192e-08 0)
(24.34886742827771 -0.01187849823765345 0)
(24.98564774700383 -5.024101118014621e-05 0)
(24.9999060662146 -8.116042213594227e-08 0)
(24.99999971116521 -7.928519079576656e-11 0)
(24.35811675830399 -0.0402747396188252 0)
(24.98579840124954 -0.0001763127551371143 0)
(24.99990638886455 -3.080651527260829e-07 0)
(24.99999971161299 -3.081809765221722e-10 0)
(24.36368596903399 -0.07760345645198015 0)
(24.98598221182349 -0.0003596871171171573 0)
(24.99990700107557 -6.193227703615025e-07 0)
(24.99999971283588 -5.439439062556527e-10 0)
(24.35350254147808 -0.05380632279363474 0)
(24.98619515827706 6.629796147548595e-06 0)
(24.99990863096931 1.306458634767697e-07 0)
(24.99999971899071 -5.341705255302628e-10 0)
(24.969862693142 0.2940745700316017 0)
(25.00030849037938 0.003309093619285676 0)
(25.00000180698798 1.106830331181724e-05 0)
(25.00000000072838 1.985206162097715e-08 0)
(24.75041948931411 0.07521535279408409 0)
(24.99877219275967 0.002893263072462674 0)
(24.99999859088761 8.502867843781522e-06 0)
(24.99999999914377 1.409608403894335e-08 0)
(23.90413728453732 -0.3500891278468305 0)
(24.98662893223889 0.005734853155993032 0)
(24.99997576448164 2.175344758857157e-05 0)
(24.99999997569749 3.607361790513848e-08 0)
(22.3687600072031 -0.4648990339685938 0)
(24.94350781205217 0.01931162427833823 0)
(24.9998448385293 0.0001238596871287323 0)
(24.9999998291187 2.590744554338446e-07 0)
(24.99999902965155 1.923494529308622e-06 0)
(24.9992349498577 0.0008110334785470436 0)
(24.81528907618943 0.0864032487851087 0)
(20.11804811931271 0.6358147795017192 0)
(24.99999896758329 1.432718280664511e-06 0)
(24.99923547553945 0.0005812888290799867 0)
(24.82767222424653 0.05327966861172904 0)
(20.34142088001917 -0.1231903118889408 0)
(24.99999962583014 7.507802382162903e-07 0)
(24.99964944254194 0.0003506546476089444 0)
(24.88860308446397 0.04467688603371728 0)
(20.95439804494659 -0.08213687691782409 0)
(24.99999943865048 7.915047887799089e-07 0)
(24.99954865499562 0.0003536553226077806 0)
(24.86841033757738 0.03747125821346545 0)
(20.64561001510783 -0.3206371343930719 0)
(20.55833884451921 1.344793016833359 0)
(24.77024703180723 0.0969726312097149 0)
(24.99841981977075 0.001147396902202806 0)
(24.99999807223966 2.560699673240459e-06 0)
(22.80166759078147 2.109610575934636 0)
(24.90488749958525 0.0965631443009268 0)
(24.99926525406749 0.0009313373354179374 0)
(24.9999984537917 2.225056295171783e-06 0)
(25.10196731239664 1.207936882063731 0)
(25.00428083612153 0.04841279248886328 0)
(24.99968951338947 0.0006533697360328933 0)
(24.99999746228893 1.271559921163947e-05 0)
(26.14461714240274 -1.059694384083115 0)
(25.06332936189476 -0.04478909782009347 0)
(24.99966795428166 -0.001321613563334399 0)
(24.99998230617727 2.278061373803049e-05 0)
(24.99999262805672 9.91349393196716e-06 0)
(24.99986956937128 -0.0003646057098352977 0)
(24.93764204673526 -0.113479506282403 0)
(21.90470429031414 -4.835386771656109 0)
(24.99998992266996 1.323027476900434e-05 0)
(24.99983137075824 -0.0004986331748875462 0)
(24.93014624490071 -0.1390785163312987 0)
(21.99585769654975 -5.006324186664841 0)
(24.99998767272651 1.698818706943026e-05 0)
(24.999829846992 -0.0005727194299661839 0)
(24.93744573727741 -0.1353478426068693 0)
(22.65546677018491 -4.477954179167293 0)
(24.99999277687459 9.585656232617695e-06 0)
(24.9999060066049 -0.00029674548378146 0)
(24.98310555092018 -0.07876431465671623 0)
(24.15662638646438 -2.952829736749893 0)
(22.18651491926019 -4.400248013794317 0)
(24.95009977394816 -0.09879015115829345 0)
(24.99989656728259 -0.0003600197836409573 0)
(24.99999265183855 9.091091178483461e-06 0)
(22.30882544000552 -4.173205439190808 0)
(24.95588897477182 -0.0783229832864632 0)
(24.99990380897368 -0.0002402799719767706 0)
(24.99999559030018 6.067234183746162e-06 0)
(22.50128134550546 -3.950978474752495 0)
(24.96564117491249 -0.06694934428607596 0)
(24.99993790921832 -0.0001929550775261502 0)
(24.99999629492273 4.70977166510608e-06 0)
(22.5564941325765 -3.752433504565996 0)
(24.9697110170619 -0.0555582225938707 0)
(24.99994736755183 -0.0001443442624525599 0)
(24.99999739223577 3.502288595864587e-06 0)
(24.99999963219513 4.433664940056707e-07 0)
(24.99998497950514 1.010068109475898e-05 0)
(24.99109291676185 -0.003486284889418541 0)
(23.1732179823264 -0.7831758904910926 0)
(24.9999994253328 9.388932353664316e-07 0)
(24.99997035828876 -3.519735650900407e-05 0)
(24.98117316071068 -0.01764703228358299 0)
(22.66450367589752 -1.937932843121799 0)
(24.99999855226844 1.923910239195138e-06 0)
(24.99996662859706 -8.193447156461348e-05 0)
(24.9770406439558 -0.03521561385298323 0)
(22.55327615661144 -2.955248371911285 0)
(24.9999979432919 2.695963700673862e-06 0)
(24.99996077909231 -0.0001142691146993281 0)
(24.97471711132694 -0.04710383787259387 0)
(22.64801659380078 -3.477398706720367 0)
(25.00000030259242 1.244325026235899e-06 0)
(24.999999998576 -6.111036272562125e-10 0)
(25 3.480906562576403e-12 0)
(25 -7.146263930066663e-16 0)
(25.00001879388988 2.661768397023606e-05 0)
(25.00000000244206 -3.988669434316664e-08 0)
(25.00000000145027 1.680196485527157e-09 0)
(24.99999999999401 7.950169767728158e-12 0)
(25.00002505569893 -0.0004944671338712555 0)
(24.99999736115818 -1.595731718503883e-06 0)
(25.00000001417284 5.627245733856758e-08 0)
(24.99999999959016 5.25120740674045e-10 0)
(24.84646346458889 -0.2093065281000274 0)
(24.99946417711644 -0.0001468177225763485 0)
(25.00000035756737 1.017481642277588e-06 0)
(24.99999996089332 -5.49773419150721e-08 0)
(25 5.090512545964797e-13 0)
(25.00000000000225 3.087152216678158e-11 0)
(25.00000000467327 -2.806463795427215e-09 0)
(25.00000333814168 -2.495157429773485e-06 0)
(24.99999999996952 1.450928187828886e-11 0)
(25.00000000163766 -1.878116597117368e-09 0)
(25.00000174781839 -1.565805680057855e-06 0)
(25.00044493014532 -0.0003020304549664081 0)
(24.99999999693925 1.495792467833811e-09 0)
(25.00000011543896 -1.549920328140595e-07 0)
(25.00008582033981 -9.030597947891594e-05 0)
(25.010296109418 -0.007438236212847158 0)
(24.99999994408284 3.049762511779032e-08 0)
(25.00000153970647 -2.650619904300869e-06 0)
(25.0008708923158 -0.001182394134686 0)
(25.0649753864539 -0.05482679903433357 0)
(24.99999932107077 7.189951721195413e-07 0)
(24.9999972153065 -3.249319349922577e-05 0)
(24.99863814903329 -0.01325540772456441 0)
(25.04335737150005 -1.049088253694913 0)
(24.99999920363951 7.108411284426807e-07 0)
(25.00000059363812 -3.902824602844945e-05 0)
(25.00003241145976 -0.01543389712590233 0)
(25.25312327243008 -0.7346863204952302 0)
(24.99999935226545 4.907219797440238e-07 0)
(25.00000534484522 -3.089656078692955e-05 0)
(25.00251016082336 -0.01182969503688796 0)
(25.26620858143474 -0.4027340138368767 0)
(24.99999970314899 1.867661368110083e-07 0)
(25.00000531989347 -1.376591002856355e-05 0)
(25.00259074516087 -0.005329027110238846 0)
(25.17182911232958 -0.1830624341772437 0)
(24.72200856459395 -1.08403456651435 0)
(24.9973434672235 -0.006644742828167086 0)
(24.99999578038634 -7.978476127924819e-06 0)
(24.99999987124345 1.326351191724016e-07 0)
(24.74599973028429 -0.9869832872983239 0)
(24.99855506789647 -0.007330127317950301 0)
(24.99999869572007 -1.288590040755056e-05 0)
(24.9999997337343 2.73517275962625e-07 0)
(24.73543201307263 -0.9890513428790749 0)
(24.99853113821234 -0.007050682959864814 0)
(24.99999834869877 -1.173804348843615e-05 0)
(24.99999976652863 2.561521241564794e-07 0)
(24.700040844627 -0.8649832431710678 0)
(24.99830843521981 -0.005133894574267673 0)
(24.99999738422261 -5.519789619789542e-06 0)
(24.99999990342657 1.213626472348352e-07 0)
(24.68298936017485 -0.7646097169506488 0)
(24.99859534820517 0.002117836455688034 0)
(24.99999989836336 -2.43234367809951e-08 0)
(24.99999999810665 3.484040696666084e-09 0)
(24.65887107433874 -0.6109000443924602 0)
(24.99999261551635 -0.001139222006924454 0)
(25.00000000505315 3.121870924332913e-09 0)
(25 1.940480513555957e-12 0)
(24.70552017043292 -0.3521282291668554 0)
(24.99968590613134 -0.0002252627553355621 0)
(24.99999999942338 -2.261716064093103e-10 0)
(25 -8.290490796327753e-14 0)
(24.86830375919499 -0.09512194230128194 0)
(24.99987779930434 -5.96193721779474e-05 0)
(25.00000000004689 3.309778814939471e-12 0)
(25 3.597094361220146e-16 0)
(25.00000000000001 1.4885541433014e-15 0)
(25 3.06863416996563e-15 0)
(25.00000000021348 4.030454726520752e-09 0)
(24.99999858833841 -1.178171626465502e-06 0)
(25 -1.128058676776928e-15 0)
(25 2.45367654451848e-15 0)
(24.99999992751401 1.280335576377296e-07 0)
(25.00001801627525 7.409469469875364e-05 0)
(25 0 0)
(25 -1.717178890373968e-13 0)
(25.00000006108307 -8.913125074377768e-07 0)
(24.99990198040166 0.001345724662317993 0)
(25 2.874613991711109e-15 0)
(25.00000000000006 1.15700829062349e-12 0)
(24.99998632285747 9.678290997659577e-06 0)
(24.98270008156388 0.008831875405112594 0)
(24.99999944927658 -1.716299719617759e-11 0)
(24.99997162465886 1.799433522095291e-05 0)
(24.99562888591324 -4.856531853527934e-05 0)
(24.89829571134051 -0.02417562105239815 0)
(24.99997162467083 -1.799432306610028e-05 0)
(24.99829573137443 2.342985024519268e-11 0)
(24.9530832855712 -0.01147074526107778 0)
(24.47774937626495 -0.1924760578237194 0)
(24.99562888591431 4.856530625796478e-05 0)
(24.95308328557904 0.01147074525926135 0)
(24.58639583642519 -1.793843531125307e-11 0)
(23.03258726336589 -0.3741383899015774 0)
(24.89829571132813 0.02417562104163356 0)
(24.47774937625391 0.1924760578078391 0)
(23.03258726335392 0.3741383898813367 0)
(20.57936618500578 -8.288508992204706e-12 0)
(19.72060199716332 2.681378060929188 0)
(20.48152731465363 3.132387037788693 0)
(22.40831954493528 2.448920878955245 0)
(23.72825100962138 1.352062030096372 0)
(20.8033497799768 4.706630194533616 0)
(20.95068457531386 4.632770910318846 0)
(21.71802098820659 4.348979442616983 0)
(22.70666765774194 3.718588950655883 0)
(21.41727336354492 5.569493816535787 0)
(21.99968190917048 5.084811698152133 0)
(22.52360328938176 5.065072761888896 0)
(23.06923634531775 4.824476302348756 0)
(21.88068549296954 5.548484537336133 0)
(22.89218208740136 5.549694973920063 0)
(23.16443016617034 5.507133271246631 0)
(23.38086913130285 5.319864978248738 0)
(23.53733289001959 5.592055018179244 0)
(23.6338162411405 5.697537591928931 0)
(23.65716623905352 5.695771929968129 0)
(23.58152881491139 5.804396080081789 0)
(23.51954722270531 5.764775013426724 0)
(23.69260245334188 5.85808602976766 0)
(23.74462940476002 5.840449915639365 0)
(23.85885608754822 6.175881481745812 0)
(23.39410548218081 5.753903218178981 0)
(23.60231498373046 5.818085891941201 0)
(23.65728417519806 5.788898795176536 0)
(24.96238307286906 6.263331293444897 0)
(22.17232188093705 5.618774050645976 0)
(22.38556185854465 5.646771882355024 0)
(22.50176048424764 5.686679777151523 0)
(26.2869209848618 7.334236920982558 0)
(26.41495866240382 3.421207437332049 0)
(26.85727801006878 0.9807334552500593 0)
(26.07792101334147 0.3498346123323905 0)
(25.54887903470221 0.2100142597886428 0)
(28.30154004273998 2.509087114038424 0)
(27.86558164833048 0.363043170029449 0)
(26.65002525581809 0.06213556632342054 0)
(25.88713206728105 0.0696146189769056 0)
(30.97784791420736 1.9926233228096 0)
(28.76099200166283 0.05559537345205651 0)
(27.11742698548896 -0.1186432146910314 0)
(26.19338459725754 -0.06229325297431134 0)
(24.63960451526586 1.361854755234676 0)
(23.22283436751187 0.4105161974729794 0)
(23.72422648818574 -0.4524866088304754 0)
(24.50200267603897 -0.4914914743768354 0)
(25.2130803780529 0.09469293486974384 0)
(25.04689423206232 0.02005963172196866 0)
(25.00385830428624 0.001383960600538414 0)
(25.00007859424165 1.868447590413463e-05 0)
(25.36583050096721 0.05399067590724727 0)
(25.08356271930886 0.01905285466958494 0)
(25.00708082253327 0.001832053068713892 0)
(25.00014221566079 3.46155730283107e-05 0)
(25.52383112511085 -0.04589519997557823 0)
(25.12593913742914 -0.0169390733457107 0)
(25.01102270773696 -0.001694221185841213 0)
(25.00022350206564 -3.409606458643256e-05 0)
(24.81320734415223 -0.2671599602659169 0)
(24.96333247863394 -0.06639547988384084 0)
(24.997613273746 -0.004565797495964558 0)
(24.99996441500025 -6.113316175594981e-05 0)
(25.00000028207539 -2.928531572548764e-07 0)
(24.99999959995738 4.502003694127901e-07 0)
(24.99206074522009 0.02066762429588911 0)
(22.4690114449312 2.78131238161782 0)
(25.0000003882905 -3.106512412106198e-07 0)
(24.99999988128228 5.37789592203135e-07 0)
(24.98207970670785 0.06539335604745339 0)
(20.28997534125891 2.951303747442073 0)
(25.00000054074071 -4.939580270049002e-07 0)
(24.9999999164766 3.770185033386594e-07 0)
(24.90191001250534 0.1352981433285198 0)
(18.29792601487912 1.896798067261257 0)
(24.99999946446123 -1.723838515075256e-07 0)
(24.99999993649197 1.585343396959632e-07 0)
(24.59984818439373 0.1006095102001619 0)
(14.11324020866082 0.8472930035787002 0)
(15.90268253309279 7.705561250440736 0)
(17.09748589917695 8.893297402842981 0)
(17.36970016107466 10.06590835361883 0)
(17.56479396680357 10.83052259653899 0)
(13.50855617391919 7.763629425741812 0)
(15.94299182327665 9.264619669755172 0)
(16.91786057922516 10.4708613309796 0)
(17.32997640199486 11.1664646106582 0)
(11.32044800684865 6.908251587060244 0)
(14.42498961687098 9.133114672971612 0)
(16.3304590932752 10.52421247493885 0)
(17.12610786851364 11.16931826274204 0)
(9.54518679574775 3.633360951398178 0)
(12.49102019060556 6.727444891804001 0)
(13.7450465284944 9.385793908450102 0)
(14.91599189197457 10.37407123160778 0)
(17.56862539046221 11.19199458767834 0)
(17.59526634567946 11.26405027232629 0)
(17.53571919044227 11.31469778518413 0)
(17.52032225257255 11.34078441288098 0)
(17.43738573899247 11.5098886179045 0)
(17.5151153055903 11.55670341601867 0)
(17.5180158869907 11.56077869789583 0)
(17.54363692368234 11.53893132837342 0)
(17.35086146940962 11.44847290813146 0)
(17.41015843080602 11.51109360787317 0)
(17.40551279119477 11.5239678967892 0)
(17.42112079988508 11.51486982184078 0)
(15.66677614438005 10.64105130643022 0)
(15.88652574483665 10.70564566720769 0)
(15.91643907298963 10.70678014013624 0)
(15.86770693509939 10.67950317650639 0)
(17.40341485914273 11.44058470563953 0)
(17.77022392444225 11.28318072236627 0)
(19.16936936888235 10.34478628539035 0)
(21.93915294062794 7.81491030192392 0)
(17.51492309161364 11.54978061620055 0)
(17.92427145807636 11.37899180122226 0)
(19.46419374943407 10.76281592439993 0)
(22.35311131864577 10.01619040953597 0)
(17.40239859863019 11.51724133521345 0)
(17.71762702156291 11.43383508909477 0)
(19.73919608875495 11.30369954720362 0)
(26.86981419706002 15.44288108380702 0)
(16.01134735675536 10.77323767058533 0)
(16.63535878661714 10.73946597237666 0)
(19.86280683046786 11.63106944521636 0)
(36.24333032184014 20.62734209786091 0)
(26.57964644142423 3.048333353499111 0)
(20.60277351963311 -6.346567424326345 0)
(5.839406293296856 -5.230319458725163 0)
(2.262416764091858 -0.9651391844018017 0)
(26.48041877430987 2.965134262690003 0)
(16.40378843618897 -7.07284018735364 0)
(1.654978779935906 -6.527700041625112 0)
(-0.6300962872986157 -1.321816169920211 0)
(28.37391827088964 0.9433615252236873 0)
(8.85289792295867 -9.120021286490111 0)
(-0.06714916983096735 -4.919771055533167 0)
(0.1493725076912217 -1.270584916009675 0)
(18.38702055628504 -8.608739859045464 0)
(1.444386909992388 -4.681958087955146 0)
(-1.378462596624706 -2.30261426910643 0)
(-0.1229384235809489 -1.181035354642882 0)
(1.851229711460642 0.04267807614033569 0)
(2.381866401292104 0.7626805607976516 0)
(2.935087499160855 0.9206942868297924 0)
(2.112369483410407 1.886579216032348 0)
(-0.857612005878286 0.3018778058150217 0)
(-0.06615345678350464 1.706925777992009 0)
(0.9018687094443621 2.463278842249064 0)
(0.5351910437037816 3.466838071629566 0)
(0.3644542391106254 0.2894736266091706 0)
(0.85136205298645 1.809069162067916 0)
(1.20067021005602 3.168882396838426 0)
(0.3162308527179027 4.723958279655641 0)
(0.1216175576777537 0.245803749081857 0)
(0.3497312119814152 1.758331687666295 0)
(1.164434703116749 3.280012018100904 0)
(-0.030916229689928 5.366639881471623 0)
(16.87609108830524 -6.488588918713947 0)
(21.85552024665352 -4.914918540462983 0)
(23.8938597611418 -4.717460375792613 0)
(24.74627517104972 -4.635894642373247 0)
(10.41634792356329 -5.421734207560665 0)
(17.65654035130556 -5.732116918362396 0)
(21.76612858914451 -6.156784068965202 0)
(24.81026234751029 -5.078269709765775 0)
(2.300523358883409 -2.871020484609029 0)
(10.09187623560446 -4.30080304357711 0)
(17.43013989092313 -5.773371589137296 0)
(26.22154031876747 -4.08323140251191 0)
(0.8034087825132404 1.146051399191703 0)
(5.588977015041278 2.044488442003725 0)
(14.91701807340759 1.232094381342149 0)
(31.03350378948708 -2.232418603428325 0)
(24.87626513826804 -6.905792936576058 0)
(25.21232821430711 -12.36625257333019 0)
(19.71831170829355 -12.44200463085538 0)
(13.71056964800928 -12.17475811039802 0)
(27.14747058804301 -10.66299232758548 0)
(32.77374379033793 -21.00246637558439 0)
(22.82744154981842 -20.70050633638466 0)
(10.59454193969963 -16.75866424446653 0)
(29.49995314072307 -13.89007544824496 0)
(31.70224489279219 -25.51229252219427 0)
(19.52481440290546 -14.45958321048676 0)
(6.180848707630949 -9.216936396602142 0)
(20.5248693721296 -13.51255023638243 0)
(10.5877104298472 -19.54365957231029 0)
(2.47115294734221 -7.023438475522668 0)
(-0.8119177436708774 -3.469856380589182 0)
(-2.000735723885689 -3.760313775948888 0)
(-2.355693339541116 -3.558552477944702 0)
(-2.241567495308584 -1.436467088010957 0)
(-2.539573673854911 -1.002753305590935 0)
(-0.9519296849802852 -10.28976719341937 0)
(-1.991351960637738 -10.61880337500396 0)
(-1.1531151397696 -6.660281730380661 0)
(-0.6891805257013687 -2.755003577995905 0)
(4.02347170228704 -15.33846532643909 0)
(2.757986618541799 -14.0832573393913 0)
(2.864980140671879 -10.76410072466067 0)
(3.670374669096811 -4.372619067823657 0)
(9.524620194881408 -10.90075072562378 0)
(7.973255558535273 -9.395266813027758 0)
(7.228207636327187 -7.006383930585762 0)
(7.496653318011219 -2.506364928142333 0)
(-2.539573673853966 1.002753305591343 0)
(-0.6891805257009872 2.755003577998042 0)
(3.670374669095991 4.372619067824584 0)
(7.496653318005846 2.506364928143345 0)
(-2.241567495307787 1.436467088015492 0)
(-1.153115139770476 6.660281730385392 0)
(2.864980140669719 10.76410072466167 0)
(7.228207636325415 7.006383930585156 0)
(-2.355693339538588 3.558552477951308 0)
(-1.991351960637928 10.61880337500266 0)
(2.75798661854495 14.08325733938924 0)
(7.973255558540885 9.395266813026348 0)
(-2.00073572388135 3.760313775951713 0)
(-0.9519296849767691 10.28976719342085 0)
(4.023471702284537 15.33846532644183 0)
(9.524620194880288 10.90075072562652 0)
(13.71056964800275 12.17475811039836 0)
(19.71831170827943 12.44200463084319 0)
(25.21232821429353 12.36625257332351 0)
(24.8762651382649 6.905792936574694 0)
(10.59454193969705 16.75866424446286 0)
(22.82744154981055 20.7005063363804 0)
(32.77374379033365 21.00246637557293 0)
(27.14747058804359 10.66299232758698 0)
(6.180848707628765 9.216936396597481 0)
(19.52481440290227 14.45958321048084 0)
(31.70224489278166 25.51229252218808 0)
(29.49995314071937 13.89007544824277 0)
(-0.8119177436694432 3.469856380589215 0)
(2.471152947341895 7.023438475515826 0)
(10.58771042984005 19.54365957230658 0)
(20.52486937212653 13.51255023637875 0)
(31.03350378948212 2.232418603427661 0)
(14.91701807340597 -1.232094381344483 0)
(5.58897701504227 -2.044488442003302 0)
(0.8034087825116083 -1.146051399185932 0)
(26.22154031876486 4.083231402510941 0)
(17.43013989092159 5.773371589133864 0)
(10.09187623560561 4.300803043574661 0)
(2.30052335888324 2.871020484616517 0)
(24.8102623475093 5.078269709764945 0)
(21.76612858914262 6.15678406895969 0)
(17.65654035131004 5.7321169183543 0)
(10.41634792355817 5.421734207580766 0)
(24.74627517104907 4.635894642372152 0)
(23.89385976114217 4.717460375786634 0)
(21.85552024666325 4.914918540459743 0)
(16.87609108827945 6.488588918730994 0)
(2.112369483405811 -1.886579216044752 0)
(2.935087499153929 -0.920694286836268 0)
(2.381866401301716 -0.7626805607965249 0)
(1.851229711441308 -0.04267807614336836 0)
(0.535191043703671 -3.466838071620975 0)
(0.9018687094456896 -2.463278842250083 0)
(-0.06615345676709181 -1.706925777990789 0)
(-0.8576120058751785 -0.301877805814825 0)
(0.31623085271321 -4.723958279653432 0)
(1.200670210057541 -3.168882396839344 0)
(0.8513620529967857 -1.80906916206742 0)
(0.3644542391120452 -0.2894736266084454 0)
(-0.03091622969462876 -5.366639881472192 0)
(1.164434703119224 -3.280012018102402 0)
(0.3497312119867799 -1.758331687667658 0)
(0.1216175576780426 -0.2458037490816561 0)
(2.262416764030038 0.965139184412144 0)
(5.839406293219803 5.230319458681855 0)
(20.60277351952573 6.346567424356079 0)
(26.5796464414135 -3.048333353494708 0)
(-0.6300962873347031 1.321816169918747 0)
(1.654978779896119 6.527700041589684 0)
(16.40378843609777 7.072840187375482 0)
(26.48041877430781 -2.965134262681774 0)
(0.1493725076673649 1.270584916003394 0)
(-0.06714916984562443 4.919771055500599 0)
(8.852897922910278 9.120021286482466 0)
(28.37391827088529 -0.9433615252295666 0)
(-0.122938423593329 1.181035354637577 0)
(-1.378462596626173 2.302614269089587 0)