/*--------------------------------*- C++ -*----------------------------------*\
  =========                 |
  \\      /  F ield         | OpenFOAM: The Open Source CFD Toolbox
   \\    /   O peration     | Website:  https://openfoam.org
    \\  /    A nd           | Version:  11
     \\/     M anipulation  |
\*---------------------------------------------------------------------------*/
FoamFile
{
    format      ascii;
    class       surfaceScalarField;
    location    "0.1655";
    object      phi;
}
// * * * * * * * * * * * * * * * * * * * * * * * * * * * * * * * * * * * * * //

dimensions      [0 3 -1 0 0 0 0];

internalField   nonuniform List<scalar> 
1652
(
2.843686947071611
0.8895636090847481
0
1.954123337988149
0.8895636090834618
-2.220446049250313e-16
1.064559728991532
0.8895636082278688
-1.844524533112235e-12
0.8895465980212509
-2.904099183353992e-11
0.1749978268445778
2.843686947076741
1.779127218162428
1.954123337998014
1.779127218162188
1.064559729317777
1.779127213222967
1.779032971978872
0.175029584984161
2.843686947090741
2.668690827246526
1.954123338008367
2.668690827244593
1.064559731711081
2.668690790375498
2.668334838297375
0.1751782545206338
2.843686947092868
3.558254436328659
1.954123338013004
3.558254436357327
1.064559761811874
3.558253921526209
3.556123423262546
0.1755728586018624
4.418652025448556
2.872852967045247
5.279049614570531
2.872852967043178
6.139447203896093
2.872852967040827
2.872852966871078
6.999844793504417
4.418652017833196
2.012455378099963
5.279049735859259
2.012455374591229
6.139445543281033
2.012455426719157
2.012454828089172
6.999854583036082
4.418652605071897
1.152060686592052
5.27904959620994
1.152050748105042
6.139880266662938
1.151874352508327
1.1528236314229
6.999426414712359
4.43714898371477
0.2492763284903252
5.432285375810316
0.1078900363961002
6.476150009825066
0.04218281806077384
7.529029082096589
0.03213467843824624
6.941512584315144
0.0583319431453877
6.883170052694648
0.0583304603985757
6.824845050891512
0.05831346895180156
0.05831372352862074
6.766513426555725
6.941523595019897
0.1166382116198352
6.883240194423592
0.1165710196855034
6.825036871405749
0.116423042435174
0.1163328343524938
6.766873983429145
6.946668000261102
0.1648532786971365
6.898275290263515
0.158848109728069
6.853640552275976
0.1534954752834075
0.1470677115085342
6.811351200086378
7.617188929294707
0.01789749851959421
7.699135076012464
0.01161110440494661
7.761533266216099
0.01364352032705218
7.817538587642782
0.005672771659645748
7.874368858181473
0.06220161730093698
-0.1719446443924564
7.770069147136117
0.1193543786355279
-0.05478785116416474
7.65441103986122
0.1039454891285615
-0.01181710741444036
0.08741844743952537
7.581549125210073
-0.009307762443051704
6.849058039469918
0.00105175622988829
6.927881354781018
0.003942626151170026
6.978886781400649
0.008154536472548601
0.01064955375417886
6.996957459844308
6.767385954226684
5.615416954951602e-05
6.769289292256222
0.0001961845351927671
6.772702115507029
0.0005246931742197702
0.0008451933498719866
6.775537568671921
6.766516910872299
6.766533806419744
6.766540861811214
6.766531094514865
6.766469515331129
-0.0008811434589193201
6.766421398108371
-0.0008164625312819807
6.766402609638618
-0.0006574050106179508
-0.0004321381009697589
6.76642720301983
6.776033047767121
-0.01008504076720484
6.775492086074873
-0.008668598732834321
6.773849447958298
-0.006865998550422137
-0.004808751726515959
6.77125031104558
6.988404030970083
-0.07082083384030591
6.96563380099462
-0.05399936569970304
6.931208757974673
-0.04032541461812955
-0.02994439366066598
6.888960764099565
7.522567738484828
-0.007610711758315347
7.439448405821492
-0.004101947854413535
7.339761978385207
-0.0004646538885808016
7.231444403051797
0.00061748821937746
0.02196086620664572
7.118377357734282
-0.0004544706002032606
0.002783819796351783
6.843223584487265
0.0002083506648802302
6.768550223066661
6.766473009691961
0.01571028175752393
7.003717182520628
-0.0008669590710846942
0.001172024325119869
6.801041962638102
6.284593710448316e-05
6.76694457157826
6.766506962014723
0.003863192813709726
6.915956251093299
-0.003230954689454502
0.0001926037161408267
6.773823954517199
6.887086572815448e-06
6.76655579035785
6.766519287803171
0.004349235869721579
6.97337061107752
-0.1794015322339275
4.084489347810916e-05
6.770622238152075
2.610918343082247e-06
6.766519113908231
6.76651096210802
0.1555519974614353
6.610959092285133
0.3110465496184425
6.611006119420205
0.4506404668328073
6.621962103963172
7.021470259805594
0.1260348577257421
0.1555404283473324
6.455407506730413
0.3107283684056502
6.455594825692131
0.4180669741875143
6.485196494881029
6.908168236469191
0.1464560682428969
0.1554858308082755
6.299878192380763
0.3098408166533038
6.300482153892257
0.3727991964860212
6.355343955636292
6.797933172829168
0.103352297182704
0.155380744415142
6.144346748917226
0.3081817548562379
6.145582242445263
0.3176985058203491
6.232884769629111
6.637904861231879
0.07977839064194892
-0.2521466502145854
6.394779972064921
0.04530197898330224
-0.3047876903882584
6.108912737408264
-0.1551070102727545
5.99118199723761
5.98888189304501
-0.169191942316672
6.12041190827428
0.02117317800956653
-0.299412651339418
5.99787306294414
-0.1546060073664074
5.838117387998623
5.83344304852776
-0.08153803802408022
5.815208849775927
0.0009885459516958406
-0.2911179815066435
5.877346073783517
-0.1540110904572697
5.684261128233612
5.678006834512813
0.02213398925007248
5.512097074191607
-0.005494037966363052
-0.2785202828726861
5.748513420804978
-0.1526970536831548
5.532373879706446
5.522797400162115
0.1953919936154744
5.323669211859518
0.3494839572615774
5.335238876725388
-0.03212821794855558
5.569411367252715
5.27080191100149
0.01945497724205869
0.1925168010863799
5.125192064231079
0.3240008941977267
5.138765985887675
-0.05152427292139339
5.324130988542556
5.02030567472965
0.05962842642427035
0.1909210264681244
4.918673781232966
0.326720575222753
4.937529439945191
0.1160552918555944
5.083583198048411
4.901087899930838
0.1734367967496986
0.193934773888353
4.728538969153394
0.3500826018708931
4.736860586595339
0.3011170665582378
4.82884295453526
4.791797985366074
0.3508781768606688
-0.348672363888394
5.065800492351205
-0.7724295377598465
5.087039073869262
-1.308986206932574
5.190598534897226
4.868257262621388
-1.41776625184624
-0.3525549062103808
5.40048607670705
-0.7662781206399056
5.445771098272062
-1.077676907767071
5.479590071699529
4.277513531074146
-0.4402852061259006
-0.3457668704112327
5.734094299293478
-0.704593221123732
5.771137064921887
-0.9538615476546741
5.767190800735785
3.558600260569877
-0.04895681060929064
-0.3379452072656907
6.06811848178817
-0.6699285216839119
6.084973776371085
-0.799870318713329
5.973758499705475
3.123967587319467
-0.03648787139942507
0.3400899722917647
3.051108474293418
-0.01793991382706819
0.3370817174949511
6.054162463463217
0.1747073621922448
6.241955726771615
6.242089283019769
0.2970626367963878
3.015686411859597
-0.01290560830581618
0.3303040459487501
6.108305746882166
0.1745079895430129
6.404921664336432
6.416717740146646
0.2773737301759931
2.938408128863777
-0.005745304742374654
0.3287030956621579
6.154253838147633
0.1745379924117482
6.576307807463839
6.591502898873706
0.2515487788683903
2.867769075618246
0.0076029793344577
0.3251230287140849
6.204892941374099
0.1745365149330004
6.747704876355142
6.766395872406154
-0.2212385768391336
3.266922968647973
0.08480385633527747
-0.02683634164765114
6.307937328372901
-0.0004481065082606595
6.756554344581701
6.766472796506104
-0.1624239002290663
3.570029420207839
0.1234583649470984
-0.01311224357838259
6.461129046202107
-0.0001467354707305191
6.762765235018067
6.76650499045541
-0.1166922551279662
3.977147796322055
0.1187937738418752
-0.006257698026320924
6.613984235210753
-5.296012973587949e-05
6.765917542759611
6.766514660988912
-0.09126480172761064
0.1228908330614651
4.471966795312519
-0.00275172480304775
6.670943909258502
-1.845611933726232e-05
6.764551221704542
6.766515274911981
0.9911841817853904
-0.8769325395649834
-0.005402910716253817
9.898837305399866e-11
1.968793493254626
-0.8689073453591858
1.023634510488591e-10
2.857839123396714
-0.8741875928104377
8.105427440341373e-11
-0.874965690066321
-7.979306104743955e-11
0.9875258172833614
-1.691326472633583
-0.007291040682133765
1.969771476104708
-1.734122920465489
2.857858440064053
-1.74830246306659
-1.749931237655705
0.9763137959852985
-2.387971525109097
-0.01534255780725534
1.969857951757624
-2.598933536116873
2.857884450676832
-2.623169426934047
-2.624905024503128
0.9730162420139852
-0.03067927853895966
-2.927976116944792
1.971521179809283
-3.459186543816732
2.857954491803413
-3.498734940961877
-3.499902042077172
-0.09126480172834139
-3.977147796336411
0.1228908330597476
4.471966795329539
-0.00275172481675634
-6.613984235232721
6.67094390927699
-1.845618438078844e-05
-6.765917542767609
6.764551221750203
-6.766514661030744
6.766515275031325
-0.1166922551363692
-3.570029420233552
0.1187937738441935
-0.006257698040736503
-6.461129046214483
-5.296009214994513e-05
-6.762765235050046
-6.766504990388238
-0.1624239002479384
-3.266922968644693
0.1234583649447454
-0.01311224361171015
-6.307937328347093
-0.0001467354863342596
-6.756554344584536
-6.766472796538879
-0.2212385768391661
-2.867769075604153
0.08480385633341529
-0.02683634162679582
-6.204892941366555
-0.0004481064989816375
-6.747704876343692
-6.766395872384765
-0.1747073621967651
6.242089283065645
-6.068118481846184
-0.3370817174914301
6.241955726802029
-6.084973776419142
-0.3400899722846337
6.054162463415873
-5.973758499654531
3.051108474267494
-3.123967587272057
-0.01793991382731694
-0.1745079895128141
6.416717740184956
-0.330304045931378
6.404921664358296
-0.2970626367915425
6.108305746847422
3.015686411836078
-0.01290560830506315
-0.1745379924056717
6.591502898837286
-0.32870309564296
6.576307807477439
-0.2773737301700749
6.154253838131432
2.93840812884704
-0.005745304741636106
-0.1745365149256126
-0.3251230286905804
-0.2515487788592213
0.007602979333007444
0.799870318713553
-3.558600260521029
-0.03648787139942811
0.6699285217107309
-5.767190800707239
0.337945207280841
-5.771137065013941
-5.73409429930509
0.9538615476602322
-4.277513531046258
-0.0489568106081829
0.7045932211461784
-5.479590071682731
0.3457668704217012
-5.445771098349414
-5.400486076697052
1.077676907780761
-4.868257262615034
-0.4402852061239613
0.7662781206664849
-5.190598534893558
0.3525549062186185
-5.087039073907597
-5.065800492358144
1.308986206947717
-4.791797985365443
-1.417766251851371
0.7724295377735063
-4.828842954508245
0.3486723638636441
-4.736860586554889
-4.728538969369176
0.1953919936306772
5.323669211873374
-5.522797400182994
0.349483957302494
5.335238876747646
-5.532373879662835
-0.03212821794832799
5.569411367173122
-5.748513420721712
5.270801910958279
-5.512097074178437
0.01945497724090317
0.1925168010790809
5.125192064263676
0.3240008941951565
5.138765985861005
-0.05152427289844841
5.324130988479827
5.020305674712558
0.05962842642547894
0.1909210264662433
4.918673781882736
0.3267205752382017
4.937529439928523
0.1160552918670644
5.083583198011495
4.901087899926554
0.1734367967532913
0.1939347739036413
0.3500826018963911
0.3011170665589676
0.3508781768624177
0.02213398927234889
-5.815208849814836
-0.005494037959606901
-0.2785202828080096
-5.87734607390699
-0.1526970536411427
-5.684261128312968
-5.678006834519836
-0.08153803805046567
-6.120411908251322
0.0009885459504166416
-0.2911179815496265
-5.997873062993135
-0.1540110904788107
-5.838117388165638
-5.833443048565436
-0.1691919422964218
-6.394779971992192
0.02117317801212548
-0.2994126512609684
-6.108912737273546
-0.1546060073185263
-5.991181997151182
-5.988881893065217
-0.2521466501501136
-6.637904861230464
0.0453019789846838
-0.3047876903930552
-6.232884769607766
-0.155107010275907
-6.145582242465213
-6.14434674893513
0.1555519974648851
6.610959092387242
-6.766510962211052
0.3110465496189525
6.611006119399939
-6.766519113883787
0.4506404668396209
6.621962103965068
-6.770622238159787
7.021470259781242
-6.97337061106687
0.1260348577182091
0.1555404283516055
6.455407506756108
0.3107283684086167
6.455594825702912
0.418066974186262
6.485196494871277
6.908168236481095
0.1464560682434483
0.1554858308177988
6.299878192384258
0.3098408166686374
6.300482153903549
0.3727991964837087
6.35534395567552
6.797933172882074
0.1033522971865788
0.1553807444044221
0.3081817548338596
0.3176985058315686
0.07977839064727943
-6.766519287771246
-2.610922404056026e-06
-6.766506962019732
-6.887086189011349e-06
-6.766473009693746
-6.284593587368992e-05
-0.0002083506622908571
-6.766427203024726
-6.766555790340835
-4.084489584832429e-05
-6.766944571601011
-0.0001926037157647942
-6.768550223068132
-0.001172024316982712
-0.002783819798428011
-6.771250311050739
-6.77382395452689
-0.004349235870724888
-6.801041962626949
-0.003863192811596583
-6.843223584459647
-0.01571028177205508
-0.02196086620638937
-6.88896076409519
-6.915956251088939
-0.1794015322223558
-7.003717182510548
-0.003230954691557097
-7.118377357724654
-0.0008669590767472202
-7.231444403063308
-0.0004544705957039152
-0.0004321381086497267
-6.766402609626965
-0.004808751735062344
-6.773849447951831
-0.02994439365673024
-6.931208758003794
-7.339761978403796
0.0006174882213272337
-0.0006574050126207931
-6.766421398105474
-0.006865998554139718
-6.775492086080747
-0.04032541460425554
-6.965633801000763
-7.439448405834079
-0.0004646538850347492
-0.0008164625318497487
-6.766469515339081
-0.008668598736782607
-6.776033047778822
-0.05399936570529223
-6.988404030975576
-7.522567738499075
-0.004101947855646548
-0.000881143461561873
-6.766531094502444
-0.01008504077579664
-6.775537568685521
-0.07082083383339638
-6.99695745983951
-7.581549125226642
-0.007610711756799282
-5.615418547721962e-05
6.766516910865144
-6.766513426582051
-0.001051756252019254
6.767385954207402
-6.766873983405046
-0.06220161731409612
6.849058039519353
-6.811351200283837
7.874368858201172
-7.817538587680049
-0.1719446443918538
-0.0001961845427698172
6.766533806425309
-0.00394262615719787
6.769289292262745
-0.1193543786499882
6.927881354742434
7.770069147148692
-0.05478785117020907
-0.0005246931739536498
6.766540861818277
-0.008154536467909868
6.772702115520923
-0.1039454891404704
6.978886781355979
7.654411039878519
-0.01181710741682795
-0.0008451933548202506
-0.01064955376013499
-0.08741844744491528
-0.009307762444786649
-0.1470677115248336
-7.761533266236598
0.005672771667627696
-0.1163328343648412
-6.853640552538303
-0.05831372353430153
-6.825036871398023
-6.824845050898382
-0.153495475319248
-7.699135075994695
0.01364352033159844
-0.1164230424484608
-6.898275290427493
-0.05831346895586065
-6.883240194405234
-6.883170051739111
-0.1588481097590927
-7.617188929231597
0.01161110441543445
-0.1165710197116405
-6.946668000237781
-0.05833046038449874
-6.941523595063394
-6.941512584308569
-0.1648532786787632
-7.529029082019687
0.0178974985089464
-0.1166382116426766
-6.999426414355233
-0.05833194315077506
-6.999854583094674
-6.999844793505742
-1.152823631374555
-6.476150009807911
0.03213467845186146
-2.012454828069706
-6.139880266527148
-2.872852966876438
-6.13944554329681
-6.139447203884473
-1.151874352537979
-5.432285375766438
0.04218281809894031
-2.012455426707118
-5.279049596197596
-2.872852967041048
-5.279049735875939
-5.279049614567429
-1.15205074810535
-4.437148983654128
0.1078900364240762
-2.012455374583498
-4.418652605063374
-2.872852967044604
-4.418652017839358
-4.418652025446894
-1.152060686589218
-3.556123423194354
0.2492763283681448
-2.012455378095279
-3.558253921532401
-2.87285296704692
-3.558254436357326
-3.55825443632866
2.843686947076677
0.8895636090796828
1.954123337995112
0.8895636090815646
1.064559728997765
0.8895636082307237
0.8895465980412336
0.1749978268606459
2.843686947077599
1.7791272181565
1.954123337999196
1.779127218159969
1.064559729318468
1.77912721322834
1.779032972037974
0.1750295849680597
2.843686947089469
2.668690827241873
1.95412333800662
2.668690827242852
1.064559731708643
2.668690790388807
2.66833483831613
0.1751782544186632
2.843686947088214
1.954123338006608
1.06455976180437
0.1755728587399243
0.1749965218217675
0.1749965218057977
0.1749876017846949
0.1750321342045587
0.1749862385459721
0.1751627521703329
0.1755783729195825
0.1748643847522874
0.1750321342833139
0.1749876017182677
0.1750261758481633
0.1750261757066648
0.1750300477664088
0.1751279962838823
0.1746747002874616
0.1757264426430773
0.1751627522861575
0.1749862384571726
0.1751279964127891
0.1750300476132225
0.1750763111782916
0.1750763112076028
0.171883783610145
0.1773253306485714
0.1755783726651765
0.1748643846807891
0.1746746999337799
0.1757264424688762
0.1718837832884809
0.17732533079396
0.1715268276105935
0.1715268275201364
-0.07319951521042661
0.2434678423767293
-0.1350238321144389
0.2375403029732389
-0.2011280982429632
0.2401591385100103
0.2215369720592207
-0.01219625233417798
0.2540969048468109
-0.03204258390095827
0.255829298408176
-0.06069539541662772
0.2666487758482767
0.2665749054703008
-0.00358860416607909
0.2562019419277502
-0.01589215278066414
0.2665196080292528
-0.02712182013766906
0.276207682010127
0.2792603011119463
-0.006759136433504453
0.2607066073240527
-0.01748750831149393
0.2747024959461327
-0.02503936103129212
0.2812440423267423
0.2833806500540773
0.285204468702023
0.01457828797395594
0.2866018475648276
0.009417307383413731
0.28877563855573
0.01121663357448738
0.005088988193099442
0.2895161035135504
0.2841302639796136
0.01041239610265954
0.2863652577796177
0.006490171501210784
0.2899561455433785
0.007492745945007817
-0.001606774773750486
0.2973472331227512
0.2799218500628092
0.004525412410508689
0.2844879842417697
0.001348910544270054
0.2895001083366469
0.002230338740518978
-0.02772084585983131
0.3161801095404886
0.2649522939800228
0.2658992532579035
0.267822124774525
0.241832451027704
0.2673082884669401
-0.148370324028333
0.2411384004573366
-0.02705587840603407
0.2349055692241157
-0.003353509483683681
-0.007051167838781291
0.2359315657433363
0.2614289118942726
-0.1111236912819485
0.2434815134127806
-0.007872178694709797
0.2408041862242794
0.001622089481313926
-0.004867033466577686
0.2420483336052068
0.2678160305372612
-0.06144245689524075
0.2528410024610113
0.008151508969983845
0.2477348592661655
0.008580301797493306
0.0004129099751137288
0.2458636993837284
0.181092421397212
0.1898912592896757
0.2002381513260408
0.2039356587461845
0.2401374980954799
-0.008064512072784802
0.2429494015198652
-0.003959760417870661
0.243290714111751
0.000551276522825217
0.001851419609603056
0.2431042802611144
0.242638643505642
-0.004783356954554008
0.2437383196118471
-0.001747774965839832
0.2437766995942376
0.002163751521733204
0.003325523332423697
0.2432767944995697
0.245025924122206
7.235396045462972e-05
0.2445006665588839
0.002210592858207461
0.2442329947528656
0.004622543559200776
0.004783930864459829
0.2439283013396508
0.2079814006011639
0.2134874427591148
0.2203749612563643
0.2261088774454725
0.2420193107456684
0.0011099618295346
0.2409871005267153
4.150918843537355e-05
0.2412995382979688
-0.005487085102056477
-0.1933006189680844
0.2457231019744301
0.2423351649147616
0.002515545220282245
0.2416578392896787
0.0009216675572538691
0.2431340651097358
-0.009372067048291688
-0.172814432077699
0.2129670665290831
0.243166788688195
0.003963223912666625
0.2426389466894484
0.00208531393557726
0.2433259605904003
-0.01224142782747834
-0.1073074759552116
0.1677072317598279
0.2301138565700124
0.2330716299194481
0.2179044857710814
0.09972217447844395
0.264343264961306
0.09630222463412763
0.2664059124707521
0.1349006726143734
0.268605832985489
0.09466359628635823
0.06750254609703277
0.2764314706547181
0.2402381087629892
0.06082217067772144
0.260837299904908
0.1065463606058742
0.2680313791889204
0.0817741146322879
0.05498734933549165
0.2775735193752283
0.1975601839589523
0.02281329520044695
0.2352894608623274
0.06011347897094166
0.2584081816655412
0.05279778487197317
0.0371563873777192
0.2744542696581362
0.1163431225709111
0.1686961124953638
0.2160857309542204
0.2513328195705952
0.2774349225472212
0.03577757435546558
0.2767292724206496
0.015758450650603
0.2761386667685107
-0.0007015854419628598
-0.004251557404314821
0.2768948756462991
0.2795269556888098
0.02745962380324418
0.2786533054001755
0.01171715881591018
0.2779345114895461
-0.001279462372020701
-0.003060850491633738
0.2796098536823367
0.2788549634638352
0.01867850486950118
0.2790571682372524
0.007119995479638375
0.2790608047668277
-0.001379824257444651
-0.001901688264848267
0.2815393417992941
0.2658969811617564
0.2679627047876785
0.2665998425249998
0.268420472096929
0.289236377632181
0.0138255388586126
0.3142185593685084
0.04346883530999168
0.3498660283787172
0.1468236060204653
0.2832400327918877
0.4221132634906983
0.2936978115622787
0.007818216282413082
0.3162201870167708
0.03195056076562464
0.3539876462156455
0.1186653445035563
0.1881051738974451
0.4547630522714794
0.2950049655417971
0.003494867402926816
0.3167506358462678
0.02331475741472488
0.3619762439292795
0.08545285515854695
0.04083025194223278
0.5184194607279385
0.2812550898792677
0.318071887917576
0.4192770733176643
0.4731281574279083
0.2143427174425608
-1.203994137023891
0.02139143101194701
-0.2460125432228366
0.003234525892309097
-0.02705197036162706
-0.02634960335010989
-0.001941621452025693
0.1506014390129677
-0.8953424643685358
0.009663455544521663
-0.1041390911489628
0.0007713123668878696
-0.01390656743134167
-0.01546166014240249
-0.005205937038194637
0.07647433843010565
-0.4499575673413069
0.00310643290669536
-0.02960600523019355
-0.003040925610400178
-0.004272132471300819
-0.00720618045090413
-0.006038795864872952
0.02605884142522169
-0.002016988742073248
-0.003180578053761788
-0.005426912359847082
-0.000501097130044835
-0.01576090077749127
0.0003395488334205551
-0.01088458942438011
-6.548511610809243e-05
-0.003678204361970222
0.00432171071352272
0.003766704443499018
-0.004657750851216991
-0.01268780561487548
-0.003952940522654526
-0.008927696615826902
-0.00298038466697738
-0.003301284715319826
0.002284852362326131
-0.001022098057132558
-0.006691787652901286
-0.007477377215115336
-0.005638119035923317
-0.006100334244238781
-0.004817682660340801
-0.002349593518376228
0.002141833921896139
-0.005501166089921961
-0.007409973996002992
-0.007313818299910974
-0.007510737921928527
-0.006677358797143731
0.04279951176301246
0.04765745858208312
0.07787285902607241
0.09286523140976151
0.1087783852518786
0.09598571554055155
0.1070378341331832
0.1376865593657922
0.0230980052448834
0.021657346087645
0.05890419867202634
0.05776806968905539
0.09051637460282776
0.06812755406479687
0.07983841001760396
0.1261358829689019
0.006679518028813187
0.005316555979821308
0.03702844737237513
0.02397091196083609
0.06823980100033711
0.0369931648798309
0.04804604762473609
0.1052257434371305
-0.006436873785464921
0.01068730217427562
0.04408216642611628
0.09448333736377577
0.1102661168312165
-0.1162272164064405
0.1516577965356191
0.08259851696582889
-0.08837041318505687
0.1123339606437548
0.06121173602270009
-0.07833363510356958
0.09769539909221908
-0.0557823053979041
0.03526119473888647
0.08275274234224782
0.09665805657537474
-0.08285115157099412
0.06890039134956338
-0.06560917694439877
0.04241608373119492
-0.04964220010925281
-0.02754945508682395
0.01749894309569536
0.07515309165024726
-0.05178401834340348
0.04664494689294252
-0.03542641615303902
0.02086863052398599
-0.01871562553619379
-0.009128444470518089
0.00359475527887454
0.04479809781767826
0.01436546992719187
-0.0005633224988062444
-0.007630506303566417
-0.01013501552060267
0.002454687662715043
-0.009705168678095497
-0.00069125860471006
-0.006186061964358166
-0.002760113895159443
-0.003685336768666257
-7.939482404850651e-14
-0.004021175791789372
0.008636052920212602
-0.005913508997009421
9.263980663042765e-05
-0.003544082865702729
-0.00417713984435752
-0.005404544807483898
2.386979502944087e-14
0.008461517542675063
0.01702418554035916
0.003767098683491673
0.004333111400452732
0.001344105972531616
-0.001377702352645673
-0.002502681018450284
1.254829573582583e-13
0.02236231544050971
0.01249092714047726
0.005302710507252353
3.460912112451808e-13
-0.003685336768709911
0.006186061964265483
-0.005404544807513872
0.003544082865752456
-0.002502681018640575
-0.001344105972127873
-0.0053027105057823
0.005402910715316768
-0.00276011389515729
0.009705168678093592
-0.004177139844403823
0.005913508997056012
-0.001377702352694594
-0.003767098683066811
-0.01249092713966318
0.00729104068265338
-0.0006912586047492821
0.01013501552064875
9.263980655231131e-05
0.004021175791874679
0.004333111400444803
-0.008461517542401747
-0.0223623154400749
0.01534255780758149
0.002454687662661346
0.007630506303635237
0.008636052920105568
-0.003594755278709984
0.0170241855402914
-0.01749894309543362
-0.03526119473843135
0.03067927853896103
-0.06121173602214187
-0.05578230539777956
0.08275274234204837
-0.08259851696511576
-0.07833363510336924
0.09769539909193491
-0.110266116830474
-0.08837041318482393
0.1123339606434954
-0.1162272164059011
-0.1376865593650639
0.1516577965349453
-0.04241608373098812
-0.02754945508671473
-0.06890039134923272
-0.04964220010912455
-0.09665805657485121
-0.06560917694418165
-0.08285115157058513
-0.1261358829683395
-0.02086863052378542
-0.009128444470477694
-0.0466449468926529
-0.01871562553613185
-0.0751530916498509
-0.0354264161529028
-0.05178401834309379
-0.1052257434366142
0.0005633224988935912
-0.01436546992697916
-0.04479809781730312
-0.09448333736309979
-0.04408216642556
-0.04804604762459667
-0.01068730217383948
-0.03699316487971345
0.006436873785059537
-0.02397091195996638
-0.005316555980167323
0.006677358796938308
-0.06823980099994281
-0.07983841001726512
-0.03702844737136334
-0.06812755406528
-0.006679518028688432
-0.05776806968719846
-0.02165734608772206
0.005501166089766429
-0.09051637460269013
-0.1070378341322432
-0.0589041986709925
-0.09598571554216555
-0.02309800524418343
-0.09286523140734901
-0.04765745858120268
0.001022098057008224
-0.1087783852516326
-0.07787285902523505
-0.04279951176191575
-0.003766704443199823
6.54851157267447e-05
0.004321710712778315
-0.0003395488334110922
-0.003678204361635913
0.0005010971302242557
-0.01088458942369012
-0.01576090077747331
0.001941621452108101
0.002980384666675986
0.002284852361870565
0.00395294052256636
-0.0033012847151681
0.004657750851387492
-0.00892769661527066
-0.01268780561477063
0.005205937038412412
0.004817682660101111
0.002141833921762676
0.005638119035850373
-0.002349593518347327
0.006691787652977685
-0.006100334243850369
-0.007477377215069136
0.006038795865213624
0.007510737921618486
0.007313818299652575
0.007409973996122286
0.005426912360082687
-0.003234525892048353
-0.02634960335036947
-0.02139143101107593
-0.02705197036138151
-0.2143427174411157
-0.2460125432213521
-1.203994137027261
-0.4221132634911388
-0.0007713123668935326
-0.01546166014256946
-0.009663455544221808
-0.01390656743145002
-0.1506014390119679
-0.1041390911482956
-0.8953424643709009
-0.4547630522720236
0.003040925610587154
-0.007206180451004712
-0.003106432906576546
-0.004272132471505919
-0.07647433842955255
-0.02960600522995027
-0.4499575673426611
-0.5184194607290803
0.003180578053944804
0.002016988742110865
-0.02605884142501157
-0.4731281574294791
-0.3498660283800429
0.2832400327941215
-0.3142185593694152
0.1468236060235152
-0.2892363776349333
0.04346883531295243
0.01382553885925919
-0.2768948756498825
-0.3539876462167807
0.1881051738989532
-0.3162201870181533
0.1186653445049853
-0.2936978115646288
0.0319505607688011
0.007818216284734447
-0.2796098536853515
-0.3619762439306696
0.04083025194232792
-0.3167506358476682
0.08545285515963053
-0.295004965544214
0.02331475741766176
0.003494867404718494
-0.2815393418017976
-0.4192770733209941
-0.3180718879231719
-0.2812550898839925
-0.2684204721005319
-0.2761386667696497
-0.004251557399754469
-0.2767292724200479
-0.0007015854428483737
-0.2774349225454127
0.01575845065275283
0.03577757435986295
-0.2764314706544865
-0.2779345114899894
-0.003060850489270961
-0.278653305399922
-0.001279462371829743
-0.2795269556874914
0.01171715881871005
0.02745962380908362
-0.2775735193751533
-0.279060804767937
-0.001901688263866497
-0.2790571682372572
-0.001379824256953044
-0.278854963462767
0.007119995482643082
0.01867850487474221
-0.2744542696578524
-0.2665998425275063
-0.2679627047893073
-0.2658969811593102
-0.2513328195650094
-0.2686058329869339
0.06750254610038653
-0.2664059124709813
0.09466359628887844
-0.2643432649616327
0.1349006726154365
0.09630222462408611
-0.245723101974495
-0.2680313791901341
0.05498734933697025
-0.2608372999050893
0.08177411463431017
-0.2402381087624174
0.1065463606057221
0.06082217066694551
-0.2129670665298952
-0.2584081816660193
0.03715638737673344
-0.2352894608610606
0.05279778487269327
-0.1975601839553219
0.06011347896974861
0.02281329519111164
-0.1677072317584239
-0.2160857309527283
-0.1686961124931541
-0.1163431225697102
-0.09972217448554554
-0.2412995382961275
-0.1933006189597235
-0.2409871005273032
-0.00548708510198892
-0.2420193107471866
4.150918531298231e-05
0.001109961832321094
-0.2431042802614145
-0.2431340651081519
-0.1728144320741709
-0.2416578392901633
-0.009372067045355204
-0.2423351649163767
0.0009216675549335029
0.002515545221984883
-0.2432767945001109
-0.2433259605895787
-0.1073074759526687
-0.2426389466907843
-0.01224142782251275
-0.2431667886896524
0.00208531393415734
0.0039632239132531
-0.2439283013402856
-0.2179044857778822
-0.2330716299217128
-0.230113856572246
-0.2261088774469334
-0.243290714112763
0.001851419612125094
-0.2429494015202466
0.0005512765255165641
-0.2401374980958043
-0.003959760418645875
-0.008064512071759788
-0.2359315657427018
-0.2437766995949478
0.003325523334776481
-0.2437383196121592
0.002163751523616309
-0.242638643505675
-0.001747774966288806
-0.004783356953962148
-0.2420483336044788
-0.2442329947532121
0.00478393086559703
-0.2445006665591558
0.004622543561026815
-0.245025924121766
0.00221059285756664
7.235396092764024e-05
-0.2458636993826834