/*--------------------------------*- C++ -*----------------------------------*\
  =========                 |
  \\      /  F ield         | OpenFOAM: The Open Source CFD Toolbox
   \\    /   O peration     | Website:  https://openfoam.org
    \\  /    A nd           | Version:  11
     \\/     M anipulation  |
\*---------------------------------------------------------------------------*/
FoamFile
{
    format      ascii;
    class       surfaceScalarField;
    location    "0.044";
    object      phi;
}
// * * * * * * * * * * * * * * * * * * * * * * * * * * * * * * * * * * * * * //

dimensions      [0 3 -1 0 0 0 0];

internalField   nonuniform List<scalar> 
1652
(
2.843686947071611
0.8895636090847481
0
1.954123337988149
0.8895636090834618
2.220446049250313e-16
1.064559728903287
0.8895636090848618
0
0.889563563545436
-2.625055728344705e-11
0.1749961440001448
2.843686947076741
1.779127218162428
1.954123337998014
1.779127218162189
1.064559728910183
1.779127218172661
1.779126737078782
0.1749964852093246
2.843686947090741
2.668690827246526
1.954123338008367
2.668690827244562
1.064559728914302
2.6686908272692
2.668673458091601
0.1749986655444244
2.843686947092868
3.558254436328659
1.954123338013008
3.558254436324421
1.064559728916306
3.558254436348108
3.558260075075574
0.1748937731779436
4.418652025448567
2.872852967045247
5.279049614570545
2.872852967043177
6.139447203693201
2.872852967042502
2.872852967040008
6.999844792813309
4.41865202543751
2.012455377932159
5.279049614550977
2.012455377929712
6.139447203664234
2.012455377929244
2.012455377926213
6.999844792778029
4.41865202551562
1.152057788835621
5.279049616847069
1.152057788465768
6.1393868164729
1.152058747087068
1.152053747242737
7.000083141099853
4.425476391338229
0.2720236831556269
5.327871259098593
0.1749943111959635
6.246335688215723
0.07212479404502836
7.140034712452946
0.03048760210362012
6.941512752403391
0.05833203262517783
6.883180712401622
0.05833202973086893
6.824848672500117
0.05833202834390705
0.05833203500828255
6.766516632989117
6.94151289538291
0.116663455595112
6.883180873440953
0.1166633830344694
6.824848829169349
0.1166633088011886
0.1166635059908619
6.766517023046997
6.941736170376982
0.174357548043249
6.883419792980182
0.1742751608851988
6.825081067187306
0.1742303053284336
0.1741877297164897
6.766999073753236
7.100405173165444
0.01331972794886505
7.046558812602595
0.01114849051159794
6.983874657737947
0.01086832422141193
6.946423228793101
-0.01547228640819787
6.958675777787797
0.001569377108232961
-0.2043356069778431
6.881083626434916
0.001252633957258165
-0.08851634935273722
6.799558488109068
0.000573213144122009
-0.02288111740520504
0.0001141329471970876
6.769633450320784
-0.003013054177121
6.767051679198598
2.47761398242119e-06
6.766915564610638
2.025774892278065e-06
6.766649315572522
9.572952393011036e-07
1.93886231070195e-07
6.766529648739276
6.766517152792701
4.001682218923719e-08
6.766517036955841
3.359189615359526e-08
6.766516763456007
1.576036645634105e-08
2.979260060875788e-09
6.766516644631715
6.766516631913857
6.766516631842962
6.766516632562402
6.766516632997412
6.766516633045716
-1.574445018803772e-10
6.766516633047141
-2.273070620617546e-12
6.766516633048259
-1.113553693699032e-12
-1.08257847131199e-12
6.766516633049343
6.766516633214136
-1.112691849769476e-08
6.76651663304695
-9.17024234325936e-11
6.766516633047904
6.236899885436742e-12
2.602251747418904e-12
6.766516633049291
6.766516844422186
-6.282819560110564e-06
6.766516631578266
-3.949635662969797e-08
6.766516631355737
5.359608146182637e-09
3.737148313032179e-09
6.766516632393881
6.766571360451962
-8.387038459911622e-05
6.766516184627562
3.479489129543101e-06
6.766516113011362
5.340753715943336e-07
6.766516518511089
5.246119338941924e-08
-2.678227639663078e-10
6.766516610811689
8.930544637131277e-10
-1.536548666081217e-13
6.766516632943199
-2.220446049250313e-16
6.766516633049141
6.766516633049344
-1.483297612514534e-08
6.766516744059416
-2.039415192278682e-09
-7.064108187293527e-10
6.766516631620416
-1.27808874594848e-12
6.766516632920602
6.76651663304933
5.982953107053213e-06
6.766503026766394
3.005541948097878e-06
4.205719084104942e-08
6.766518584892471
4.792460872593551e-10
6.766516637429437
6.766516633047753
-0.00209808168292519
6.753915076842402
-0.001214930308497064
-1.54511978345262e-06
6.766406306032223
-1.020907913762414e-09
6.766516616090898
6.766516632942814
0.1555520675777079
6.610964565418535
0.3111032714065656
6.610964620128604
0.4662264741994931
6.61114662156097
6.679385583699907
0.2880990449134205
0.1555520358872331
6.455412498664349
0.3111019053284974
6.455412848272313
0.4644952451168594
6.455829202176564
6.615928974996003
0.04904808346485345
0.155552010761528
6.299860431420417
0.3111004298058464
6.299860842954284
0.4634064864869052
6.300321539995118
6.47961325611257
-0.03593123946608401
0.1555519965075799
6.144308364317414
0.3110996151457923
6.144308833614805
0.4629430852968409
6.14479045356476
6.309129348171289
-0.05008783836455755
-0.4625027258315142
6.138181623376364
-0.05083255718054192
-0.3110989057901858
5.989269318350192
-0.1555520956266612
5.988756728060197
5.988756180788412
-0.461950815101163
5.958988961700553
-0.05062331773172801
-0.3110976454258996
5.83371817469075
-0.1555520715280102
5.833204602773582
5.83320399755566
-0.4613409418566826
5.784846461277831
-0.05096961993129001
-0.3110961512519261
5.678233942087382
-0.1555520426247355
5.677652598243437
5.67765181488514
-0.4604108070458477
5.603913442079556
-0.050484116088096
-0.3110935343081458
5.522594299602186
-0.1555519857861963
5.522100325384715
5.522099631118912
0.1993009395172896
5.322798533944032
0.3985934292416935
5.322799036165945
0.5916495536552789
5.323184187034002
5.37462266167565
-0.02133419409251736
0.1993009230379428
5.123497437831351
0.3985923726764642
5.123497939618927
0.5913320199055669
5.123835186859359
5.147695843507059
0.0005195131305335554
0.1993008957806289
4.92419633262108
0.3985912053285497
4.924196753078788
0.5912713252537456
4.924447487344186
4.926055023084155
0.08976249176323758
0.1993009673251165
4.724895235796306
0.3985952347237098
4.724895482490147
0.5942011368795372
4.725004876068044
4.720339935085069
0.3805921587603749
-0.3353900303310592
5.060304380232988
-0.6707966803643353
5.060256668874445
-1.010478442978251
5.058113812889581
5.000644066506656
-1.413204915326264
-0.3354085614618394
5.395713656158883
-0.6706574900622662
5.39566051847588
-0.9876756138554899
5.385561058527784
4.755662417726349
-0.5417072597026685
-0.3354088839636056
5.731122887522054
-0.6705890358138814
5.73106676422185
-0.9571738238754306
5.7080093717025
4.331777772956578
-0.07546112396794888
-0.3354088814822848
6.066532129640827
-0.6705063651857346
6.066503334656208
-0.9304746747145706
6.046409950717404
4.419543132337189
-0.01144881928502391
0.4898938166640829
4.747632104262598
0.0004272232212007565
0.3498493024277844
6.224048647493733
0.17499586681791
6.241501386704843
6.241528254420861
0.4958383979786781
5.0508782402735
-0.002353715178932611
0.3498768330923089
6.404230167202327
0.1749959248621049
6.416509029463638
6.416524383899405
0.5026614508166591
5.267483033730026
-0.006987609400601308
0.349917061971164
6.580007556514391
0.1749960007698325
6.591505822635085
6.591520504170452
0.4982363397818152
5.505303005384247
0.009302812675215141
0.3499003779377206
6.757755167927684
0.1749959814382246
6.766506123448286
6.766516626382145
-0.009648403445499998
6.392925186853022
0.2109974420349766
-3.671660800752541e-05
6.765775975749174
-6.34193906279279e-08
6.7665160165537
6.766516632717536
-0.001442833033036606
6.725988558086699
0.1072392359750142
-3.393780103166932e-06
6.766494271849068
-4.178365653473293e-09
6.766516621992417
6.766516633066032
-0.0003034834239813433
6.768556264436733
0.05521943576057553
-5.812915631064897e-07
6.766520785678377
-6.49807985197981e-10
6.766516642048745
6.76651663311219
-0.0005590096169764136
0.06391626024842917
6.770250828315532
-1.541754853784383e-06
6.766458441624648
-2.337425142329153e-09
6.766516335108483
6.766516632779396
1.101922565067801
-0.8517532325684201
-0.04291094872567408
-1.48583367831634e-11
1.983247270923411
-0.8747781400987389
-1.593125631416115e-11
2.858269848219023
-0.8749800006038466
1.796784943053353e-12
-0.8749805992222099
-2.655653474903374e-13
1.101930296196477
-1.703037913732429
-0.0433181271128083
1.983247319861496
-1.749552600586655
2.858269848157627
-1.749959979186067
-1.749961197995114
1.101916077192159
-2.551768779599607
-0.04539518534135938
1.983247255089247
-2.624308775122318
2.858269846746795
-2.624939935227066
-2.624941795915231
1.101913654172844
-0.05406660538649567
-3.399723165419903
1.983247434358871
-3.499095391321303
2.858269844910042
-3.499919931530477
-3.499922394425587
-0.0005590096173770931
-6.768556264460348
0.06391626024799263
6.770250828303333
-1.541754996337019e-06
-6.766520785678108
6.766458441622859
-2.337045668099336e-09
-6.766516642051957
6.766516335109013
-6.766516633110203
6.766516632783856
-0.0003034834240505102
-6.72598855808938
0.0552194357600278
-5.812929806392475e-07
-6.76649427184956
-6.500315841151405e-10
-6.766516621997156
-6.766516633065867
-0.001442833035078528
-6.392925186861124
0.107239235976433
-3.393781892402359e-06
-6.765775975752068
-4.178331236559529e-09
-6.766516016553512
-6.766516632719989
-0.009648403445968956
-5.505303005375058
0.2109974420357514
-3.671660755388828e-05
-6.757755167925326
-6.341918989960504e-08
-6.76650612344779
-6.766516626382105
-0.1749958668085968
6.241528254458762
-6.066532129685979
-0.3498493024060621
6.241501386740579
-6.066503334704503
-0.4898938166551133
6.224048647462636
-6.046409950667271
4.747632104226945
-4.419543132289498
0.0004272232211504634
-0.174995924849774
6.416524383923835
-0.3498768330709986
6.416509029485264
-0.4958383979688928
6.404230167180597
5.050878240240995
-0.00235371517874787
-0.1749960007577034
6.591520504182947
-0.3499170619485709
6.591505822645153
-0.5026614508062166
6.580007556503953
5.267483033714249
-0.00698760939999158
-0.1749959814263345
-0.3499003779117793
-0.4982363397691632
0.009302812675166666
0.930474674722749
-4.331777772920185
-0.01144881928562889
0.6705063652131162
-5.708009371671203
0.3354088814961369
-5.731066764255833
-5.731122887553936
0.9571738238840967
-4.75566241770374
-0.07546112396694005
0.6705890358368127
-5.385561058509709
0.3354088839759
-5.395660518498594
-5.395713656179405
0.987675613867658
-5.000644066499507
-0.5417072597010592
0.6706574900845113
-5.058113812881937
0.3354085614713799
-5.060256668886515
-5.060304380243013
1.010478442990299
-4.7203399350852
-1.413204915330641
0.6707966803839511
-4.725004876067672
0.3353900303369232
-4.724895482491811
-4.724895235796522
0.1993009395235056
5.322798533961535
-5.522099631143011
0.3985934292562233
5.322799036185198
-5.522100325413266
0.5916495536630337
5.323184187013323
-5.522594299574548
5.374622661654653
-5.603913442051977
-0.02133419409021831
0.1993009230440475
5.123497437842327
0.3985923726903863
5.123497939633673
0.5913320199131463
5.123835186845383
5.147695843491625
0.000519513131337801
0.1993008957865481
4.924196332626581
0.3985912053415227
4.924196753086776
0.5912713252595176
4.924447487337325
4.926055023077248
0.08976249176342321
0.199300967330743
0.3985952347360157
0.5942011368846239
0.3805921587618442
-0.4604108070392951
-5.784846461256564
-0.05048411608361603
-0.3110935342954281
-5.678233942065094
-0.1555519857803224
-5.677652598265273
-5.677651814903616
-0.4613409418492935
-5.958988961688319
-0.05096961993005045
-0.3110961512388037
-5.833718174666669
-0.1555520426188726
-5.833204602792279
-5.833203997567863
-0.4619508150953021
-6.138181623384902
-0.05062331773024353
-0.3110976454122796
-5.989269318347049
-0.1555520715217721
-5.98875672806565
-5.988756180794255
-0.4625027258262389
-6.309129348154884
-0.05083255718136004
-0.3110989057761236
-6.144790453579729
-0.1555520956202487
-6.144308833617372
-6.144308364316883
0.155552067577767
6.610964565417767
-6.766516632942928
0.3111032714069301
6.610964620129865
-6.766516616090239
0.4662264742007075
6.611146621559666
-6.766406306031865
6.679385583700831
-6.753915076841135
0.2880990449109092
0.1555520358873016
6.455412498663101
0.3111019053287756
6.455412848271011
0.464495245116933
6.455829202181106
6.61592897499468
0.04904808346587686
0.1555520107613648
6.299860431420085
0.3111004298053583
6.299860842955064
0.4634064864862176
6.300321539979147
6.479613256120786
-0.03593123946610743
0.1555519965074318
0.3110996151456773
0.4629430852955311
-0.05008783836253117
-6.766516633048806
1.021019158109482e-09
-6.766516633049337
-4.79286388355149e-10
-6.766516633049343
1.150857187326437e-12
-1.110223024625157e-16
-6.766516633049345
-6.76651663742767
1.545120053125792e-06
-6.766516632923331
-4.205772818899334e-08
-6.766516633049148
7.083916786498889e-10
2.543520949416234e-13
-6.766516633049289
-6.766518584895046
0.002098081682906761
-6.76651663161784
-5.982952132110864e-06
-6.766516632943369
1.483215067432653e-08
2.677781885118691e-10
-6.766516632392682
-6.76650302676704
-0.001214930308778228
-6.766516744059821
3.005539934985979e-06
-6.766516610811279
-2.040156599214527e-09
-6.766516518510713
8.932939943306906e-10
-1.099897950496143e-12
-6.766516633048242
2.582600799883039e-12
-6.76651663304793
3.736746467808416e-09
-6.766516631358059
-6.766516113010974
5.246153333970938e-08
-1.096789326027192e-12
-6.76651663304714
6.151745779447992e-12
-6.766516633046963
5.359984622810288e-09
-6.766516631580526
-6.766516184627128
5.340751858540216e-07
-2.273625732129858e-12
-6.766516633045721
-9.16695608310647e-11
-6.766516633213649
-3.949621535381809e-08
-6.766516844422742
-6.766571360452208
3.479489132762748e-06
-1.574931296488558e-10
-6.766516632997568
-1.112711045525572e-08
-6.766516644630268
-6.282819990932609e-06
-6.766529648738699
-6.769633450320135
-8.387038514684475e-05
-4.002209064157825e-08
6.766516631898559
-6.766516632969571
-2.477624135521772e-06
6.766517152774798
-6.766517023024379
-0.001569377113992854
6.767051679214528
-6.766999073774651
6.958675777803343
-6.946423228813219
-0.2043356069777735
-3.359628431010009e-08
6.766516631832185
-2.02578368380113e-06
6.766517036950672
-0.00125263396155445
6.766915564622238
6.881083626443799
-0.08851634935417363
-1.57653688992454e-08
6.766516632557076
-9.573052301981022e-07
6.766516763456825
-0.0005732131491750225
6.766649315575354
6.799558488115356
-0.02288111740523641
-2.98482949467882e-09
-1.93896973144092e-07
-0.0001141329512562295
-0.003013054178775454
-0.1741877297206667
-6.9838746577483
-0.01547228640603326
-0.1166635060098681
-6.825081067197653
-0.05833203501213802
-6.824848829162427
-6.824848672484741
-0.1742303053353658
-7.046558812608195
0.01086832422257
-0.1166633088210381
-6.883419792977459
-0.05833202834830586
-6.883180873449909
-6.883180712390526
-0.1742751608945514
-7.100405173173852
0.01114849051334965
-0.116663383054179
-6.941736170343056
-0.05833202973490736
-6.941512895415507
-6.941512752395762
-0.1743575480586647
-7.140034712443512
0.01331972794723724
-0.1166634556164071
-7.000083141017011
-0.05833203262989473
-6.999844792821208
-6.999844792810522
-1.152053747236748
-6.246335688209732
0.03048760210469192
-2.012455377910965
-6.13938681650207
-2.872852967039931
-6.139447203692224
-6.139447203690343
-1.152058747082763
-5.327871259094365
0.07212479404582672
-2.01245537791648
-5.279049616840547
-2.872852967042259
-5.279049614566445
-5.279049614567443
-1.152057788465625
-4.425476391326591
0.1749943111964187
-2.012455377921992
-4.418652025514253
-2.872852967044603
-4.418652025443834
-4.418652025446892
-1.152057788834802
-3.558260075045822
0.2720236831562645
-2.012455377927508
-3.558254436346671
-2.872852967046921
-3.558254436324422
-3.55825443632866
2.843686947076677
0.8895636090796828
1.954123337995112
0.8895636090815646
1.064559728908975
0.8895636090861361
0.8895635636412151
0.1749961440565856
2.843686947077599
1.7791272181565
1.954123337999196
1.779127218159969
1.064559728911147
1.77912721817416
1.779126737091208
0.1749964852115898
2.843686947089469
2.668690827241873
1.95412333800662
2.668690827242819
1.064559728912873
2.66869082727018
2.668673458065909
0.1749986655568741
2.843686947088214
1.954123338006611
1.064559728911111
0.1748937731776772
0.1749962033027548
0.1749962033333118
0.1749959677279743
0.1749968508354793
0.1749946556214899
0.1749980178547998
0.1747170187787259
0.1750700308214302
0.1749968508392732
0.1749959677435414
0.1749960110386721
0.1749960110343622
0.1749984390495304
0.1749909530914769
0.1745871672016163
0.174832214119764
0.1749980178510784
0.1749946556277125
0.1749909530895003
0.1749984390479404
0.1749424711805158
0.1749424711808578
0.1722135618653569
0.1760113776556268
0.1747170187818939
0.1750700308231949
0.1745871672042709
0.1748322141203473
0.1722135618680539
0.1760113776526187
0.170909531721166
0.1709095317223195
-0.0880227954444302
0.25426723580804
-0.1639091484487141
0.2416420848301291
-0.2332978868393586
0.2347428883848236
0.2073862805325064
-0.01865469378676743
0.2759219068356895
-0.0536806135803729
0.2752084960920034
-0.1045278337399006
0.279523891854188
0.2608054014820483
-0.001420928909258712
0.2869251494488648
-0.01074537989532987
0.2977315011438335
-0.02358282114488364
0.3004359251588429
0.2914756364812616
0.003951367817285556
0.2913335407491943
0.008424398785929488
0.3079220308565572
0.004985133609017423
0.309166561680867
0.3008877723736466
0.3021368975933245
-0.01227872022435628
0.3025744488426946
-0.01342419469441003
0.3027969644194153
-0.01340501848233933
-0.03663612658640181
0.3047952788060225
0.3102869518322299
-0.01418447461292005
0.3105344712158709
-0.01519789824522649
0.3108242190904538
-0.01516237403036452
-0.04337391548614633
0.3230013275732389
0.3092290893278331
-0.00526141588778023
0.3094694953158991
-0.005342399756345984
0.3097434606704079
-0.005162295770252789
-0.05649348454098796
0.3314381655093159
0.2915306535419374
0.2915673775077689
0.2917912579867507
0.2461671657052849
0.2877678219337049
-0.1926763213652359
0.2602345053917877
-0.06538648478136982
0.2398809266357185
-0.01018789750894616
-0.001324495488919719
0.2339026401225235
0.2880614838582652
-0.1398239980421203
0.2543624505926246
0.005536997449286429
0.23914473389853
0.01002789673346377
0.001456252208754394
0.2340458567800386
0.2612359933240071
-0.05499090565128795
0.25329630884064
0.03036075916640918
0.2446794308312754
0.02133655951635965
0.006814245583275591
0.2350437728705262
0.1892285903158971
0.2099525282728098
0.2263473394386949
0.2322339107172707
0.2333376102720437
-2.614411295054353e-05
0.2333280493679102
5.068561465926269e-06
0.2333280729114067
4.705877870159192e-07
1.368227653397724e-08
0.2333281529525168
0.2333419945531892
0.000130527482856968
0.2333283692774484
1.196553742155437e-05
0.2333281772822995
8.731632381020482e-07
2.621714112471807e-08
0.2333281590755531
0.2333627026238399
0.0007278692418700161
0.233328594794394
2.960986144190381e-05
0.2333281812058676
1.491706713818708e-06
4.812915055385503e-08
0.2333281597207972
0.2332587271685017
0.2333253972369443
0.2333280688760037
0.2333281586519284
0.2333281601265902
-6.858019152566897e-10
0.2333281610689747
-8.354168468116541e-10
0.2333285318473121
1.314364336757468e-06
-0.03758805754567196
0.234965752144989
0.2333281590471215
-2.617278616057206e-10
0.2333281599973676
-5.244503720192029e-10
0.2333283640335488
4.363149505581809e-07
-0.07224370062797658
0.2313195606562228
0.2333281594834608
1.196480137188871e-10
0.2333281597487667
-8.971240417210424e-11
0.2333282290319961
1.276598593502598e-07
-0.06975578405277133
0.2030804531070436
0.233328159725255
0.2333281598736283
0.23332817199267
0.1812446965476098
0.2790098313444522
0.1948333108396569
0.3047817498114285
0.03661209440219149
0.3150788401739155
-0.03728178870820231
-0.04855923095737991
0.3161613260278894
0.2709857459367633
0.1284220593155285
0.3062990139031968
0.0481794966116873
0.3260596324826782
-0.006509292316620896
-0.01201740013842589
0.3283262796746705
0.2425272622117776
0.07387859248828166
0.3003890892247095
0.03176671389016983
0.3273787490551378
0.02336907762633034
0.02460972968296016
0.330362864459941
0.2411618032592581
0.262318006574621
0.2808180569267957
0.2856404177790797
0.3162483570269688
-0.04896843228573677
0.316250844983314
-0.04870090266099147
0.3163521537138571
-0.04869859544432675
-0.04789152419988307
0.3166365455526486
0.3284099163144065
-0.01203262750517187
0.3284171716466097
-0.01186543324551492
0.3284596681740259
-0.01172539222268754
-0.01117554513517183
0.3286516253985182
0.3303965274121225
0.02425190478687611
0.3303662915530877
0.02428641980910862
0.3303824214279651
0.02431852543754787
0.02536767950558205
0.3302641130326025
0.2857726412006919
0.2857674780508164
0.2857157139696161
0.2865562460528053
0.3250580703417751
-0.03851423941737875
0.3362715342781378
-0.02813692425900727
0.3606256030932652
0.05679002185947302
0.2830434945995878
0.4366053216586732
0.3335629206139549
-0.008670246137274962
0.3414349227937494
-0.00526737941408828
0.3664294600332222
0.07807894605408572
0.2113367559885861
0.4912922392494575
0.3386681790210681
0.02783629068190219
0.35008576675127
0.03273510473349517
0.3834078569800985
0.09263356955762969
0.1079994713841612
0.5349583432310675
0.2959939890775098
0.3162929775102358
0.4043795104286945
0.4686486768259713
0.2340315940572714
-1.232953024939539
0.04066388252854038
-0.2885769373696457
0.004270225885828854
-0.01746489228926117
0.01071086623213871
0.0002365918330309979
0.1576861172775786
-0.897745171415913
0.01543257704332817
-0.1242768311416709
-0.0003519908480443361
0.01263017933507397
0.02516224295049572
0.0001571618014798905
0.09441482244921226
-0.4385101025374528
0.008762568168397621
-0.0409852748014362
-0.000624480089603429
0.02021699233009443
0.02274523878799915
0.0005074600215262091
0.03461790550895166
-0.005573357477700606
6.998916642561061e-05
0.0008447015435964888
0.001603021208536691
0.005508969504052774
0.00254630828617906
0.004208282048041925
0.004221447832410045
0.0001460449244786929
-0.002555786050317952
0.0223738107802329
-0.001110080184285028
0.01865663801618549
-0.004110632151000127
0.0190480748389025
-0.008040224547499832
0.01201892902807689
0.0001448019834627765
-0.00290837696734602
-0.001687347501682407
0.02024991913599738
-0.006696005488206425
0.0213963350661528
-0.01166342192110999
0.01341309464735053
0.00481706410598854
-0.01344896730727244
-0.001034831778909787
-0.006050225187839755
-0.01109907684053975
-0.01100148809340242
0.1599741827216121
0.1078896941685416
0.2136537216303517
0.1049089080217671
0.2348966568363592
0.08016849400976361
0.07153452409586608
0.2451709590906079
0.1061533309050533
0.0265189289164413
0.1865537224972842
0.06493447169961955
0.2278283708722947
0.09037826624764739
0.0631846130607609
0.2602354162257954
0.04619675560919299
-0.01078429669086969
0.1457203761954891
-0.0060428149964461
0.2170292299319245
0.06486088155162334
0.03168204924071066
0.2757387156245175
-0.009354045410309649
0.03287581440610317
0.1514304778347665
0.2291652671741907
0.2077193138881506
-0.3178314900406211
0.4031863379267837
0.1677250239259369
-0.2489312962180317
0.3420993936449623
0.1066580273618641
-0.1773307508130811
0.2543329333249088
-0.1026535011607116
0.03644407284899254
0.1619599605516921
0.2092338274131234
-0.2490758665600805
0.1867310578683488
-0.130931955013859
0.1547919401048757
-0.07866803061714568
-0.05797134579893705
0.08524206823306096
0.1819114126503779
-0.1507281312465313
0.09347343077925659
-0.05385334658650853
0.1037318950421665
-0.01837325566412851
-0.01184146853685006
0.1070053101404797
0.09666899281940278
0.05506107936113015
0.03534577392143884
0.02994806069845813
0.02560737745078367
0.002541048179446462
0.01005344818657357
-0.001280738041681214
0.0006379347019170208
0.0003516716608057231
0.0003766753943142903
-2.817364397333932e-14
0.08188335458310592
0.01860109211132769
0.02469561579290096
0.00810921286519436
0.001981199842841532
0.003440861251152588
0.002740952329730775
-3.25434124093249e-15
0.03500290591613417
0.03194499474551276
0.006039865255585895
0.01810111891396058
0.0009445023530911499
0.01491376653711314
0.01466967237568938
-1.141448047192739e-14
0.01255296510421444
0.002519717919084605
0.0006737610537703789
-8.396755513118137e-14
0.0003766753943166877
-0.0006379347019712534
0.002740952329787914
-0.001981199842857093
0.01466967237569515
-0.0009445023530872676
-0.0006737610537510541
0.042910948725235
0.0003516716607920734
-0.01005344818659451
0.003440861251205697
-0.02469561579293662
0.01491376653721941
-0.006039865255457234
-0.002519717919084653
0.04331812711273658
-0.001280738041683866
-0.02560737745083618
0.008109212865233742
-0.08188335458303214
0.01810111891389551
-0.03500290591608068
-0.01255296510385231
0.04539518534152297
0.002541048179475772
-0.02994806069848715
0.01860109211129707
-0.1070053101403816
0.03194499474558042
-0.0852420682331223
-0.0364440728487516
0.05406660538653192
-0.1066580273615056
-0.1026535011606015
0.1619599605516397
-0.1677250239253867
-0.1773307508126104
0.2543329333244373
-0.2077193138879541
-0.2489312962179475
0.3420993936450391
-0.3178314900405222
-0.2451709590906864
0.4031863379268169
-0.1547919401048087
-0.05797134579894322
-0.1867310578681131
-0.07866803061721371
-0.2092338274127345
-0.1309319550134898
-0.2490758665599345
-0.2602354162257262
-0.1037318950422191
-0.0118414685368274
-0.09347343077923961
-0.01837325566414338
-0.1819114126500153
-0.05385334658643415
-0.1507281312462804
-0.2757387156242538
-0.0353457739214251
-0.05506107936115258
-0.09666899281935433
-0.2291652671738697
-0.15143047783462
-0.03168204924075846
-0.03287581440650245
-0.06486088155164163
0.009354045410247636
0.006042814995818629
0.01078429669061991
0.01100148809339426
-0.2170292299320574
-0.06318461306037682
-0.1457203761957462
-0.09037826624758166
-0.0461967556093866
-0.06493447170045152
-0.0265189289169106
0.0134489673072104
-0.2278283708723978
-0.07153452409521793
-0.1865537224975944
-0.08016849400975312
-0.1061533309052653
-0.1049089080229101
-0.1078896941690703
0.00290837696727685
-0.234896656836326
-0.2136537216306083
-0.1599741827218596
-0.0223738107801058
-0.004221447832490446
-0.002555786050392882
-0.002546308286143677
0.0001460449246458509
-0.001603021208586086
0.004208282048071575
0.005508969504080717
-0.0002365918328993671
0.008040224547408912
0.0001448019833472231
0.004110632151049143
0.01201892902786833
0.001110080184285808
0.01904807483888015
0.01865663801609729
-0.0001571618014718033
0.01166342192108019
0.004817064105952722
0.006696005488259762
0.01341309464697637
0.001687347501692085
0.02139633506616396
0.02024991913593292
-0.0005074600215298937
0.01109907684057363
0.006050225187881821
0.001034831778918889
-0.0008447015436046073
-0.004270225885659821
0.01071086623145664
-0.04066388252763038
-0.01746489228888566
-0.2340315940556465
-0.2885769373682538
-1.232953024941773
-0.4366053216590132
0.0003519908479757555
0.02516224294973629
-0.01543257704298422
0.0126301793351959
-0.1576861172763844
-0.1242768311409904
-0.8977451714165218
-0.4912922392495566
0.0006244800895640751
0.02274523878742339
-0.008762568168166812
0.02021699233021166
-0.094414822448583
-0.04098527480108446
-0.4385101025375673
-0.5349583432310754
-6.998916673305391e-05
0.005573357477850098
-0.03461790550873657
-0.4686486768258378
-0.3606256030934051
0.2830434946008553
-0.3362715342777832
0.05679002185985538
-0.3250580703413816
-0.02813692425848546
-0.03851423941520227
-0.3166365455520539
-0.3664294600333948
0.2113367559894085
-0.3414349227936294
0.07807894605467247
-0.3335629206138258
-0.005267379413245843
-0.008670246134702797
-0.3286516253983079
-0.3834078569801788
0.1079994713840899
-0.3500857667516302
0.09263356955798596
-0.3386681790214626
0.03273510473434338
0.02783629068272153
-0.3302641130328856
-0.4043795104292344
-0.3162929775108803
-0.2959939890778073
-0.2865562460542992
-0.3163521537134593
-0.04789152419579534
-0.3162508449834026
-0.04869859544264621
-0.3162483570268647
-0.04870090266034821
-0.04896843228559344
-0.316161326027243
-0.3284596681738386
-0.01117554513199714
-0.3284171716467387
-0.01172539222056845
-0.3284099163145325
-0.01186543324442413
-0.01203262750455447
-0.3283262796744552
-0.3303824214282613
0.02536767950698149
-0.3303662915533078
0.02431852543909796
-0.3303965274122226
0.02428641980988921
0.0242519047869334
-0.3303628644600678
-0.2857157139706364
-0.2857674780509075
-0.2857726412011898
-0.285640417779544
-0.3150788401741231
-0.04855923095635539
-0.3047817498114037
-0.03728178870789822
-0.2790098313448952
0.03661209440360291
0.1948333108378836
-0.2349657521449561
-0.3260596324827973
-0.01201740013783303
-0.3062990139032695
-0.006509292315939885
-0.2709857459369734
0.04817949661246135
0.1284220593146084
-0.2313195606561296
-0.3273787490552183
0.02460972968318054
-0.3003890892248256
0.0233690776267429
-0.2425272622118018
0.03176671389118091
0.07387859248762629
-0.2030804531069355
-0.2808180569271332
-0.2623180065747538
-0.2411618032592184
-0.181244696547337
-0.2333285318469565
-0.03758805754622624
-0.2333281610687167
1.314363237192584e-06
-0.2333281601264924
-8.358133629648989e-10
-6.855524481430564e-10
-0.2333281529525173
-0.2333283640333432
-0.07224370062840829
-0.2333281599972348
4.363144471275504e-07
-0.2333281590471369
-5.246290624150163e-10
-2.615974104003271e-10
-0.2333281590755669
-0.2333282290318936
-0.06975578405306881
-0.2333281597486958
1.276596517385542e-07
-0.2333281594834654
-8.973988219196372e-11
1.196945875747701e-10
-0.2333281597207972
-0.2333281719926372
-0.2333281598736223
-0.2333281597252398
-0.2333281586519058
-0.2333280729113181
1.368250523992032e-08
-0.233328049367866
4.705876257560249e-07
-0.2333376102720876
5.068561190757492e-06
-2.614411291246288e-05
-0.2339026401226644
-0.2333281772821355
2.621722561269024e-08
-0.2333283692769292
8.731628238778377e-07
-0.2333419945536935
1.1965537514258e-05
0.0001305274829956904
-0.2340458567796797
-0.2333281812057022
4.812911680307508e-08
-0.2333285947935952
1.491706311251839e-06
-0.2333627026248812
2.960986197370064e-05
0.0007278692415747523
-0.2350437728700131
-0.2333280688760649