/*--------------------------------*- C++ -*----------------------------------*\
  =========                 |
  \\      /  F ield         | OpenFOAM: The Open Source CFD Toolbox
   \\    /   O peration     | Website:  https://openfoam.org
    \\  /    A nd           | Version:  11
     \\/     M anipulation  |
\*---------------------------------------------------------------------------*/
FoamFile
{
    format      ascii;
    class       surfaceScalarField;
    location    "0.2125";
    object      phi;
}
// * * * * * * * * * * * * * * * * * * * * * * * * * * * * * * * * * * * * * //

dimensions      [0 3 -1 0 0 0 0];

internalField   nonuniform List<scalar> 
1652
(
1.706212168242967
0.5337381654508337
-2.220446049250313e-16
1.17247400290498
0.5337381646452861
6.703526622686695e-13
0.6387388651729877
0.5337169313338022
1.831867990631508e-13
0.5304123607224902
-5.837996752688923e-12
0.1052615855968354
1.706212168246046
1.06747633089773
1.17247400248695
1.067476330866096
0.6387425477887775
1.067413104844631
1.056734175335572
0.1069086665717312
1.706212168254435
1.601214496346823
1.172474003403006
1.601214497140042
0.6387516301314696
1.601049924461861
1.578645307816454
0.1084650633121058
1.706212168256004
2.134952661784208
1.172474003909787
2.134952655832923
0.6387703068589622
2.134538377849456
2.099263584441505
0.1061851065103395
2.651191215491975
1.723711780215623
3.167429769554469
1.723711780124129
3.683668334801367
1.723711778856183
1.723711875526328
4.199905910781607
2.651191157562564
1.207473247838703
3.167429296503745
1.207473142696132
3.683656790984576
1.207473518979637
1.207478974163708
4.199886128294787
2.650816628446069
0.6906339355453416
3.167382576597246
0.6898379756670169
3.68423090467063
0.6889395946963786
0.6895263131213968
4.198973047689569
2.645421832791237
0.12317495725405
3.261148227010309
0.04742856648355265
3.891461800028621
0.02297977560575487
4.527544073425752
0.01372855849928928
4.164906287062753
0.03499812668286029
4.129905404430526
0.03498670614797394
4.094904365809206
0.0350017165283214
0.03490715854486692
4.059892706449531
4.164948022741783
0.06986229304033559
4.130085759060833
0.06962703985751351
4.095502475116426
0.069112199165691
0.06858583129824986
4.060936168664404
4.172909102430597
0.09042080597981006
4.150045289703212
0.08336649006552477
4.131600301470363
0.07609411295283758
0.06930278328329448
4.114562205101869
4.575815191179808
0.008910116806487789
4.617868504150954
0.006720433887596633
4.660876000202177
0.007113342228669328
4.698792246067658
0.007514615779933731
4.671713169503652
0.09067593634052018
-0.06789622454834873
4.605978728933766
0.08426727285920321
-0.01698088143059098
4.54796603160626
0.07739967490558874
-0.009093545090213817
0.0693168792361763
4.502758473881668
-0.008622046355169027
4.178445590299506
0.006028870010156617
4.227170123850835
0.01178035878510469
4.262136001101112
0.01819172208634762
0.02384111555866242
4.284407612453802
4.063465402702978
0.0003823883484124213
4.068683452826089
0.001115945635096316
4.076496460080677
0.002333765072903171
0.003814817875265608
4.086119815546099
4.059882963575777
4.059964914076859
4.060313631730786
4.060507946879523
4.060621361389912
-0.005182203926145545
4.06041625576105
-0.005994507475952315
4.059919753183054
-0.005888070754264119
-0.005314328830372306
4.059495871498594
4.096015422493696
-0.026820743156171
4.103794577333028
-0.02776998903066097
4.104392601312716
-0.02595375365401631
-0.02207537753708111
4.101377178962264
4.297206374667046
-0.06001684421995573
4.303304057690476
-0.0498381595532027
4.297396519126741
-0.03986451317544848
-0.03010784731105087
4.283670638122697
4.46323841928732
-0.006970223585340302
4.437536051471922
-0.004388437194849215
4.432232120386488
-0.001840921798347883
4.434168564747948
0.001687936576463323
0.02375357396447764
4.418939152105415
0.003324890251383883
0.01810925898058502
4.262766993864489
0.004412247163232408
4.095624605925142
4.05921736643781
0.01970413804065624
4.396451464588136
-0.006679508162665493
0.01453242589960002
4.235406765064294
0.003405176732586002
4.088140977929863
4.059124600600604
0.01477099469640047
4.426613908176705
-0.1127184319659512
0.006990072005284176
4.201356404853609
0.001907162988647015
4.077907742570493
4.059214058561402
0.04792731863186606
4.273318082909559
-0.1308814307479911
0.004726591367445687
4.172678001566105
0.0007796887013012954
4.068591360607426
4.059383093217048
0.09292224262697585
3.966349622203083
0.1823664384999774
3.970210761686451
0.1927321604666075
4.049250782624155
4.059874588243287
0.1380468472125804
0.09273957500261043
3.873252393355649
0.1793495385642169
3.876308511024045
0.1507551958997916
3.943976472968411
3.860457241147019
0.1019136038322452
0.09185845014684418
3.780340001285936
0.1708077010727713
3.784560231820918
0.08685451656819654
3.853513685449026
3.647715993576146
0.06419665834828114
0.08988703117766628
3.687679453055662
0.1545256400854517
3.6953320907366
0.02497461052522909
3.770069500097867
3.438498772195398
0.04267991201035282
0.04457531372989232
3.214045595324327
0.05004995121171185
-0.1230302895217285
3.67791169663576
-0.08544686836868715
3.608706957772552
3.596029575767453
0.1108415480840255
2.986208937097319
0.02120597819375603
-0.07634623393578827
3.575789057945574
-0.07767617366098206
3.524098982969112
3.505493771754849
0.1396377604214485
2.79531185442175
-0.005062512548371534
-0.01255172530909177
3.43404876130515
-0.06423938152350817
3.440398272038224
3.417332769758477
0.1666173375859338
2.638074949331861
-0.02661739818653341
0.04899199929763098
3.319482845198173
-0.0447052352951206
3.345897998888878
3.331603200572895
0.04181215352285772
3.224442652367884
-0.06909827433895466
3.237364200313899
-0.1000313383347223
3.211158663205461
2.651608131439161
-0.03164552743290105
0.03544289110819387
3.113025202870655
-0.01757127187124807
3.11694430369775
-0.01346534409315325
3.14732639232729
2.699421531750645
0.02077372611988759
0.05136394325261862
2.99424429187916
0.0450139456114329
2.995664196771041
0.08779455462704644
3.077818004556096
2.754386330791076
0.1049007923643576
0.07312713717608754
2.865204034701692
0.1107987103585453
2.869894271733657
0.1923510060261704
2.967938324827073
2.768013484849224
0.2410975419641955
-0.2508996860994909
3.064116648704181
-0.529721507903179
3.09518501310108
-0.7309204024342685
3.180937205759507
2.88303760293828
-0.7802120081263334
-0.2367903560496781
3.262000959632152
-0.4880282542783703
3.31749376169871
-0.6594396990735267
3.38584295753476
2.606347422419728
-0.2587755431368456
-0.2233000412650925
3.459467081408259
-0.4425531353409608
3.518701696476856
-0.5775481798091956
3.571099098219702
2.240625509514625
-0.0401613930635927
-0.2135609001544655
3.656763103781075
-0.4127540194959698
3.708956875306685
-0.4930539913018114
3.704173377550052
1.926998198579157
-0.02474977643977165
0.2048552017436341
1.831009673865732
-0.01136738952477824
0.1980770142399507
3.76154830266255
0.1008361132360062
3.805441114781428
3.752248969600901
0.1746111934506296
1.763669022653865
-0.008592368922554459
0.1851785814118517
3.821896901131283
0.09744139611050207
3.890056437490308
3.851624506798714
0.1425468903721465
1.747672077666645
-0.006613110680961806
0.1779151379522943
3.865197697215772
0.103204986601491
3.968890996813465
3.955904677854856
0.1031224539339735
1.784566575184934
-0.006484769738962337
0.170680094083189
3.892422700230789
0.102753140264968
4.051202683471822
4.059908077782512
-0.2592321787536928
2.235432769226954
0.01995785111028453
-0.06612789391281926
3.853116026492539
-0.003950917936589082
4.03940574828427
4.05929074497626
-0.2124907159192293
2.55664633733804
0.08235827706180386
-0.04586362201661554
3.815025687885458
-0.002114443692463386
4.040785621547014
4.059587962463574
-0.1453376982439753
2.686029101234293
0.1072120322007478
-0.02776020617388253
3.825334970181866
-0.0009722201760662408
4.049721335231734
4.059803601818862
-0.112093603907128
0.1317982598161659
2.713227835837116
-0.01841275460470704
3.858703708337622
-0.0004222308268284625
4.050665635642091
4.05985922439914
0.4876143856329014
-0.03527752610218249
-0.01003303086184215
3.97504251736791e-12
1.15742199240226
-0.472176787690934
-1.884714606603666e-12
1.71278102338858
-0.5224318521632099
1.512301395223403e-11
-0.5249243125986314
-1.194511156654698e-11
0.4791290688477133
-0.2110574253754143
-0.01100560492983787
1.154540426240189
-0.9326800217291225
1.712862642700233
-1.04385410133602
-1.049835794204882
0.4663616891874069
-0.4822149581809514
-0.01313143056748929
1.149555797953672
-1.397430365073402
1.712880421270071
-1.564463754876102
-1.574749239375008
0.4561213586397642
-0.01765444252018715
-0.8435973501724414
1.145544313030885
-1.877411417183127
1.712887781309719
-2.085497556071644
-2.099679253404702
-0.1120936039057846
-2.686029101232229
0.1317982598159119
2.713227835834097
-0.01841275460041691
-3.825334970185968
3.85870370833543
-0.000422230824571157
-4.049721335227404
4.050665635636294
-4.059803601820317
4.059859224395437
-0.1453376982432736
-2.556646337334376
0.107212032200794
-0.02776020617502339
-3.815025687892295
-0.0009722201805952846
-4.040785621550592
-4.059587962465788
-0.2124907159199853
-2.235432769223547
0.08235827706153126
-0.04586362202030825
-3.853116026499867
-0.002114443693836066
-4.03940574828813
-4.0592907449776
-0.2592321787532114
-1.784566575178661
0.01995785111016715
-0.06612789391616725
-3.892422700238274
-0.003950917938994269
-4.051202683471448
-4.059908077781976
-0.1008361132306949
3.75224896962748
-3.656763103815413
-0.1980770142278015
3.805441114801704
-3.708956875331155
-0.2048552017380033
3.761548302637448
-3.704173377516179
1.831009673848755
-1.92699819855716
-0.01136738952491594
-0.0974413961034295
3.851624506815365
-0.1851785813984813
3.890056437505792
-0.1746111934451249
3.821896901115573
1.763669022640561
-0.0085923689226068
-0.1032049865943975
3.955904677863827
-0.1779151379374937
3.968890996820346
-0.1425468903664838
3.865197697210462
1.747672077656276
-0.006613110680797542
-0.1027531402580744
-0.1706800940676111
-0.1031224539287356
-0.006484769738725207
0.4930539913048565
-2.240625509496375
-0.02474977643969763
0.4127540195098988
-3.571099098197211
0.2135609001591793
-3.518701696491468
-3.459467081440544
0.5775481798139077
-2.606347422406745
-0.04016139306304581
0.4425531353550879
-3.385842957522915
0.2233000412708509
-3.317493761704917
-3.262000959651762
0.6594396990813037
-2.883037602934918
-0.2587755431357446
0.4880282542923401
-3.180937205754409
0.2367903560546683
-3.095185013101959
-3.064116648675338
0.7309204024416707
-2.768013484851723
-0.7802120081286644
0.5297215079142503
-2.967938324828987
0.2508996861083234
-2.869894271736381
-2.865204034667519
0.04181215352611545
3.224442652377522
-3.3316032005867
-0.0690982743332329
3.237364200317976
-3.345897998907207
-0.1000313383310401
3.211158663193141
-3.319482845180921
2.651608131434084
-2.638074949325789
-0.03164552743232507
0.03544289111420362
3.113025202875609
-0.01757127186261009
3.116944303701626
-0.01346534408910949
3.147326392323182
2.699421531749929
0.02077372612143957
0.05136394326229565
2.994244291859359
0.04501394561853611
2.995664196779331
0.08779455463156816
3.077818004554506
2.754386330791729
0.1049007923655599
0.07312713717993446
0.1107987103644546
0.1923510060293769
0.2410975419647632
0.1666173375878189
-2.795311854416005
-0.02661739818692799
0.04899199930936837
-3.434048761306187
-0.04470523529130443
-3.440398272078295
-3.417332769763722
0.1396377604207237
-2.986208937087315
-0.00506251254848411
-0.01255172530808857
-3.575789057942471
-0.06423938151786013
-3.524098982998992
-3.505493771759817
0.1108415480893273
-3.214045595319133
0.02120597819308379
-0.07634623392763962
-3.677911696618146
-0.07767617366034829
-3.608706957762148
-3.596029575775196
0.04457531373612511
-3.438498772205447
0.05004995121198075
-0.1230302895019508
-3.770069500108907
-0.08544686835930415
-3.695332090751794
-3.687679453051063
0.09292224262717685
3.966349622203505
-4.059383093217217
0.1823664385001103
3.97021076169293
-4.068591360604725
0.1927321604658868
4.049250782625384
-4.172678001566546
4.059874588246482
-4.273318082910568
0.1380468472124885
0.09273957500348262
3.873252393357034
0.1793495385663242
3.876308511021381
0.1507551958983721
3.943976472963067
3.860457241143848
0.1019136038316237
0.09185845014465155
3.78034000129029
0.1708077010684051
3.784560231820383
0.08685451656685628
3.853513685448852
3.647715993571775
0.06419665834789956
0.08988703118130964
0.1545256400927468
0.02497461052893801
0.04267991200703325
-4.059214058562397
-0.0007796886994327901
-4.059124600602416
-0.001907162988902367
-4.059217366438976
-0.003405176731680504
-0.004412247164114591
-4.059495871498647
-4.077907742569677
-0.00472659136768272
-4.088140977929667
-0.006990072006721415
-4.095624605925417
-0.01453242589996273
-0.01810925898152138
-4.101377178962712
-4.201356404854424
-0.04792731863151095
-4.235406765064149
-0.01477099469638576
-4.26276699386365
-0.0197041380411625
-0.02375357396465577
-4.283670638123636
-4.426613908176605
-0.1308814307478872
-4.396451464588143
-0.1127184319653668
-4.418939152105128
-0.006679508162617309
-4.434168564747898
0.003324890251229007
-0.005314328830044457
-4.059919753181332
-0.02207537753652905
-4.104392601313958
-0.03010784730999144
-4.297396519129703
-4.43223212038605
0.001687936576925175
-0.005888070754475394
-4.060416255760216
-0.02595375365289732
-4.103794577333204
-0.03986451317502704
-4.303304057692758
-4.437536051470708
-0.001840921798220596
-0.005994507475803212
-4.060621361389716
-0.0277699890305429
-4.096015422492766
-0.04983815955354315
-4.297206374674129
-4.463238419286903
-0.004388437195118167
-0.005182203926482054
-4.060507946879627
-0.02682074315721517
-4.086119815543305
-0.06001684421980591
-4.284407612460647
-4.502758473879161
-0.006970223585288177
-0.0003823883501933301
4.059882963569539
-4.059892706441209
-0.006028870015116539
4.063465402684414
-4.060936168642634
-0.09067593634439886
4.178445590310429
-4.114562205114546
4.671713169511527
-4.698792246077875
-0.06789622454781194
-0.0011159456375327
4.059964914070318
-0.01178035878891376
4.068683452813522
-0.08426727286266411
4.227170123862661
4.605978728939543
-0.01698088143073884
-0.002333765074655991
4.060313631728553
-0.01819172209412051
4.076496460072524
-0.07739967491028016
4.262136001110998
4.547966031608158
-0.009093545090803512
-0.003814817877748178
-0.02384111556575558
-0.06931687923945296
-0.008622046355592383
-0.06930278328636952
-4.660876000208175
0.007514615779854461
-0.06858583131254231
-4.131600301475583
-0.0349071585498254
-4.095502475104165
-4.094904365805081
-0.07609411295946711
-4.617868504152344
0.007113342228541875
-0.06911219917944816
-4.150045289700881
-0.0350017165293024
-4.130085759063005
-4.12990540442827
-0.08336649007254976
-4.575815191176076
0.00672043388739868
-0.06962703986918722
-4.172909102420348
-0.03498670614752464
-4.164948022758853
-4.16490628706133
-0.09042080598413171
-4.527544073421521
0.008910116806305934
-0.06986229305289843
-4.198973047673654
-0.03499812668609903
-4.199886128323355
-4.199905910780526
-0.6895263131203319
-3.891461800028012
0.01372855849971966
-1.20747897415549
-3.684230904657975
-1.723711875528879
-3.683656791003789
-3.683668334799573
-0.6889395946947242
-3.261148227012265
0.02297977560619552
-1.207473518972458
-3.167382576590192
-1.723711778856391
-3.167429296514821
-3.16742976955365
-0.6898379756665552
-2.645421832793636
0.04742856648336485
-1.207473142691419
-2.650816628443105
-1.723711780124883
-2.651191157567852
-2.651191215490057
-0.6906339355448464
-2.099263584443613
0.1231749572530764
-1.207473247835768
-2.134538377850891
-1.723711780218764
-2.134952655831659
-2.134952661785862
1.706212168246007
0.5337381654477904
1.172474002909223
0.5337381646506953
0.6387388651763122
0.5337169313360715
0.5304123607220359
0.1052615855953385
1.706212168246561
1.067476330894281
1.172474002486972
1.067476330864277
0.6387425477889542
1.067413104846822
1.056734175339094
0.1069086665688902
1.706212168253668
1.60121449634353
1.172474003400785
1.601214497137355
0.6387516301300893
1.601049924463319
1.578645307821014
0.1084650633104949
1.706212168253126
1.172474003906075
0.638770306855668
0.1061851065087299
0.1050575377501841
0.1050575377496858
0.1046251158442747
0.1068043638789229
0.1050380921440799
0.1073754242449803
0.1041524215367667
0.1062241684969668
0.1068043638808234
0.1046251158446998
0.1064789824009654
0.106478982400834
0.1067521238128369
0.106286668202453
0.1002653012087168
0.1097419433311979
0.1073754242468723
0.1050380921442203
0.1062866682039239
0.1067521238131573
0.1058452733256048
0.1058452733245018
0.09683284786945098
0.1084677030150395
0.1041524215384376
0.1062241684971238
0.1002653012100767
0.1097419433318494
0.09683284787076375
0.1084677030139884
0.09652706014350824
0.09652706014459234
-0.03953849715827856
0.1349125003546134
-0.06480992929498897
0.1323703109164559
-0.09358184731084523
0.136964384100436
0.1341623017406267
-0.007651084972362443
0.1413201881753221
-0.01831233110482572
0.1417168012650133
-0.0300980101883575
0.1473776910714675
0.1499483473391528
-0.003417657865014412
0.1433777834513694
-0.01058329802142216
0.1474754437967558
-0.0169540344682349
0.152337743754388
0.1543834461046834
-0.001686401797118542
0.1442538541198895
-0.006935219692998706
0.1518038190120372
-0.01069276851710432
0.1550594977469481
0.1562146204663086
0.1563130831374304
0.008012952582243937
0.156619377632842
0.005856601868743483
0.1571978538141253
0.00643395448850953
0.006893210197528143
0.158070382403024
0.1557992478701287
0.006570362642653316
0.1564113875634277
0.004804123251194559
0.1573332095165403
0.005576989158671664
0.003095872565335334
0.1613561415108237
0.1539321212641022
0.003718099066622793
0.1554127007464151
0.002868844762755174
0.1572689629098076
0.003801793119176
-0.01077548507175902
0.1714077729654419
0.1473037290933722
0.1497388136778438
0.1536149634832271
0.1429053113085234
0.1459098417268379
-0.05496857211867834
0.1378858310095965
-0.008212186697622942
0.1371928770513349
-0.007122537978575427
-0.008102901375129812
0.1380803049706399
0.1491039332844648
-0.04199926229280268
0.1446657418627834
-0.002883332175866143
0.1429044161247187
-0.003976383633744279
-0.005443828760814007
0.1417058260902697
0.1552298341870429
-0.02521826319958534
0.1507509997549043
0.00264648268360268
0.1478576868369318
0.0003165058754674155
-0.001077172074782917
0.1449495228896996
0.1183286348173738
0.1220913257903075
0.1237244575426947
0.1240609691009684
0.1392534944471633
-0.006670828187123445
0.1406673712255491
-0.004367916930399729
0.1425126110544578
-0.002021283639222493
0.0009268821670537775
0.1448002975471458
0.1411633815976488
-0.00459498382524981
0.1411347707940238
-0.002869968937946304
0.1422629944549854
-0.00147927890238933
0.0005354451132990878
0.1442258371987783
0.1426704125137758
-0.0008088352172125335
0.1414895473840792
-0.0003036454029126667
0.1413678932915213
0.0003245051108729247
0.0006462959270680801
0.1427723934269749
0.1246982142317744
0.1259248483913418
0.1279143971061222
0.130071799267889
0.1462978999211382
0.00288295221767304
0.1488011975034199
-0.01059268962720911
0.1533926212098966
-0.1227869078158639
-0.1071981275461997
0.123603528428676
0.1456311944484605
0.002498946530934298
0.1448557885639224
-0.01217117953418806
0.1301802179374182
-0.1133654991609302
-0.07317794757351154
0.09173406045041957
0.1443579252306332
0.00198637923273004
0.1401379461593784
-0.010441898312683
0.08431464803251582
-0.06297132153445228
-0.04370808290659112
0.05093095228187679
0.1332445096852709
0.1199313275007662
0.05110798571333516
0.003829565053371856
0.1348562642631264
0.1221942769181265
0.1377862932739343
0.09540323909010773
0.1417454128499252
0.05620378458626596
0.03387715272653768
0.1452036127591809
0.1231094315215956
0.08675041339298073
0.1351481528427556
0.07998623252875647
0.1406531312352668
0.04677201214458315
0.02508187268043161
0.1443172400864791
0.09445487798686546
0.03928575561542524
0.1236404890226093
0.04758230808713271
0.134458169886968
0.03213273004460082
0.01549531018761385
0.1394042223746038
0.03970846097487202
0.08405078169014453
0.1121860532825186
0.1237357949252691
0.1476286652727218
0.04104961706643506
0.1446116857804759
0.02190412663107699
0.1467623900161292
-0.005426096954009862
-0.02361990279167048
0.1484187207266289
0.1475412039463884
0.03114980434493897
0.1475157855368293
0.01895666422477205
0.1478285300767649
-0.001732807205912512
-0.01702117737501407
0.1485236611166416
0.1455511478763296
0.01740076253571099
0.1479857080223644
0.01303803369906931
0.1499697490486338
0.0001058928421633354
-0.008787502926353774
0.1507686864735401
0.1332742063492774
0.1427489214204816
0.1469167347599152
0.1483841290429173
0.1474021685242881
-0.02203255963845918
0.1608464525881539
0.01518109816450341
0.1893688637370908
0.083029613689587
0.1888470289732517
0.2458823544548174
0.148827572883121
-0.01313013275240715
0.1609145757309223
0.01065647247417578
0.1854861672056675
0.06477126433955327
0.1290244519118992
0.2489754150536503
0.1525231770269684
-0.003306394837343296
0.1585052944679884
0.01178524511194068
0.1849170785936982
0.04367688337294834
0.03505917050566387
0.2821295550696032
0.1544172714330435
0.1737916347873989
0.2221797707950026
0.2605663592600584
0.1205612317339565
-0.6503506891020004
0.01355927700982952
-0.1503073497422241
-0.001190123297014596
-0.02406504364230676
-0.01873353033799674
-0.004671876607402712
0.08500248208089622
-0.4827229385049321
0.003944130546687023
-0.06823889809089952
-0.005225016892841167
-0.01362656271920059
-0.01265989373280768
-0.009066136826606347
0.0457956041462844
-0.2446928144464645
-0.0001393463473537632
-0.02180994778105539
-0.007610237781448035
-0.004927815328262287
-0.006557668140756718
-0.01127516044460763
0.01672419241709009
-0.004725449274311459
-0.00813318309662197
-0.01172191069092944
-0.003841919164088553
-0.01004989205946971
-0.00269409224344797
-0.007503827813093774
-0.002349984286642608
-0.004321669364392662
-0.004306162506934406
-0.002525900299739797
-0.008908843710957626
-0.007865076411919018
-0.007777090699938021
-0.005974697818407163
-0.006134360355822883
-0.003009393353633268
-0.00225379309537186
-0.006294632687102165
-0.01169880409671527
-0.004531800357951771
-0.01065613363716098
-0.003614667487010455
-0.008343691852651438
-0.002020210390134405
0.0004567228901772719
-0.008229618179803899
-0.0130361820673899
-0.01270424942144487
-0.01113355439722578
-0.007635473162956697
0.01914186901578992
0.002574933095256415
0.04670293380415727
0.05775720684312603
0.07075231881042503
0.08422090335939554
0.1102605799287847
0.09184088918349548
0.004936378257566876
-0.004522359489790975
0.03479594325998089
0.03171593244132571
0.06375764557533707
0.05681348701577464
0.08271847787678978
0.09107797003918958
-0.003928024781788005
-0.00501066730077103
0.02040753686167755
0.01131837523277109
0.05113746155172645
0.02813205299861141
0.05028913019728053
0.08366249709690284
-0.009302038963706932
0.005868786674131619
0.03701262820904686
0.08793922821736935
0.07966635787398736
-0.06568613886221583
0.07540173256784877
0.06451088549438808
-0.05682303801118712
0.06937695229520469
0.04821943928616582
-0.05041686204371055
0.0656236776591434
-0.03408659116116686
0.03001476026696605
0.05118800786814817
0.07675285852533412
-0.0518074017807104
0.06219214344444954
-0.04318191079890078
0.04645270955810873
-0.03611767401786223
-0.02116391518657858
0.03169228805868515
0.06677370006777225
-0.0348656405176742
0.05090984284392693
-0.02672037807832148
0.03254570958258619
-0.01789049152686567
-0.0070503308288654
0.01795503818738067
0.05317763623565355
0.02700125889489039
0.009260436369894064
0.001747718348210532
-4.389129530819186e-05
0.000658159384888956
-0.0005603942017902847
-0.001421454083642807
-0.0004085667691303349
-0.002390900244626765
-0.002968954210887317
-1.690314554991801e-14
0.01164460811087628
0.005999055042710155
0.007199893104731139
0.001371251114352254
0.003640420741458449
-0.0009652469346359861
-0.001831093123080933
-2.35159114403416e-14
0.02502337607559171
0.01100505817385931
0.01782864581952438
0.006474941495628918
0.009425039581215856
0.004884525180688045
0.004836444055913269
-2.165628787409446e-14
0.02238790173726128
0.01458212771533259
0.006866593436408129
2.782496455466799e-14
-0.002968954210899509
0.0004085667691024822
-0.001831093123095567
-0.003640420741517381
0.004836444055882173
-0.009425039581253354
-0.006866593436335597
0.01003303086178247
-0.002390900244634293
0.0005603942017605654
-0.0009652469346360902
-0.007199893104783375
0.004884525180701628
-0.01782864581956437
-0.01458212771526994
0.01100560492989237
-0.001421454083638224
4.389129528124813e-05
0.001371251114368473
-0.01164460811091453
0.006474941495685917
-0.0250233760756393
-0.02238790173728009
0.01313143056769226
0.0006581593848964153
-0.00174771834821779
0.005999055042717926
-0.01795503818741306
0.0110050581738856
-0.03169228805873626
-0.03001476026703089
0.01765444252028862
-0.04821943928622418
-0.03408659116117284
0.05118800786817808
-0.06451088549441457
-0.05041686204372588
0.0656236776591755
-0.07966635787396109
-0.0568230380112154
0.06937695229524161
-0.06568613886221945
-0.09184088918342762
0.07540173256786761
-0.04645270955812815
-0.02116391518658611
-0.06219214344444174
-0.03611767401786649
-0.07675285852531596
-0.04318191079889957
-0.05180740178072386
-0.09107797003914289
-0.03254570958260077
-0.007050330828867826
-0.05090984284394651
-0.01789049152685801
-0.06677370006777611
-0.02672037807830936
-0.03486564051768716
-0.08366249709688101
-0.009260436369886486
-0.02700125889487617
-0.0531776362356248
-0.08793922821734179
-0.0370126282090182
-0.05028913019724086
-0.00586878667412212
-0.02813205299854822
0.009302038963623492
-0.01131837523265135
0.005010667300751198
0.007635473162913266
-0.05113746155170333
-0.08271847787670827
-0.02040753686162003
-0.05681348701573312
0.003928024781764301
-0.03171593244109018
0.004522359489818384
0.00822961817975431
-0.06375764557532698
-0.110260579928634
-0.03479594325988929
-0.08422090335938349
-0.004936378257491929
-0.05775720684283085
-0.002574933095149001
0.006294632687110054
-0.0707523188104338
-0.04670293380407094
-0.01914186901567397
0.00252590029990292
0.002349984286775429
-0.004306162506676682
0.002694092243559676
-0.004321669364211501
0.003841919164167641
-0.007503827813103811
-0.01004989205956131
0.004671876607418621
0.006134360355913049
-0.002253793095153701
0.007777090700030943
-0.003009393353447992
0.008908843711046135
-0.005974697818387005
-0.007865076411996519
0.009066136826658092
0.00834369185272953
0.0004567228902656317
0.01065613363723945
-0.002020210389994927
0.01169880409681729
-0.003614667487010156
-0.004531800358000774
0.01127516044467224
0.01113355439724884
0.01270424942154856
0.01303618206750755
0.01172191069100768
0.00119012329708954
-0.01873353033799595
-0.01355927700933182
-0.02406504364215833
-0.120561231733036
-0.1503073497415885
-0.6503506891031922
-0.2458823544551064
0.005225016892895213
-0.01265989373282187
-0.003944130546495991
-0.01362656271917982
-0.08500248208031423
-0.06823889809067954
-0.4827229385054241
-0.2489754150539269
0.007610237781498243
-0.006557668140763976
0.000139346347431935
-0.004927815328269185
-0.0457956041460206
-0.0218099477810289
-0.2446928144466926
-0.2821295550697335
0.008133183096662749
0.004725449274343976
-0.01672419241703429
-0.260566359260312
-0.1893688637374398
0.188847028973739
-0.1608464525885318
0.08302961369033313
-0.1474021685244888
0.01518109816566227
-0.02203255963804129
-0.1484187207267766
-0.1854861672059897
0.1290244519122905
-0.1609145757313359
0.06477126434021774
-0.1488275728834154
0.01065647247499657
-0.01313013275220787
-0.1485236611168361
-0.1849170785939738
0.03505917050591206
-0.1585052944683947
0.04367688337331699
-0.1525231770272132
0.01178524511242962
-0.003306394837088056
-0.1507686864737232
-0.2221797707953904
-0.1737916347878464
-0.1544172714334849
-0.1483841290430746
-0.146762390016268
-0.02361990279199644
-0.1446116857800547
-0.005426096954683324
-0.1476286652723859
0.02190412663051722
0.04104961706671306
-0.1452036127583099
-0.1478285300768333
-0.01702117737524833
-0.1475157855365295
-0.001732807206667353
-0.1475412039459843
0.01895666422439923
0.03114980434500625
-0.1443172400854899
-0.1499697490487181
-0.00878750292647712
-0.1479857080221353
0.000105892841509414
-0.1455511478759366
0.01303803369874801
0.01740076253571643
-0.1394042223735852
-0.1469167347599069
-0.1427489214203859
-0.1332742063487562
-0.1237357949236888
-0.1417454128496796
0.0338771527239814
-0.137786293273883
0.05620378458570807
-0.1348562642632725
0.09540323908957427
0.1221942769181029
-0.1236035284288695
-0.1406531312350532
0.02508187267870998
-0.135148152842709
0.04677201214403426
-0.1231094315217819
0.07998623252840542
0.08675041339294021
-0.0917340604506182
-0.1344581698867092
0.01549531018683203
-0.1236404890226323
0.03213273004413109
-0.09445487798715016
0.04758230808708319
0.03928575561550307
-0.0509309522821136
-0.1121860532821205
-0.08405078169034626
-0.03970846097513607
-0.003829565053478437
-0.1533926212100015
-0.1071981275462097
-0.1488011975034573
-0.1227869078153597
-0.1462978999212159
-0.01059268962709864
0.002882952217574564
-0.1448002975472805
-0.130180217937723
-0.07317794757346047
-0.1448557885640124
-0.1133654991606822
-0.1456311944485187
-0.01217117953407709
0.002498946530925084
-0.1442258371989029
-0.08431464803280328
-0.04370808290651035
-0.1401379461594532
-0.06297132153448348
-0.1443579252306488
-0.01044189831259762
0.001986379232769564
-0.1427723934270408
-0.05110798571336382
-0.119931327500895
-0.1332445096852727
-0.1300717992678031
-0.1425126110544355
0.0009268821674160155
-0.1406673712254624
-0.002021283639079385
-0.1392534944471673
-0.00436791693054786
-0.006670828187178152
-0.1380803049704818
-0.1422629944549166
0.0005354451134863825
-0.1411347707939075
-0.001479278902174003
-0.1411633815975895
-0.002869968938037259
-0.004594983825340432
-0.1417058260901655
-0.1413678932915023
0.0006462959271247293
-0.1414895473840378