/*--------------------------------*- C++ -*----------------------------------*\
  =========                 |
  \\      /  F ield         | OpenFOAM: The Open Source CFD Toolbox
   \\    /   O peration     | Website:  https://openfoam.org
    \\  /    A nd           | Version:  11
     \\/     M anipulation  |
\*---------------------------------------------------------------------------*/
FoamFile
{
    format      ascii;
    class       volVectorField;
    location    "0.2125";
    object      U;
}
// * * * * * * * * * * * * * * * * * * * * * * * * * * * * * * * * * * * * * //

dimensions      [0 1 -1 0 0 0 0];

internalField   nonuniform List<vector> 
880
(
(25 -2.622838394911314e-14 0)
(24.99999999946881 -1.277334159185442e-10 0)
(24.99991465986226 -5.499092392669233e-05 0)
(24.96248452503595 -0.005871668349941786 0)
(25 -2.854760237328654e-13 0)
(24.99999999060663 -7.124791234177088e-09 0)
(24.99978750538584 -0.0002222217460506521 0)
(24.93151848564029 -0.09270968710696682 0)
(25 2.315874527743034e-12 0)
(24.99999999435265 1.156894814564879e-08 0)
(24.99932647739764 -0.0006025712587800657 0)
(24.88082973320611 -0.1847327837871104 0)
(25.00000000000295 -1.116042569834502e-11 0)
(25.0000000202031 -1.413882999889463e-08 0)
(24.99772684511263 -0.001488357010331301 0)
(24.62862222286148 -0.3297538517604318 0)
(25.00000000018203 -2.861914466118584e-10 0)
(24.9999999993516 3.10702165988968e-09 0)
(25.00000000621602 2.773616242505599e-08 0)
(24.99999732132495 1.591915395046346e-06 0)
(25.00000025884653 -3.245263302794543e-07 0)
(24.99999718648165 1.079782323429355e-06 0)
(24.99997405176144 5.206766184772342e-05 0)
(25.0000480282572 -0.0001989851584434864 0)
(24.99174447621101 -0.002665920954357529 0)
(24.98401127073815 0.001088520058056534 0)
(24.97389476986001 0.01906376060268291 0)
(24.98440615778147 -0.02959446922926156 0)
(24.029174536694 -0.08592470974746753 0)
(23.4511904239884 0.5520881107234116 0)
(23.18144429996846 1.152531436378075 0)
(23.11494169039352 1.52577237515102 0)
(24.99999474381196 -1.800073381116763e-05 0)
(24.99997069976903 -5.97525509175418e-05 0)
(24.99987164962693 -0.0001813156553950999 0)
(24.99968899655181 -0.0006106570458106343 0)
(24.99935338074536 4.171720594135358e-05 0)
(24.99812377402116 0.0005005700175748575 0)
(24.99584852562478 0.002720327045008511 0)
(24.99406904017832 0.003824038155196133 0)
(24.91433917371324 0.006563554996116735 0)
(24.84659295832979 0.07004891952518337 0)
(24.77305747471893 0.1819110452538169 0)
(24.72852121218138 0.2385842471760247 0)
(23.07842826553696 1.963099766536968 0)
(22.89159891049215 2.385403155201856 0)
(22.96162030394346 2.754609895670368 0)
(23.09846782198449 3.202642857381691 0)
(24.0897371407847 3.630542897941102 0)
(24.66553814050071 3.39685715113422 0)
(24.94629040457063 2.948695457332602 0)
(25.19445256762706 2.51345468836091 0)
(24.58042498029743 0.4931699622498937 0)
(24.61193108076586 0.7812352318619005 0)
(24.70354521649972 0.9725591375798535 0)
(24.8466701668367 1.06397888071214 0)
(24.97647728566614 0.01468793448494382 0)
(24.9561817790847 0.04236072988225769 0)
(24.94205006741903 0.08710786429198325 0)
(24.94354124176112 0.1376536782267943 0)
(24.99860078407928 -0.001716904655578063 0)
(24.99645037140843 -0.004837646359978083 0)
(24.99373719796911 -0.009903336149677476 0)
(24.99084120324379 -0.01538712667555182 0)
(24.98611628871305 -0.01754234044909942 0)
(24.98317573063888 -0.01706306218422917 0)
(24.98201872392596 -0.014722677480313 0)
(24.98267335249543 -0.01196905410151289 0)
(24.96607145557498 0.178051734285028 0)
(25.00565854475461 0.1959243298433065 0)
(25.04040323091633 0.1863196685306839 0)
(25.05671324053766 0.1664419151056017 0)
(25.01277527894036 1.046765826323478 0)
(25.17355097192667 0.9729488649687643 0)
(25.29290250011282 0.8794373695782489 0)
(25.35978598672894 0.7776376517999287 0)
(25.39337797321292 2.103675735893229 0)
(25.55324662211891 1.692246318113164 0)
(25.71137450075451 1.309689134908674 0)
(25.87682170191574 0.9413914106320512 0)
(25.95493903226633 0.6963883968588016 0)
(25.38811908956908 0.6551178250575939 0)
(25.0632376290705 0.1372672054966037 0)
(24.98475522429846 -0.008896118098204436 0)
(25.87298707532171 0.5385664676772711 0)
(25.38027418193152 0.5531400488932687 0)
(25.06204191911822 0.1056123141978633 0)
(24.98795948011124 -0.006091818431288377 0)
(25.18994677304585 0.7545232463799323 0)
(25.35410190431661 0.3471958633203915 0)
(25.05713052565846 0.06019178924714531 0)
(24.99218296475217 -0.003017260121754263 0)
(21.38900219027182 1.38379466899257 0)
(25.0579457160519 0.3070699013939816 0)
(25.03509086141245 0.0257434685413737 0)
(24.99610663761401 -0.001267049220949763 0)
(24.9981942033622 -0.001040636430743107 0)
(25.00280956049401 0.01633288892313269 0)
(24.38699702588224 0.4191124055736931 0)
(16.73572082968807 2.632868333592434 0)
(24.99827674836949 -0.001588924670859559 0)
(24.98117281263278 0.02232570676332392 0)
(23.81897655550652 0.7449458800337146 0)
(16.43873832030459 4.500194427936399 0)
(24.99735388127784 -0.004180575150918069 0)
(24.93929158397157 0.05362050703161534 0)
(23.04392967591373 1.354405194993233 0)
(15.6179052871185 6.16349069216368 0)
(24.99228790288726 -0.009846780217482949 0)
(24.87972261881768 0.1233155031592772 0)
(22.31636731509867 2.21282904854347 0)
(15.33711222817375 7.572272230939807 0)
(15.31566369323417 8.808490175990949 0)
(21.55317419758853 3.356980294472438 0)
(24.76134275476327 0.2761148470321231 0)
(24.98436601953072 -0.02199143520493555 0)
(15.25419335382098 9.879119232268561 0)
(20.92586963156357 4.66251495587939 0)
(24.6123944158352 0.5317180943341733 0)
(24.9653848517872 -0.04154073653673632 0)
(15.56375619415325 10.65228303204495 0)
(20.54148913167261 5.86696672645165 0)
(24.38048272733965 0.9567254252717616 0)
(24.93839280624912 -0.07172986120754522 0)
(16.09414247959331 11.2272068968639 0)
(20.29882725054676 7.078859629032552 0)
(24.16568742788907 1.513882104359807 0)
(24.88743730262755 -0.1082260964925582 0)
(24.82190703543437 -0.1614943838467276 0)
(23.93482661048338 2.301086116972451 0)
(21.08403676514016 7.668230831744713 0)
(17.58344390326198 11.19329206443128 0)
(24.77038275286451 -0.2038158055345266 0)
(24.43439848838928 2.413362918016938 0)
(22.66164611221036 7.12088305747054 0)
(19.78582682434295 10.58590273104534 0)
(24.92773758648501 -0.1884850608053279 0)
(24.8983363599663 2.052573783917159 0)
(24.57324541259387 6.032892290560024 0)
(22.68325682173644 9.589714998555031 0)
(24.77236842336418 -0.319236626894557 0)
(25.13128383300015 1.45656524448167 0)
(25.78524201369455 4.341137602930261 0)
(25.74383055157803 7.336216542191011 0)
(24.83176070137122 -0.09544639021274459 0)
(25.41270601927998 1.304003684677988 0)
(26.97802050019183 3.041205883155379 0)
(29.98471096302229 4.627395399738502 0)
(24.89524067438841 -0.04555142179677282 0)
(25.7548952442333 0.8545492648837072 0)
(27.49947607666938 1.788864379689037 0)
(32.87094824912027 0.9941201744208323 0)
(24.97080932767599 -0.04467505001208021 0)
(25.7679068242835 0.4337674115265162 0)
(27.50580853572327 0.5896790854397155 0)
(33.03512419274104 -2.468293590453674 0)
(25.02733708918146 -0.03185143982494681 0)
(25.54360988673849 0.159707159792283 0)
(27.07942322476122 -0.3431194609017121 0)
(28.28753470488122 -1.657387559012547 0)
(24.52603541188746 -2.821811126148448 0)
(26.49358094924213 -1.312600228024093 0)
(25.35329668620194 -0.1305769819133668 0)
(25.03090266969899 -0.01868321241318277 0)
(21.20739606601023 -3.650119589228646 0)
(25.69065387297516 -2.116223345854734 0)
(25.17114132019837 -0.3042520859484099 0)
(25.01101086782546 -0.007105585158563601 0)
(17.75829546779998 -6.425088235419615 0)
(24.74609784399786 -2.692562002093954 0)
(25.02544926227228 -0.3092606867885724 0)
(25.00167628538805 -0.01018999185913016 0)
(13.86561908993535 -7.754048488803239 0)
(23.78422862928885 -3.013303058321748 0)
(24.89861229401479 -0.3267305827346758 0)
(24.99667879417577 -0.01215299450445593 0)
(13.91827268535382 -7.692229341360126 0)
(23.31446918031704 -2.522751044141371 0)
(24.84424345222442 -0.2311405887998126 0)
(24.99590471348713 -0.005504189750143985 0)
(15.83353278696408 -6.93548838345848 0)
(23.34524931778893 -1.715173033436412 0)
(24.86475696085653 -0.1268363184426139 0)
(24.99772843238607 -0.0022307429316962 0)
(17.31897399736541 -4.113356850564657 0)
(23.6280551774161 -0.8920738540232953 0)
(24.91192879656066 -0.05400079329517814 0)
(24.99891422777236 -0.0008708872630728702 0)
(19.58666249126079 -2.832154237902837 0)
(24.09940933019099 -0.6265539895735519 0)
(24.96862225910055 -0.04737856938763675 0)
(24.99962675512595 -0.0005036339888407551 0)
(19.52240297793802 0.5685732457146031 0)
(24.03002059658442 0.002915167444666748 0)
(24.91012662197265 -0.003060178580679249 0)
(24.9968103472149 -0.0001051326295722037 0)
(19.22088935782928 1.63678320144565 0)
(23.96496859416716 0.05731982476994802 0)
(24.91158096804604 -0.006608092254652713 0)
(24.99720555397338 -0.0002952095275118488 0)
(18.76505807413441 1.81491313853691 0)
(23.84789877556264 0.06782378210549805 0)
(24.90932274835049 -0.006889876187180496 0)
(24.99757549315428 -0.0002888783392840047 0)
(18.44006266963318 1.742447614618734 0)
(23.76288533378592 0.03187587667872264 0)
(24.90714050760304 -0.007951014217748459 0)
(24.99784994382058 -0.0002897075787448753 0)
(19.58666249128762 2.832154237882839 0)
(24.09940933026086 0.6265539895577565 0)
(24.96862225921683 0.04737856932156368 0)
(24.99962675522184 0.0005036339763222842 0)
(17.31897399739066 4.113356850533184 0)
(23.62805517747343 0.892073854034247 0)
(24.91192879658814 0.05400079331237578 0)
(24.99891422781515 0.0008708873076164075 0)
(15.83353278697767 6.935488383452209 0)
(23.34524931782167 1.715173033473057 0)
(24.86475696086367 0.1268363184967597 0)
(24.99772843240465 0.002230742941519736 0)
(13.91827268531389 7.692229341339708 0)
(23.31446918034356 2.522751044200333 0)
(24.844243452222 0.231140588819818 0)
(24.99590471348971 0.005504189773733759 0)
(25.03090266967809 0.01868321242799279 0)
(25.35329668618413 0.1305769818882282 0)
(26.49358094923534 1.312600228013069 0)
(24.5260354118549 2.821811126219282 0)
(25.01101086783146 0.007105585177604739 0)
(25.17114132018784 0.3042520859513126 0)
(25.69065387296603 2.116223345831937 0)
(21.20739606594766 3.650119589265857 0)
(25.00167628536072 0.01018999186165772 0)
(25.02544926226193 0.309260686790962 0)
(24.74609784404361 2.692562002164461 0)
(17.75829546773047 6.425088235466208 0)
(24.9966787941569 0.01215299449727956 0)
(24.89861229397496 0.3267305827047547 0)
(23.78422862930801 3.013303058380088 0)
(13.86561908987598 7.754048488808531 0)
(28.28753470483343 1.657387559043312 0)
(27.07942322476088 0.3431194608765237 0)
(25.54360988674568 -0.1597071597568076 0)
(25.02733708918363 0.03185143983328711 0)
(33.03512419272604 2.468293590494398 0)
(27.50580853572459 -0.589679085439107 0)
(25.76790682423047 -0.4337674115472499 0)
(24.97080932770254 0.04467505004861668 0)
(32.87094824914302 -0.9941201744063013 0)
(27.49947607666027 -1.788864379688146 0)
(25.75489524417817 -0.8545492648566543 0)
(24.89524067442831 0.04555142177531162 0)
(29.98471096303007 -4.627395399721448 0)
(26.97802050021311 -3.041205883138338 0)
(25.41270601929816 -1.304003684640283 0)
(24.83176070152879 0.09544638970101463 0)
(24.82190703544246 0.1614943838829097 0)
(23.93482661035718 -2.301086116978994 0)
(21.08403676504966 -7.668230831759029 0)
(17.58344390328157 -11.19329206443105 0)
(24.77038275285199 0.2038158055565878 0)
(24.43439848836384 -2.41336291797141 0)
(22.66164611217097 -7.120883057451341 0)
(19.78582682435859 -10.58590273103779 0)
(24.92773758634818 0.1884850612722412 0)
(24.89833635990564 -2.052573783900095 0)
(24.57324541261272 -6.032892290542757 0)
(22.68325682176467 -9.589714998543746 0)
(24.77236842322371 0.3192366268568724 0)
(25.13128383306642 -1.456565244438202 0)
(25.78524201368707 -4.341137602925023 0)
(25.74383055158811 -7.336216542182158 0)
(16.09414247961174 -11.22720689685421 0)
(20.29882725055056 -7.078859629089722 0)
(24.16568742792001 -1.513882104392785 0)
(24.88743730249849 0.1082260964819673 0)
(15.56375619416126 -10.65228303202409 0)
(20.541489131718 -5.866966726381225 0)
(24.38048272739245 -0.9567254252694692 0)
(24.93839280623519 0.07172986121519831 0)
(15.25419335380527 -9.87911923227678 0)
(20.92586963151948 -4.6625149558972 0)
(24.61239441599439 -0.531718094244279 0)
(24.96538485171057 0.04154073651309127 0)
(15.31566369325426 -8.808490175996102 0)
(21.55317419753275 -3.356980294547448 0)
(24.76134275453888 -0.2761148472363114 0)
(24.98436601953993 0.02199143521607468 0)
(24.99819420334998 0.00104063643060602 0)
(25.00280956047892 -0.01633288891762282 0)
(24.38699702588345 -0.419112405586829 0)
(16.73572082970302 -2.632868333608887 0)
(24.99827674829266 0.001588924674279242 0)
(24.98117281262202 -0.02232570674095848 0)
(23.8189765555654 -0.7449458800237545 0)
(16.43873832035644 -4.50019442797184 0)
(24.99735388118493 0.004180575161008064 0)
(24.93929158379726 -0.05362050711351491 0)
(23.04392967582996 -1.354405195036674 0)
(15.61790528707526 -6.163490692182314 0)
(24.99228790282444 0.009846780214558917 0)
(24.87972261908488 -0.1233155030387681 0)
(22.31636731520911 -2.212829048455688 0)
(15.33711222822525 -7.572272230923393 0)
(24.99610663761245 0.001267049216572104 0)
(24.99218296476313 0.003017260119924342 0)
(24.98795948007512 0.006091818445956351 0)
(24.9847552242993 0.008896118108276854 0)
(25.03509086151335 -0.02574346848584003 0)
(25.05713052568322 -0.06019178926014817 0)
(25.06204191914259 -0.105612314192561 0)
(25.06323762906818 -0.137267205536711 0)
(25.05794571609685 -0.3070699014045902 0)
(25.35410190430486 -0.3471958633365014 0)
(25.3802741819709 -0.5531400489006131 0)
(25.38811908959473 -0.655117825068037 0)
(21.38900219030338 -1.383794668995437 0)
(25.18994677304111 -0.754523246373331 0)
(25.87298707531841 -0.5385664676747336 0)
(25.95493903226866 -0.6963883968523638 0)
(24.98267335247102 0.01196905411654905 0)
(25.05671324050979 -0.1664419150987133 0)
(25.35978598672496 -0.7776376517676569 0)
(25.87682170190194 -0.9413914105983977 0)
(24.98201872394188 0.01472267747715172 0)
(25.04040323088638 -0.1863196685191683 0)
(25.29290250010347 -0.8794373695617709 0)
(25.7113745007546 -1.309689134901236 0)
(24.98317573063596 0.01706306218461165 0)
(25.00565854473853 -0.1959243298334829 0)
(25.17355097195588 -0.9729488649905048 0)
(25.55324662217751 -1.69224631812556 0)
(24.98611628874549 0.01754234043601732 0)
(24.96607145559379 -0.1780517342872917 0)
(25.01277527895381 -1.04676582631986 0)
(25.39337797322384 -2.103675735888935 0)
(24.99860078407814 0.001716904628861124 0)
(24.97647728571928 -0.01468793442399093 0)
(24.58042498027656 -0.4931699622639192 0)
(24.08973714076228 -3.630542897915866 0)
(24.9964503714542 0.004837646306099426 0)
(24.95618177909876 -0.04236072981370292 0)
(24.61193108075158 -0.7812352318558667 0)
(24.66553814048196 -3.396857151125964 0)
(24.99373719793828 0.00990333616144232 0)
(24.94205006744506 -0.08710786426972407 0)
(24.7035452165308 -0.9725591376250575 0)
(24.9462904046289 -2.948695457360881 0)
(24.99084120326077 0.01538712665630805 0)
(24.94354124178073 -0.1376536781988421 0)
(24.84667016683596 -1.063978880715975 0)
(25.19445256764687 -2.513454688377185 0)
(23.09846782199142 -3.202642857379795 0)
(24.7285212121659 -0.2385842472083775 0)
(24.9940690402463 -0.003824038078803798 0)
(24.99968899652191 0.0006106570561197028 0)
(22.96162030397311 -2.754609895651604 0)
(24.77305747469252 -0.1819110452570452 0)
(24.99584852569807 -0.002720326986388545 0)
(24.99987164964662 0.0001813156175647746 0)
(22.89159891048325 -2.385403155182594 0)
(24.84659295830189 -0.07004891953275492 0)
(24.99812377411038 -0.0005005700173704407 0)
(24.99997069977949 5.975247483331087e-05 0)
(23.07842826554836 -1.963099766534721 0)
(24.91433917371496 -0.006563555011160366 0)
(24.99935338079697 -4.171720167547402e-05 0)
(24.99999474375115 1.800074932768072e-05 0)
(23.11494169043886 -1.525772375140235 0)
(24.98440615779144 0.02959446924580358 0)
(25.00004802826233 0.0001989851645900288 0)
(24.99999732129686 -1.591891459703933e-06 0)
(23.1814442999962 -1.1525314363818 0)
(24.9738947698909 -0.01906376058703306 0)
(24.9999740518214 -5.206767157209516e-05 0)
(25.00000000621294 -2.773561460743254e-08 0)
(23.45119042401174 -0.5520881107355939 0)
(24.98401127075991 -0.001088520054522148 0)
(24.99999718651229 -1.079788423993839e-06 0)
(24.99999999935097 -3.118753528744146e-09 0)
(24.02917453671178 0.08592470972508717 0)
(24.99174447622866 0.00266592094349333 0)
(25.00000025885351 3.245340649496674e-07 0)
(25.00000000015297 2.989435181383617e-10 0)
(25.00000000000001 2.881902881251487e-14 0)
(24.9999999994692 1.157564379439385e-10 0)
(24.99991465984894 5.499092065103638e-05 0)
(24.96248452447968 0.005871668413518501 0)
(25 3.583558920503626e-13 0)
(24.99999999062619 7.121562928253569e-09 0)
(24.99978750538112 0.0002222217345398874 0)
(24.93151848551715 0.09270968706343768 0)
(25 -3.228744094286767e-12 0)
(24.99999999435686 -1.157221667767071e-08 0)
(24.99932647739656 0.0006025712478471741 0)
(24.8808297331897 0.1847327837523506 0)
(25.00000000000191 1.494885586685564e-11 0)
(25.00000002025484 1.413561833117184e-08 0)
(24.9977268451293 0.001488357000726876 0)
(24.62862222287782 0.3297538517337602 0)
(24.92853927093244 -1.472851269248491e-11 0)
(24.87094098860023 0.09736043408224859 0)
(24.70171493536155 0.1758978157212462 0)
(24.03332334282355 0.1030891137367195 0)
(24.87094098878094 -0.09736043417535695 0)
(24.74687643886844 -6.338425716410781e-11 0)
(24.31405878544729 -0.01092254947571906 0)
(23.1075519458128 -0.3731977352133018 0)
(24.70171493546946 -0.1758978157861301 0)
(24.31405878552617 0.01092254939706837 0)
(23.20260934441914 -2.168462357860635e-11 0)
(21.18058489478078 -0.5456275952465086 0)
(24.03332334281623 -0.1030891137933191 0)
(23.10755194582419 0.3731977351500826 0)
(21.18058489478426 0.545627595191522 0)
(18.81508069987587 -3.058049121312885e-11 0)
(18.13768719991288 2.615247604688692 0)
(18.84431929886107 3.059139782069238 0)
(20.63158370427189 2.69991138690046 0)
(22.18874297534881 1.771325127073846 0)
(19.11795263584188 4.376537286294515 0)
(19.23706140830718 4.365947668281841 0)
(20.05547806053195 4.295219093485097 0)
(21.19250876330413 4.018680304849056 0)
(18.95652058995632 5.464000787722073 0)
(19.800423411757 4.631948955557252 0)
(20.54721775461985 4.830038386514232 0)
(21.21849167519276 4.68289567418915 0)
(19.53021710823946 5.959947340944941 0)
(20.48035434695353 4.898387198857681 0)
(21.03574097951113 5.058231787618772 0)
(21.43996191074594 4.968945062723286 0)
(21.7715547907919 5.124298776645347 0)
(21.88423351420735 5.209020935006427 0)
(22.1447243599715 5.267144309765754 0)
(22.66591786088739 5.396559214703955 0)
(21.54843224545415 5.177407684371659 0)
(21.79266801931946 5.283830833688063 0)
(22.08111657171353 5.319549263634792 0)
(23.14139149326894 5.632866024952947 0)
(21.17324105379339 5.045157154747222 0)
(21.57921350292217 5.221620493146019 0)
(21.93056579597224 5.291277087714001 0)
(24.52286296086633 6.046435540540072 0)
(20.16286985039869 5.996287710343737 0)
(20.71574676217168 6.070200358644541 0)
(21.20411372391723 6.129335315822198 0)
(26.15893986912765 7.355271008532551 0)
(26.298352500346 3.177588985589516 0)
(26.74123765663649 0.7359620415618752 0)
(25.99826084470337 0.4337771208376988 0)
(25.79401856447527 0.4266338212845454 0)
(28.63984028310542 2.165353285428363 0)
(28.696449861246 0.3302717371349763 0)
(27.51359002244525 0.2866636999403663 0)
(26.81226431047986 0.3885351270689437 0)
(31.75240523594948 1.858069726731445 0)
(29.95811289945071 0.07263874414844239 0)
(28.44564675529551 0.08442169115301225 0)
(27.47198960299137 0.1528434329368966 0)
(25.54988906062432 1.590089222564298 0)
(24.07547086600727 0.6492969418611401 0)
(23.69183050435648 0.2782825727968275 0)
(23.46769189380125 -0.05609360211701404 0)
(25.73046359423861 0.3461009994089476 0)
(25.70878436791013 0.2253114601756584 0)
(25.70941668485702 0.1039952942387858 0)
(25.80539058974865 -0.05227495107893851 0)
(26.36813733928792 0.3441768016227284 0)
(26.01844840574461 0.2287926006716378 0)
(25.83762565537507 0.08606614998218634 0)
(25.79916903024382 -0.01861819371474117 0)
(26.77600777129038 0.1369496777858621 0)
(26.15798588198298 0.08626358683436157 0)
(25.86208328517016 0.007013484820726179 0)
(25.65323405517039 0.01063232806196662 0)
(23.27837544076365 -0.4658055904784967 0)
(23.21167361760032 -0.5851333143827631 0)
(23.2473605259047 -0.5386508344823047 0)
(23.24032938107782 -0.6272036418023592 0)
(25.89281998991804 -0.133457167561864 0)
(25.66607939937154 0.2576718443538798 0)
(21.57348714286473 3.947711143142263 0)
(15.56399967789023 3.650376328624067 0)
(25.8592866553579 -0.1212490847969523 0)
(25.37503412526035 0.5088925787709497 0)
(18.51350995316907 4.218179060184232 0)
(11.37836210145981 2.192785185581235 0)
(25.71172704395455 -0.04786405956913321 0)
(24.77729750399777 0.5493212318199217 0)
(15.24604926611699 3.278194514358517 0)
(6.008728551747199 2.446262260635035 0)
(23.77888392148325 -0.7383549223013572 0)
(22.19235605617838 -0.7669524155939126 0)
(11.83198755901076 -1.0749511654581 0)
(2.181172419204716 0.109220022333601 0)
(12.01513314062936 5.022650661005641 0)
(13.33461762231352 6.50739600159078 0)
(13.88322076990467 7.763520930674125 0)
(14.45466186766011 8.692109239013019 0)
(10.27460804387534 4.68731192083536 0)
(12.74943737015333 6.469573489042697 0)
(13.71495007467304 7.910090718613564 0)
(14.3204352842199 8.842773919323436 0)
(7.245912721148506 2.988049027296197 0)
(10.97545852690719 5.675893207992667 0)
(12.89714670138994 7.80334642607199 0)
(13.76549923410418 8.87042139185785 0)
(2.439594406976772 2.142152150159216 0)
(6.093458731068717 4.024785920423982 0)
(9.849869310009796 5.32236525338175 0)
(11.96027666225437 6.516367348114223 0)
(15.00479242358753 8.888490070608855 0)
(14.68580834697532 9.230169380434033 0)
(14.97408251245788 10.13267687476852 0)
(15.6336950798668 11.09864950945816 0)
(14.95119639850619 9.07722891348125 0)
(14.957591101675 9.381704548055747 0)
(15.09890456562644 10.16525874892157 0)
(15.53248534511798 10.88412863133942 0)
(14.52570150361004 9.251075622805566 0)
(14.9184281140764 9.517831127077013 0)
(15.20042991780774 10.13032026054836 0)
(15.61238095456824 10.66061589425 0)
(13.0294250438406 7.592264074022525 0)
(13.91008241028043 8.922378244976478 0)
(14.7846788859362 9.850216316049886 0)
(15.352078840345 10.34695559665872 0)
(16.37291687042559 11.71358687522328 0)
(18.01333063970977 11.87415888991639 0)
(20.80164496851924 11.67091509828295 0)
(24.8528666987702 10.34046191937731 0)
(16.34610490726298 11.44152044559651 0)
(17.91963799763163 11.76763960728144 0)
(20.47763952512993 11.71790410317987 0)
(24.7907825180325 12.35885306140391 0)
(16.47673039954716 11.18206126047816 0)
(17.7177006327683 11.68121972584541 0)
(20.60120310030767 12.61809643042219 0)
(30.81218933230743 18.05622285340852 0)
(16.36923098985887 10.47196723480035 0)
(17.7632750118876 11.23376155142323 0)
(21.49470265664199 13.01833630265277 0)
(42.03020357552178 24.82610253391888 0)
(30.57585620168701 5.445712437658607 0)
(32.89447206585533 -4.645706181803416 0)
(11.31793225872809 1.513921857343937 0)
(7.255077344835905 7.154661792660582 0)
(31.9724502790615 4.621908552292469 0)
(26.62806128106675 -3.457128816940707 0)
(7.857337167921067 7.934603548849704 0)
(4.666745826500089 12.77150802329833 0)
(31.55106502346162 2.98166404000509 0)
(17.09539893927105 -6.664051766167252 0)
(3.558330800812517 10.01311973235021 0)
(3.144280667336121 13.35828268008787 0)
(20.16932673712601 -8.538295274520001 0)
(5.854791568496468 -3.391517854905576 0)
(1.205650075834312 11.64371410292578 0)
(1.529954362538871 12.84278343441896 0)
(4.06419465081711 6.490870470891563 0)
(1.494839837174112 4.511599769366554 0)
(0.2121470469461789 2.29636692657701 0)
(-0.09571622671009204 2.253485469048534 0)
(2.616412625861579 11.2561681944328 0)
(1.191238747848534 8.516788269637646 0)
(0.3113440987161443 5.765637988051805 0)
(0.5180509158840408 3.773750494439986 0)
(2.091232128119953 12.23345153596921 0)
(1.486223329732011 9.946229827180389 0)
(0.8282203027447574 7.342211891462494 0)
(0.04050860300276043 3.572815411526639 0)
(0.690977498067721 12.06140194557534 0)
(0.05266860962573389 10.02705928957684 0)
(-0.6679799858334321 7.464808789839479 0)
(-0.8059347752233169 3.201478792878764 0)
(2.818315097647676 -0.7254507426588734 0)
(6.751416962461901 -6.191171888724982 0)
(10.44242416186316 -7.512509847472256 0)
(14.95283289802159 -8.729687419878426 0)
(-0.6861429077800634 0.05333350986396923 0)
(4.340858439867335 -3.828454974387496 0)
(9.696030540755951 -5.526635668570259 0)
(14.75155143442819 -7.389252272817443 0)
(-2.426913452780778 0.4849659155510249 0)
(1.139331070830111 -2.295135068332338 0)
(7.431767764304886 -4.000640849245842 0)
(14.08410755414674 -5.402863772065171 0)
(-2.526155977352321 1.281682919851109 0)
(-0.2585890830244524 -0.3086138265942472 0)
(6.188897769369784 -0.2713448739525719 0)
(15.22454783936969 -3.726809800867527 0)
(15.44251810846958 -10.27692200957164 0)
(14.45867854325674 -10.40498998566709 0)
(12.88446245341651 -8.572401953565652 0)
(9.760428543102412 -7.185539475669741 0)
(16.4184197522837 -11.37478077983726 0)
(15.4002473488818 -12.74377509653845 0)
(12.52562938492645 -10.12201200325623 0)
(8.00571099862454 -8.562490431789579 0)
(16.34916011956551 -11.70828731515582 0)
(13.97869346061307 -12.80934283408749 0)
(10.07984284947901 -8.279046784909122 0)
(4.921599046858126 -5.966677362475864 0)
(13.91742963672355 -14.40645005473364 0)
(9.353226359075267 -10.17834868285502 0)
(4.924157934462525 -3.427462127531133 0)
(1.560127999153914 -1.286344581668184 0)
(0.07283483541899878 -0.234953535963048 0)
(-0.6081402107863566 0.08829746096636079 0)
(-0.9638948920161722 0.139921850702494 0)
(-1.085956686167387 -0.007357634719653515 0)
(1.235036367808293 -3.628602459527037 0)
(-0.4406818401678351 -2.191844328555443 0)
(-1.283057241981644 -1.283247997745493 0)
(-1.349044808862286 -0.4387410404587625 0)
(3.941910698520765 -6.694757281155251 0)
(1.593381410441831 -5.074349978518087 0)
(0.3964656311609142 -3.168748840915677 0)
(0.1721000551614413 -1.055160471019567 0)
(6.788975709983491 -5.411643305534591 0)
(5.207354561687688 -4.02893838125539 0)
(4.658069931096102 -2.350474219743815 0)
(4.686336465456461 -0.6652519061809179 0)
(-1.085956686167908 0.007357634727033309 0)
(-1.349044808868442 0.4387410404694895 0)
(0.1721000551524451 1.0551604710292 0)
(4.686336465434899 0.6652519061683947 0)
(-0.9638948920169623 -0.1399218506968715 0)
(-1.283057241985709 1.283247997758936 0)
(0.3964656311628252 3.16874884092646 0)
(4.658069931107703 2.350474219736544 0)
(-0.6081402107855857 -0.08829746095940275 0)
(-0.4406818401662593 2.191844328563431 0)
(1.593381410451032 5.0743499785272 0)
(5.207354561725868 4.02893838125179 0)
(0.07283483542020518 0.2349535359669777 0)
(1.23503636781067 3.628602459536406 0)
(3.941910698526868 6.694757281169091 0)
(6.788975710010037 5.411643305538623 0)
(9.760428543103826 7.18553947568526 0)
(12.88446245341936 8.57240195357403 0)
(14.4586785432636 10.40498998567151 0)
(15.44251810847238 10.27692200956535 0)
(8.005710998625313 8.562490431798008 0)
(12.52562938492866 10.1220120032584 0)
(15.40024734888853 12.74377509653664 0)
(16.41841975228973 11.37478077983286 0)
(4.921599046861356 5.966677362475755 0)
(10.07984284948005 8.27904678491438 0)
(13.97869346061461 12.80934283409902 0)
(16.34916011957348 11.70828731515485 0)
(1.560127999152812 1.286344581666847 0)
(4.924157934456084 3.427462127530254 0)
(9.353226359067744 10.1783486828571 0)
(13.91742963673542 14.40645005473513 0)
(15.22454783937535 3.7268098008633 0)
(6.188897769376895 0.2713448739479424 0)
(-0.2585890830099865 0.3086138265852583 0)
(-2.526155977328631 -1.281682919839288 0)
(14.08410755415168 5.402863772062465 0)
(7.431767764305099 4.000640849242836 0)
(1.139331070834574 2.295135068316446 0)
(-2.426913452762864 -0.4849659155516575 0)
(14.75155143443176 7.389252272810317 0)
(9.696030540755778 5.526635668568189 0)
(4.340858439855563 3.828454974362281 0)
(-0.686142907795764 -0.05333350988077068 0)
(14.95283289802249 8.729687419868952 0)
(10.44242416186561 7.51250984747171 0)
(6.751416962437603 6.191171888706233 0)
(2.818315097576536 0.7254507426587871 0)
(-0.09571622676823491 -2.253485469072815 0)
(0.2121470468810069 -2.296366926631074 0)
(1.494839837127566 -4.51159976946585 0)
(4.06419465079432 -6.490870470985221 0)
(0.5180509158418618 -3.773750494420421 0)
(0.3113440986751269 -5.765637988075618 0)
(1.191238747841745 -8.516788269703524 0)
(2.616412625893142 -11.25616819450627 0)
(0.04050860298476498 -3.572815411514866 0)
(0.8282203027080124 -7.342211891472512 0)
(1.486223329723941 -9.946229827228073 0)
(2.091232128135958 -12.23345153603407 0)
(-0.8059347752227342 -3.201478792863443 0)
(-0.6679799858525316 -7.464808789842762 0)
(0.05266860960976788 -10.02705928961484 0)
(0.6909774980631236 -12.06140194563413 0)
(7.25507734480368 -7.154661792714135 0)
(11.3179322585954 -1.513921857471368 0)
(32.89447206578529 4.645706181849008 0)
(30.57585620169229 -5.44571243763863 0)
(4.666745826513608 -12.77150802332739 0)
(7.857337167903688 -7.93460354891946 0)
(26.62806128101118 3.457128816920711 0)
(31.97245027906392 -4.621908552273268 0)
(3.144280667334032 -13.35828268011948 0)
(3.558330800806336 -10.01311973240115 0)
(17.09539893923393 6.664051766125526 0)
(31.55106502346221 -2.981664040004861 0)
(1.529954362545547 -12.8427834344587 0)
(1.205650075836623 -11.64371410296884 0)
(5.854791568508512 3.391517854841098 0)
(20.16932673715291 8.538295274502783 0)
(24.85286669878619 -10.34046191935994 0)
(20.80164496854775 -11.67091509826866 0)
(18.01333063973077 -11.87415888989644 0)
(16.37291687044726 -11.71358687521749 0)
(24.79078251804318 -12.35885306138809 0)
(20.47763952515131 -11.71790410316726 0)
(17.91963799765601 -11.76763960726929 0)