/*--------------------------------*- C++ -*----------------------------------*\
  =========                 |
  \\      /  F ield         | OpenFOAM: The Open Source CFD Toolbox
   \\    /   O peration     | Website:  https://openfoam.org
    \\  /    A nd           | Version:  11
     \\/     M anipulation  |
\*---------------------------------------------------------------------------*/
FoamFile
{
    format      ascii;
    class       volScalarField;
    location    "0.3592376";
    object      p;
}
// * * * * * * * * * * * * * * * * * * * * * * * * * * * * * * * * * * * * * //

dimensions      [0 2 -2 0 0 0 0];

internalField   nonuniform List<scalar> 
880
(
80.0000000000004
80.00000016385775
80.01345706185663
81.88036572152414
80.00000000017729
80.0000004813165
80.01669085595564
82.76392032151591
80.00000000090172
80.00000187777135
80.03089558990705
83.82261615664737
80.0000000120275
80.00000824580295
80.06381048261058
85.4075895284778
79.9999999446778
80.00000002780087
80.00000611615221
80.00009435569395
80.00003799801506
80.00014607082888
80.00091100953274
80.00134652040236
80.14460036214852
80.2345769273072
80.38549282189014
80.53779556652728
88.34441227872458
91.39564776300874
94.00071861791383
95.23503713555844
80.00023343414986
80.00190273920316
80.00718984789313
80.02228138424582
80.01262438140732
80.05407700785717
80.10847905988287
80.22876062721384
81.27050849219991
81.90768147997395
82.71484222352888
83.76515499729764
96.38513537821436
97.95093726133668
98.27353819126563
97.5085247798789
90.98667280701856
87.50957560595022
85.8375031233806
84.74256915741931
85.69178113593765
86.37145350190831
86.77400737167862
86.80862838034098
80.6388083988404
81.12355631154288
81.63902433919593
82.02325921598526
80.07908982037819
80.19129112949615
80.36116435744823
80.59966672115202
80.87776793527071
81.15710327024556
81.43364533705419
81.64007594069126
82.31288527663331
82.48084250374461
82.56763616888539
82.57337530144359
86.44909489328579
85.94970173431426
85.29455626847498
84.6163075010918
83.5870912299133
82.89851763433794
82.50697558241143
82.07910386329299
82.08343359028574
84.14365438401759
82.52052908406091
81.7664068937768
87.74247719222726
83.86378461687865
82.36951630749164
81.74670214810449
120.5578648360762
85.26208452299007
82.18753027893315
81.49460567794809
158.3480825641754
93.05776658055011
82.67022031049797
81.40189824983867
81.37301005925195
83.39327792393735
102.7715852342226
175.0767098559743
80.87274130055911
84.75167452282204
113.734566848379
174.2795117560614
81.0851607633987
87.90167451411567
128.373034948761
176.137221540503
81.8914461617783
93.58586381196109
142.2713301007136
173.4126337312981
167.7072322402172
149.9509846237306
102.2402237125286
83.66792005588934
160.7381462877103
151.1909569652518
111.8303632573687
86.84043282355104
153.3429129422397
148.9208270827159
120.1260159664849
91.94305246708502
145.6345953080881
138.9086816372778
121.4590825212971
98.31282838948135
103.9493097811161
117.3639502479956
126.5675472988521
136.6078262884381
103.1379666797485
109.214957524085
113.4275118500717
123.6649841350726
100.8370027262823
101.4843493740932
100.681239095087
107.3274568827043
97.8467989346593
95.22414424962102
89.1750323907581
88.30749932533899
95.46854857874487
89.32759158572524
78.72362681320477
66.39560322224948
91.68583813507584
83.9608470910073
69.93149842561908
43.06372960469022
88.80558148440942
81.54220833196044
63.23930775139427
26.39394495280847
86.35658884970255
80.46176239050412
58.99067820853295
14.84822761104193
15.60518762358917
60.56877724232721
79.58678206315419
84.17256708979471
24.76278511922937
61.36471374751365
78.99415787492259
82.70517177647002
27.33952783243254
61.04496780798861
78.13595408082743
81.71389918821546
25.83935709793761
60.43830653677864
77.52975090743951
81.17541605831208
31.26900497465484
63.06634116834631
77.20205249225017
80.23978264798693
36.95805267430191
65.60873549137825
77.11654090348588
79.68640542096429
43.59635465163849
68.84960990539543
77.31444992578531
79.66584425916994
51.41998288953331
71.09833351574491
77.69924581010397
79.73913594144889
53.28242051171888
58.94003913079512
73.28900397423186
79.26089595946445
51.9368328074504
60.14519221457229
73.51414187357888
79.25267537117787
49.4969105234475
61.86249954381259
74.01474247589972
79.25457735487807
47.17473057642376
63.8209080929737
74.73194855838476
79.31309658164098
51.41998288957154
71.09833351573819
77.69924581001059
79.73913594111396
43.59635465178966
68.84960990498199
77.31444992551249
79.66584425835512
36.95805267435063
65.60873549124418
77.1165409030843
79.68640542056781
31.26900497469236
63.06634116787838
77.20205249210423
80.23978264785198
84.17256708998819
79.58678206334693
60.56877724222316
15.60518762331475
82.70517177634736
78.99415787490496
61.36471374726975
24.76278511890318
81.71389918837775
78.13595408120688
61.04496780755835
27.33952783240394
81.17541605853631
77.52975090775406
60.43830653668862
25.83935709786515
14.84822761120147
58.99067820857622
80.46176239073549
86.35658884990963
26.39394495268822
63.23930775133812
81.54220833212757
88.80558148416702
43.06372960453841
69.93149842617366
83.96084709120215
91.68583813545844
66.39560322248141
78.72362681305601
89.32759158513637
95.46854857914181
103.9493097814781
117.3639502486098
126.5675472994137
136.607826288311
103.1379666795755
109.2149575239135
113.4275118504687
123.6649841349224
100.8370027259389
101.4843493740049
100.6812390952112
107.327456882753
97.84679893462604
95.2241442493157
89.17503239047596
88.30749932555939
145.6345953080243
138.9086816370385
121.4590825216501
98.31282839022407
153.3429129420458
148.9208270825671
120.1260159666423
91.94305246710718
160.7381462877454
151.1909569648795
111.8303632570902
86.84043282395193
167.7072322399596
149.9509846239962
102.2402237129009
83.66792005583456
81.37301005905393
83.39327792381677
102.7715852342738
175.076709855496
80.87274130097009
84.75167452291687
113.7345668483543
174.279511755596
81.08516076404889
87.90167451495049
128.3730349484152
176.137221540165
81.89144616189269
93.58586381216674
142.2713301006263
173.4126337312119
81.40189824986442
81.49460567776386
81.74670214851142
81.76640689383899
82.67022031010163
82.18753027866639
82.36951630789476
82.52052908394877
93.05776658003354
85.26208452294019
83.86378461656501
84.14365438388084
158.348082563424
120.5578648356976
87.74247719252588
82.08343359029439
81.64007594098791
82.57337530169227
84.61630750126317
82.0791038631266
81.4336453367242
82.56763616892152
85.29455626827303
82.50697558229018
81.15710327028015
82.48084250377393
85.94970173460904
82.89851763399753
80.87776793500069
82.31288527623033
86.44909489331798
83.58709123004044
80.07908982024637
80.63880839851731
85.69178113598724
90.98667280692409
80.19129112942541
81.1235563112194
86.37145350203269
87.50957560558713
80.36116435788084
81.6390243385046
86.77400737178647
85.83750312263955
80.59966672105395
82.02325921594397
86.80862838030349
84.74256915711713
97.50852477977703
83.76515499753555
80.22876062715052
80.02228138431762
98.27353819117839
82.71484222364128
80.10847905966266
80.00718984787656
97.95093726109192
81.90768147979486
80.05407700709537
80.0019027393386
96.38513537839175
81.27050849195362
80.01262438116568
80.000233434105
95.23503713536094
80.53779556672995
80.00134652034852
80.00009435613907
94.00071861746621
80.38549282188315
80.00091100947461
80.00000611644032
91.39564776261751
80.23457692725863
80.00014607092146
80.0000000276608
88.34441227847906
80.1446003619495
80.00003799747458
79.99999994537085
80.00000000002807
80.00000016396199
80.01345706187587
81.88036572143221
80.00000000026193
80.00000048100623
80.01669085628235
82.76392032114717
80.00000000110963
80.00000187755403
80.03089558986736
83.8226161569867
80.00000001233936
80.00000824571671
80.06381048266174
85.40758952871468
83.52402185257246
85.09531886106295
87.6437391201121
92.78689644584814
85.09531886134398
87.15065259049192
90.99723562332332
98.69111220012233
87.64373912026829
90.99723562319832
97.31201384809461
106.8208810115339
92.78689644614894
98.6911121995513
106.8208810121415
117.1820352814136
127.9924628576029
119.0252434171433
115.1014071553623
106.8656444144416
126.2797519617149
123.6456967050816
123.604118903778
119.5301725452251
126.319873341416
125.4943763816272
125.0507184607765
123.6401845215241
123.7373948633112
123.3303122652069
123.2435109833099
122.3929190434417
119.6768358975548
117.8559605461742
114.2518300117273
109.3400967461314
119.942954145664
118.0398292804967
114.3868087598731
109.805082436966
120.2786399366511
118.2215987204438
114.369003674051
110.2398941593508
120.4534186272421
118.1133402443702
114.5207883964929
108.5601495879573
82.83049000207815
71.90501620138035
70.6048816966979
70.98544334172958
75.82085945365807
69.03041481356686
69.65702743617292
70.38168572545148
69.99730645086073
68.89582191868273
70.2293968503576
70.92984328237534
60.73660624031935
66.59794806629793
69.23777206740024
70.19838446241819
70.93001458873626
71.29228526682493
72.10766947917439
73.05109455089384
70.47269749888308
70.85087718608435
71.7354762784389
72.92897593829024
70.90444085419047
71.13415303140886
71.87245438887935
72.80669560037717
70.29685141740687
70.61801601640703
71.55363025484277
72.84650196237232
78.67380965231374
114.0355951981718
165.0711890710494
181.4274820980231
81.36371435658383
121.522175064618
162.5396920938223
173.2947451506047
83.49482128359259
125.2968991519848
161.3144192182447
171.9960525551945
84.86405776318014
130.7128478099712
161.6596406298293
171.9732305382184
218.1624616981973
209.3372194852844
201.7901228091711
190.5371165403238
219.3304017509933
212.1162530885994
203.9473276364933
192.377687192541
218.3262293498777
213.6469076259197
205.047862725549
193.4984526313128
213.2095050679035
215.5718350895343
206.9708424296104
195.2365462487173
178.1478761829148
167.8951813356737
158.2744334871514
153.3866761046866
180.1461045489374
169.2792929082477
158.964482579097
153.7600185594768
181.2946302783439
169.4883328956209
159.5121819717821
153.7252840250835
183.7009767990537
170.9138028601954
161.1736774597545
154.8234722086027
148.5698554685771
140.6582485366599
126.7741642247016
105.8850702383129
149.2636863183041
142.1819470430945
128.8939354842464
114.3599767910073
149.2080401466997
142.6098493558819
130.6898283113785
119.6674536439863
150.3701866155008
144.9550205337632
134.0437587654624
134.5834671912275
64.62300752282442
16.5489656493748
2.690602670496322
1.283634936136652
49.95160705683595
10.39444780851728
2.242180923415894
1.464407422058797
34.73867325053541
6.571931131175731
1.963411915087154
1.620794851117746
19.55113478474112
3.060981847031355
1.726181238945808
1.81324631128848
1.929270249940341
4.153417986683417
6.78569274620364
10.67153128981502
2.736335014067527
5.087818870049002
7.800655847408573
11.94478451691382
3.199526040196504
5.472925280654453
8.645968795617645
12.64693489936808
3.753832957082498
6.199428424516274
10.09293744429636
13.79308934414855
12.51724295906468
18.94022607052229
26.03300568998043
34.74100454668001
12.12979265278435
17.87725061375237
24.71997736559581
33.23094334899916
12.44050116781573
16.35103019231925
22.87547804305278
32.23952261168216
11.69544363536343
14.46071046113025
19.06065170026396
30.28199919035539
35.03373727042503
33.20763218942356
32.54784404145658
33.17750478638055
31.86518671894001
31.78645132067221
32.24760749906807
32.35380660546755
31.01257223644061
32.65715203244438
32.98667850052536
33.02246640411861
29.23694056667812
31.45583949567508
31.77608406774472
32.50247030197968
32.92036409667023
33.23123497339503
33.49119647242878
33.61772283251209
32.97859860726762
32.93616193813105
32.8446490283029
32.95081540375878
32.92858592000614
33.39766067943751
33.83627171946021
34.09489103515394
34.75157228087073
35.80227336443287
36.54011388750123
36.54213861931449
33.61772283251397
32.95081540376339
34.09489103515186
36.54213861931886
33.49119647240862
32.84464902827983
33.83627171945317
36.54011388753146
33.23123497339304
32.93616193814396
33.39766067951828
35.80227336445585
32.92036409674171
32.97859860726907
32.92858592007819
34.75157228088739
33.17750478652555
32.54784404150516
33.20763218950335
35.03373727049509
32.35380660548589
32.24760749911631
31.78645132069156
31.8651867189998
33.02246640419955
32.98667850064837
32.65715203246548
31.01257223649757
32.50247030201832
31.77608406777376
31.45583949573981
29.23694056672897
30.28199919044149
19.06065170040076
14.46071046123132
11.69544363544922
32.2395226117598
22.87547804309888
16.35103019242597
12.44050116796415
33.23094334907729
24.71997736569268
17.87725061386591
12.12979265289242
34.74100454674272
26.03300569009124
18.94022607059289
12.51724295923452
10.67153128987828
6.785692746234428
4.153417986649
1.929270249975082
11.94478451697171
7.800655847457691
5.087818870038602
2.736335014076483
12.6469348994327
8.645968795698867
5.472925280640221
3.199526040194153
13.79308934421498
10.09293744432916
6.19942842453711
3.753832957090488
1.283634936177691
2.690602670460933
16.54896564921309
64.6230075226305
1.464407422082863
2.242180923398986
10.39444780842131
49.95160705691397
1.620794851121121
1.963411915074922
6.571931131194369
34.73867325063587
1.813246311283558
1.726181238932298
3.060981847031
19.55113478479419
105.885070238371
126.7741642248408
140.6582485363216
148.5698554688629
114.3599767907684
128.8939354837477
142.1819470430298
149.2636863178657
119.667453644264
130.6898283112756
142.6098493565057
149.2080401466565
134.5834671914923
134.0437587649454
144.9550205341347
150.370186615347
153.3866761046139
158.2744334869688
167.8951813355376
178.1478761821219
153.7600185594329
158.9644825791832
169.2792929073725
180.146104548151
153.7252840253972
159.512181971334
169.4883328949574
181.2946302778798
154.8234722083082
161.1736774596598
170.9138028598423
183.7009767984093
190.5371165398306
201.7901228089824
209.3372194850177
218.1624616984
192.3776871922077
203.9473276362062
212.1162530882723
219.3304017510764
193.4984526312134
205.047862725322
213.6469076258531
218.3262293496985
195.2365462486038
206.9708424294988
215.5718350889145
213.2095050682918
181.427482098024
165.0711890707894
114.035595198234
78.67380965259434
173.2947451505201
162.5396920936495
121.5221750646584
81.36371435688426
171.9960525551041
161.3144192180968
125.2968991519742
83.49482128390508
171.9732305378551
161.659640629686
130.7128478099569
84.86405776350333
73.05109455111592
72.10766947887826
71.29228526630982
70.93001458824925
72.92897593854642
71.73547627837804
70.85087718555879
70.47269749866174
72.80669560065547
71.87245438876649
71.13415303090244
70.90444085396946
72.84650196264758
71.55363025461585
70.61801601588286
70.29685141696554
70.9854433412852
70.60488169635391
71.90501620151446
82.83049000221533
70.38168572502173
69.65702743575588
69.03041481378665
75.82085945374479
70.92984328194704
70.22939684992531
68.89582191893797
69.99730645091036
70.19838446198204
69.23777206688607
66.59794806653838
60.73660624039931
109.3400967461657
114.2518300117468
117.8559605465185
119.6768358973722
109.8050824370992
114.386808760097
118.0398292805316
119.942954145377
110.2398941592922
114.3690036740201
118.2215987204011
120.2786399364064
108.5601495879291
114.5207883968177
118.1133402446332
120.4534186270832
122.3929190428408
123.6401845203285
119.5301725448042
106.8656444144342
123.2435109822981
125.0507184601809
123.6041189026728
115.1014071547807
123.3303122644478
125.4943763806642
123.645696703805
119.0252434158428
123.7373948626158
126.3198733404557
126.279751959833
127.99246285548
54.09174549646939
71.27149412119191
77.56387891326202
79.75943439234287
50.81833120459414
69.89464196556408
76.93565760911129
79.66602861787459
48.22181196487016
68.23881395352055
76.3217277267038
79.54988733543271
46.3989145349058
65.93393663631056
75.50433257775748
79.42094953254427
79.26089595930353
73.28900397430196
58.94003913071335
53.28242051188585
79.25267537102107
73.51414187356924
60.14519221439795
51.93683280747442
79.25457735476046
74.01474247600915
61.86249954359405
49.49691052359817
79.31309658147401
74.73194855835185
63.82090809281627
47.17473057655621
79.42094953213095
79.54988733537236
79.66602861749051
79.75943439195862
75.50433257748713
76.32172772659082
76.93565760855616
77.56387891271406
65.93393663651031
68.23881395335712
69.89464196572739
71.27149412139239
46.39891453492122
48.22181196478814
50.8183312045939
54.0917454966207
)
;

boundaryField
{
    back
    {
        type            empty;
    }
    inlet
    {
        type            zeroGradient;
    }
    front
    {
        type            empty;
    }
    top
    {
        type            zeroGradient;
    }
    outlet
    {
        type            fixedValue;
        value           uniform 80;
    }
    bottom
    {
        type            zeroGradient;
    }
    wall
    {
        type            zeroGradient;
    }
}


// ************************************************************************* //
