/*--------------------------------*- C++ -*----------------------------------*\
  =========                 |
  \\      /  F ield         | OpenFOAM: The Open Source CFD Toolbox
   \\    /   O peration     | Website:  https://openfoam.org
    \\  /    A nd           | Version:  11
     \\/     M anipulation  |
\*---------------------------------------------------------------------------*/
FoamFile
{
    format      ascii;
    class       volScalarField;
    location    "0.3592376";
    object      rho;
}
// * * * * * * * * * * * * * * * * * * * * * * * * * * * * * * * * * * * * * //

dimensions      [0 0 0 0 0 0 0];

internalField   nonuniform List<scalar> 
880
(
0.2239950333699092
0.2239950336977215
0.2240219318476897
0.22773827328014
0.2239950333702082
0.223995034333608
0.2240283855968601
0.2294907220659492
0.2239950333717012
0.2239950371321023
0.2240567395139851
0.2315875820760666
0.2239950333941023
0.2239950499075351
0.2241222568768334
0.234710048096182
0.223995033259515
0.2239950334139612
0.2239950459401247
0.2239952242250021
0.223995109675204
0.2239953271812282
0.2239968608812062
0.2239977477812901
0.2242817692917065
0.2244566896970111
0.2247513502715216
0.2250683507227228
0.2401925463302101
0.2455343985303792
0.2500085642892279
0.2520202731486044
0.2239955037652999
0.2239988445738286
0.2240094184996129
0.2240395959134542
0.2240201692685486
0.224102267322744
0.2242088557129839
0.2244461050297354
0.2264583167958093
0.2276525190598663
0.2291735203065377
0.2311938234344544
0.2539940297562623
0.256843360757171
0.257450974335502
0.25603547287659
0.2436280108947963
0.2366721060619741
0.2331385094801127
0.2308248997251688
0.2347449549753996
0.2358607244861194
0.2365384056258998
0.2365730742921808
0.2252532995186158
0.2262087940622464
0.2272171074528059
0.2279428910224639
0.2241532023336371
0.2243777895083252
0.2247180654274404
0.2251948807921187
0.2257495389301293
0.2263070322127292
0.2268586939459513
0.2272747369022484
0.2284637481928799
0.2287683767719256
0.2289177407076303
0.2289562748567875
0.2358869916945553
0.2349358414964036
0.2336846514819338
0.2323892252785601
0.2284543612254359
0.2270998256022259
0.2263600637437644
0.2255255575838608
0.2257913594573706
0.2314865375791833
0.228873570265154
0.2275322830633242
0.2365889571827813
0.2310972115154615
0.2286240208600013
0.2274951890812979
0.2954167280330425
0.2338488626693786
0.2283256986832523
0.2269978729999818
0.3573538275195459
0.2486715210994354
0.2292793258049218
0.2268111951499518
0.2267525052443331
0.2306965092293002
0.2665981267687459
0.3845283048155733
0.2257542123775383
0.2332912819777925
0.2862195700362571
0.38411527198224
0.2261776111811888
0.2392097180482557
0.3116803442084695
0.3875967334963535
0.2277763902915343
0.2496196746084958
0.3348904041299101
0.3832615352060819
0.373672934497842
0.3470979417079828
0.2651516886331806
0.2312647427888452
0.3618908827177113
0.3484420269659239
0.2820891473373205
0.2373729238393053
0.3493504329878372
0.3444409294879373
0.2966034802505375
0.2469828143022377
0.3360856550057369
0.3272444345372784
0.2987925616430543
0.2586684828451031
0.2688487635261174
0.2915295731020316
0.3056280286853237
0.3202638635691741
0.2674714483558988
0.2769602178277081
0.2821378641169087
0.2973623291572987
0.263455237381432
0.2629451809533594
0.2588574678392072
0.2680361267135342
0.2581470577758642
0.2516079380490798
0.2376534889794091
0.2330812722980874
0.2537301827962983
0.2402838521586708
0.2167388325340133
0.1875799283698443
0.2465606731117085
0.2298995371161243
0.1990005807900078
0.1311076480810532
0.2410507105077422
0.2255981546364803
0.1852427822401004
0.08691816787353222
0.2363160800911282
0.2232416266959996
0.1728888114071461
0.05198512108480994
0.05321481022796479
0.174178140829641
0.2213941402058685
0.2320722783120401
0.07253458165392096
0.1742439730394635
0.2201203351237116
0.2291994861058266
0.07399456001865234
0.172392855528569
0.2183943035925599
0.227266640785421
0.06823126220103964
0.1690862580519756
0.216979876487736
0.2262496532665545
0.08121595681242164
0.1750668459966971
0.2166091106839017
0.2244899758249426
0.09692903547550669
0.1821349892033784
0.2169352768268469
0.2234647392104448
0.1160784975767481
0.191440281081675
0.2176617584718424
0.2234194661444407
0.139048396532528
0.1994236339423196
0.218831308550615
0.2235311286192443
0.1554768112069396
0.1757857640957677
0.2098484731972883
0.2225127890845207
0.1533136623945235
0.1786599589857345
0.2102827331393762
0.222489781411255
0.1489456985929293
0.1829367288050139
0.2113250553570791
0.222488797073848
0.1437274288683107
0.1876058240343452
0.2129159129285024
0.2226131922385769
0.1390483965326194
0.1994236339424721
0.2188313085502473
0.2235311286184295
0.1160784975771472
0.1914402810808036
0.2176617584711605
0.223419466142656
0.09692903547563377
0.182134989203226
0.216935276826219
0.2234647392096982
0.0812159568125019
0.1750668459957742
0.2166091106836006
0.2244899758247514
0.2320722783124732
0.2213941402061937
0.1741781408293125
0.05321481022715657
0.2291994861055717
0.2201203351236364
0.1742439730387077
0.07253458165314013
0.227266640785815
0.2183943035934203
0.1723928555276442
0.07399456001859098
0.2262496532671635
0.2169798764884109
0.1690862580519264
0.06823126220080464
0.05198512108489835
0.1728888114071939
0.2232416266964642
0.2363160800915733
0.08691816787315267
0.1852427822400048
0.2255981546367339
0.2410507105072159
0.1311076480806354
0.1990005807911359
0.2298995371165718
0.2465606731125944
0.1875799283703091
0.2167388325337136
0.2402838521574559
0.2537301827972639
0.2688487635270683
0.2915295731032432
0.3056280286863476
0.320263863568606
0.2674714483556854
0.276960217827442
0.2821378641177666
0.2973623291566206
0.2634552373809236
0.2629451809532634
0.2588574678395194
0.2680361267134903
0.2581470577758715
0.2516079380485066
0.2376534889788399
0.2330812722984735
0.3360856550053684
0.3272444345364166
0.2987925616437699
0.258668482846605
0.3493504329870745
0.3444409294872855
0.2966034802508699
0.2469828143023449
0.3618908827174837
0.3484420269647762
0.2820891473367811
0.2373729238403423
0.373672934496962
0.3470979417083794
0.2651516886339282
0.2312647427887689
0.2267525052439031
0.2306965092290216
0.2665981267689354
0.3845283048143526
0.2257542123783804
0.233291281977902
0.2862195700361409
0.3841152719810454
0.2261776111825755
0.2392097180499732
0.311680344207333
0.3875967334955489
0.2277763902918496
0.2496196746090421
0.3348904041293164
0.3832615352058126
0.2268111951500978
0.2269978729995857
0.2274951890821562
0.2275322830634305
0.2292793258041421
0.2283256986826754
0.2286240208609983
0.2288735702649425
0.2486715210984201
0.2338488626692994
0.2310972115148952
0.2314865375788752
0.3573538275177859
0.2954167280323243
0.2365889571834856
0.2257913594574496
0.2272747369028358
0.2289562748572881
0.2323892252788633
0.225525557583306
0.2268586939451215
0.2289177407076062
0.2336846514813944
0.2263600637433962
0.2263070322128289
0.2287683767719159
0.2349358414970788
0.2270998256015771
0.2257495389295655
0.2284637481919262
0.2358869916946116
0.2284543612256888
0.2241532023335494
0.225253299517888
0.2347449549754176
0.2436280108944235
0.2243777895083515
0.2262087940614985
0.2358607244862728
0.2366721060610428
0.2247180654283706
0.2272171074511602
0.2365384056259841
0.2331385094785247
0.2251948807920245
0.2279428910223618
0.2365730742920623
0.2308248997245504
0.2560354728763051
0.2311938234349667
0.2244461050295715
0.224039595913563
0.2574509743352241
0.2291735203067828
0.2242088557125133
0.2240094184996302
0.2568433607564137
0.2276525190594465
0.2241022673211625
0.2239988445743012
0.253994029756618
0.2264583167953333
0.2240201692680426
0.2239955037650153
0.2520202731482097
0.2250683507231044
0.2239977477810646
0.2239952242259381
0.2500085642882704
0.2247513502714865
0.2239968608811043
0.2239950459407107
0.245534398529621
0.2244566896968995
0.2239953271815436
0.2239950334137216
0.2401925463297482
0.2242817692912512
0.223995109674084
0.2239950332612173
0.2239950333699093
0.2239950336979472
0.2240219318477752
0.2277382732799903
0.2239950333704065
0.2239950343328749
0.2240283855976758
0.2294907220650284
0.2239950333721685
0.2239950371315927
0.2240567395138689
0.2315875820767842
0.2239950333946447
0.2239950499073844
0.2241222568769367
0.2347100480966814
0.2309860823138969
0.2340818879099469
0.239062236497864
0.2488979982818136
0.234081887910531
0.2381173886348021
0.245574807519769
0.2600341300083457
0.2390622364981578
0.245574807519417
0.2575889219642701
0.2748617292721549
0.2488979982825688
0.2600341300069597
0.2748617292734252
0.2928128606497361
0.31041673215353
0.2953226059549708
0.2891129215479913
0.2745363847668583
0.3072131924362065
0.3028631624070741
0.3034058763054428
0.2963690368631772
0.3073449662559087
0.3059055639441982
0.3051218087329062
0.3025787579080276
0.3028576391207823
0.3020909587938728
0.3018049899576737
0.3000917131993786
0.2950240865677896
0.2917401589603647
0.2853881524221011
0.2766609234611906
0.2958575186068109
0.2924022656136363
0.2858384271985525
0.2774974304355455
0.2966769673163954
0.2929358591696044
0.2859251452897368
0.2782979018251027
0.2970754484854869
0.2928005904836755
0.2862005632707593
0.2758410657999626
0.2263160330039677
0.2042669930488356
0.2017443851768307
0.2026248565558413
0.2115210326252151
0.1977466220323547
0.1990276721520482
0.2006370039730162
0.1993451660394167
0.1972926884486258
0.200014471990873
0.2014854949471987
0.1809417618804387
0.1925853503766659
0.1978576895031313
0.1999101254196363
0.2023251993521669
0.2029379162837699
0.2046255968621096
0.2066684689603076
0.2009344530811552
0.2018167154589404
0.2037635375508451
0.2063169002470974
0.2016264796139704
0.2022705815506179
0.2039851659415022
0.2060233791580756
0.2003333602050653
0.2011785138942486
0.2033034641402425
0.206092411445272
0.2180901226600205
0.2812255078373999
0.3614451488406424
0.3822064450246226
0.2229331047348208
0.2927339173440817
0.3544353291906104
0.3674468253994496
0.2263449374563657
0.2975612956329057
0.3517798930951205
0.3643078237457506
0.2283722568296207
0.3061298829130133
0.3524204847760175
0.3640319914752276
0.4398967650100107
0.4300648688499562
0.4215538230945759
0.4060835999919223
0.4369339668123906
0.4303670985641747
0.4218064459323128
0.4064949403680692
0.4312651656318723
0.4288332300671853
0.420284636477639
0.4055021783963561
0.4223953804283443
0.4303387314343453
0.4216462628780362
0.4068337102827733
0.3875006909337643
0.3713082667979185
0.3555405605669467
0.3469266254577633
0.3887675421792156
0.3719716288171934
0.3555324876413162
0.3465954486748756
0.3881565779596797
0.3703902015517127
0.3547419714350752
0.3453439410463388
0.3906685896242115
0.3717212674650259
0.3564603148000783
0.346465185017464
0.3381632368955917
0.3240655019137258
0.3003142803047113
0.2623605782150779
0.338763497937646
0.3267218451690657
0.3038970770624661
0.2701430893559111
0.3380923047680907
0.3272111062488998
0.3035346923672155
0.2700298339771847
0.3396840611826621
0.3305058665305571
0.3044648736557552
0.311951248001152
0.1731391260263048
0.05034370848924007
0.008911834525481058
0.004212687231728085
0.1365655076435658
0.03448453220486335
0.01027390748224835
0.008104138289711328
0.1037545735395914
0.02499447636574767
0.01089987550415537
0.009786602020825404
0.07437612772350169
0.01516452243406965
0.01060704176048111
0.01059508802231799
0.007180746861703591
0.01439537131195267
0.02016561065924808
0.0285697580711631
0.0124987392746279
0.01872642394365288
0.02471755504411312
0.03400869712351619
0.01535736283574568
0.02183495446132884
0.02993086649831454
0.03977547303761218
0.01757975319877871
0.02469605426597174
0.03513791153630214
0.04478689786948737
0.03597858287793888
0.05195639702861002
0.0715626116931015
0.09542382925179481
0.03896826841829328
0.05280878377504459
0.07024343612383337
0.09111876289858531
0.04275481021072616
0.05287637334920593
0.06805787912032972
0.08778015254782096
0.04171612398580681
0.04958570808239587
0.05995633659159486
0.08264981575399812
0.09972244810063255
0.09878518958828701
0.09918737400557934
0.1010378585721926
0.09008923440128996
0.09155966960897267
0.09365981256387874
0.09517705640926283
0.08610356582858439
0.09010293621955036
0.09206414916748795
0.0946147407114221
0.08127610114190728
0.08658436535254338
0.08919852130957677
0.09399546605735366
0.09891483576101982
0.1032399132167429
0.1060215252255766
0.1069885920492094
0.09791344265239814
0.1011866969590821
0.1034640237615605
0.1045901168499338
0.0981257004113351
0.1013573607094215
0.1046579819601196
0.1063073225829476
0.1051232078221078
0.1089088872782789
0.1123103717011679
0.1130949196274684
0.1069885920492242
0.1045901168499563
0.1063073225829355
0.1130949196274587
0.1060215252255478
0.1034640237615213
0.1046579819600975
0.1123103717012
0.103239913216804
0.1011866969591807
0.1013573607096954
0.1089088872783026
0.09891483576133099
0.09791344265244141
0.09812570041158104
0.1051232078221191
0.1010378585726121
0.09918737400572981
0.0987851895884629
0.09972244810079285
0.09517705640930894
0.09365981256400049
0.09155966960896583
0.09008923440142382
0.09461474071170053
0.09206414916787413
0.09010293621958447
0.08610356582873149
0.09399546605751653
0.08919852130967423
0.08658436535274212
0.08127610114205384
0.08264981575421498
0.05995633659196948
0.04958570808266821
0.04171612398604815
0.08778015254801474
0.068057879120395
0.05287637334947891
0.04275481021115912
0.09111876289876936
0.07024343612405851
0.05280878377531926
0.03896826841856103
0.09542382925194164
0.07156261169337912
0.05195639702874701
0.03597858287838524
0.02856975807134413
0.02016561065934154
0.01439537131188691
0.007180746861653257
0.0340086971236821
0.02471755504425435
0.01872642394364635
0.01249873927464626
0.03977547303778911
0.02993086649854576
0.02183495446130006
0.01535736283574223
0.04478689786966304
0.03513791153637397
0.02469605426602769
0.01757975319879693
0.004212687231645447
0.008911834525322767
0.05034370848877041
0.1731391260257701
0.008104138289714888
0.01027390748217848
0.03448453220460089
0.136565507643624
0.009786602020827703
0.01089987550410573
0.02499447636575634
0.1037545735397034
0.01059508802228587
0.01060704176042983
0.01516452243403646
0.07437612772354005
0.2623605782150495
0.3003142803048414
0.3240655019126479
0.3381632368961242
0.2701430893552017
0.3038970770611962
0.326721845168788
0.3387634979363396
0.2700298339775689
0.3035346923669737
0.3272111062505048
0.3380923047678729
0.3119512480012174
0.3044648736546154
0.3305058665315687
0.3396840611821725
0.3469266254572293
0.3555405605663421
0.371308266797753
0.3875006909319934
0.3465954486744677
0.3555324876415293
0.3719716288153768
0.3887675421776272
0.34534394104698
0.3547419714339362
0.3703902015505258
0.3881565779589632
0.3464651850165496
0.3564603147997798
0.3717212674644061
0.3906685896228697
0.4060835999909204
0.4215538230945041
0.4300648688496702
0.4398967650106624
0.4064949403674268
0.4218064459317764
0.4303670985637004
0.4369339668129456
0.405502178396444
0.4202846364774084
0.4288332300675611
0.4312651656313619
0.4068337102827887
0.4216462628779409
0.4303387314330703
0.4223953804295934
0.3822064450246336
0.3614451488402222
0.2812255078375739
0.218090122660603
0.3674468253993501
0.3544353291903888
0.2927339173442273
0.2229331047353986
0.3643078237456864
0.3517798930949835
0.2975612956329841
0.2263449374569634
0.3640319914741817
0.3524204847758893
0.3061298829130952
0.2283722568302431
0.2066684689606635
0.2046255968613175
0.2029379162826069
0.2023251993510544
0.2063169002475521
0.2037635375507185
0.2018167154578397
0.2009344530806933
0.2060233791585968
0.203985165941292
0.2022705815495847
0.2016264796135585
0.2060924114457847
0.2033034641397477
0.2011785138931865
0.2003333602041889
0.2026248565549001
0.2017443851761053
0.2042669930490413
0.2263160330041803
0.2006370039720996
0.1990276721512003
0.1977466220327724
0.2115210326253357
0.2014854949462985
0.2000144719900385
0.1972926884491737
0.1993451660394715
0.1999101254187232
0.1978576895021322
0.1925853503772131
0.1809417618805922
0.2766609234612149
0.2853881524220779
0.2917401589608163
0.295024086567453
0.2774974304357084
0.2858384271991085
0.2924022656133656
0.2958575186062559
0.2782979018251466
0.2859251452897134
0.2929358591691804
0.2966769673159445
0.2758410657999246
0.2862005632715145
0.2928005904843072
0.2970754484852133
0.3000917131983784
0.3025787579056603
0.2963690368626636
0.2745363847667779
0.3018049899556868
0.3051218087323234
0.3034058763036575
0.2891129215467768
0.3020909587925952
0.3059055639427867
0.3028631624054957
0.2953226059526816
0.302857639119594
0.3073449662545638
0.3072131924334612
0.310416732150361
0.1499148697803952
0.2006577970333898
0.2185669439379547
0.2235520752921662
0.1465631467044742
0.1988681284511732
0.2174185174258999
0.2233523490797387
0.1435233659309618
0.1964071036877746
0.2163007469141474
0.2231149211138553
0.1411687957168878
0.192131549801216
0.2146288162009544
0.2228456877401201
0.2225127890842821
0.2098484731974558
0.1757857640955683
0.1554768112074019
0.2224897814109923
0.210282733139292
0.1786599589853107
0.1533136623944819
0.2224887970735634
0.2113250553572139
0.1829367288045197
0.1489456985932776
0.2226131922381434
0.2129159129282683
0.1876058240339928
0.1437274288686634
0.2228456877391756
0.2231149211137133
0.2233523490786689
0.2235520752910953
0.2146288162002982
0.2163007469139124
0.217418517424619
0.2185669439365648
0.1921315498016897
0.1964071036871951
0.198868128451405
0.2006577970337837
0.1411687957169877
0.1435233659307967
0.1465631467044708
0.1499148697808007
)
;

boundaryField
{
    back
    {
        type            empty;
    }
    inlet
    {
        type            calculated;
        value           nonuniform List<scalar> 
16
(
0.2239950333699092
0.2239950333702082
0.2239950333717012
0.2239950333941023
0.223995033259515
0.2239950334139612
0.2239950459401247
0.2239952242250021
0.2239952242259381
0.2239950459407107
0.2239950334137216
0.2239950332612173
0.2239950333699093
0.2239950333704065
0.2239950333721685
0.2239950333946447
)
;
    }
    front
    {
        type            empty;
    }
    top
    {
        type            calculated;
        value           nonuniform List<scalar> 
40
(
0.2239955037652999
0.2239988445738286
0.2240094184996129
0.2240395959134542
0.2241532023336371
0.2243777895083252
0.2247180654274405
0.2251948807921186
0.2257495389301293
0.2263070322127292
0.2268586939459513
0.2272747369022484
0.2275322830633242
0.2274951890812979
0.2269978729999818
0.2268111951499518
0.2267525052443331
0.2257542123775383
0.2261776111811888
0.2277763902915343
0.2312647427888452
0.2373729238393053
0.2469828143022377
0.2586684828451031
0.2688487635261174
0.2674714483558988
0.263455237381432
0.2581470577758642
0.2537301827962983
0.2465606731117085
0.2410507105077422
0.2363160800911282
0.2320722783120401
0.2291994861058266
0.227266640785421
0.2262496532665545
0.2244899758249426
0.2234647392104448
0.2234194661444408
0.2235311286192443
)
;
    }
    outlet
    {
        type            calculated;
        value           uniform 0.2239950333699093;
    }
    bottom
    {
        type            calculated;
        value           nonuniform List<scalar> 
40
(
0.2235311286184295
0.223419466142656
0.2234647392096982
0.2244899758247514
0.2320722783124732
0.2291994861055717
0.2272666407858151
0.2262496532671634
0.2363160800915733
0.2410507105072159
0.2465606731125944
0.2537301827972639
0.2688487635270683
0.2674714483556854
0.2634552373809236
0.2581470577758715
0.258668482846605
0.2469828143023449
0.2373729238403423
0.2312647427887689
0.2267525052439031
0.2257542123783804
0.2261776111825755
0.2277763902918496
0.2268111951500978
0.2269978729995857
0.2274951890821562
0.2275322830634304
0.2272747369028358
0.2268586939451215
0.2263070322128289
0.2257495389295655
0.2241532023335494
0.2243777895083515
0.2247180654283706
0.2251948807920245
0.224039595913563
0.2240094184996302
0.2239988445743012
0.2239955037650154
)
;
    }
    wall
    {
        type            calculated;
        value           nonuniform List<scalar> 
104
(
0.31041673215353
0.3072131924362065
0.3073449662559087
0.3028576391207823
0.2970754484854869
0.2928005904836755
0.2862005632707593
0.2758410657999626
0.1809417618804387
0.1925853503766659
0.1978576895031313
0.1999101254196363
0.2003333602050653
0.2011785138942486
0.2033034641402425
0.206092411445272
0.2283722568296207
0.3061298829130133
0.3524204847760175
0.3640319914752276
0.4223953804283443
0.4303387314343453
0.4216462628780362
0.4068337102827733
0.3906685896242115
0.3717212674650259
0.3564603148000783
0.346465185017464
0.3396840611826621
0.3305058665305571
0.3044648736557552
0.311951248001152
0.07437612772350169
0.01516452243406965
0.01060704176048111
0.01059508802231799
0.01757975319877871
0.02469605426597174
0.03513791153630214
0.04478689786948737
0.04171612398580681
0.04958570808239587
0.05995633659159485
0.08264981575399812
0.08127610114190728
0.08658436535254338
0.08919852130957677
0.09399546605735366
0.09891483576101982
0.1032399132167429
0.1060215252255766
0.1069885920492094
0.1069885920492242
0.1060215252255478
0.103239913216804
0.09891483576133099
0.09399546605751655
0.08919852130967423
0.08658436535274212
0.08127610114205384
0.08264981575421498
0.05995633659196948
0.04958570808266821
0.04171612398604815
0.04478689786966304
0.03513791153637397
0.02469605426602769
0.01757975319879693
0.01059508802228587
0.01060704176042983
0.01516452243403646
0.07437612772354005
0.3119512480012174
0.3044648736546155
0.3305058665315687
0.3396840611821725
0.3464651850165496
0.3564603147997798
0.3717212674644061
0.3906685896228697
0.4068337102827887
0.4216462628779409
0.4303387314330703
0.4223953804295934
0.3640319914741817
0.3524204847758893
0.3061298829130952
0.2283722568302431
0.2060924114457847
0.2033034641397477
0.2011785138931865
0.2003333602041889
0.1999101254187232
0.1978576895021322
0.1925853503772131
0.1809417618805922
0.2758410657999246
0.2862005632715145
0.2928005904843072
0.2970754484852133
0.302857639119594
0.3073449662545638
0.3072131924334612
0.310416732150361
)
;
    }
}


// ************************************************************************* //
