/*--------------------------------*- C++ -*----------------------------------*\
  =========                 |
  \\      /  F ield         | OpenFOAM: The Open Source CFD Toolbox
   \\    /   O peration     | Website:  https://openfoam.org
    \\  /    A nd           | Version:  11
     \\/     M anipulation  |
\*---------------------------------------------------------------------------*/
FoamFile
{
    format      ascii;
    class       volVectorField;
    location    "0.3592376";
    object      U;
}
// * * * * * * * * * * * * * * * * * * * * * * * * * * * * * * * * * * * * * //

dimensions      [0 1 -1 0 0 0 0];

internalField   nonuniform List<vector> 
880
(
(24.99999999999999 -2.806387439991303e-12 0)
(24.99999998203183 -1.217507217647118e-08 0)
(24.99829019878781 -0.0005554012419441156 0)
(24.71735980978943 0.007624769382094653 0)
(24.99999999998872 -2.831550818073124e-11 0)
(24.99999994445427 -7.040106036594621e-08 0)
(24.99747952496759 -0.001722112620514043 0)
(24.63269290985289 -0.1593361316750962 0)
(24.99999999963697 -2.437946096551565e-10 0)
(24.99999976102305 -2.871965130034355e-07 0)
(24.99514545740878 -0.0035845234706758 0)
(24.51359818109972 -0.264484626963422 0)
(24.99999999829957 1.052164222680002e-09 0)
(24.9999988181946 -1.167884205855816e-06 0)
(24.98908564711589 -0.007016861484877082 0)
(24.13724071994581 -0.4137218444979675 0)
(25.0000000111903 -4.114209817325266e-09 0)
(24.99999998001881 8.778046765974294e-09 0)
(24.99999953213299 -9.298797472643559e-07 0)
(24.99999314126271 -1.184408205300308e-05 0)
(24.99999376779462 -4.448797164411768e-06 0)
(24.99996304579548 -1.867031517559377e-05 0)
(24.99985588961096 1.067052216284957e-05 0)
(25.00017477401308 -0.001107696070371139 0)
(24.97171043142185 -0.01019844100624392 0)
(24.95164254146187 -0.006360531909129667 0)
(24.92414594886031 0.01073090277217379 0)
(24.91407685539448 -0.06683480633564418 0)
(23.40263611810507 -0.0954213925083994 0)
(22.69016744050528 0.6348518053324779 0)
(22.26854777061672 1.335029204261495 0)
(22.24429554910948 1.746230933977629 0)
(24.99988402615186 -6.196926560405059e-06 0)
(24.9996066102976 -0.0003640912146470426 0)
(24.99925373665376 -0.001529081805765184 0)
(24.99747565611869 -0.004522291464729518 0)
(24.99801873863404 -0.0006931118612246449 0)
(24.99019669055734 -0.0003535804551735514 0)
(24.97715003077343 0.005493433432835455 0)
(24.95441891058242 0.008911129306635703 0)
(24.75585934538794 -0.01080218331989089 0)
(24.63017577687931 0.09839526154519583 0)
(24.46164818330787 0.2785209591199542 0)
(24.31834288307003 0.4062596378480778 0)
(21.98166556934122 2.340710691906702 0)
(21.98731967873963 2.779775690059259 0)
(21.88511538950296 3.317365472587174 0)
(22.33925316235505 3.758414914240741 0)
(23.38567094998099 4.323119133199143 0)
(24.1142208022689 4.173027586783959 0)
(24.45809510293487 3.766272766576599 0)
(24.81732720117103 3.316639008689723 0)
(24.07885462436177 0.7464013634794678 0)
(24.0938536082935 1.104404549277148 0)
(24.19611303981706 1.349492081651435 0)
(24.38212954985007 1.475563975470776 0)
(24.87563954526362 0.03529383773908049 0)
(24.77190047075519 0.1155053355919021 0)
(24.67953680500379 0.2412748676970505 0)
(24.63421117727049 0.3945593968293858 0)
(24.98787355262061 -0.01055584675162601 0)
(24.97236252395172 -0.02426039048967817 0)
(24.95024634373505 -0.04404430051283851 0)
(24.9240502796499 -0.07056257824499866 0)
(24.90148981556004 -0.1010178810690227 0)
(24.88770953726307 -0.1311326192796701 0)
(24.88284465164688 -0.1445287396021443 0)
(24.88832575288016 -0.1379831068052549 0)
(24.6326340447174 0.5574783584987293 0)
(24.67445385950809 0.7120287402380727 0)
(24.76091912813053 0.8382292734214811 0)
(24.87668858360044 0.8925741948209899 0)
(24.54953578517688 1.608777426732194 0)
(24.7525752856495 1.654949674895531 0)
(24.94052382493208 1.627187280660871 0)
(25.09323076768111 1.555471542571697 0)
(24.9911511935097 2.905795682602145 0)
(25.17872585176605 2.489601601455401 0)
(25.29112367883726 2.094360663169899 0)
(25.36345102015414 1.778077873744426 0)
(25.42831232160115 1.377474111252585 0)
(25.24434913593572 1.453736865948585 0)
(24.99915741529705 0.9127447889672281 0)
(24.89607363899173 -0.1212272613305734 0)
(24.54802665457609 1.559503584460256 0)
(25.34338344772255 1.289323429110459 0)
(25.14340223747975 0.8617850048421998 0)
(24.90333186212179 -0.09618393311417082 0)
(19.1543849664388 1.728678430721811 0)
(25.15904233676 1.297223167295315 0)
(25.25814644656662 0.7517665886597638 0)
(24.91621878637287 -0.08053535830649843 0)
(14.12711535549969 2.095963452408296 0)
(23.70231992643677 1.628806897754322 0)
(25.27711722954433 0.7747479317913402 0)
(24.94896278923279 -0.09185179661994826 0)
(24.95453235610266 -0.06679693394423221 0)
(25.21733244853547 0.7182303102446755 0)
(22.05146365888449 2.26936179101863 0)
(12.48983397533631 3.86030883619594 0)
(24.83136427249193 -0.08883002891998122 0)
(24.99459506640613 0.808247160459683 0)
(20.60598185679388 3.314572081713532 0)
(12.79856861126521 5.640555891506406 0)
(24.78950401974436 -0.1158524902329522 0)
(24.47444353176961 1.156913808654915 0)
(18.82494271149346 4.649493442348904 0)
(12.64751538544045 7.078642933300237 0)
(24.69831303324256 -0.1634679691864269 0)
(23.59933281267822 1.928832765594503 0)
(17.58774121823403 6.058383513197276 0)
(13.13582923249633 8.14417424765046 0)
(14.04754587909823 8.855721556077031 0)
(16.96791138040154 7.293804421846916 0)
(22.43001535239181 3.156652708583027 0)
(24.51831159331111 -0.1864962061993371 0)
(15.13573232711342 9.393287166914611 0)
(17.24087082080683 8.219382642348995 0)
(21.21727846460881 4.641965416238182 0)
(24.19843848342699 -0.07129470515231852 0)
(16.37659248257057 9.684257897814552 0)
(18.11055363923721 8.754312952704717 0)
(20.70753949622959 5.995943712145489 0)
(23.69387023851787 0.2364266374202742 0)
(17.548065493151 9.756781939610567 0)
(19.39763155346328 8.854122315888578 0)
(20.87608429900336 7.035994272543331 0)
(23.19626154092411 0.7229299774569219 0)
(22.91096674655517 0.8509755494365855 0)
(22.04903208321663 7.091152185078009 0)
(21.12109781023374 8.806648865117515 0)
(18.96386242115219 9.89778971828952 0)
(23.45621071575761 0.6463945259106625 0)
(23.50851171635841 6.648124455293984 0)
(23.10798798942008 8.415241676522585 0)
(20.90706829542594 9.810493468169657 0)
(24.04000123485944 0.3441248931743371 0)
(24.9316267341533 5.875077403311799 0)
(25.19364688224349 7.6201499266725 0)
(23.44736151737902 9.238278458626715 0)
(24.51868811591634 -0.2494366358330975 0)
(26.06333128337607 4.606850911387928 0)
(27.16639105086749 6.226688547311706 0)
(26.40060403697106 7.616391297001337 0)
(24.88419976442637 -0.30756163317764 0)
(26.92926919222095 3.628092325965272 0)
(29.04980469774905 4.804324740836856 0)
(30.68347330589376 4.759033295357993 0)
(25.30047530144349 -0.4989521220715498 0)
(27.49766848799641 2.601740936669096 0)
(30.1108628526072 3.390624373601711 0)
(34.00252541765114 0.7046266009887029 0)
(25.54328116911203 -0.5425607984598997 0)
(27.54997219860713 1.647316054715609 0)
(30.83479211506339 1.256059477439263 0)
(36.34819241285241 -4.253913587927393 0)
(25.65370066082073 -0.543741156406421 0)
(27.22446770105745 1.022789336959578 0)
(30.31240278973396 -0.3107829287405561 0)
(37.77950565788242 -9.252009772917416 0)
(34.01918554335897 -7.328124640278882 0)
(29.13042087198032 -1.417318580738921 0)
(26.9423412024199 0.3554858005547273 0)
(25.69372217478195 -0.5467542505200267 0)
(25.63455416111277 -3.215033415913669 0)
(28.24647605774009 -1.936574290776356 0)
(26.6481209668359 -0.1001466654046302 0)
(25.62906257544632 -0.4720606215722812 0)
(23.08908746455945 -3.612731068565019 0)
(27.75007318653945 -2.841732717650866 0)
(26.39350866501649 -0.5594344455458709 0)
(25.50627519652978 -0.3592958555600294 0)
(19.90315923053901 -3.659488953784879 0)
(26.97784068724197 -3.450134423961927 0)
(26.04931815609935 -0.9532412120968233 0)
(25.3898049188959 -0.275111339768124 0)
(18.08531867337315 -4.760137304467217 0)
(25.72430580020713 -4.391146137674864 0)
(25.48602585810496 -1.289830960561649 0)
(25.18022299648888 -0.215674177097474 0)
(15.43327593926144 -6.813589455958028 0)
(24.08650493479808 -4.635069603293677 0)
(24.89652448612276 -1.12574546879201 0)
(25.00123726175369 -0.1079285357388139 0)
(14.37829129881735 -6.976638148985266 0)
(23.02532933693184 -4.048557602644074 0)
(24.65192870895092 -0.7359172889547296 0)
(24.97081057496802 -0.04913657623424387 0)
(14.33664658036889 -5.861266965295235 0)
(22.80033071086211 -3.600492125366061 0)
(24.67303497363399 -0.6014622117203254 0)
(24.9760844291404 -0.03608012263658954 0)
(14.22224206510935 -0.6632494188433716 0)
(20.3430173724349 -0.1132534078674688 0)
(23.64824080817296 0.0105790670734217 0)
(24.85559054428306 0.001982474742441738 0)
(14.20382150687573 -1.755736842949204 0)
(20.33966072271316 -0.5378167917127907 0)
(23.66315430728463 0.0006285030553235665 0)
(24.85253368484974 0.004365015498671951 0)
(14.41813735641353 -3.256056580633407 0)
(20.3475738674363 -0.9879262759457872 0)
(23.70247755904702 -0.07176151809030486 0)
(24.8517837963182 0.0002501050264039001 0)
(14.46994567452459 -4.649571516170001 0)
(20.55617342389841 -1.352459640314555 0)
(23.8022142905318 -0.1947233211529413 0)
(24.86017048221246 -0.01139097208690432 0)
(14.33664658037574 5.861266965271634 0)
(22.8003307108815 3.60049212535769 0)
(24.67303497376447 0.6014622116736554 0)
(24.97608442925278 0.03608012261722609 0)
(14.37829129881237 6.976638148943018 0)
(23.02532933703383 4.048557602699876 0)
(24.6519287090394 0.7359172889402893 0)
(24.97081057512046 0.0491365762805012 0)
(15.43327593929818 6.813589455974797 0)
(24.08650493481585 4.635069603331896 0)
(24.89652448611255 1.125745468836245 0)
(25.00123726176826 0.1079285357891002 0)
(18.08531867340242 4.760137304470355 0)
(25.72430580036011 4.391146137752905 0)
(25.48602585812912 1.289830960596389 0)
(25.1802229964569 0.215674177145245 0)
(25.69372217475141 0.5467542504616466 0)
(26.94234120240788 -0.3554858005886689 0)
(29.13042087201737 1.417318580731736 0)
(34.01918554328511 7.328124640407132 0)
(25.62906257546204 0.4720606215211924 0)
(26.64812096684189 0.1001466653973301 0)
(28.24647605783773 1.93657429078475 0)
(25.63455416121133 3.215033416020919 0)
(25.50627519644987 0.3592958555135021 0)
(26.39350866491587 0.559434445570158 0)
(27.75007318662463 2.841732717783472 0)
(23.08908746447383 3.612731068606142 0)
(25.38980491877711 0.2751113397471115 0)
(26.04931815601748 0.9532412120680881 0)
(26.97784068725859 3.450134424038554 0)
(19.90315923063664 3.659488953818646 0)
(37.77950565784719 9.252009773041932 0)
(30.31240278969755 0.3107829287348958 0)
(27.2244677010341 -1.022789336965331 0)
(25.65370066078294 0.5437411563586192 0)
(36.3481924128636 4.253913587976808 0)
(30.8347921151193 -1.256059477398597 0)
(27.54997219863102 -1.647316054721289 0)
(25.54328116915179 0.5425607984733328 0)
(34.00252541768565 -0.7046266009475436 0)
(30.11086285247146 -3.390624373574031 0)
(27.49766848799333 -2.601740936642735 0)
(25.30047530129533 0.4989521221399319 0)
(30.68347330582587 -4.759033295334085 0)
(29.04980469778132 -4.804324740805798 0)
(26.92926919236808 -3.628092325943219 0)
(24.88419976426728 0.307561633265005 0)
(22.91096674647685 -0.8509755494176587 0)
(22.0490320831598 -7.091152185082516 0)
(21.12109781018351 -8.806648865117767 0)
(18.96386242118173 -9.897789718295511 0)
(23.45621071575382 -0.6463945258665448 0)
(23.50851171636614 -6.648124455289691 0)
(23.1079879893429 -8.41524167649445 0)
(20.90706829547024 -9.810493468185792 0)
(24.04000123490141 -0.3441248931541748 0)
(24.93162673417937 -5.875077403320683 0)
(25.19364688218288 -7.620149926639283 0)
(23.44736151737656 -9.238278458613697 0)
(24.5186881158664 0.2494366359026137 0)
(26.06333128345961 -4.606850911368078 0)
(27.16639105090929 -6.226688547286212 0)
(26.40060403692592 -7.616391296983799 0)
(17.54806549317379 -9.756781939617568 0)
(19.39763155352285 -8.854122315926645 0)
(20.87608429896452 -7.035994272540871 0)
(23.19626154079823 -0.7229299774734258 0)
(16.37659248261131 -9.684257897837227 0)
(18.11055363929334 -8.75431295272768 0)
(20.70753949621329 -5.99594371215398 0)
(23.69387023850098 -0.2364266374171775 0)
(15.13573232712352 -9.393287166927809 0)
(17.2408708208921 -8.219382642364623 0)
(21.21727846463596 -4.641965416214079 0)
(24.19843848331774 0.07129470515927518 0)
(14.04754587913091 -8.855721556079835 0)
(16.96791138041069 -7.293804421817351 0)
(22.4300153523044 -3.156652708548978 0)
(24.51831159330774 0.1864962062010005 0)
(24.954532356155 0.06679693396700212 0)
(25.21733244857227 -0.7182303102193672 0)
(22.05146365888572 -2.26936179102978 0)
(12.48983397539412 -3.860308836207027 0)
(24.83136427240846 0.08883002891829696 0)
(24.99459506640871 -0.808247160416284 0)
(20.60598185682044 -3.314572081714044 0)
(12.79856861131133 -5.640555891531839 0)
(24.78950401960431 0.1158524902263881 0)
(24.47444353161458 -1.156913808589728 0)
(18.82494271156937 -4.649493442331543 0)
(12.64751538548218 -7.078642933313583 0)
(24.69831303319376 0.1634679691896105 0)
(23.59933281264419 -1.928832765513813 0)
(17.58774121831931 -6.058383513180461 0)
(13.13582923250139 -8.144174247648666 0)
(24.94896278920831 0.09185179663376017 0)
(24.91621878641566 0.08053535831915218 0)
(24.90333186203648 0.09618393314378827 0)
(24.89607363898277 0.121227261326936 0)
(25.27711722962248 -0.7747479317927946 0)
(25.25814644663631 -0.7517665886507426 0)
(25.14340223735181 -0.8617850048275527 0)
(24.99915741529394 -0.9127447889836264 0)
(23.70231992654214 -1.628806897774206 0)
(25.15904233679093 -1.297223167300506 0)
(25.34338344779092 -1.289323429123862 0)
(25.24434913596574 -1.453736865941571 0)
(14.12711535558418 -2.095963452414689 0)
(19.15438496650522 -1.728678430717472 0)
(24.54802665450654 -1.559503584431951 0)
(25.42831232159273 -1.377474111226979 0)
(24.88832575282502 0.1379831068124513 0)
(24.87668858351876 -0.8925741947992613 0)
(25.0932307676712 -1.555471542546577 0)
(25.36345102024465 -1.778077873698531 0)
(24.88284465171837 0.1445287395829378 0)
(24.76091912811029 -0.838229273414867 0)
(24.94052382503586 -1.627187280644201 0)
(25.29112367889526 -2.094360663131388 0)
(24.88770953724809 0.1311326192703338 0)
(24.67445385950342 -0.7120287401860467 0)
(24.75257528562657 -1.654949674902854 0)
(25.17872585181878 -2.489601601455262 0)
(24.90148981561408 0.1010178809881197 0)
(24.63263404478044 -0.5574783584778156 0)
(24.54953578522796 -1.608777426730776 0)
(24.9911511935134 -2.905795682592293 0)
(24.98787355262659 0.01055584666649183 0)
(24.8756395453765 -0.03529383764525997 0)
(24.07885462440878 -0.746401363472749 0)
(23.38567095002396 -4.323119133185524 0)
(24.97236252394748 0.02426039037370354 0)
(24.77190047082474 -0.1155053355205178 0)
(24.0938536083463 -1.104404549243839 0)
(24.11422080236507 -4.173027586798998 0)
(24.95024634361296 0.04404430048589222 0)
(24.67953680517795 -0.2412748676266367 0)
(24.19611303985493 -1.349492081651842 0)
(24.45809510309081 -3.766272766632672 0)
(24.92405027966121 0.07056257817685184 0)
(24.63421117727288 -0.3945593967755889 0)
(24.38212954996868 -1.475563975438076 0)
(24.81732720122327 -3.316639008714964 0)
(22.33925316238007 -3.758414914228438 0)
(24.31834288303099 -0.4062596378506864 0)
(24.95441891064631 -0.008911129211822398 0)
(24.99747565612872 0.004522291451468376 0)
(21.88511538954129 -3.317365472572546 0)
(24.46164818329559 -0.2785209591239819 0)
(24.97715003084332 -0.005493433394859531 0)
(24.99925373668587 0.001529081774739286 0)
(21.98731967883231 -2.779775690055117 0)
(24.63017577694233 -0.09839526155114688 0)
(24.99019669071882 0.0003535804621797579 0)
(24.99960661023123 0.0003640910929817859 0)
(21.98166556930532 -2.340710691885955 0)
(24.75585934546695 0.01080218331239325 0)
(24.99801873871056 0.0006931118763764742 0)
(24.99988402621928 6.196940826308315e-06 0)
(22.24429554909594 -1.7462309339638 0)
(24.91407685537364 0.06683480634012416 0)
(25.00017477405902 0.001107696089657814 0)
(24.99999314123308 1.184412528626962e-05 0)
(22.26854777056521 -1.335029204248437 0)
(24.92414594887242 -0.01073090277535357 0)
(24.99985588962632 -1.067052300042318e-05 0)
(24.99999953209123 9.298890173987514e-07 0)
(22.69016744035153 -0.6348518053412515 0)
(24.9516425414892 0.006360531900237274 0)
(24.99996304578327 1.867030592732382e-05 0)
(24.99999998004261 -8.82346466191206e-09 0)
(23.40263611786279 0.09542139246133878 0)
(24.97171043150198 0.01019844100096203 0)
(24.99999376797954 4.44881022160745e-06 0)
(25.00000001114298 4.117378888681788e-09 0)
(25.00000000000002 5.955301927626382e-12 0)
(24.99999998201898 1.215836262945004e-08 0)
(24.99829019878021 0.000555401224046036 0)
(24.71735980975582 -0.007624769225372551 0)
(24.99999999997173 4.182582430454537e-11 0)
(24.99999994453042 7.037758792295998e-08 0)
(24.99747952488996 0.001722112598132415 0)
(24.63269290971419 0.1593361317458926 0)
(24.99999999962681 2.565014693958208e-10 0)
(24.99999976109916 2.872002116508135e-07 0)
(24.99514545743646 0.003584523457322392 0)
(24.51359818074403 0.2644846268939971 0)
(24.99999999828481 -1.026272456656519e-09 0)
(24.99999881823999 1.167896860493683e-06 0)
(24.98908564712137 0.007016861474588619 0)
(24.1372407196522 0.4137218444421471 0)
(24.52527094210328 1.098658858454821e-10 0)
(24.35979249771756 0.1495549301834113 0)
(23.97404317006955 0.1736327980819766 0)
(23.03854851902334 0.01871661942621376 0)
(24.35979249793446 -0.1495549299665213 0)
(24.08843260692566 4.09678488641829e-11 0)
(23.40957100153125 -0.06031099227798489 0)
(21.96066283458807 -0.4863804528522598 0)
(23.97404317051291 -0.1736327979890532 0)
(23.40957100190173 0.06031099235398644 0)
(22.12861605320018 6.328998382278484e-11 0)
(20.03095887071882 -0.5819754086045468 0)
(23.0385485193936 -0.018716619446808 0)
(21.96066283518019 0.4863804527953868 0)
(20.03095887097079 0.5819754085575116 0)
(17.78918720862906 -2.40078271209688e-10 0)
(17.25878479185493 2.521584493989272 0)
(17.89935081312835 2.917349327286431 0)
(19.5433950847098 2.655843840246205 0)
(21.08693528836832 1.887816088594087 0)
(18.24491027408337 4.246787738753927 0)
(18.30812482654445 4.203002235796029 0)
(19.04065813853229 4.114780733766263 0)
(20.07397624377471 3.952546998975745 0)
(17.68385657776541 5.193199824206975 0)
(18.85057426794312 4.491072957729573 0)
(19.52792272489747 4.691878736862735 0)
(20.05233470493357 4.56374966382788 0)
(18.33525175502585 5.754218556784192 0)
(19.70555516172983 4.717193403747734 0)
(20.20571510918463 4.891232171149968 0)
(20.49069943850046 4.805573808281426 0)
(20.79096393195516 4.932705298009716 0)
(21.02925688604495 5.061730842400115 0)
(21.40435069009184 5.120578601873624 0)
(22.16084850136232 5.280348163154943 0)
(20.72900168562047 4.994246711307115 0)
(21.03868872664061 5.101569270410775 0)
(21.53836692257321 5.117412433942629 0)
(22.65128570865017 5.50067113558883 0)
(20.47284630826065 4.931258382628385 0)
(20.97343778028494 5.105922088356865 0)
(21.55536498850811 5.158189880429061 0)
(24.10136853847239 5.943006668667974 0)
(18.97616678649243 5.851119099745999 0)
(19.59932856148012 5.875946377121308 0)
(20.50317332439398 5.734756985581171 0)
(25.83118854091528 7.125897384596448 0)
(25.81525238258499 3.187582043805279 0)
(26.40945063632531 0.8090350658158981 0)
(25.72185555084682 0.487079427008884 0)
(25.5950978449156 0.38205856757872 0)
(28.37610495221879 2.198782590623997 0)
(28.69592341993685 0.3397478511899091 0)
(27.56801997552682 0.2832497520368605 0)
(26.89269661660499 0.3137577819838919 0)
(31.54901895384646 1.904715648571377 0)
(30.14995183687504 0.04577678356050801 0)
(28.75773890234982 0.05144593224758959 0)
(27.77933241728978 0.0938661977720591 0)
(25.07990642022564 1.987932566375855 0)
(24.2174758403129 0.6522739963210216 0)
(24.07232505755365 0.0897014887191699 0)
(24.15978712529536 -0.2164447542837675 0)
(25.66543117899027 0.3867733388636162 0)
(25.71344399098693 0.3198128305606693 0)
(25.70096020909343 0.2051367948370294 0)
(25.65343689026997 0.1716672055495236 0)
(26.53712727703091 0.3417374982934425 0)
(26.22460587245221 0.2915140258836698 0)
(25.94663818864278 0.191593777954793 0)
(25.72127790347293 0.1306860542305662 0)
(27.15030600008397 0.1478463734116206 0)
(26.59225300375138 0.1471934587310111 0)
(26.09881501533382 0.09830262424819229 0)
(25.66598902105104 0.0851411772943327 0)
(24.13124508730544 -0.4622504816740567 0)
(23.90332612782169 -0.6207341840491519 0)
(23.70232855599299 -0.7154386567359075 0)
(23.36994928783542 -0.6662493023746128 0)
(25.20552207328156 0.7717347203995267 0)
(20.0923649385676 5.098316885146934 0)
(13.71991759157771 3.924514023139388 0)
(9.345198324260567 1.059318940945357 0)
(24.62758373193513 1.255388368949847 0)
(16.07220457983517 4.951632096857366 0)
(8.863773395753331 2.74080714634413 0)
(4.471022969308104 -0.1764412424662238 0)
(23.4356510648974 1.295067946341223 0)
(11.69326764051249 3.634463767925034 0)
(3.139632699111905 2.029119947409958 0)
(-0.7690359510643781 0.2418313105981397 0)
(19.41391562245455 -0.7286226821427957 0)
(7.302768920947532 -0.7957797507540565 0)
(0.2336988370068966 0.5430050257607087 0)
(-2.595593357687069 0.1743932654877172 0)
(8.569148484850498 2.693894353941251 0)
(10.58536490947425 4.559500097092321 0)
(11.49761435430477 6.280354107380655 0)
(12.44952595661354 7.625635474483674 0)
(6.136675660518058 1.993684557785893 0)
(9.511369239359777 4.411050467189906 0)
(11.20129108451418 6.226229251917194 0)
(12.40431858339166 7.672156818350276 0)
(2.933307453665973 0.01197751061341777 0)
(7.442478309320062 3.331962139481784 0)
(10.26714312035715 6.03619492219215 0)
(12.02123335603952 7.59691809262665 0)
(0.2395586343172204 -0.1062588530988145 0)
(3.47028204618304 2.475984025747735 0)
(7.538048948200569 3.976186519322621 0)
(10.63466000275599 5.463977478356715 0)
(13.63849072781069 8.986495535931226 0)
(14.77053654906934 10.00815564853907 0)
(15.91945334843481 10.56578314650815 0)
(16.81352965171369 10.8559911075535 0)
(13.55816642883472 8.921004913269996 0)
(14.71383627666096 9.954781537273693 0)
(15.82396912644635 10.5416697553027 0)
(16.69639711788479 10.88141844939106 0)
(13.23585666536089 8.76417585706076 0)
(14.51737984063307 9.775719025751465 0)
(15.74209125309194 10.47462151565154 0)
(16.62306700489058 10.96197649340556 0)
(13.11738827661597 6.748232101008002 0)
(14.67205744326018 8.448524798136273 0)
(15.76611443407577 10.30179350807958 0)
(16.64565350085242 10.93921083419385 0)
(17.82791850248528 11.27568347098317 0)
(19.42337415817728 11.76984728617655 0)
(21.77504971202588 11.69323167080723 0)
(24.77798137564031 10.42096752882898 0)
(17.6227771138838 11.27976143397668 0)
(19.07492073826208 11.72985078374217 0)
(21.21153673596882 11.74952443574929 0)
(24.97582726577107 12.4734794861813 0)
(17.47369845327453 11.3688547186028 0)
(18.72296974493784 11.78345821411085 0)
(21.34547212927786 12.58553908420207 0)
(31.4851604419864 18.45884402862116 0)
(17.43734821442093 11.39311939436463 0)
(18.64011495341973 11.79210831676145 0)
(22.06806810528774 13.1748382603354 0)
(43.24394705301516 25.51574083666759 0)
(30.59388327424082 5.261216692153151 0)
(32.03813177718555 -3.582409405632458 0)
(12.65433678449535 8.691210588396798 0)
(7.857674323351652 30.84084837874319 0)
(32.2313569241218 4.900234940205364 0)
(26.46681993116233 -1.952401613089952 0)
(8.97650763485105 17.41678057185195 0)
(8.448165441791589 29.02686945748074 0)
(31.97401282294874 3.292520204496616 0)
(17.20848513559046 -4.302880641143221 0)
(3.828891837385037 21.32888307499189 0)
(4.612012116675443 29.02659871542127 0)
(20.30819317284073 -8.299019550676009 0)
(7.328074366657543 -0.5716320534140267 0)
(2.088261617272499 24.81810675709049 0)
(2.648163756637028 28.73397273430256 0)
(7.017410181265328 24.62071895796162 0)
(2.69960243698736 17.69717195284346 0)
(-0.7733955623612657 14.87156333217819 0)
(-2.833087935560382 9.937956897798681 0)
(6.712215907141264 23.57249518356404 0)
(1.91509773445973 19.24748502192763 0)
(-0.4568005164956384 14.98172583574609 0)
(-1.253573287169669 7.687185972074769 0)
(3.278219565975014 22.61477356208489 0)
(1.430422425770346 18.10668679167846 0)
(-0.3153792702574559 12.35862550566122 0)
(-0.8159270196671198 4.900440985870771 0)
(0.7861814257454849 22.03876781837438 0)
(-0.4547183952739589 17.36658240260676 0)
(-1.909241180945786 10.96805225182372 0)
(-1.738863596440366 3.285193432242933 0)
(-6.073841049661076 3.289757338628044 0)
(-2.016756237380303 0.2621886515439543 0)
(2.428960170798603 -2.420471204663165 0)
(4.456978414638987 -6.632188314624577 0)
(-6.812470578280927 3.051141171092287 0)
(-5.955794136933002 0.3487774194866757 0)
(-1.266800170688313 -0.7973259896198305 0)
(2.679116499759909 -5.575477423522893 0)
(-6.212926295452304 2.126707697867938 0)
(-7.806452255337733 0.6687390760867291 0)
(-4.517958904707659 0.3046746131136734 0)
(0.03239578674999145 -4.086204925750382 0)
(-4.585764443118386 2.184291184217827 0)
(-7.136668743702534 2.668614012497701 0)
(-5.229545239406114 3.072723467741424 0)
(-0.6500034908054668 -1.052224237667948 0)
(2.361361458947683 -6.935600573252191 0)
(2.293272782581366 -7.541104298918493 0)
(3.156907477998951 -7.215751710924369 0)
(4.46296496395535 -6.469117852655366 0)
(1.46573965639245 -6.803500073544448 0)
(1.926620615339286 -6.27522007563327 0)
(3.127018427083278 -5.840660820959762 0)
(3.899661770184135 -4.924343525227714 0)
(0.4567186067797841 -4.75073904912394 0)
(0.658483347582793 -3.491287837964072 0)
(1.655320343929365 -3.00363662657012 0)
(2.137331408926531 -1.923647659081171 0)
(1.65884025029621 -1.98629585038414 0)
(1.311074241809192 -0.7524817982913317 0)
(1.877017883214785 -0.3122918905609218 0)
(1.653192117375197 0.6367040543752817 0)
(0.7800820137441457 1.14731063723229 0)
(-0.03298558015379431 1.284707845421563 0)
(-0.6587020548008639 0.9682814885886087 0)
(-0.981294185007589 0.3366269892446393 0)
(1.586995056697932 -0.9804273725977782 0)
(0.5863056822954177 -0.4815271865325759 0)
(-0.2570282446547559 -0.05723308348533439 0)
(-0.6750536895637017 -0.0242219680301712 0)
(3.363723050242768 -3.805955640261382 0)
(2.444038884412512 -2.79682487658836 0)
(1.338012636542484 -1.704860824339731 0)
(0.606718418201136 -0.6385127814220438 0)
(5.106991156555113 -4.816638876642115 0)
(4.969833540894281 -3.30236463754373 0)
(4.187846564677873 -2.021999218233126 0)
(3.720935258006251 -0.7293590043172533 0)
(-0.9812941850098783 -0.3366269892217529 0)
(-0.6750536895637246 0.02422196803995075 0)
(0.606718418201344 0.6385127814166878 0)
(3.720935258007569 0.7293590042977589 0)
(-0.6587020548051937 -0.9682814885697444 0)
(-0.2570282446556664 0.05723308349485907 0)
(1.338012636546988 1.704860824337346 0)
(4.18784656470538 2.021999218213812 0)
(-0.03298558015760451 -1.284707845407973 0)
(0.5863056822940718 0.4815271865398318 0)
(2.444038884410908 2.796824876585403 0)
(4.969833540915235 3.302364637544968 0)
(0.7800820137413789 -1.147310637221137 0)
(1.586995056700511 0.9804273726028597 0)
(3.363723050231728 3.805955640261736 0)
(5.106991156559729 4.816638876652535 0)
(4.462964963933484 6.469117852625121 0)
(3.156907478001026 7.215751710911262 0)
(2.293272782583523 7.541104298905244 0)
(2.361361458961145 6.935600573235403 0)
(3.899661770184063 4.924343525227991 0)
(3.127018427092117 5.840660820953484 0)
(1.926620615356146 6.2752200756278 0)
(1.46573965641309 6.803500073529784 0)
(2.137331408926449 1.923647659078034 0)
(1.655320343931435 3.003636626560348 0)
(0.6584833475939279 3.491287837965748 0)
(0.4567186067934516 4.750739049117916 0)
(1.653192117376217 -0.6367040543710631 0)
(1.877017883222445 0.3122918905652786 0)
(1.311074241818017 0.7524817982982239 0)
(1.658840250304811 1.986295850392051 0)
(-0.6500034907880134 1.052224237670271 0)
(-5.229545239367881 -3.072723467712424 0)
(-7.136668743665908 -2.668614012466762 0)
(-4.585764443091012 -2.184291184209352 0)
(0.03239578676530538 4.08620492574837 0)
(-4.517958904689275 -0.3046746130913914 0)
(-7.806452255280862 -0.668739076069357 0)
(-6.212926295381886 -2.126707697835125 0)
(2.679116499773168 5.575477423514443 0)
(-1.266800170656579 0.7973259896441776 0)
(-5.955794136862122 -0.3487774194608917 0)
(-6.812470578227623 -3.051141171040027 0)
(4.456978414651696 6.632188314619655 0)
(2.428960170822894 2.420471204684587 0)
(-2.016756237295324 -0.262188651523188 0)
(-6.073841049554849 -3.289757338554614 0)
(-2.833087935553701 -9.93795689768362 0)
(-0.7733955624189062 -14.87156333217875 0)
(2.699602437024399 -17.69717195309952 0)
(7.017410180985784 -24.62071895804927 0)
(-1.253573287165391 -7.687185972010931 0)
(-0.4568005165065714 -14.98172583571579 0)
(1.915097734548523 -19.24748502201278 0)
(6.712215907170603 -23.57249518354939 0)
(-0.8159270196687085 -4.900440985845883 0)
(-0.3153792702617788 -12.35862550562259 0)
(1.430422425797024 -18.10668679172527 0)
(3.27821956599228 -22.61477356209141 0)
(-1.738863596434989 -3.285193432250134 0)
(-1.909241180953783 -10.96805225185197 0)
(-0.4547183952752029 -17.36658240260579 0)
(0.7861814257549506 -22.03876781837201 0)
(7.857674322983168 -30.84084837874732 0)
(12.65433678422495 -8.691210588700844 0)
(32.0381317771667 3.582409405684005 0)
(30.59388327429378 -5.261216692147197 0)
(8.448165441637208 -29.02686945746902 0)
(8.976507634802642 -17.41678057206317 0)
(26.46681993122756 1.952401613066853 0)
(32.23135692404409 -4.900234940175097 0)
(4.612012116689812 -29.02659871548265 0)
(3.828891837332147 -21.32888307511086 0)
(17.20848513552546 4.302880641082396 0)
(31.97401282286727 -3.29252020448329 0)
(2.648163756643014 -28.73397273437687 0)
(2.088261617251369 -24.81810675722482 0)
(7.328074366681122 0.5716320533497966 0)
(20.30819317282793 8.299019550647129 0)
(24.77798137562842 -10.42096752880859 0)
(21.77504971199386 -11.69323167077028 0)
(19.4233741582285 -11.76984728618105 0)
(17.82791850245176 -11.27568347095878 0)
(24.97582726581267 -12.47347948618935 0)
(21.21153673602962 -11.74952443576037 0)
(19.07492073825997 -11.72985078372442 0)
(17.62277711394758 -11.27976143400832 0)
(31.48516044190419 -18.45884402856251 0)