/*--------------------------------*- C++ -*----------------------------------*\
  =========                 |
  \\      /  F ield         | OpenFOAM: The Open Source CFD Toolbox
   \\    /   O peration     | Website:  https://openfoam.org
    \\  /    A nd           | Version:  11
     \\/     M anipulation  |
\*---------------------------------------------------------------------------*/
FoamFile
{
    format      ascii;
    class       volScalarField;
    location    "0.0475";
    object      Ma;
}
// * * * * * * * * * * * * * * * * * * * * * * * * * * * * * * * * * * * * * //

dimensions      [0 0 0 0 0 0 0];

internalField   nonuniform List<scalar> 
880
(
1.443353270571932
1.443353270571932
1.443353270571932
1.443353268248552
1.443353270571932
1.443353270571932
1.443353270571934
1.443353413738214
1.443353270571932
1.443353270571933
1.443353270571932
1.443352270120309
1.443353270571932
1.443353270571932
1.443353270572171
1.443319677565872
1.443353270571932
1.443353270571932
1.443353270571933
1.443353270571932
1.443353270571932
1.443353270571932
1.443353270571935
1.443353270571932
1.443353270612683
1.44335327001666
1.44335368799434
1.443352777928732
1.442070924701752
1.436552886368392
1.43204271073476
1.431672546360248
1.443353270269347
1.443353270111438
1.443353270036251
1.443353270419793
1.443353260769294
1.443353259707904
1.443353258912295
1.443353257154142
1.443336067706169
1.443333876904814
1.443333096330325
1.443326982292627
1.431048497441662
1.430660270625775
1.430810355439489
1.426802246943266
1.435371236624271
1.442836655380918
1.445562869375606
1.444239660139749
1.443320796526702
1.443337544676385
1.443353890654857
1.443355418345944
1.443353239263489
1.443353253023039
1.443353269162329
1.443353271986999
1.443353268677373
1.443353268842516
1.443353269662429
1.443353270374633
1.443353270563006
1.443353270571933
1.443353270571932
1.443353270571932
1.443353270767191
1.443353270574717
1.443353270571932
1.443353270571941
1.44335355602453
1.443353276160156
1.443353270615761
1.443353270566178
1.443445728502461
1.443355325307283
1.443353282491138
1.443353260787729
1.443353267857823
1.443353270559449
1.443353270571932
1.443353270571932
1.443353265399435
1.443353270608702
1.443353270578796
1.443353270571932
1.44335148372038
1.443353154524464
1.443353268438883
1.443353270547835
1.445209777123847
1.443383935799964
1.443353292734415
1.443353270584389
1.443353270571738
1.443353230486779
1.443330496240575
1.409206449803762
1.443353269458074
1.443353198326125
1.443219138358854
1.354591360270905
1.443353268221683
1.443353166923369
1.443159512275672
1.341657474003601
1.443353267538878
1.443353141402311
1.443126539993369
1.337649541408653
1.332752011088377
1.44308961855059
1.443353109108986
1.443353266698234
1.327793642850833
1.443044594069467
1.443353067297806
1.443353265482818
1.321220320394518
1.442985800061774
1.443353007491528
1.443353264120377
1.315085888799454
1.442907912407449
1.443352926195931
1.443353260972097
1.443353262506219
1.443352988708335
1.442924888987971
1.310322259510202
1.443353261643943
1.443352935081359
1.442885780721789
1.31008158095424
1.443353260409923
1.443352886007655
1.44286659808137
1.318424330122588
1.443353261664947
1.443353046456627
1.443101511685514
1.369372365566159
1.443353244245981
1.443354515606385
1.443569900446552
1.444004716611048
1.443353294248363
1.443354249170039
1.442465225616841
1.414556962637646
1.443353266287209
1.44334699445081
1.440963286724467
1.348716795533257
1.443353265196284
1.443342853613688
1.439055082726493
1.294114313413041
1.310910455575872
1.441081325121963
1.443349466591456
1.443353268365732
1.329799118159484
1.441352099233145
1.443349690648353
1.443353268275864
1.347781673302557
1.442069666600637
1.443351487243045
1.443353269579086
1.330057811959862
1.441566055799668
1.443350535615615
1.443353269040882
1.390318542571363
1.442867733929581
1.443352645134482
1.443353270199571
1.432143247075594
1.443309395828266
1.443353234737348
1.443353270550934
1.443167983547046
1.443353877600299
1.443353272516942
1.443353270573841
1.44534833415875
1.443363723236369
1.443353290319558
1.443353270561152
1.429990309331441
1.443206375409979
1.443352768709222
1.443353270199612
1.430028020874728
1.443206661886676
1.443352769209715
1.443353270187233
1.43009013974583
1.443206931573713
1.443352767006763
1.443353270114196
1.429619206863227
1.443206598684633
1.443352765303486
1.443353269973184
1.445348334163042
1.443363723239251
1.443353290323572
1.44335327055899
1.443167983551621
1.443353877603701
1.443353272524926
1.44335327057328
1.432143247075829
1.44330939582709
1.443353234736982
1.443353270551268
1.390318542566015
1.442867733921562
1.443352645133828
1.443353270201498
1.443353268360501
1.44334946658111
1.441081325118721
1.310910455572787
1.443353268272106
1.443349690647483
1.441352099229376
1.3297991181585
1.443353269583509
1.443351487238107
1.44206966660048
1.347781673294579
1.443353269040267
1.443350535613403
1.441566055793337
1.330057811962384
1.294114313418232
1.439055082731816
1.443342853619313
1.443353265198041
1.348716795538398
1.440963286729317
1.443346994459207
1.44335326629641
1.414556962637815
1.442465225622998
1.443354249170016
1.443353294254865
1.444004716609399
1.443569900448818
1.443354515608857
1.443353244234888
1.443353262508484
1.443352988703151
1.442924888985542
1.310322259504704
1.443353261642847
1.443352935078845
1.442885780721378
1.310081580954061
1.443353260404848
1.443352886007857
1.442866598085542
1.318424330122934
1.443353261656181
1.443353046456866
1.443101511688459
1.369372365566742
1.315085888789798
1.442907912412517
1.443352926188417
1.44335326097311
1.321220320386543
1.442985800050043
1.443353007490652
1.443353264118999
1.327793642854503
1.443044594060429
1.443353067290658
1.443353265483952
1.332752011081928
1.443089618561099
1.443353109109406
1.443353266699567
1.443353270568463
1.443353230481108
1.443330496241692
1.409206449810727
1.443353269461878
1.443353198331665
1.443219138355365
1.354591360272854
1.443353268223561
1.443353166923009
1.443159512274179
1.34165747399874
1.443353267541142
1.443353141400954
1.443126539995579
1.337649541409611
1.443353270585089
1.44335327054699
1.443353270571932
1.443353270571932
1.443353292741217
1.443353268439798
1.44335327057507
1.443353270571932
1.443383935798048
1.443353154521097
1.443353270611621
1.443353270560576
1.445209777123688
1.44335148372006
1.443353265399222
1.44335326785763
1.443353270571934
1.443353270571941
1.443353270564608
1.443353260786149
1.443353270571932
1.443353270571932
1.44335327060828
1.44335328249091
1.443353270571932
1.443353270574687
1.443353276164315
1.443355325306529
1.443353270562659
1.443353270767507
1.443353556019028
1.443445728504481
1.443353268682761
1.443353239268706
1.44332079653082
1.435371236625403
1.443353268847214
1.443353253022545
1.443337544677094
1.442836655385472
1.443353269663731
1.443353269155512
1.443353890656442
1.445562869376651
1.443353270375654
1.443353271984071
1.443355418345873
1.444239660144575
1.426802246941177
1.443326982281586
1.443353257157245
1.443353270422138
1.430810355441382
1.44333309631737
1.443353258913434
1.443353270034938
1.430660270617549
1.443333876899941
1.44335325970732
1.44335327011289
1.431048497443959
1.443336067727599
1.443353260770644
1.443353270268088
1.431672546357349
1.443352777925223
1.443353270571932
1.443353270571932
1.432042710736442
1.443353688001776
1.443353270571932
1.443353270571933
1.436552886365275
1.443353270018999
1.443353270571932
1.443353270571933
1.442070924702479
1.443353270611941
1.443353270571932
1.443353270571934
1.443353270571932
1.443353270571933
1.443353270571932
1.44335326813192
1.443353270571931
1.443353270571932
1.443353270571932
1.4433534137539
1.443353270571932
1.443353270571932
1.443353270571932
1.443352270135107
1.443353270571932
1.443353270571932
1.443353270572099
1.443319677568442
1.443353709884788
1.443355424589916
1.443357183672959
1.442964470076387
1.443355424554573
1.443362363615835
1.443368215788675
1.441260826965743
1.443357183676022
1.443368215791831
1.442753829360466
1.417630036571247
1.442964470056453
1.441260826979301
1.417630036577176
1.260022548986254
1.109825689549857
1.209620606405919
1.353766906479532
1.413377935411398
1.162755007785206
1.18996344118361
1.262849802120548
1.321701829060429
1.223462359897075
1.250230990715368
1.274984035473189
1.302241334798866
1.245983519353397
1.293645271168135
1.301489642797959
1.313216346233449
1.315702820613362
1.316661524799221
1.317191562972958
1.297760930929935
1.308984832391877
1.310939779769919
1.311659675667813
1.308264227074141
1.307377927749915
1.310514753854478
1.311432302564422
1.361027197959554
1.246474785661557
1.247098999374033
1.247522422455948
1.458769895907943
1.426298866046277
1.491979719009353
1.477735958197758
1.452087445846455
1.510687903336203
1.602909999061882
1.506262072612093
1.458658866103031
1.64325716556882
1.627332662128949
1.534124370102711
1.471909849957511
1.253373717324845
1.283582684538223
1.360149211133405
1.41607844215213
1.444092045297421
1.443373740623144
1.443353792775492
1.443353235926377
1.444767188487283
1.4433989028118
1.443355311819453
1.443353310585845
1.446299266489292
1.443464877599794
1.443357182622605
1.443353409247241
1.439668772673448
1.443175857205214
1.443345470924037
1.443353051143915
1.443353260584007
1.443353277711866
1.443351200820086
1.435515339438566
1.443353267048799
1.443353271714562
1.443352636645165
1.346137676330883
1.44335326976333
1.443353270654741
1.443353227298416
1.224511082213436
1.443353268877283
1.443353270426807
1.443353063872132
1.104266729360464
0.9400988416749043
0.9772528483841684
1.019597482895785
1.030795348861964
0.7926244739341249
0.9418548295105156
1.020098681475288
1.038813116109626
0.7001055912648984
0.9153547953411189
1.022828515008262
1.045457043996897
0.642113694989199
0.8118447633469287
0.8894827583176529
0.9115377513397188
1.031383039919084
1.031184832758793
1.030522681915711
1.031562412331153
1.040367772609695
1.040553580006433
1.040724160772342
1.042282526608152
1.046851698347702
1.046788085864175
1.046805958185572
1.047684352565961
0.9145563237358019
0.9144142165117057
0.9142944551071885
0.9119598188780218
1.028730255335761
1.031445826620846
1.054234057857316
1.106629647282036
1.041100604478514
1.042861225291577
1.068804071167135
1.150470664023865
1.047131497473439
1.049944117854356
1.090151483536548
1.406600278343703
0.9200386083840525
0.9264517297256126
1.032012852362311
1.835758894158016
1.392780212957981
1.206951780465941
0.4839914634618001
0.2214873651328281
1.32896738192402
1.026597104223039
0.3293295067201938
0.2749888750086829
1.379219849845795
0.966226027586539
0.3607557205498472
0.320225767420463
1.103374369264031
0.594384377267308
0.2709637736083466
0.2118779910721539
0.2547741231186375
0.2809554447555211
0.3167944987861226
0.3233634010539893
0.2795629252660272
0.2719721317123089
0.2512104079335215
0.4924230600836995
0.346977419153591
0.3444505586429635
0.3784028318236147
0.6563590879869637
0.2116880235554592
0.2314188232223937
0.3727033178274322
0.8089104524341506
1.230562248778665
1.359315792383082
1.442566059328547
1.482492178923009
0.8665067673723138
1.21659678431952
1.40630947906437
1.524772032256331
0.4278210706789713
0.9274609475840663
1.291544423490172
1.644219899776142
0.4714646140665152
0.7733025264442281
1.089046670262944
2.036829267581732
1.568990329018446
1.556897558403726
1.273561781525726
0.9928267656994183
1.860801741127621
2.395387099424381
1.650207540029474
1.115798126091576
2.09692881715535
2.529092984107565
1.77523263591289
1.232956751609339
1.559654263284171
1.900455722110244
1.235977129209366
0.782456885565081
0.6266823507315793
0.5475980882562821
0.2886465024610498
0.106149326216069
1.016419805502073
0.854868813232471
0.4463875245905675
0.04986787458596237
0.8157602298661631
0.5128318248627347
0.2364905274170513
0.1798903961163103
0.7589942333055884
0.6678780927982101
0.6442822740643595
0.6420582667621273
0.1061493262156874
0.04986787458770008
0.1798903961173551
0.6420582667596928
0.2886465024621461
0.4463875245917445
0.2364905274186024
0.6442822740672314
0.5475980882564305
0.8548688132324753
0.5128318248632736
0.6678780927993063
0.6266823507309534
1.016419805501378
0.8157602298678676
0.7589942333064629
0.9928267657002899
1.273561781527888
1.556897558407325
1.568990329027047
1.11579812609366
1.650207540024954
2.395387099419123
1.860801741132273
1.23295675160847
1.77523263591069
2.529092984107929
2.096928817156839
0.7824568855638421
1.23597712920908
1.900455722109683
1.559654263283963
2.036829267582868
1.089046670262389
0.7733025264440172
0.4714646140648784
1.644219899778776
1.291544423493696
0.9274609475841062
0.4278210706788825
1.524772032259301
1.406309479069266
1.21659678431965
0.8665067673712381
1.482492178926031
1.442566059332357
1.359315792383395
1.230562248775176
0.3233634010520546
0.3167944987827567
0.2809554447543964
0.2547741231183162
0.4924230600811534
0.2512104079329725
0.2719721317114551
0.2795629252647284
0.6563590879855576
0.3784028318233425
0.3444505586408169
0.3469774191502875
0.8089104524341159
0.3727033178291739
0.2314188232222836
0.2116880235542364
0.2214873651347121
0.4839914634612754
1.206951780457334
1.392780212957692
0.2749888750017762
0.3293295067192517
1.026597104218745
1.328967381927525
0.3202257674109961
0.3607557205485558
0.9662260275811944
1.379219849849874
0.2118779910675972
0.2709637736090795
0.5943843772638604
1.103374369265595
1.106629647283216
1.054234057857117
1.031445826620052
1.028730255332295
1.150470664025723
1.068804071167064
1.042861225290414
1.041100604475853
1.406600278346029
1.090151483536761
1.049944117853621
1.047131497472418
1.835758894161725
1.032012852364029
0.9264517297282316
0.9200386083890754
1.03156241232762
1.030522681912514
1.031184832759723
1.031383039916355
1.042282526606634
1.040724160769891
1.040553580005794
1.040367772608748
1.047684352565962
1.046805958184082
1.046788085863667
1.046851698347916
0.9119598188832497
0.9142944551084758
0.9144142165121071
0.9145563237382859
1.030795348863079
1.019597482893355
0.9772528483855386
0.9400988416762347
1.038813116110598
1.020098681473249
0.9418548295122449
0.7926244739344114
1.045457043997743
1.022828515006657
0.9153547953424859
0.7001055912651383
0.9115377513402161
0.8894827583185099
0.8118447633475057
0.6421136949885305
1.435515339438215
1.443351200821314
1.443353277712721
1.443353260583683
1.346137676330342
1.443352636645652
1.443353271714957
1.443353267048602
1.224511082212904
1.443353227298428
1.443353270654959
1.44335326976324
1.104266729359738
1.443353063872398
1.443353270426873
1.443353268877126
1.443353235925211
1.443353792773803
1.443373740622672
1.444092045299672
1.443353310584949
1.443355311815463
1.443398902815243
1.444767188485017
1.443353409246545
1.443357182616722
1.443464877606151
1.446299266484205
1.443353051144273
1.44334547092367
1.443175857206532
1.439668772678404
1.452087445851695
1.477735958198283
1.491979719012177
1.426298866047451
1.458658866106899
1.506262072611858
1.602909999063704
1.510687903336315
1.471909849961419
1.534124370102229
1.627332662131014
1.64325716556987
1.416078442147449
1.360149211134618
1.283582684539279
1.253373717325665
1.297760930929631
1.317191562973306
1.316661524796701
1.315702820611922
1.308264227076734
1.311659675667807
1.310939779769124
1.308984832389202
1.361027197963637
1.311432302565198
1.310514753856156
1.307377927748788
1.458769895913125
1.247522422461871
1.247098999379703
1.246474785658584
1.313216346231896
1.302241334800211
1.32170182905801
1.413377935411433
1.301489642797386
1.274984035474189
1.262849802120154
1.353766906480138
1.293645271165992
1.250230990717888
1.189963441184377
1.209620606406567
1.245983519357283
1.223462359903448
1.162755007785738
1.10982568955025
1.442353801627859
1.443337171729655
1.443353216068251
1.443353270526869
1.438063226685281
1.443302854982886
1.443353106864053
1.443353270431807
1.430591961571991
1.443243688397551
1.443352919004561
1.443353270144078
1.424206956926256
1.443179245443326
1.443352725271519
1.443353269861308
1.443353270196621
1.443352768710906
1.443206375409466
1.42999030933077
1.443353270184901
1.443352769205841
1.443206661891257
1.430028020872446
1.443353270116969
1.443352767002335
1.443206931574982
1.430090139750295
1.443353269981992
1.443352765298598
1.443206598702444
1.429619206865841
1.443353269862336
1.443353270145574
1.443353270441001
1.443353270536983
1.44335272527078
1.443352919004574
1.44335310686601
1.443353216073815
1.443179245438056
1.44324368840262
1.443302854977045
1.443337171734465
1.424206956932703
1.430591961577044
1.438063226682966
1.442353801627699
)
;

boundaryField
{
    back
    {
        type            empty;
    }
    inlet
    {
        type            calculated;
        value           nonuniform List<scalar> 
16
(
1.443353270571932
1.443353270571932
1.443353270571932
1.443353270571932
1.443353270571932
1.443353270571932
1.443353270571932
1.443353270571932
1.443353270571932
1.443353270571932
1.443353270571932
1.443353270571933
1.443353270571932
1.443353270571932
1.443353270571932
1.443353270571932
)
;
    }
    front
    {
        type            empty;
    }
    top
    {
        type            calculated;
        value           uniform 0;
    }
    outlet
    {
        type            calculated;
        value           nonuniform List<scalar> 
16
(
1.443353270088825
1.443353270073939
1.443353269967675
1.443353269773038
1.4433532705087
1.443353270385545
1.44335326999296
1.443353269614487
1.443353270086876
1.443353270072394
1.443353269969456
1.443353269778807
1.443353269615154
1.443353269993851
1.443353270391472
1.443353270515302
)
;
    }
    bottom
    {
        type            calculated;
        value           uniform 0;
    }
    wall
    {
        type            calculated;
        value           uniform 0;
    }
}


// ************************************************************************* //
