/*--------------------------------*- C++ -*----------------------------------*\
  =========                 |
  \\      /  F ield         | OpenFOAM: The Open Source CFD Toolbox
   \\    /   O peration     | Website:  https://openfoam.org
    \\  /    A nd           | Version:  11
     \\/     M anipulation  |
\*---------------------------------------------------------------------------*/
FoamFile
{
    format      ascii;
    class       volVectorField;
    location    "0.0475";
    object      U;
}
// * * * * * * * * * * * * * * * * * * * * * * * * * * * * * * * * * * * * * //

dimensions      [0 1 -1 0 0 0 0];

internalField   nonuniform List<vector> 
880
(
(25 -7.768126373978579e-16 0)
(25 -6.83488796273537e-16 0)
(25 2.073087435713829e-15 0)
(24.99999994549632 2.225083073805072e-08 0)
(25 9.647313514817276e-16 0)
(25 -1.063049518664659e-15 0)
(25.00000000000002 -2.294628152601602e-14 0)
(25.00000303093864 -3.678543775957223e-06 0)
(25 0 0)
(25.00000000000001 1.511400720693051e-15 0)
(25 -1.576096251055477e-12 0)
(24.99999398843853 -2.364158641544006e-05 0)
(25 0 0)
(25 -1.058794152545905e-15 0)
(24.9999999999988 1.994618393973681e-11 0)
(24.9994208254565 -0.0003491745587062086 0)
(25 -7.099470874898493e-16 0)
(25 -5.927573660353929e-16 0)
(25.00000000000001 6.599318158777532e-16 0)
(25 1.172738922118257e-12 0)
(25 -7.972834147044916e-16 0)
(25 1.843069627103864e-15 0)
(25.00000000000003 7.037377647504236e-15 0)
(25 9.480041445358057e-15 0)
(25.00000000068764 -6.173634923481621e-10 0)
(24.99999999085313 8.747318220648287e-09 0)
(25.00001722576873 2.969331152847901e-05 0)
(24.99993971954672 -0.0001719428715401346 0)
(24.98563829951119 0.0219470532971105 0)
(24.93042524303866 0.1307747979329107 0)
(24.89937698396029 0.2639578964923678 0)
(24.91090507694018 0.3198345993689171 0)
(24.99999999589603 -3.391048249609115e-09 0)
(24.99999999352315 -4.980734305643125e-09 0)
(24.99999999241037 -5.732287346122867e-09 0)
(24.99999999802225 -2.471704661432686e-09 0)
(24.99999992535356 3.065670891141921e-07 0)
(24.99999994506856 4.390801683924792e-07 0)
(24.99999994994862 5.033300533758146e-07 0)
(24.99999984029737 2.110905405729071e-07 0)
(24.99989624551394 0.0005633972056814116 0)
(24.99987911331876 0.0006218671957448751 0)
(24.99988313297388 0.0006818647165922185 0)
(24.99973891636335 0.0005148154844597193 0)
(24.91009569346851 0.347104331522367 0)
(24.9138970931765 0.379295633845832 0)
(24.91864867966335 0.3910388642381351 0)
(24.86723211678936 0.424898464245142 0)
(25.0076649972457 0.4447342306061133 0)
(25.08672970921661 0.3147856224043494 0)
(25.07974761001714 0.1261642139736218 0)
(25.02508411786795 0.02597416058335196 0)
(24.99994134172855 0.001524643895365407 0)
(25.00013133813839 0.001309021077329545 0)
(25.00021206678083 0.0006789042197964548 0)
(25.000086332277 0.0001595895746027887 0)
(24.99999995039453 1.662525639433091e-06 0)
(25.00000011845494 1.468260532616532e-06 0)
(25.00000019694082 7.773756669442997e-07 0)
(25.00000007742576 1.795348482159093e-07 0)
(24.99999997356044 -1.882996665339751e-08 0)
(24.99999997517547 -1.626483031797475e-08 0)
(24.99999998644723 -7.721246822488397e-09 0)
(24.9999999969395 -1.552026999416178e-09 0)
(24.99999999984193 -9.662236996527408e-11 0)
(25.00000000000001 -1.447282145807536e-12 0)
(25 -2.286861219056449e-15 0)
(24.99999999999999 -1.564958010830926e-15 0)
(25.00000000728883 1.25079211357023e-08 0)
(25.0000000001026 1.534875979488397e-10 0)
(25 -5.581183552049573e-12 0)
(25 -3.295024546029706e-12 0)
(25.00000892808903 1.176306817680409e-05 0)
(25.00000015702354 1.545782754745878e-07 0)
(24.99999999931713 -5.171434484614619e-09 0)
(24.99999999890645 -3.393967684849508e-09 0)
(25.0024363429093 0.001982709541423064 0)
(25.00005057047629 2.961611897099056e-05 0)
(24.99999992822421 -1.131627877835044e-06 0)
(24.99999968160341 -5.080036491722535e-07 0)
(24.99999992953122 -5.787415987358405e-08 0)
(24.99999999962571 -4.989094039413875e-10 0)
(25 -3.04731087578983e-13 0)
(25 1.081975010187187e-15 0)
(24.9999998252861 -3.828834088944211e-07 0)
(24.99999999654395 -1.511016303816598e-08 0)
(24.99999999999231 -4.242817845452991e-10 0)
(25 -5.253200905443475e-13 0)
(24.99999571577656 0.0001372853028956316 0)
(24.99999956584991 5.52640388413042e-06 0)
(24.99999997792972 5.088869336021083e-08 0)
(24.99999999967311 -2.801573156067366e-10 0)
(25.02234543956256 -0.02856831767813887 0)
(25.00026048006362 -0.0009335675965710556 0)
(25.00000007912112 -1.069423168329961e-06 0)
(25.00000000005951 -5.801392455975165e-10 0)
(24.99999999999124 -3.475207172733116e-11 0)
(24.99999933674233 -1.611297005468901e-08 0)
(24.99963604779871 -4.842416856164337e-05 0)
(24.58917778581428 0.1986759440023171 0)
(24.99999998534899 -1.51319063577492e-08 0)
(24.9999992168831 1.270241678855477e-06 0)
(24.9985742343907 0.001816117699355165 0)
(23.98926504267259 0.992347533686704 0)
(24.99999996799537 -2.920713127179052e-08 0)
(24.9999991378202 2.563928498864586e-06 0)
(24.99827186393611 0.003332443388939526 0)
(23.95915333692801 1.522967256485908 0)
(24.99999995862082 -3.810288984687153e-08 0)
(24.99999894152496 3.241154032613277e-06 0)
(24.99802011590323 0.003992006409793237 0)
(23.94857283217329 1.67496300317595 0)
(23.89380213821985 1.762910235782399 0)
(24.9976855531512 0.004630269038662097 0)
(24.99999866788637 4.037094137870272e-06 0)
(24.99999994719057 -4.865708969038643e-08 0)
(23.84217619037055 1.861742165907968 0)
(24.99730906912248 0.00547210501204758 0)
(24.99999834569627 5.152203706542527e-06 0)
(24.99999993051959 -6.335703631582441e-08 0)
(23.75871471567645 1.954778762582542 0)
(24.99670874286619 0.006350816062012587 0)
(24.99999776159156 6.423003614028297e-06 0)
(24.99999991231939 -8.136882180777268e-08 0)
(23.69840870196256 2.115269000638892 0)
(24.99617767862371 0.008115232455516572 0)
(24.9999973090749 9.139834402262721e-06 0)
(24.99999986884836 -1.188599597070708e-07 0)
(24.99999988868839 -1.016841625038101e-07 0)
(24.99999779527204 7.402086033829933e-06 0)
(24.99629793747242 0.007660569420994446 0)
(23.64034898852568 2.22929092631614 0)
(24.99999987770706 -1.136977384997566e-07 0)
(24.99999721133208 8.346434029981036e-06 0)
(24.99589258191267 0.008253669373323414 0)
(23.63600717326066 2.247100269462412 0)
(24.99999986627212 -1.378451608181825e-07 0)
(24.99999683824466 9.828843548338739e-06 0)
(24.99570572095392 0.008741150505933099 0)
(23.73022176105694 2.140866029877644 0)
(24.99999986971397 -9.991526926578698e-08 0)
(24.99999827366317 6.546734226812975e-06 0)
(24.99763329848659 0.005570193932418381 0)
(24.31458395377918 1.388535470837589 0)
(24.99999548502024 -1.017803504902985e-05 0)
(24.9999689057787 -0.0002265175346141147 0)
(25.0091966932881 0.0005662915660071443 0)
(25.36628669509888 0.5866711618288781 0)
(24.99999976471571 -3.931859351935077e-07 0)
(24.99974796951394 -0.0003437458990841038 0)
(24.97949126596939 -0.02023830434060753 0)
(24.63389588504299 -0.733283259305831 0)
(24.99999985696968 -2.128511335861996e-07 0)
(24.99981900528154 -0.0001390034304232732 0)
(24.94950916795495 -0.0263942032884901 0)
(23.22519433204157 -0.8434599932046569 0)
(24.99999985109033 -1.817720196275488e-07 0)
(24.9997559560867 -0.000143707216714215 0)
(24.91100446140605 -0.01853378662210436 0)
(22.10804658845343 -0.2257944517023246 0)
(22.44293473157105 -0.100975621752488 0)
(24.95312158794251 -0.02091219003980398 0)
(24.9999061511884 -0.0001010857852712639 0)
(24.9999999218355 -1.496699588226864e-07 0)
(22.75282586357554 0.09752541353913803 0)
(24.95854276467646 -0.0142627377421086 0)
(24.99991469217559 -7.550731843201155e-05 0)
(24.99999993025055 -1.102417511372835e-07 0)
(23.14445935054261 -0.04089833058172698 0)
(24.97347798255688 -0.01230728252528292 0)
(24.99995531187173 -4.978420335960934e-05 0)
(24.99999996608281 -6.556921869935343e-08 0)
(22.83931588133514 0.1486298808267691 0)
(24.96396060872143 -0.0122569181788285 0)
(24.99993630408587 -5.681289972453165e-05 0)
(24.99999995379938 -7.594433355449461e-08 0)
(23.89492781318789 0.2184712984909106 0)
(24.99034462470822 -0.003308146340072917 0)
(24.99998627848965 -1.102308078377565e-05 0)
(24.99999998992367 -1.452894558439961e-08 0)
(24.72306398470665 0.06246391941070967 0)
(24.99903443947795 -0.0005320872190291849 0)
(24.99999910312555 -9.496723710519983e-07 0)
(24.99999999940824 -8.986490753087877e-10 0)
(24.9775261779692 -0.02788296699773294 0)
(24.99997084624445 -0.000129072635147424 0)
(24.99999998365924 -1.707652051855729e-07 0)
(24.99999999998896 -1.608202763594689e-10 0)
(25.01457302975031 -0.06755591488853277 0)
(25.00010606780958 -0.0003053670034513878 0)
(25.00000021911588 -5.676054290823642e-07 0)
(24.99999999962509 -7.145684993136622e-10 0)
(24.72779247847995 -0.0004150988652370362 0)
(24.99681679857108 -2.147491633945229e-06 0)
(24.99998850322424 -2.967608608058338e-09 0)
(24.9999999916322 7.562329637166294e-12 0)
(24.7281112866068 -0.0007721981614331099 0)
(24.99682053271697 -2.956607166951821e-06 0)
(24.99998850899754 7.320171420859455e-09 0)
(24.99999999137437 2.389986099131208e-10 0)
(24.72803404483619 -0.0006003442755999539 0)
(24.99681752209763 1.088359624078505e-05 0)
(24.99998844004958 7.644249895718221e-08 0)
(24.9999999895338 1.417462132382371e-09 0)
(24.72146601998518 0.01202141558170203 0)
(24.99681058530892 0.0001149874421912799 0)
(24.99998837596374 3.435929353972079e-07 0)
(24.99999998616252 2.177773524696815e-09 0)
(25.01457302980867 0.06755591487903084 0)
(25.00010606784425 0.0003053670107917805 0)
(25.00000021916238 5.676071070464737e-07 0)
(24.99999999959914 7.141997329921037e-10 0)
(24.97752617802313 0.02788296700479844 0)
(24.99997084628506 0.0001290726343414545 0)
(24.99999998375343 1.707790892648848e-07 0)
(24.99999999998252 1.601415982050375e-10 0)
(24.72306398472151 -0.06246391935298635 0)
(24.99903443946654 0.0005320872421384232 0)
(24.99999910312214 9.496890680823291e-07 0)
(24.99999999941186 8.977233872996161e-10 0)
(23.89492781311681 -0.2184712985062678 0)
(24.99034462461478 0.003308146342750798 0)
(24.99998627848132 1.102307813069193e-05 0)
(24.99999998994492 1.45279372488938e-08 0)
(24.99999992177005 1.496537612881076e-07 0)
(24.99990615107289 0.0001010858187512542 0)
(24.95312158789261 0.02091219002546373 0)
(22.44293473153629 0.1009756218189996 0)
(24.99999993020873 1.102659609538859e-07 0)
(24.9999146921653 7.550731009683269e-05 0)
(24.95854276463631 0.01426273776671697 0)
(22.75282586355714 -0.09752541360794266 0)
(24.99999996613605 6.557713089616492e-08 0)
(24.99995531181463 4.978419057118617e-05 0)
(24.97347798255692 0.01230728253384808 0)
(23.14445935044377 0.04089833055127824 0)
(24.99999995379182 7.593290897818023e-08 0)
(24.99993630406171 5.68129126645954e-05 0)
(24.96396060864521 0.01225691813449764 0)
(22.83931588135499 -0.1486298807720833 0)
(22.10804658849392 0.2257944516295715 0)
(24.91100446146735 0.01853378658592409 0)
(24.99975595614175 0.0001437071546817803 0)
(24.99999985110959 1.817563140588897e-07 0)
(23.2251943320971 0.8434599932503294 0)
(24.9495091680127 0.02639420328780082 0)
(24.9998190053798 0.0001390034394670024 0)
(24.99999985707575 2.12842081600764e-07 0)
(24.63389588504289 0.7332832593220439 0)
(24.97949126604037 0.02023830435396149 0)
(24.99974796951815 0.0003437459040329052 0)
(24.99999976479879 3.932168624715577e-07 0)
(25.36628669507907 -0.5866711618371209 0)
(25.00919669332093 -0.0005662915653262767 0)
(24.99996890580688 0.0002265175534575461 0)
(24.99999548488977 1.017804904900279e-05 0)
(24.99999988871417 1.016821809346468e-07 0)
(24.99999779521229 -7.402091710864882e-06 0)
(24.99629793743974 -0.007660569425537099 0)
(23.64034898845118 -2.229290926313353 0)
(24.99999987769389 1.136946845300634e-07 0)
(24.99999721130547 -8.346432797217599e-06 0)
(24.99589258190642 -0.008253669366916397 0)
(23.63600717326448 -2.247100269453488 0)
(24.99999986621192 1.378434378487953e-07 0)
(24.99999683824647 -9.828835175641437e-06 0)
(24.99570572100679 -0.008741150494013654 0)
(23.73022176106317 -2.140866029877257 0)
(24.99999986961048 9.99066001308236e-08 0)
(24.99999827366538 -6.546720155063335e-06 0)
(24.99763329852169 -0.005570193926794439 0)
(24.31458395378545 -1.388535470836277 0)
(23.69840870183185 -2.115269000646248 0)
(24.99617767868347 -0.008115232438817455 0)
(24.99999730898737 -9.139844703006554e-06 0)
(24.99999986885962 1.188613139536534e-07 0)
(23.75871471556758 -1.95477876257849 0)
(24.99670874274342 -0.006350816057385189 0)
(24.9999977615793 -6.423008768242331e-06 0)
(24.99999991230153 8.136943676332658e-08 0)
(23.84217619041983 -1.861742165908064 0)
(24.9973090690093 -0.005472105026883047 0)
(24.99999834561449 -5.152208348400476e-06 0)
(24.99999993053462 6.335646094793995e-08 0)
(23.89380213813206 -1.762910235797874 0)
(24.99768555326324 -0.004630269033192913 0)
(24.99999866788789 -4.037097780615585e-06 0)
(24.99999994720689 4.86570574271617e-08 0)
(24.99999999995398 3.524243997285897e-11 0)
(24.99999933667405 1.61092798377512e-08 0)
(24.99963604781282 4.842417622233818e-05 0)
(24.58917778590643 -0.1986759440054044 0)
(24.99999998539593 1.513062614001926e-08 0)
(24.99999921694905 -1.270241177723426e-06 0)
(24.99857423434484 -0.001816117706857246 0)
(23.98926504268833 -0.9923475336738139 0)
(24.99999996801693 2.920700763373043e-08 0)
(24.99999913781433 -2.563930022434363e-06 0)
(24.99827186392806 -0.00333244339669583 0)
(23.95915333686986 -1.52296725648788 0)
(24.99999995864814 3.810281253429535e-08 0)
(24.99999894151138 -3.241156357952113e-06 0)
(24.99802011593171 -0.003992006398691755 0)
(23.94857283217998 -1.674963003172973 0)
(25.00000000006746 5.803488653284893e-10 0)
(24.99999999966269 2.805031711112933e-10 0)
(25 4.355848914372682e-13 0)
(25 -1.606007876394369e-15 0)
(25.00000007920336 1.069431430741054e-06 0)
(24.99999997794228 -5.089050236509403e-08 0)
(24.9999999999463 4.264765788286521e-10 0)
(25 2.659412603481562e-13 0)
(25.00026048004216 0.0009335675851818811 0)
(24.99999956580784 -5.526398664482758e-06 0)
(24.99999999657914 1.510634392856429e-08 0)
(24.99999999963919 4.98746941439524e-10 0)
(25.0223454395613 0.02856831767756553 0)
(24.99999571577323 -0.0001372852994099278 0)
(24.99999982528399 3.828836381951808e-07 0)
(24.99999992952937 5.787262267644044e-08 0)
(25.00000000000002 -4.036804727484909e-15 0)
(25 3.249328930342378e-12 0)
(24.99999999889005 3.384192255399816e-09 0)
(24.99999968158436 5.080055138759948e-07 0)
(25 5.672555592772573e-15 0)
(25 5.447233679020844e-12 0)
(24.99999999922837 5.17259776015993e-09 0)
(24.99999992822181 1.131632768545982e-06 0)
(25 1.464393014849542e-12 0)
(25.00000000010257 -1.534505875504444e-10 0)
(25.0000001570692 -1.545677390476509e-07 0)
(25.00005057046727 -2.961612282449435e-05 0)
(24.99999999983764 9.678868872879308e-11 0)
(25.00000000729475 -1.251027063524374e-08 0)
(25.00000892802887 -1.176308795116309e-05 0)
(25.00243634293074 -0.001982709522063136 0)
(24.99999997362476 1.882436371332663e-08 0)
(24.99999995045791 -1.662527961271237e-06 0)
(24.9999413417775 -0.001524643909844582 0)
(25.00766499726365 -0.4447342306105355 0)
(24.99999997523035 1.626283246480287e-08 0)
(25.00000011844684 -1.468239197345691e-06 0)
(25.00013133814659 -0.001309021063198555 0)
(25.08672970927043 -0.3147856224192258 0)
(24.99999998646136 7.728255773105085e-09 0)
(25.00000019685578 -7.773766640452251e-07 0)
(25.00021206679839 -0.0006789042177002811 0)
(25.07974761003012 -0.126164213973559 0)
(24.99999999695076 1.553444361558028e-09 0)
(25.00000007738946 -1.795512302432494e-07 0)
(25.00008633227177 -0.000159589552458488 0)
(25.02508411792515 -0.02597416057583367 0)
(24.86723211675776 -0.4248984642090464 0)
(24.99973891624515 -0.0005148155542646144 0)
(24.99999984033627 -2.110973041881134e-07 0)
(24.99999999805035 2.466968307466376e-09 0)
(24.91864867968667 -0.3910388642330422 0)
(24.99988313282296 -0.0006818647315582371 0)
(24.99999994996257 -5.033282550000307e-07 0)
(24.9999999923948 5.73362518695176e-09 0)
(24.91389709309098 -0.3792956339111522 0)
(24.99987911324686 -0.0006218671399428431 0)
(24.99999994506709 -4.390927083798146e-07 0)
(24.9999999935397 4.983087277793324e-09 0)
(24.91009569348942 -0.3471043315030606 0)
(24.99989624572478 -0.0005633970049720996 0)
(24.99999992536569 -3.06558293618643e-07 0)
(24.99999999588144 3.389470545109717e-09 0)
(24.91090507690554 -0.3198345993635304 0)
(24.99993971955518 0.0001719426875002277 0)
(25 -7.672922621393545e-14 0)
(25 -1.138983390484223e-12 0)
(24.8993769839781 -0.2639578964970024 0)
(25.00001722583667 -2.969325128318234e-05 0)
(25 5.786810595746405e-16 0)
(25.00000000000001 3.155753441015803e-15 0)
(24.93042524299812 -0.1307747979140181 0)
(24.99999999088095 -8.749379842451266e-09 0)
(25 3.709941798090211e-16 0)
(25.00000000000001 3.58182363419254e-15 0)
(24.98563829951177 -0.02194705326675067 0)
(25.00000000067613 6.114054956624944e-10 0)
(25 -1.290434170153984e-15 0)
(25.00000000000002 -4.359978368755167e-15 0)
(25 1.420908939734042e-15 0)
(25 1.839252262921387e-15 0)
(25 -3.893871775873117e-16 0)
(24.99999994419464 -2.183346988527717e-08 0)
(24.99999999999999 -2.843418720158383e-19 0)
(25 1.453685900253693e-15 0)
(25 2.046734932682683e-14 0)
(25.00000303120594 3.677988627610625e-06 0)
(25 -1.366459512028481e-15 0)
(25 -1.151566792784825e-15 0)
(25 1.258058505985531e-12 0)
(24.99999398867599 2.364160561895211e-05 0)
(25 -1.063701006540155e-15 0)
(25 -2.231918175676281e-16 0)
(25.00000000000002 -1.520494780526372e-11 0)
(24.999420825481 0.0003491745314233647 0)
(25.000006040591 1.63524443110653e-09 0)
(25.00002949870544 1.068605256055221e-05 0)
(25.00006682420494 6.960711878748473e-05 0)
(24.99608434174421 -0.004463109221025929 0)
(25.00002949846708 -1.068592886013337e-05 0)
(25.00011816811649 -8.933282741431387e-11 0)
(25.00019615424586 -0.0002010246343282296 0)
(24.9694910147051 -0.02956909105096746 0)
(25.00006682426224 -6.960657966285344e-05 0)
(25.00019615423852 0.0002010245981349832 0)
(24.99237383222768 2.411501667080828e-10 0)
(24.66716097994309 -0.09796286864271068 0)
(24.99608434149462 0.004463109439811069 0)
(24.96949101489282 0.02956909060180858 0)
(24.66716098007775 0.09796286876678352 0)
(22.54037275034191 -5.571786828338662e-11 0)
(20.57237825309593 2.392248196517063 0)
(21.67902099036826 2.953050720699641 0)
(23.95457754088046 1.749018338845605 0)
(24.67980070571114 0.6190491231822866 0)
(21.10757676964613 4.665764552878495 0)
(21.39031692619622 4.805380273673642 0)
(22.70076013970192 4.190851834023508 0)
(23.59446617249133 2.875275437765231 0)
(21.98505676081994 5.444378589059015 0)
(22.46541555676248 5.527192573765231 0)
(22.9251276344475 5.420830678476648 0)
(23.42489589443437 4.710818230746897 0)
(22.41425165507104 5.589413979169475 0)
(23.28124154727872 5.955437474529316 0)
(23.43507589093302 5.967338701841086 0)
(23.6652108136983 5.446675593209768 0)
(23.72403317057505 5.682225580253713 0)
(23.74455777238864 5.724603870655154 0)
(23.75668368258536 5.733917283430246 0)
(23.4112311612171 6.093268673861637 0)
(23.58950883935603 6.158211683416045 0)
(23.62977708068405 6.189047664806802 0)
(23.64573369047775 6.190320715801746 0)
(23.64835873167208 6.588404758459884 0)
(23.55620117701885 6.075068514961107 0)
(23.62079683089008 6.09114227430288 0)
(23.64114896422822 6.090884207791973 0)
(24.54011369554204 6.818979083175268 0)
(22.4380903734351 5.589772288656532 0)
(22.45375529618669 5.589065903155609 0)
(22.46523777680375 5.590584306049394 0)
(25.81697374095267 7.855053897472824 0)
(25.57172242786923 4.540315342179531 0)
(26.44945325852137 2.178688594607084 0)
(25.83535165746919 0.5985272341772903 0)
(25.2051940842008 0.09566969739338986 0)
(27.09101202542497 4.049117048627545 0)
(28.08694805020436 0.6063443625716884 0)
(26.19975196637582 -0.02177672145647026 0)
(25.30434844397675 -0.01678758341677759 0)
(28.83288614854973 1.965950634084051 0)
(28.0720350616819 -0.9834470203142128 0)
(26.65590916910894 -0.5808404141170003 0)
(25.56276642062042 -0.169568957197138 0)
(21.33623670501402 1.175692456391747 0)
(22.11203690900114 0.2117806949689599 0)
(23.57679275600294 -0.3549689787584024 0)
(24.5340570674703 -0.1904637000573721 0)
(25.01740723355911 0.005083841030660893 0)
(25.00041709812272 -9.372805564396807e-05 0)
(25.00000566220206 -1.596022516504888e-05 0)
(24.99999881808961 -3.291698495707036e-06 0)
(25.02879820302289 -0.002606911940283418 0)
(25.00081268579487 -0.0003690114478012264 0)
(25.00002981230589 -1.984031662915523e-05 0)
(25.00000037076356 -7.060111531996297e-07 0)
(25.05971309175763 -0.02196377199039687 0)
(25.00197899912295 -0.001035799413642769 0)
(25.00005675171835 -4.448520255841822e-05 0)
(25.00000130456464 -1.485258072130859e-06 0)
(24.933186788673 -0.02841192247831025 0)
(24.99629057180646 -0.001580647151903062 0)
(24.99983238352056 -5.481820628065642e-05 0)
(24.99999537049768 -1.345019037012448e-06 0)
(24.99999977352208 -1.035063675346002e-07 0)
(25.00000010440547 8.845083142952563e-08 0)
(24.99998007747234 -5.547200887083903e-05 0)
(25.014624777399 0.5295429901420672 0)
(24.9999999201791 3.186452652444267e-08 0)
(25.00000000706072 3.196627913690671e-08 0)
(24.99999715705613 -2.810140822026159e-05 0)
(23.8080273905151 1.763927885279025 0)
(24.99999996867282 -2.278755251457415e-09 0)
(24.99999999488684 1.259471215079397e-08 0)
(25.00000167999549 -9.863607622598135e-06 0)
(22.08891652319642 1.561086967301744 0)
(24.999999958354 -7.866041657072479e-09 0)
(24.99999999489582 -1.754805545275084e-09 0)
(24.99999753658081 1.963691551721851e-06 0)
(19.99650037434372 0.04921145340037453 0)
(17.25991690085865 6.350309487219385 0)
(17.2249736339231 9.521046004520933 0)
(17.64734696061726 11.00400623285579 0)
(17.77462180420039 11.35867142550431 0)
(14.22707259109369 7.145582443267379 0)
(16.22297520258546 10.00961299996517 0)
(17.29318279028974 11.65596389611353 0)
(17.61490616806636 11.99011596372248 0)
(12.37283167177648 6.826196535594784 0)
(15.60687400745125 9.794480394357402 0)
(17.46423556923584 11.15071258937388 0)
(17.90989021972008 11.46115378718993 0)
(11.94424242333621 5.366894743652511 0)
(14.04641904752555 8.431976447023162 0)
(15.00039256050988 9.957118536189359 0)
(15.49661660085931 10.14420285368916 0)
(17.77223037308557 11.40200070236419 0)
(17.76373433944481 11.41977985977386 0)
(17.7414148998039 11.43881493255976 0)
(17.75364439459723 11.47108370895475 0)
(17.64256158339832 12.01342083474109 0)
(17.64562622929918 12.01362323872373 0)
(17.6456934972431 12.01533100986006 0)
(17.67090866094773 12.02473366834695 0)
(17.9363270329595 11.48929107957068 0)
(17.93524482956209 11.487857367544 0)
(17.93416969344688 11.48826400726665 0)
(17.95237025467041 11.48230136186346 0)
(15.5804642183563 10.15171764762751 0)
(15.57877083208311 10.14979538394873 0)
(15.57652347790199 10.14919941769239 0)
(15.53723373845649 10.11617736790569 0)
(17.76182449674792 11.41475058725388 0)
(17.82269929908713 11.34822636806711 0)
(18.42314062906647 10.82099965446541 0)
(19.93114645239453 8.591242266326709 0)
(17.6391239538519 12.0525551050301 0)
(17.68829904100097 11.99515823030983 0)
(18.40560039777811 11.5096806473799 0)
(20.51630426299135 10.54919359297335 0)
(17.9254818659675 11.51630142392269 0)
(17.99095236128041 11.4754942263052 0)
(18.87796718223743 11.36880542665127 0)
(24.71371109831404 14.12235239518754 0)
(15.69018428039428 10.16280967032772 0)
(15.84505130269571 10.11651665189142 0)
(17.82534215709967 10.88779622168975 0)
(31.76721245337501 18.25997752429155 0)
(25.31898911890601 4.262588037580642 0)
(21.1695474860113 -4.278858388676704 0)
(6.112342787053908 -4.236000755215795 0)
(3.115140580082171 -0.2724204506144101 0)
(24.15259437244206 5.17151967143209 0)
(16.31321884581503 -5.520666494466054 0)
(0.346172623573695 -4.582982435828652 0)
(-3.414489653139055 -0.4548278866205983 0)
(24.16313805410144 0.9639136789729745 0)
(10.65430025991579 -10.60074478811891 0)
(-2.471789958143899 -3.903389173304063 0)
(-3.577756429569705 -0.6915669818894874 0)
(15.22323687761865 -7.582281070428112 0)
(6.80184476076858 -2.901116540342792 0)
(-2.687608761176433 -1.668295948010296 0)
(-2.224233219365415 -0.5742965004509565 0)
(3.622232676778957 -0.04824671000978217 0)
(3.989756217749285 0.2424710555885893 0)
(4.464285972350874 0.6287730478656105 0)
(3.206741443585931 3.073980336649218 0)
(-3.448151474394032 -0.02410629725566448 0)
(-3.319420326605714 0.5464764288405387 0)
(-2.165041055186014 2.325327062970176 0)
(-1.066934631955166 6.081154511926283 0)
(-3.87681878518507 -0.1864968607465623 0)
(-3.79520105808206 0.8475553265240009 0)
(-2.121305632642406 3.914518915543347 0)
(-0.5952985552169774 8.244691264807228 0)
(-2.248351716698252 -0.2131733676548019 0)
(-2.376981805906403 0.7565017396084005 0)
(-1.501019404776415 3.950917189631643 0)
(-0.5474493579783126 9.823026548322352 0)
(19.5237243746273 -4.605890242360128 0)
(22.69270314677158 -2.514103815693745 0)
(24.42092918353851 -1.595936828465959 0)
(25.10765876936866 -1.748152895039427 0)
(13.26146635087319 -4.654592955246361 0)
(19.75989516319833 -3.949630612358069 0)
(23.21779760954649 -3.097122148306271 0)
(25.73487567080726 -1.944789873520777 0)
(6.401354329849602 -1.625365514808912 0)
(15.19261174123495 -2.278261999877345 0)
(21.07313158944936 -3.724172225453412 0)
(27.89081265403373 -1.712874936318646 0)
(4.44366008347103 4.759034068585732 0)
(10.39694552730981 6.324581932538099 0)
(17.59845724298829 2.700377323859212 0)
(33.80690411045114 -0.1500672434149177 0)
(25.85707555207145 -3.809080277258344 0)
(24.4075639609302 -7.481018818711866 0)
(18.94643979392969 -8.577127058657055 0)
(13.82575260031277 -7.859866681463786 0)
(28.44937601745186 -7.451424488207211 0)
(30.78205880973147 -13.51188159045451 0)
(18.68031964102831 -15.8276009582797 0)
(10.93223302329358 -12.74479017758713 0)
(30.06502883018491 -10.97818238532213 0)
(30.28410906390047 -12.79714244591608 0)
(14.88593949795813 -13.91216161191334 0)
(6.877522895798284 -14.38892962034443 0)
(18.60217320285572 -9.766348098651006 0)
(11.66390852544808 -16.88936440851955 0)
(2.635867448064861 -12.48563328320708 0)
(0.1142710583641571 -8.163567846209485 0)
(0.3007549957514016 -6.75828504879984 0)
(0.3194689783656068 -5.813735418101555 0)
(0.7515175156536495 -2.725612702439571 0)
(0.9473290578574228 -0.204537288908309 0)
(4.181107371458712 -12.97281603716029 0)
(2.446842075458444 -10.97367951345183 0)
(0.7769474272805461 -5.296792178484147 0)
(0.2352143213709933 -0.4908198426874234 0)
(6.057107129768566 -10.30323340579977 0)
(4.062953245487661 -5.869640496457239 0)
(2.752366082969333 -1.393206125647829 0)
(2.29699081234299 -0.1354396750769764 0)
(10.83634708752366 -4.815661003058287 0)
(9.976840383229323 -1.918109689237032 0)
(9.635096929941506 -0.4201355792082339 0)
(9.583196163335201 -0.06032155906109535 0)
(0.9473290578489457 0.2045372889318405 0)
(0.2352143213975209 0.4908198426956614 0)
(2.296990812355987 0.135439675074082 0)
(9.583196163287658 0.06032155901402786 0)
(0.7515175156392535 2.725612702459203 0)
(0.7769474272983484 5.296792178494356 0)
(2.752366083002857 1.393206125622578 0)
(9.635096929977426 0.4201355791877293 0)
(0.3194689783640915 5.813735418107814 0)
(2.446842075460605 10.97367951345512 0)
(4.062953245504538 5.869640496450649 0)
(9.976840383240537 1.918109689268951 0)
(0.3007549957605425 6.758285048795861 0)
(4.181107371455944 12.97281603715762 0)
(6.057107129788963 10.30323340581224 0)
(10.83634708755754 4.815661003004133 0)
(13.82575260031546 7.859866681476036 0)
(18.94643979395384 8.57712705865333 0)
(24.40756396098248 7.481018818667033 0)
(25.85707555216915 3.809080277281899 0)
(10.93223302329856 12.7447901776154 0)
(18.68031964099011 15.82760095824693 0)
(30.78205880969306 13.51188159041329 0)
(28.44937601750112 7.451424488192547 0)
(6.87752289578778 14.38892962033872 0)
(14.88593949793717 13.91216161190406 0)
(30.28410906388578 12.79714244589884 0)
(30.06502883019706 10.97818238531376 0)
(0.1142710583625999 8.163567846200369 0)
(2.635867448072589 12.48563328320809 0)
(11.66390852545341 16.88936440852135 0)
(18.60217320283244 9.76634809865992 0)
(33.80690411045236 0.1500672434165478 0)
(17.59845724297951 -2.70037732382705 0)
(10.39694552734242 -6.324581932501476 0)
(4.443660083472425 -4.759034068565147 0)
(27.89081265405963 1.712874936312874 0)
(21.073131589501 3.724172225458894 0)
(15.19261174123965 2.278261999919942 0)
(6.401354329849182 1.625365514829667 0)
(25.734875670843 1.944789873507627 0)
(23.2177976096111 3.097122148317006 0)
(19.7598951632021 3.949630612392042 0)
(13.26146635085363 4.654592955271272 0)
(25.10765876940667 1.748152895027889 0)
(24.42092918358697 1.595936828464753 0)
(22.69270314678027 2.514103815740654 0)
(19.52372437457722 4.605890242371098 0)
(3.206741443585189 -3.073980336606719 0)
(4.464285972308761 -0.6287730478634785 0)
(3.989756217730254 -0.2424710556373953 0)
(3.622232676773518 0.04824671002054218 0)
(-1.06693463193627 -6.081154511899361 0)
(-2.165041055196963 -2.325327062954456 0)
(-3.319420326594388 -0.5464764288531747 0)
(-3.448151474378463 0.02410629725514926 0)
(-0.5952985552050032 -8.244691264803182 0)
(-2.121305632625567 -3.914518915549886 0)
(-3.795201058061216 -0.8475553265261909 0)
(-3.876818785151359 0.1864968607535112 0)
(-0.5474493579805284 -9.823026548336385 0)
(-1.501019404766941 -3.950917189657075 0)
(-2.376981805908406 -0.7565017396063253 0)
(-2.248351716688329 0.2131733676650343 0)
(3.115140580102663 0.2724204505607031 0)
(6.112342787005856 4.236000755245824 0)
(21.16954748586181 4.278858388704118 0)
(25.31898911889829 -4.262588037582237 0)
(-3.414489653049813 0.4548278865896886 0)
(0.3461726235364038 4.582982435811111 0)
(16.3132188457473 5.520666494444178 0)
(24.1525943724951 -5.171519671443773 0)
(-3.57775642946469 0.6915669818753347 0)
(-2.471789958174673 3.903389173258539 0)
(10.65430025984625 10.60074478806841 0)
(24.16313805414829 -0.9639136789908465 0)
(-2.224233219324118 0.5742965004446278 0)
(-2.687608761216604 1.668295947951837 0)
(6.801844760712251 2.901116540357565 0)
(15.22323687764662 7.582281070401796 0)
(19.93114645241642 -8.59124226631276 0)
(18.42314062906807 -10.82099965446086 0)