/*--------------------------------*- C++ -*----------------------------------*\
  =========                 |
  \\      /  F ield         | OpenFOAM: The Open Source CFD Toolbox
   \\    /   O peration     | Website:  https://openfoam.org
    \\  /    A nd           | Version:  11
     \\/     M anipulation  |
\*---------------------------------------------------------------------------*/
FoamFile
{
    format      ascii;
    class       surfaceScalarField;
    location    "6.125";
    object      phi;
}
// * * * * * * * * * * * * * * * * * * * * * * * * * * * * * * * * * * * * * //

dimensions      [0 3 -1 0 0 0 0];

internalField   nonuniform List<scalar> 
8667
(
15.890046
1.7903076
0.097424242
13.995951
1.6284284
0.26566674
12.098375
1.457975
0.4396013
10.20125
1.3616226
0.53550177
8.3037343
1.2666985
0.63081736
6.4264466
1.1804229
0.69686475
4.5391682
1.1136481
0.7736303
2.7254678
0.97425382
0.83944662
0.85888242
0.93243842
0.93414694
15.888528
3.6795574
13.993913
3.5230442
12.0915
3.3603872
10.186536
3.2665875
8.2966212
3.1566129
6.4102961
3.066748
4.5370252
2.9869189
2.7227048
2.7885743
2.6638413
0.91774588
15.889624
5.5677116
13.988885
5.4237824
12.0867
5.2625725
10.178908
5.1743801
8.286489
5.0490314
6.3986881
4.9545489
4.5231
4.862507
2.7117157
4.5999586
4.4784104
0.89714672
15.889726
7.4557635
13.986694
7.3268143
12.082423
7.1668434
10.173534
7.0832695
8.2767574
6.945808
6.3872457
6.8440606
4.5046771
6.7450756
2.6860255
6.4186102
6.2896303
0.87480558
15.889188
9.3443514
13.987083
9.2289192
12.078731
9.0751952
10.167725
8.994276
8.2683041
8.8452288
6.3749547
8.73741
4.4946246
8.6254057
2.6709548
8.2422799
8.093469
0.86711611
15.888589
11.23354
13.987494
11.130014
12.077115
10.985575
10.165876
10.905515
8.2627042
10.748401
6.3607061
10.639408
4.4738627
10.512249
2.6419749
10.074168
9.8923271
0.84311675
15.888522
13.122796
13.987041
13.031495
12.076833
12.895783
10.16261
12.819738
8.2570421
12.653968
6.3541008
12.542349
4.4649903
12.40136
2.6217986
11.91736
11.684225
0.82990061
15.888407
15.012167
13.987017
14.932885
12.076555
14.806245
10.163699
14.732594
8.2526156
14.565052
6.3395828
14.455382
4.4439961
14.296946
2.5888281
13.772528
13.463072
0.809981
15.888591
16.901354
13.988731
16.832745
12.078023
16.716952
10.163077
16.64754
8.2517701
16.476358
6.3367168
16.370435
4.4352912
16.198372
2.5623966
15.645422
15.24213
0.78333859
18.728036
15.951097
20.553938
15.951875
22.379636
15.952087
24.20526
15.952156
26.030469
15.952551
27.85483
15.953419
29.677533
15.955077
31.4986
15.956713
15.958865
33.317515
18.667559
14.116283
20.502025
14.11741
22.335422
14.11869
24.167802
14.119775
25.998891
14.121462
27.828972
14.123338
29.660424
14.123625
31.494906
14.12223
14.120129
33.333642
18.563626
12.269609
20.409542
12.271494
22.255122
12.273109
24.099609
12.275288
25.944168
12.276903
27.78541
12.282096
29.620896
12.288138
31.44823
12.294897
12.302461
33.265898
18.498635
10.418514
20.350615
10.419514
22.201164
10.422561
24.051049
10.425403
25.90065
10.427303
27.753656
10.42909
29.617705
10.42409
31.483698
10.428904
10.429141
33.357018
18.333465
8.5614083
20.192563
8.5604147
22.059891
8.5552334
23.927272
8.5580217
25.795561
8.5590143
27.658693
8.5659575
29.512544
8.570239
31.365099
8.576349
8.5832777
33.210962
18.239135
6.6927084
20.116429
6.683121
22.004624
6.6670386
23.904879
6.6577664
25.816868
6.6470252
27.742083
6.6407426
29.67345
6.6388722
31.613799
6.6360003
6.6375185
33.559558
18.046435
4.8446456
19.914955
4.8146002
21.795449
4.7865451
23.699614
4.7536013
25.608797
4.7378425
27.53832
4.7112193
29.467328
4.7098639
31.408872
4.6944567
4.7102257
33.336165
17.506851
2.9832168
19.441734
2.8797172
21.43002
2.798259
23.486794
2.6968272
25.579543
2.6450933
27.709762
2.5810005
29.850376
2.5692497
32.009877
2.5349562
2.5458339
34.174269
17.015893
1.2094537
19.016548
0.87906294
21.254148
0.56065841
23.581195
0.36978046
25.932929
0.29335954
28.298128
0.21580109
30.679412
0.18796573
33.02274
0.19162798
35.336418
0.23215629
33.190406
0.12710908
33.063951
0.12645537
32.937762
0.12618865
32.812672
0.12508997
32.688139
0.12453253
32.565722
0.12241738
32.444352
0.12137033
32.326915
0.11743634
0.11589176
32.211024
33.215133
0.24561784
33.098609
0.2429799
32.983928
0.24086941
32.872459
0.23655885
32.763473
0.23351888
32.659635
0.22625524
32.558943
0.22206258
32.465259
0.21112049
0.20644646
32.374704
33.148385
0.3631306
33.035955
0.35540964
32.927582
0.34924231
32.822822
0.34131961
32.72465
0.33169062
32.630718
0.32018677
32.544101
0.30867961
32.463733
0.29148925
0.28156277
32.388616
33.263016
0.45713299
33.176353
0.4420728
33.094728
0.43086699
33.019728
0.41631974
32.948795
0.4026232
32.885142
0.38384046
32.824588
0.36923348
32.770837
0.34523966
0.33261954
32.719781
33.133351
0.53474371
33.064104
0.51132038
32.999344
0.49562697
32.944975
0.47068861
32.893393
0.45420503
32.852758
0.42447546
32.813468
0.40852347
32.784189
0.37451862
0.3607404
32.756068
33.526702
0.56759908
33.50672
0.53130256
33.490311
0.51203578
33.480949
0.48005069
33.4723
0.46285424
33.466404
0.43037206
33.459784
0.41514334
33.452224
0.38207833
0.36917745
33.443787
33.341148
0.56261549
33.349195
0.52325551
33.362604
0.49862676
33.375723
0.46693167
33.39462
0.44395757
33.413183
0.41180948
33.439667
0.38865911
33.460929
0.36081636
0.34484047
33.485266
34.340527
0.39635699
34.49305
0.37073261
34.653317
0.33835934
34.808325
0.3119243
34.964682
0.28760009
35.097781
0.27871079
35.216389
0.27005117
35.293808
0.28339677
0.31803313
35.320616
35.536267
0.19650784
35.715912
0.1910876
35.913994
0.14027724
36.094401
0.13151795
36.25838
0.12362018
36.371721
0.16536981
36.363385
0.27838805
36.226836
0.41994515
36.019342
0.52552712
35.843749
0.65182026
-0.4762271
35.477843
0.61004042
-0.24413426
35.042163
0.56910717
-0.13342738
34.658751
0.53280045
-0.14938875
34.327393
0.51508095
-0.18372292
34.05103
0.50605902
-0.22969593
33.817605
0.50381492
-0.27038938
33.599707
0.50932403
-0.29142675
0.5152018
33.380719
-0.29621322
35.433914
0.53852193
35.487522
0.55643209
35.487379
0.56925026
35.441597
0.57858295
35.369573
0.5871046
35.277369
0.59826296
35.173794
0.60738999
35.063557
0.61956101
0.63084056
34.947918
33.623627
0.40016106
33.755804
0.42425474
33.870475
0.45457957
33.974265
0.47479242
34.057779
0.50359098
34.131746
0.52429546
34.185032
0.55410436
34.229808
0.57478469
0.60586317
34.254786
33.552195
0.29175343
33.665453
0.31099667
33.772773
0.34725872
33.881484
0.36608151
33.980827
0.40424849
34.08129
0.42383211
34.171139
0.46425587
34.261745
0.48417863
0.52666433
34.340944
32.858445
0.18937641
32.96381
0.20563155
33.073912
0.2371571
33.186095
0.25389889
33.301162
0.28918127
33.417181
0.30781295
33.535069
0.34636769
33.652222
0.36702559
0.40804746
33.770839
32.796073
0.11308415
32.87701
0.12469493
32.964752
0.14941416
33.055427
0.16322461
33.156001
0.18860669
33.25409
0.20972443
33.366676
0.23378108
33.472871
0.26083061
0.28480289
33.596116
32.447238
0.054461983
32.511927
0.060006428
32.58314
0.078201365
32.660952
0.08541264
32.745515
0.10404342
32.837742
0.11749725
32.93719
0.13433308
33.045485
0.15253622
0.17128782
33.159
32.41383
0.015336138
32.456975
0.016860864
32.508939
0.026238082
32.566015
0.028336711
32.628595
0.041463051
32.703046
0.043045777
32.779123
0.058256216
32.872099
0.05956001
0.076952893
32.966434
32.22636
32.243221
32.269459
32.297795
32.339258
32.382304
32.44056
32.50012
32.577073
32.656728
-0.079654422
32.754505
-0.097777609
32.856396
-0.10189108
32.982535
-0.126139
33.109709
-0.12717362
33.263165
-0.15345557
33.422671
-0.15950663
33.607097
-0.18442541
-0.19588485
33.802981
33.079182
-0.19240241
33.191397
-0.20999257
33.326297
-0.23679087
33.460114
-0.25995595
33.616751
-0.28381065
33.776432
-0.31313678
33.959408
-0.34248252
34.145709
-0.37072606
-0.40549873
34.355323
33.281272
-0.314675
33.412446
-0.34116651
33.553295
-0.37764016
33.694828
-0.4014883
33.857309
-0.44629166
34.014897
-0.47072545
34.190091
-0.51767606
34.36777
-0.54840486
-0.59313319
34.555404
33.71091
-0.42946887
33.845407
-0.47566381
33.967098
-0.49933121
34.110718
-0.54510832
34.241664
-0.57723724
34.393377
-0.62243894
34.534079
-0.65837746
34.698128
-0.71245374
-0.74782075
34.852815
33.889103
-0.54773248
34.005968
-0.59252963
34.122049
-0.61541209
34.24014
-0.66319876
34.352393
-0.68949051
34.472761
-0.74280656
34.586366
-0.77198267
34.706382
-0.83247018
-0.86700036
34.825562
34.421007
-0.62779607
34.487376
-0.65889852
34.557291
-0.68532668
34.613069
-0.718977
34.674628
-0.75104937
34.722808
-0.79098651
34.779189
-0.82836411
34.823576
-0.87685663
-0.92181527
34.878391
34.274296
-0.6473067
34.27882
-0.66342197
34.276861
-0.68336823
34.258777
-0.70089225
34.236041
-0.72831343
34.200859
-0.75580483
34.166494
-0.79399887
34.122232
-0.83259455
-0.87983043
34.080247
34.822414
-0.52180249
34.680063
-0.5210706
34.51876
-0.52206577
34.345525
-0.52765719
34.163451
-0.54623951
33.973985
-0.56633845
33.786235
-0.60624841
33.592494
-0.63885391
-0.69198812
33.404652
33.141619
-0.28270303
32.855656
-0.23510702
32.576008
-0.24241785
32.302494
-0.25414364
32.029497
-0.27324251
31.719361
-0.25620254
31.39035
-0.2772374
31.015797
-0.26430032
30.609795
-0.28598595
0.71684076
30.16886
-0.27590647
0.92734668
33.194146
0.98004604
34.027548
0.936026
34.922411
0.81378209
34.947806
0.63563047
35.030967
0.43543197
34.755603
0.21856496
34.57219
34.021546
0.76232271
29.728472
-0.32193447
0.9792743
32.977194
1.0307807
33.976041
0.97523532
34.977956
0.84898908
35.074052
0.67864733
35.201309
0.47512613
34.959124
0.23589004
34.811426
34.257436
0.7843747
29.283724
-0.3396263
1.0375671
32.724002
1.1003079
33.9133
1.0562579
35.022006
0.92833276
35.201977
0.7284195
35.401222
0.50614024
35.181403
0.25892513
35.058641
34.516362
0.837356
28.876563
-0.43019578
1.0928545
32.468503
1.1553607
33.850794
1.098304
35.079063
0.96527217
35.335009
0.77586877
35.590625
0.5540915
35.40318
0.28169366
35.331039
34.798055
0.8789022
28.451538
-0.45387694
1.1652575
32.182148
1.2390307
33.777021
1.1906558
35.127438
1.0549002
35.470765
0.83007629
35.815449
0.58119563
35.652061
0.30170268
35.610532
35.099758
0.95126218
28.060473
-0.56019722
1.2266358
31.906774
1.2989665
33.70469
1.2368642
35.18954
1.0957394
35.611889
0.88417324
36.027015
0.6413461
35.894888
0.33242896
35.919449
35.432187
1.0203675
27.588784
-0.54867814
1.3196434
31.607498
1.4004311
33.623903
1.3422416
35.247729
1.1972056
35.756925
0.94441129
36.27981
0.66613232
36.173167
0.35112699
36.234454
35.783314
1.1309417
27.153382
-0.69553978
1.3911743
31.347266
1.464342
33.550735
1.3905016
35.32157
1.2367965
35.91063
0.99740066
36.519205
0.73186488
36.438703
0.38624333
36.580076
36.169557
1.2329581
26.508544
-0.58812059
1.5161377
31.064086
1.5923161
33.474556
1.5158985
35.397987
1.3594733
36.067056
1.0728164
36.805862
0.76036569
36.751154
0.40550353
36.934938
36.575061
-0.069836611
36.644897
-0.068900731
36.934002
-0.017546347
36.699799
0.096175403
36.692141
0.22073161
35.942499
0.41934108
35.199378
0.6365734
33.257324
0.94831202
30.752348
26.370106
1.08675
-0.077627268
36.722525
-0.075606268
36.931981
-0.070654556
36.694848
-0.0017822308
36.623268
0.10710691
35.83361
0.29255257
35.013932
0.47723932
33.072637
0.7268318
30.502755
26.303035
0.79390272
-0.10109691
36.823622
-0.12592241
36.956807
-0.092527083
36.661452
0.0029067559
36.527834
0.10002569
35.736491
0.27934702
34.834611
0.45101017
32.900974
0.6918345
30.261931
26.220454
0.77441612
-0.10653103
36.930153
-0.13731106
36.987587
-0.15694891
36.68109
-0.1063714
36.477257
-0.015618012
35.645738
0.15096168
34.668031
0.30315525
32.748781
0.50084072
30.064245
26.193191
0.528103
-0.12948444
37.059637
-0.17488842
37.032991
-0.16238544
36.668587
-0.089733894
36.404605
-0.007390823
35.563395
0.1594883
34.501152
0.30295193
32.605317
0.48394636
29.883251
26.132709
0.54442906
-0.13505124
37.194688
-0.19211992
37.090059
-0.22822737
36.704695
-0.19084085
36.367219
-0.11301379
35.485568
0.034631852
34.353507
0.16176885
32.47818
0.31957601
29.725444
26.087417
0.36486777
-0.15795542
37.352644
-0.220898
37.153002
-0.2262796
36.710076
-0.16466323
36.305602
-0.087557807
35.408462
0.05992443
34.206024
0.18156656
32.356538
0.33702562
29.569985
25.993813
0.4306291
-0.160259
37.512903
-0.23264723
37.22539
-0.28044476
36.757874
-0.25715388
36.282312
-0.19312022
35.344429
-0.060755337
34.073659
0.050263903
32.245519
0.20176396
29.418485
25.902676
0.29290097
-0.18101616
37.693919
-0.25389521
37.298269
-0.27648744
36.780466
-0.22390994
36.229734
-0.15063188
35.271151
-0.014294432
33.937322
0.09191685
32.139307
0.24228648
29.268115
25.772715
0.37224766
-0.12750034
25.649406
0.25080976
0.025305127
29.11531
0.13121277
32.0334
0.25126872
33.817266
0.30081476
35.221605
0.31510898
36.21544
0.26189593
36.833679
0.18180509
37.37836
37.875724
-0.18523009
25.500615
0.33402081
-0.034593486
28.964673
0.067388254
31.931418
0.19312981
33.691524
0.25710894
35.157625
0.30069811
36.171851
0.26737952
36.866998
0.19217552
37.453564
38.067899
-0.08235355
25.354579
0.2283902
0.066530834
28.815789
0.17361365
31.824335
0.28369015
33.581448
0.32963134
35.111684
0.34178236
36.1597
0.27449296
36.934287
0.19029941
37.537757
38.258199
-0.15172261
25.193251
0.31305036
-0.0071065004
28.671172
0.091472228
31.725756
0.20840671
33.464513
0.26007331
35.060018
0.29370645
36.126067
0.25859009
36.969403
0.19082943
37.605518
38.449028
-0.056415276
25.032552
0.21711386
0.081400138
28.533357
0.18583532
31.621321
0.28814374
33.362205
0.32941998
35.018741
0.33773598
36.117751
0.26713157
37.040008
0.18737375
37.685276
38.636402
-0.14098206
24.870539
0.30299481
-0.0082284132
28.400603
0.083044755
31.530048
0.19199033
33.253259
0.23581681
34.974915
0.26761867
36.085949
0.23728523
37.070341
0.17672486
37.745836
38.813127
-0.063305919
24.723203
0.21064217
0.063080205
28.274217
0.16053789
31.43259
0.26054645
33.153251
0.29672526
34.938736
0.30087836
36.081796
0.23743173
37.133788
0.1683892
37.814879
38.981516
-0.16691142
24.594481
0.29563399
-0.048321873
28.155628
0.036524582
31.347744
0.14368716
33.046088
0.1825107
34.899913
0.21432874
36.049978
0.19163653
37.15648
0.14592413
37.860591
39.12744
-0.1124289
24.503382
0.20352726
0.0051663921
28.038032
0.094764271
31.258146
0.19720426
32.943648
0.22755068
34.869566
0.234422
36.043106
0.18374788
37.207154
0.1309717
37.913367
39.258412
0.039841862
39.21857
0.12673511
37.826474
0.21816065
37.115729
0.31983355
35.941433
0.40386852
34.785531
0.51445638
32.83306
0.58896738
31.183635
0.58281781
28.044182
24.615179
0.47102116
0.075155883
39.143414
0.15756176
37.744068
0.22594091
37.04735
0.31475082
35.852623
0.38672899
34.713553
0.49520718
32.724582
0.5903477
31.088495
0.57080457
28.063725
24.84085
0.34513338
0.12613752
39.017277
0.25656787
37.613638
0.37393121
36.929986
0.48787899
35.738676
0.58027076
34.621161
0.69637839
32.608475
0.81191145
30.972961
0.82678153
28.048855
25.150098
0.51753366
0.17242034
38.844856
0.2980238
37.488035
0.39462919
36.833381
0.50039623
35.632909
0.58212991
34.539428
0.7017615
32.488843
0.85693037
30.817793
0.90891346
27.996872
25.620853
0.43815886
0.22765016
38.617206
0.4068265
37.308858
0.56402981
36.676177
0.70006986
35.496869
0.79756495
34.441933
0.91324703
32.373161
1.0879318
30.643108
1.220674
27.86413
26.303946
0.53758024
0.28085506
38.336351
0.4647088
37.125004
0.60652549
36.534361
0.73539081
35.368003
0.82287178
34.354452
0.93229038
32.263742
1.137785
30.437613
1.3806725
27.621242
26.887876
0.79674264
0.34294384
37.993407
0.5881844
36.879764
0.79133296
36.331212
0.95400338
35.205333
1.0589776
34.249477
1.1484205
32.1743
1.3262341
30.2598
1.6967547
27.250722
27.568801
1.01583
0.40122903
37.592178
0.65128362
36.629709
0.84231232
36.140184
1.0071114
35.040534
1.1101852
34.146403
1.174783
32.109702
1.3551546
30.079428
1.9049477
26.700928
27.771857
1.701891
0.4677531
37.124425
0.78786006
36.309602
1.0573671
35.870676
1.2835293
34.814372
1.4093193
34.020613
1.446103
32.072918
1.5699584
29.955573
2.1983361
26.072551
27.433235
2.5369589
-1.3546391
38.479064
-2.8036695
37.758633
-4.3264032
37.39341
-5.7689893
36.256958
-7.0382037
35.289828
-8.1306458
33.16536
-8.7570579
30.581985
-9.081683
26.397176
28.415081
-10.06353
-1.3334012
39.812465
-2.7895158
39.214747
-4.2878233
38.891718
-5.7834467
37.752581
-7.1434489
36.64983
-8.2396233
34.261535
-8.9111964
31.253558
-8.947557
26.433537
27.785433
-8.3179091
-1.2750556
41.087521
-2.737441
40.677133
-4.2924156
40.446692
-5.8593511
39.319517
-7.2437295
38.034208
-8.3210167
35.338822
-8.9351087
31.86765
-8.3743249
25.872753
22.537686
-3.1265774
-1.2287049
42.316226
-2.7051703
42.153598
-4.2476499
41.989172
-5.8611629
40.93303
-7.3523489
39.525394
-8.4410897
36.427563
-8.8528744
32.279434
-7.7077884
24.727667
14.910852
-0.080954274
-1.1674921
43.483718
-2.6531856
43.639292
-4.2355308
43.571517
-5.9102786
42.607777
-7.4274901
41.042606
-8.539036
37.539108
-8.75584
32.496238
-6.7579268
22.729754
8.1914861
-0.038561289
-1.1082215
44.59194
-2.5998401
45.13091
-4.1631113
45.134788
-5.8903653
44.335031
-7.5109161
42.663157
-8.6544304
38.682623
-8.480467
32.322275
-5.1738588
19.423145
2.348243
0.66938435
-1.0233412
45.615281
-2.5172535
46.624823
-4.1303413
46.747876
-5.9215068
46.126197
-7.5802991
44.321949
-8.6588784
39.761202
-7.7173104
31.380707
-2.6384282
14.344263
-1.0107665
0.7205812
-0.96523862
46.580519
-2.4373709
48.096955
-4.0313903
48.341895
-5.8866266
47.981433
-7.6214364
46.056759
-8.6262203
40.765986
-6.7644279
29.518915
-1.6889082
9.2687435
-3.423446
0.72377137
-0.87303558
47.453555
-2.3459447
49.569864
-3.9890502
49.985001
-5.8938906
49.886274
-7.6286392
47.791507
-8.4386973
41.576044
-5.3390505
26.419268
-0.48057083
4.4102638
-4.8505323
0.94651537
-0.1285332
-5.2581055
0.5361064
2.6275619
1.6541688
5.1436611
23.903169
4.5936202
42.126085
3.3901122
48.995015
2.0874668
51.188919
1.0786265
50.993841
0.26703452
50.381456
47.720589
-0.35149597
-5.486452
0.57984245
2.2763005
-0.97362771
5.042639
21.13683
4.5358994
42.632825
3.2974638
50.233451
1.9952675
52.491115
0.95913551
52.029973
0.17797765
51.162614
47.898567
-0.38383653
-5.6655954
0.56297989
2.1381966
-3.4956608
4.9070723
18.367955
4.4956203
43.044277
3.215138
51.513933
1.8651996
53.841054
0.85725322
53.03792
0.13397293
51.885894
48.03254
-0.26975426
-5.9519291
0.55608801
2.1943053
-5.9597204
4.7559494
15.80631
4.4062971
43.393929
3.1082801
52.81195
1.7563288
55.193005
0.7270016
54.067247
0.050147113
52.562749
48.082687
-0.14372962
-6.2204289
0.41222939
2.2365594
-8.3400093
4.6318202
13.41105
4.3508032
43.674946
3.0055965
54.157157
1.6099677
56.588634
0.62540979
55.051805
0.015454257
53.172704
48.098141
-0.051858295
-6.4786894
0.31011882
2.2243876
-10.616255
4.4973385
11.138099
4.2407848
43.9315
2.88342
55.514522
1.4911154
57.980938
0.49562414
56.047296
-0.056206102
53.724534
48.041935
0.047393836
-6.6917357
0.16565248
2.2050409
-12.773902
4.3499196
8.9932201
4.1739854
44.107434
2.766081
56.922426
1.3468767
59.400143
0.39617467
56.997998
-0.089792552
54.210502
47.952143
0.11703133
-7.079855
0.27108799
2.2078472
-14.864718
4.1950016
7.0060656
4.0369701
44.265465
2.6320624
58.327334
1.2205204
60.811685
0.26792129
57.950597
-0.15089514
54.629318
47.801248
0.14965709
-7.1506424
-0.07886963
2.0994546
-16.814516
4.0183073
5.087213
3.9804822
44.30329
2.5009912
59.806825
1.0733914
62.239284
0.16884358
58.855145
-0.17095891
54.969121
47.630289
2.1911278
-10.070637
0.72886671
5.0066226
-19.63001
4.3071992
5.7866364
1.5307777
47.079712
-1.1795441
62.517147
-2.7631033
63.822844
-3.047398
59.13944
-1.9903189
53.912042
45.63997
2.9159659
-13.33047
0.34386689
5.0913111
-21.805356
3.6554573
7.2224901
0.48640457
50.248765
-2.6646602
65.668212
-3.9640812
65.122265
-3.6318443
58.807203
-2.1025782
52.382775
43.537392
3.2356732
-16.671479
0.10533629
5.0242726
-23.593955
2.7965991
9.4501636
-0.76854823
53.813912
-3.3630765
68.26274
-4.1803097
65.939498
-3.8267754
58.453668
-2.1033534
50.659354
41.434038
3.4678717
-19.740019
-0.39933165
4.8987092
-25.024792
2.2084534
12.140419
-1.8200367
57.842402
-4.5625446
71.005248
-5.262998
66.639951
-4.2919135
57.482584
-1.9757769
48.343217
39.458261
3.5220716
-21.568877
-1.6932143
4.6447916
-26.147512
1.1961179
15.589093
-3.061649
62.100169
-5.1781208
73.12172
-5.3072182
66.769049
-3.906236
56.081602
-1.901297
46.338278
37.556964
3.4159765
-22.627371
-2.3574817
4.4564022
-27.187938
0.609127
19.436368
-3.8955988
66.604895
-6.0290033
75.255124
-5.9886403
66.728686
-4.4262174
54.519179
-2.4815819
44.393642
35.075382
3.2737584
-24.36098
-1.5401497
4.0643321
-27.978512
-0.45793033
23.958631
-5.0580643
71.205029
-6.3944202
76.59148
-5.7104503
66.044716
-3.8170356
52.625764
-1.8947877
42.471395
33.180595
3.2153939
-26.730612
-0.84576197
3.8921328
-28.655251
-0.9548218
28.805585
-5.7098912
75.960098
-6.9762607
77.857849
-6.323176
65.391631
-4.041827
50.344415
-1.7312754
40.160843
31.449319
3.1460541
-0.94796016
-28.928706
3.3267755
-28.835972
-2.3526228
34.484984
-7.1423047
80.74978
-7.32019
78.035735
-5.6945313
63.765972
-2.8422309
47.492115
-0.50451578
37.823128
30.944803
-1.0119061
14.263165
0.48207875
-13.733337
-1.1157805
56.973475
-56.869601
0.54252063
58.121817
-59.780118
4.5149653
-5.019838
1.0473933
6.99165
-39.36868
36.891995
8.2854051
-50.994517
49.700762
8.6384882
-56.161815
55.808731
8.1348954
-45.912343
46.415936
-2.9142757
2.8755403
-1.064094
14.855992
0.47126694
-1.1337913
57.043173
0.8971292
56.090897
4.9826797
-9.1053884
7.5060979
-41.892098
8.9249983
-52.413418
9.2235916
-56.460408
8.4376102
-45.126362
-2.9334338
-1.105082
15.497889
0.46318435
-1.1024846
57.040575
1.2973128
53.691099
5.5190915
-13.327167
8.0924661
-44.465472
9.611679
-53.932631
9.8949659
-56.743695
8.8996086
-44.131005
-2.9662104
-1.1527695
16.175701
0.47495823
-1.0569695
56.944775
1.7540312
50.880099
6.115217
-17.688353
8.7212165
-47.071472
10.31154
-55.522954
10.569074
-57.001229
9.3903313
-42.952262
-3.1034671
-1.1841255
16.895615
0.46421129
-0.96202732
56.722677
2.22789
47.690181
6.6996275
-22.16009
9.3019918
-49.673836
10.916441
-57.137403
11.122778
-57.207566
9.816697
-41.646181
-3.503199
-1.2104201
17.637109
0.46892626
-0.82324998
56.335507
2.7343291
44.132602
7.313813
-26.739574
9.8982054
-52.258228
11.430192
-58.66939
11.435619
-57.212993
10.075003
-40.285566
-4.3153235
-1.2853705
18.450345
0.472134
-0.73644314
55.78658
3.2966461
40.099513
7.9501468
-31.393075
10.509827
-54.817909
11.939658
-60.099221
11.670155
-56.94349
10.280631
-38.896041
-5.6019659
-1.3550972
19.329575
0.47586735
-0.62121716
55.0527
3.9117778
35.566518
8.5369066
-36.018204
11.101509
-57.382512
12.469928
-61.46764
11.833849
-56.307411
10.422731
-37.484923
-7.3596969
-1.419555
0.46382138
20.285309
-0.44721434
54.080359
4.566899
30.552405
9.1037408
-40.555046
11.711751
-59.990522
13.016844
-62.772733
12.043478
-55.334045
10.679931
-36.121376
-9.5332208
-5.0460266
-16.194422
-1.7784637
23.018912
-9.2898447
-72.727237
76.971055
-7.067784
-71.408389
69.186329
-1.330862
-38.754532
33.01761
4.7692562
-8.7819114
2.6817932
8.461449
-4.5792452
0.88705237
6.9145929
-24.088615
25.635471
1.2493658
-46.584042
52.249269
-63.894287
65.143652
-3.926192
-8.3107965
-3.9574341
-8.6469736
-68.006456
-7.4584119
-72.596951
-2.3252201
-43.887724
4.239431
-15.346562
8.4297855
-8.7695997
7.9371338
-23.595964
2.9512081
-41.598116
-60.943079
-3.6065581
-0.062805763
-4.6414328
-8.5295326
-63.083481
-7.7074605
-73.419023
-2.5696162
-49.025568
3.9451346
-21.861313
7.7377703
-12.562236
7.2417548
-23.099948
3.0464168
-37.402778
-57.896662
-2.7477434
7.3207922
-4.6358547
-7.9717918
-57.859433
-8.3817964
-73.009018
-3.9090705
-53.498294
3.0045628
-28.774947
7.0163849
-16.574058
7.5794125
-23.662976
4.0996413
-33.923007
-53.797021
-2.3886855
14.12767
-4.4181927
-7.6328867
-52.615232
-8.3705923
-72.271313
-5.2637683
-56.605118
0.51563142
-34.554346
5.1120941
-21.17052
5.9019062
-24.452788
3.8025046
-31.823605
-49.994516
-1.5557077
19.475778
-3.792401
-7.027475
-47.143464
-8.5291186
-70.769669
-6.080063
-59.054174
-1.206213
-39.428196
3.4288558
-25.805589
5.5303648
-26.554297
4.2226877
-30.515928
-45.771828
-1.5241693
22.784607
-1.7846607
-6.5289646
-42.13867
-8.3171321
-68.981501
-6.5787147
-60.792591
-2.4397464
-43.567165
1.5130594
-29.758395
3.5982936
-28.639531
3.4472506
-30.364885
-42.324578
-1.1336842
23.628779
0.28951134
-5.7103951
-37.561959
-7.9068051
-66.785091
-6.9788177
-61.720579
-3.7575404
-46.788442
0.099047902
-33.614983
2.6788834
-31.219366
3.0196574
-30.705659
-39.30492
-0.95395724
23.413153
1.1695834
-4.8961485
-33.619768
-7.4581295
-64.22311
-7.1892142
-61.989494
-4.5083927
-49.469263
-1.1806633
-36.942713
1.1430008
-33.543031
2.2521657
-31.814824
-37.052755
-0.22683446
31.640007
-31.413172
-0.12450866
33.278525
-33.380851
-0.13067141
35.55305
-35.546887
-0.21464105
39.245172
-39.161202
-0.93254106
46.168262
-45.450362
-2.148318
53.655718
-52.439941
-3.2265801
57.119862
-56.041599
-2.0740131
44.852601
-46.005168
-6.8665669
4.9658973
-0.17334387
-0.31879516
31.958802
-0.16880588
33.128536
-0.13093063
35.515175
-0.16005751
39.274299
-0.79857116
46.806776
-1.9488399
54.805987
-2.9952129
58.166234
-1.8270367
43.684425
-9.1221689
0.42856533
-0.36849118
32.327293
-0.21875109
32.978796
-0.12559399
35.422017
-0.063860458
39.212565
-0.67853394
47.421449
-1.824534
55.951987
-2.8185766
59.160277
-1.4814058
42.347254
-11.407797
0.80422185
-0.48698304
32.814276
-0.30103573
32.792848
-0.15333349
35.274315
-0.010075862
39.069308
-0.53757571
47.948949
-1.6307609
57.045172
-2.5787846
60.108301
-1.2649206
41.03339
-13.573853
0.90113601
-0.58525763
33.399534
-0.38896642
32.596557
-0.1796867
35.065035
0.046427074
38.843194
-0.43694614
48.432322
-1.5109074
58.119133
-2.410139
61.007532
-1.0507539
39.674005
-15.748061
1.1234539
-0.7303814
34.129915
-0.50622673
32.372402
-0.23263887
34.791448
0.097130204
38.513425
-0.27696011
48.806413
-1.3029043
59.145077
-2.1741947
61.878823
-0.77021431
38.270024
-17.86995
1.3516737
-0.84077965
34.970695
-0.6344625
32.166085
-0.28696253
34.443948
0.12854582
38.097916
-0.19933258
49.134291
-1.1984664
60.144211
-2.0164747
62.696832
-0.49981449
36.753363
-19.883939
1.514174
-0.97729661
35.947991
-0.78018177
31.96897
-0.37201299
34.035779
0.16186559
37.564038
-0.025201612
49.321358
-0.97279555
61.091805
-1.789723
63.51376
-0.27233468
35.235974
-21.829448
1.6731734
-1.1047632
-0.95061695
-0.45786867
0.16345642
0.015551536
-0.88213741
-1.5914873
0.02471815
1.6084223
4.215906
1.1716222
-0.42163075
7.1529057
-48.942168
5.5306181
-54.419312
3.4750196
-50.384342
2.0681886
-44.043531
1.3728526
-38.465866
0.8776483
-35.051683
0.56203683
-33.065239
-30.851135
6.1521396
-4.7525786
-0.22793892
7.7487609
-50.538789
5.7373937
-52.407944
3.5777069
-48.224655
2.1457124
-42.611537
1.4243759
-37.74453
0.88368704
-34.510994
0.50953386
-32.691086
-30.341602
8.3191664
-12.821487
-0.25025752
8.0013617
-50.220985
5.8788339
-50.285417
3.7748285
-46.12065
2.333754
-41.170462
1.504082
-36.914858
0.89802655
-33.904938
0.49181661
-32.284876
-29.849785
8.9820256
-21.781361
-0.02215199
8.1898559
-49.428815
6.0034376
-48.098998
3.8734509
-43.990663
2.4210406
-39.718052
1.5719171
-36.065734
0.93278462
-33.265806
0.45619182
-31.808283
-29.393593
9.7887975
-31.530498
-0.03966005
8.2716215
-47.911639
6.06295
-45.890327
4.0335406
-41.961254
2.5951504
-38.279662
1.6599788
-35.130563
0.96571905
-32.571546
0.45393611
-31.2965
-28.939657
10.24787
-41.228622
-0.54974639
8.5278031
-46.191572
6.109859
-43.472383
4.1253759
-39.976771
2.6837534
-36.838039
1.7364767
-34.183286
1.0209959
-31.856065
0.44027731
-30.715782
-28.49938
10.699875
-45.672935
-6.2555627
8.5715767
-44.063273
6.1152915
-41.016097
4.2339518
-38.095431
2.8420724
-35.44616
1.8269815
-33.168195
1.0665726
-31.095656
0.45048489
-30.099694
-28.048895
10.968552
-44.686205
-11.955283
8.3431073
-41.437828
6.090137
-38.763127
4.2985626
-36.303857
2.9229212
-34.070519
1.9047253
-32.149999
1.124519
-30.31545
0.45408373
-29.429259
-27.594811
10.880581
-42.283649
-13.283137
8.1818726
-38.73912
6.0811779
-36.662432
4.3910555
-34.613734
3.0575231
-32.736986
1.993625
-31.086101
1.1687959
-29.490621
0.4743589
-28.734822
-27.120452
0.66396934
33.841689
-34.505658
1.219341
34.305707
-34.861078
1.707173
34.991435
-35.479267
2.1109387
35.874991
-36.278757
2.3916592
36.772751
-37.053471
2.4250562
37.748179
-37.781576
2.1111461
37.729222
-37.415312
1.3444831
35.71045
-34.943787
28.961323
-28.240909
0.62406872
0.72362986
33.118059
1.3060432
33.723293
1.8502087
34.447269
2.2833894
35.44181
2.5780123
36.478128
2.6825028
37.643688
2.3651225
38.046603
1.5180991
36.557473
29.843325
0.63609745
0.75896002
32.359099
1.3873457
33.094908
1.9645094
33.870105
2.4619287
34.944391
2.850308
36.089749
3.0441655
37.449831
2.8352379
38.25553
1.9730608
37.41965
31.121926
0.69445967
0.80640601
31.552693
1.4646941
32.43662
2.0963635
33.238436
2.6166915
34.424063
3.0276181
35.678822
3.3008301
37.176619
3.1764834
38.379877
2.3400833
38.25605
32.764018
0.6979914
0.84004068
30.712652
1.5292
31.74746
2.2029804
32.564656
2.7882985
33.838745
3.2894479
35.177673
3.6471441
36.818922
3.7054851
38.321536
3.0184417
38.943094
34.97294
0.80952005
0.87119114
29.841461
1.593129
31.025523
2.3089033
31.848881
2.9146961
33.232952
3.43852
34.653849
3.8906357
36.366807
4.0726423
38.139529
3.605734
39.410002
37.403177
1.1754968
0.89049179
28.950969
1.6354543
30.28056
2.3921293
31.092206
3.0664091
32.558673
3.6639366
34.056321
4.1924537
35.83829
4.5766842
37.755299
4.3600556
39.626631
39.517047
2.2461857
0.91216265
28.038806
1.6764792
29.516243
2.4603635
30.308322
3.1578609
31.861175
3.777357
33.436825
4.362075
35.253572
4.778888
37.338486
4.9990218
39.406497
41.329765
3.1863041
0.91835424
1.6997758
2.5174768
3.2925511
3.9923899
4.6322271
5.3082807
5.9756581
5.0217737
-0.59035378
-28.01085
0.36029513
-1.1132422
-34.420898
-1.4414202
-37.087134
-1.5210087
-37.701987
-1.4388528
-37.135627
-1.2188562
-36.498753
-0.88818877
-35.809934
-0.49770778
-35.251559
-35.003366
-0.56746707
-27.833334
0.38995056
-1.0200141
-33.968351
-1.3038633
-36.803285
-1.3959836
-37.609867
-1.2975814
-37.234029
-1.0943541
-36.701981
-0.80802677