/*--------------------------------*- C++ -*----------------------------------*\
  =========                 |
  \\      /  F ield         | OpenFOAM: The Open Source CFD Toolbox
   \\    /   O peration     | Website:  https://openfoam.org
    \\  /    A nd           | Version:  11
     \\/     M anipulation  |
\*---------------------------------------------------------------------------*/
FoamFile
{
    format      ascii;
    class       volScalarField;
    location    "0.015";
    object      rho;
}
// * * * * * * * * * * * * * * * * * * * * * * * * * * * * * * * * * * * * * //

dimensions      [0 0 0 0 0 0 0];

internalField   nonuniform List<scalar> 
880
(
0.2239950333699092
0.2239950333699093
0.2239950333699093
0.2239950333689848
0.2239950333699093
0.2239950333699093
0.2239950333699093
0.223995033339339
0.2239950333699093
0.2239950333699093
0.2239950333699422
0.2239950330474362
0.2239950333699091
0.2239950333699093
0.2239950333732557
0.2239951751054263
0.2239950333699093
0.2239950333699093
0.2239950333699092
0.2239950333699093
0.2239950333699093
0.2239950333699093
0.2239950333699093
0.2239950333698765
0.2239950342971786
0.2239950349057192
0.2239950346910673
0.2239950337780061
0.2240092773492747
0.224026236688471
0.224027004756873
0.2240236512701734
0.2239950333699093
0.2239950333699158
0.2239950333699164
0.22399503336991
0.2239950333717348
0.2239950333719699
0.2239950333721225
0.2239950333713028
0.223995042194914
0.2239950429535613
0.2239950434271929
0.2239950413505757
0.2240272189847143
0.2240295790194279
0.224030230272199
0.2240268483417974
0.2240356688380735
0.2240065822122593
0.2239958086974489
0.2239950406303631
0.223995055902508
0.2239950414315274
0.2239950340270824
0.2239950333771607
0.2239950333775968
0.2239950333728619
0.2239950333701643
0.2239950333699093
0.2239950333699278
0.2239950333699215
0.2239950333699092
0.2239950333699092
0.2239950333699093
0.2239950333699093
0.2239950333699092
0.2239950333699093
0.2239950333699093
0.2239950333699092
0.2239950333699092
0.2239950333699092
0.2239950333699091
0.2239950333699093
0.2239950333699093
0.2239950333699093
0.2239950333436592
0.2239950333628068
0.2239950333696135
0.2239950333699093
0.2239950333699092
0.2239950333699093
0.2239950333699093
0.2239950333699092
0.223995033357143
0.2239950333698164
0.2239950333699093
0.2239950333699092
0.2239950495216348
0.2239950334965862
0.2239950333699406
0.2239950333699092
0.2239675747372494
0.2239950198631598
0.2239950333658293
0.2239950333699093
0.2239950333699093
0.2239950333707938
0.2239950384250845
0.2240200269975501
0.2239950333699094
0.2239950333715313
0.2239950420845312
0.2240353173427032
0.2239950333699092
0.2239950333719169
0.2239950433895179
0.2240376901186255
0.2239950333699094
0.2239950333723742
0.2239950448560219
0.2240398121372655
0.2240421539514247
0.2239950466239243
0.2239950333729545
0.2239950333699142
0.2240447549032084
0.2239950487791137
0.2239950333737087
0.2239950333699101
0.2240475996067488
0.2239950513961435
0.2239950333747227
0.2239950333699137
0.2240518536504378
0.2239950552067838
0.2239950333762306
0.2239950333699208
0.2239950333699197
0.2239950333739694
0.2239950484759363
0.2240387148038322
0.2239950333699203
0.223995033374377
0.2239950482313227
0.224032409376461
0.2239950333699977
0.2239950333749758
0.223995048323514
0.2240269773330723
0.2239950333693517
0.2239950333623601
0.2239950348844377
0.2240053964907542
0.2239950333776321
0.2239950314876585
0.2239919429419115
0.2229531260114601
0.2239950333737765
0.2239950295694384
0.2239876212933125
0.2202971503303777
0.2239950333724248
0.2239950302661419
0.2239876456134453
0.2195286719927113
0.223995033371769
0.2239950313427501
0.2239891735602195
0.2196975743220549
0.2206356280696637
0.2239904564965232
0.2239950312026546
0.2239950333739553
0.2208180163722396
0.2239912182794837
0.2239950317779712
0.2239950333739809
0.2210273151590617
0.2239918865085364
0.223995032167229
0.2239950333733705
0.219975992458203
0.2239909968238777
0.223995031843306
0.2239950333714122
0.2237039856676465
0.2239948364155637
0.2239950333022602
0.2239950333700989
0.223992984902757
0.2239950327514132
0.2239950333711608
0.2239950333699099
0.2239926424907263
0.2239950313463389
0.2239950333690368
0.2239950333699093
0.2239862617045227
0.2239950262475473
0.2239950333665771
0.2239950333699093
0.2239783617375143
0.2239950333055957
0.2239950335590288
0.2239950333700872
0.2239783247899899
0.2239950331326859
0.2239950335577315
0.2239950333701108
0.2239779299255834
0.2239950307908384
0.223995033535077
0.2239950333702475
0.2239769946421897
0.2239950235236547
0.2239950334589512
0.2239950333704421
0.2239862617045294
0.2239950262475118
0.2239950333665369
0.2239950333699092
0.2239926424907392
0.223995031346278
0.2239950333689918
0.2239950333699093
0.2239929849026935
0.223995032751371
0.2239950333711601
0.2239950333699098
0.2237039856677364
0.2239948364155125
0.2239950333022782
0.2239950333701003
0.2239950333739738
0.2239950312026657
0.223990456496568
0.2206356280696233
0.2239950333739761
0.223995031777978
0.2239912182795731
0.2208180163722392
0.2239950333733771
0.2239950321672093
0.2239918865084762
0.2210273151589539
0.2239950333714189
0.2239950318433608
0.2239909968238904
0.2199759924581987
0.2196975743220847
0.223989173560197
0.2239950313427239
0.2239950333717771
0.2195286719927221
0.2239876456134502
0.2239950302661733
0.2239950333724203
0.2202971503303683
0.2239876212933295
0.223995029569422
0.2239950333737984
0.2229531260114551
0.2239919429418557
0.2239950314876074
0.2239950333776624
0.2239950333699187
0.2239950333739935
0.2239950484759974
0.2240387148037608
0.2239950333699224
0.2239950333743613
0.2239950482313585
0.2240324093765233
0.2239950333699848
0.2239950333749918
0.2239950483235156
0.2240269773330479
0.2239950333693595
0.2239950333623441
0.2239950348844351
0.2240053964907536
0.2240518536504309
0.2239950552067288
0.2239950333762409
0.2239950333699418
0.224047599606751
0.223995051396158
0.2239950333747258
0.2239950333699142
0.2240447549031841
0.2239950487791119
0.2239950333737096
0.2239950333699101
0.2240421539513954
0.2239950466239655
0.2239950333729667
0.2239950333699195
0.2239950333699093
0.2239950333708053
0.2239950384250664
0.2240200269975254
0.2239950333699112
0.2239950333715543
0.2239950420845141
0.2240353173427096
0.223995033369914
0.2239950333719372
0.2239950433895226
0.224037690118593
0.2239950333699093
0.2239950333723671
0.2239950448560184
0.2240398121372422
0.2239950333699093
0.2239950333699092
0.2239950333699093
0.2239950333699092
0.2239950333657836
0.2239950333699322
0.2239950333699092
0.2239950333699093
0.2239950198631257
0.2239950334966027
0.223995033369809
0.2239950333699092
0.2239675747372276
0.2239950495216348
0.2239950333571549
0.2239950333699092
0.2239950333699092
0.2239950333699092
0.2239950333699093
0.2239950333699093
0.2239950333699092
0.2239950333699092
0.2239950333699093
0.2239950333696187
0.2239950333699093
0.2239950333699093
0.2239950333699093
0.2239950333627753
0.2239950333699092
0.2239950333699093
0.2239950333699092
0.2239950333436506
0.2239950333699345
0.223995033377565
0.2239950559025108
0.224035668838124
0.2239950333699094
0.2239950333728835
0.2239950414315473
0.2240065822122806
0.2239950333699092
0.2239950333701514
0.2239950340270564
0.2239958086974078
0.2239950333699092
0.2239950333699093
0.2239950333771737
0.2239950406303213
0.2240268483417774
0.223995041350557
0.2239950333712904
0.2239950333699095
0.2240302302721638
0.2239950434272333
0.2239950333720749
0.2239950333699165
0.2240295790194526
0.2239950429536023
0.2239950333719214
0.2239950333699098
0.2240272189846651
0.2239950421948783
0.2239950333717178
0.2239950333699133
0.2240236512701562
0.223995033778034
0.2239950333698771
0.2239950333699093
0.2240270047568619
0.2239950346910524
0.2239950333699093
0.2239950333699093
0.2240262366884453
0.22399503490571
0.2239950333699093
0.2239950333699092
0.2240092773492456
0.2239950342971529
0.2239950333699093
0.2239950333699093
0.2239950333699092
0.2239950333699093
0.2239950333699093
0.2239950333689635
0.2239950333699093
0.2239950333699093
0.2239950333699092
0.2239950333393479
0.2239950333699093
0.2239950333699093
0.2239950333699375
0.2239950330474465
0.2239950333699093
0.2239950333699092
0.2239950333732493
0.2239951751053839
0.2239950332580684
0.2239950328029451
0.2239951015533597
0.2240085671595847
0.2239950328029449
0.2239950272563307
0.2239956085152483
0.2242244913533306
0.2239951015533717
0.2239956085152441
0.2241299635971719
0.2272367805696411
0.2240085671596392
0.2242244913533466
0.2272367805696854
0.2459486866536315
0.283743909062557
0.2474575891628825
0.2352260256926783
0.2255482422022832
0.3025536530368545
0.2667741645860015
0.2488668224734648
0.2280742315061453
0.3057953589373321
0.2704460124395053
0.2514860412146967
0.2285568985173711
0.3060253268783757
0.2706110010809247
0.251495753444032
0.228520670021521
0.2290789371912494
0.2293016627657341
0.2293190044190753
0.2290400133917052
0.2530333167268448
0.2536203355522765
0.2536828108971255
0.2551920965184333
0.2713120709812998
0.2715421679516194
0.2716140553203125
0.2776483634345668
0.3074763068970706
0.3077588319128847
0.3078652088227862
0.3177197902892309
0.2275583985899532
0.2245822532567807
0.2240190221290107
0.2239951808497475
0.2350515659317999
0.2251104198521129
0.2240243274396416
0.2239950773989326
0.2346406683345367
0.2249746024418706
0.2240153552897795
0.2239949674854939
0.2300828486380511
0.2242296964720955
0.2239984606220591
0.2239948891281264
0.2239950304951861
0.2239950328556263
0.2239950333581688
0.2239950333698802
0.2239950201665699
0.2239950321260605
0.2239950333587693
0.2239950333699038
0.2239950070152824
0.2239950323147412
0.2239950333654838
0.2239950333699092
0.2239949395931013
0.2239950261697743
0.2239950333243215
0.2239950333698903
0.2239950333699092
0.2239950333704648
0.2239951580697837
0.2213684208766835
0.2239950333699092
0.2239950333699837
0.223999968276305
0.2137322071633147
0.2239950333699092
0.2239950333699092
0.2240298395903072
0.2100091858662303
0.2239950333699092
0.2239950333699092
0.2244488225093197
0.223507777926662
0.2312724679293424
0.2347014435283432
0.2348379373224187
0.2348417331179241
0.2909895190613557
0.3063215337576444
0.3068629541118449
0.3068534543198229
0.3481895725210937
0.3607515262267376
0.3612763316273672
0.3612657153049398
0.4142217025920065
0.4385394437189395
0.4396531358893557
0.4396475874590066
0.2348470086011958
0.2348532509666656
0.2348602311210611
0.235005552097923
0.3068512119180114
0.3068520755705402
0.3068521599823252
0.3069505032379508
0.3612606220166109
0.3612601330894692
0.3612579844801189
0.3610500774295519
0.4396363769003475
0.4396349533397834
0.4396328662154949
0.4394388585838478
0.2319476696126649
0.2304458334513383
0.2291563888110125
0.225829251743227
0.2977974784088271
0.2917928424123069
0.2852034476044996
0.261524994723159
0.3563893004379809
0.3527772380394953
0.3473000831340409
0.3308707198835651
0.4359527866058043
0.4348050507576587
0.4295003531347397
0.4453394221803746
0.2098346540881584
0.1574484262795965
0.1367475110241049
0.1362817376742559
0.1929146917214891
0.1139088491604715
0.08929142357003422
0.08812232845691212
0.1621404463981343
0.08357012986158698
0.0673548357737757
0.06668185515588516
0.1208524399343298
0.04961344265406414
0.0439661796713917
0.04355608469064553
0.1324923471981902
0.1324529539189791
0.1317410524012614
0.1083210099962885
0.08679738016552352
0.08670992664364413
0.08714933029910085
0.06902214615598957
0.06562425586470627
0.06579724447779939
0.06847187216012289
0.06251002273352241
0.04172682265616443
0.0418780031504943
0.04687207687877971
0.05079965264362778
0.2064579211256107
0.2237058517523553
0.2237384929822966
0.2228962142180767
0.182298967745943
0.2217928544101254
0.2227592851388528
0.2193351073319534
0.1547118084131305
0.215636789315242
0.2207017012679546
0.2138709840945468
0.1342408734374557
0.2034802180262436
0.2167338554224736
0.2142492830254553
0.2230236141500421
0.2211055583251732
0.2193950821010941
0.2190103911907133
0.2126535593632423
0.1995516662533639
0.1883687628445499
0.1848856232730275
0.1782951367204445
0.1534820271058274
0.1285549426398313
0.119186911944193
0.1295906618362694
0.0942830233098569
0.06446369798301745
0.05104149001154977
0.05031413370913191
0.04983260798363887
0.04904788260986685
0.04875154514386867
0.1145534115188513
0.1136105047556508
0.1126789955723899
0.1123215962600409
0.1821220545845638
0.1819634903756508
0.1816983705532145
0.1815891189081368
0.2186447933594203
0.2186784763689416
0.2186930313581891
0.2186924649901824
0.04875154514386763
0.1123215962600348
0.1815891189082108
0.218692464990207
0.04904788260988131
0.1126789955724299
0.18169837055322
0.2186930313582405
0.04983260798366686
0.113610504755666
0.1819634903756394
0.21867847636897
0.05031413370914961
0.1145534115188705
0.1821220545845389
0.2186447933594661
0.2190103911907532
0.2193950821011407
0.2211055583252015
0.2230236141500442
0.1848856232730113
0.1883687628445384
0.1995516662533469
0.2126535593632288
0.1191869119442126
0.1285549426398252
0.1534820271058401
0.1782951367204495
0.05104149001156524
0.06446369798302649
0.09428302330987179
0.129590661836278
0.2142492830254671
0.2167338554224911
0.2034802180262295
0.1342408734373946
0.2138709840945558
0.2207017012679605
0.2156367893152222
0.1547118084130908
0.2193351073319572
0.2227592851388639
0.2217928544101253
0.1822989677459113
0.2228962142180793
0.2237384929823008
0.2237058517523124
0.2064579211256343
0.1083210099963101
0.1317410524013029
0.1324529539189755
0.1324923471981444
0.06902214615599425
0.08714933029913323
0.08670992664367769
0.08679738016551117
0.06251002273352015
0.06847187216013767
0.06579724447781277
0.06562425586470447
0.05079965264360472
0.04687207687882183
0.0418780031505022
0.04172682265616262
0.1362817376741701
0.136747511024043
0.157448426279432
0.2098346540880852
0.08812232845686792
0.08929142357000382
0.1139088491603426
0.1929146917214111
0.06668185515587487
0.06735483577376196
0.08357012986154622
0.1621404463981091
0.04355608469063616
0.04396617967138689
0.04961344265407115
0.1208524399343269
0.2258292517431941
0.2291563888109558
0.2304458334513231
0.2319476696126734
0.2615249947231715
0.2852034476044745
0.2917928424123086
0.2977974784088295
0.3308707198835417
0.3473000831340264
0.3527772380394767
0.3563893004380127
0.4453394221803459
0.4295003531347458
0.4348050507576251
0.4359527866058275
0.2350055520978875
0.2348602311210605
0.23485325096663
0.2348470086012158
0.3069505032379625
0.3068521599823711
0.306852075570531
0.3068512119180072
0.3610500774295634
0.3612579844801485
0.3612601330894283
0.3612606220165928
0.4394388585838503
0.4396328662155358
0.4396349533397353
0.4396363769003186
0.2348417331179056
0.2348379373224118
0.2347014435283389
0.2312724679293357
0.3068534543197764
0.3068629541118966
0.306321533757658
0.290989519061371
0.3612657153049335
0.3612763316273912
0.3607515262267507
0.34818957252114
0.4396475874589713
0.4396531358893859
0.4385394437189551
0.4142217025920668
0.221368420876678
0.2239951580697829
0.2239950333704607
0.2239950333699092
0.2137322071633163
0.2239999682763047
0.2239950333699824
0.2239950333699092
0.2100091858662377
0.2240298395903072
0.2239950333699092
0.2239950333699092
0.2235077779266659
0.2244488225093172
0.2239950333699092
0.2239950333699092
0.2239950333698802
0.2239950333581784
0.2239950328556186
0.2239950304952019
0.2239950333699038
0.2239950333587609
0.2239950321260571
0.2239950201665775
0.2239950333699092
0.2239950333654737
0.2239950323147392
0.2239950070152958
0.2239950333698903
0.2239950333243189
0.2239950261697726
0.2239949395931245
0.2239951808497356
0.2240190221289941
0.2245822532567848
0.2275583985899703
0.223995077398927
0.2240243274396339
0.2251104198521175
0.2350515659318066
0.2239949674854939
0.2240153552897747
0.224974602441873
0.234640668334537
0.2239948891281264
0.2239984606220558
0.2242296964720971
0.2300828486380479
0.2290400133917068
0.2293190044190796
0.2293016627657417
0.229078937191214
0.2551920965184147
0.2536828108971613
0.2536203355523103
0.253033316726799
0.2776483634345387
0.2716140553203711
0.2715421679516612
0.271312070981289
0.3177197902891961
0.3078652088228608
0.3077588319129513
0.3074763068970828
0.2285206700215274
0.2285568985173656
0.2280742315061794
0.2255482422022694
0.2514957534439777
0.2514860412145551
0.2488668224734209
0.2352260256926363
0.2706110010808617
0.2704460124393141
0.2667741645858813
0.2474575891627253
0.3060253268783628
0.3057953589372192
0.3025536530369063
0.283743909062544
0.2239890396488239
0.2239950277062198
0.2239950333754558
0.2239950333700415
0.2239775436191709
0.223995017573663
0.2239950333791292
0.2239950333701657
0.2239675898889014
0.2239950084877436
0.2239950333743335
0.22399503337015
0.2239656381176033
0.223995008743837
0.2239950333866351
0.2239950333703033
0.2239950333701016
0.2239950335590317
0.2239950333055934
0.2239783617375312
0.2239950333701007
0.2239950335577628
0.2239950331327018
0.2239783247900009
0.2239950333702489
0.2239950335350321
0.2239950307908353
0.2239779299255206
0.2239950333704472
0.2239950334589369
0.2239950235236875
0.2239769946421571
0.2239950333702792
0.2239950333701615
0.2239950333701712
0.2239950333700311
0.2239950333866003
0.2239950333743327
0.2239950333791363
0.2239950333754825
0.22399500874383
0.2239950084877283
0.2239950175737086
0.2239950277061975
0.2239656381175735
0.2239675898888871
0.2239775436192208
0.2239890396488339
)
;

boundaryField
{
    back
    {
        type            empty;
    }
    inlet
    {
        type            calculated;
        value           nonuniform List<scalar> 
16
(
0.2239950333699092
0.2239950333699093
0.2239950333699093
0.2239950333699091
0.2239950333699093
0.2239950333699093
0.2239950333699092
0.2239950333699093
0.2239950333699093
0.2239950333699093
0.2239950333699092
0.2239950333699093
0.2239950333699092
0.2239950333699093
0.2239950333699093
0.2239950333699093
)
;
    }
    front
    {
        type            empty;
    }
    top
    {
        type            calculated;
        value           nonuniform List<scalar> 
40
(
0.2239950333699093
0.2239950333699159
0.2239950333699164
0.22399503336991
0.2239950333699278
0.2239950333699215
0.2239950333699092
0.2239950333699092
0.2239950333699093
0.2239950333699093
0.2239950333699092
0.2239950333699093
0.2239950333699092
0.2239950333699092
0.2239950333699092
0.2239950333699093
0.2239950333699093
0.2239950333699094
0.2239950333699092
0.2239950333699094
0.2239950333699142
0.2239950333699101
0.2239950333699137
0.2239950333699208
0.2239950333699197
0.2239950333699203
0.2239950333699977
0.2239950333693516
0.2239950333776321
0.2239950333737765
0.2239950333724248
0.223995033371769
0.2239950333739553
0.2239950333739809
0.2239950333733705
0.2239950333714122
0.2239950333700989
0.2239950333699099
0.2239950333699093
0.2239950333699093
)
;
    }
    outlet
    {
        type            calculated;
        value           uniform 0.2239950333699093;
    }
    bottom
    {
        type            calculated;
        value           nonuniform List<scalar> 
40
(
0.2239950333699092
0.2239950333699093
0.2239950333699098
0.2239950333701003
0.2239950333739738
0.2239950333739761
0.2239950333733771
0.223995033371419
0.2239950333717771
0.2239950333724203
0.2239950333737984
0.2239950333776624
0.2239950333699187
0.2239950333699224
0.2239950333699848
0.2239950333693595
0.2239950333699418
0.2239950333699142
0.2239950333699101
0.2239950333699195
0.2239950333699093
0.2239950333699112
0.223995033369914
0.2239950333699093
0.2239950333699093
0.2239950333699092
0.2239950333699093
0.2239950333699092
0.2239950333699092
0.2239950333699092
0.2239950333699093
0.2239950333699092
0.2239950333699345
0.2239950333699094
0.2239950333699092
0.2239950333699092
0.2239950333699095
0.2239950333699164
0.2239950333699098
0.2239950333699133
)
;
    }
    wall
    {
        type            calculated;
        value           nonuniform List<scalar> 
104
(
0.283743909062557
0.3025536530368545
0.3057953589373321
0.3060253268783757
0.3074763068970706
0.3077588319128847
0.3078652088227862
0.3177197902892309
0.2300828486380511
0.2242296964720955
0.2239984606220591
0.2239948891281264
0.2239949395931013
0.2239950261697743
0.2239950333243214
0.2239950333698903
0.2239950333699092
0.2239950333699092
0.2244488225093197
0.223507777926662
0.4142217025920064
0.4385394437189395
0.4396531358893557
0.4396475874590066
0.4396363769003475
0.4396349533397834
0.4396328662154949
0.4394388585838478
0.4359527866058043
0.4348050507576587
0.4295003531347397
0.4453394221803746
0.1208524399343298
0.04961344265406414
0.0439661796713917
0.04355608469064553
0.04172682265616443
0.0418780031504943
0.04687207687877971
0.05079965264362778
0.1342408734374557
0.2034802180262436
0.2167338554224736
0.2142492830254553
0.1295906618362694
0.0942830233098569
0.06446369798301745
0.05104149001154976
0.05031413370913192
0.04983260798363887
0.04904788260986685
0.04875154514386867
0.04875154514386763
0.04904788260988131
0.04983260798366686
0.05031413370914961
0.05104149001156524
0.06446369798302649
0.09428302330987179
0.129590661836278
0.214249283025467
0.216733855422491
0.2034802180262295
0.1342408734373946
0.05079965264360471
0.04687207687882183
0.0418780031505022
0.04172682265616262
0.04355608469063616
0.04396617967138689
0.04961344265407115
0.1208524399343269
0.4453394221803459
0.4295003531347458
0.4348050507576251
0.4359527866058275
0.4394388585838503
0.4396328662155358
0.4396349533397353
0.4396363769003186
0.4396475874589713
0.4396531358893859
0.4385394437189551
0.4142217025920668
0.2235077779266659
0.2244488225093172
0.2239950333699092
0.2239950333699092
0.2239950333698903
0.2239950333243189
0.2239950261697726
0.2239949395931245
0.2239948891281264
0.2239984606220558
0.2242296964720971
0.2300828486380479
0.3177197902891961
0.3078652088228608
0.3077588319129513
0.3074763068970828
0.3060253268783628
0.3057953589372192
0.3025536530369063
0.283743909062544
)
;
    }
}


// ************************************************************************* //
