/*--------------------------------*- C++ -*----------------------------------*\
  =========                 |
  \\      /  F ield         | OpenFOAM: The Open Source CFD Toolbox
   \\    /   O peration     | Website:  https://openfoam.org
    \\  /    A nd           | Version:  11
     \\/     M anipulation  |
\*---------------------------------------------------------------------------*/
FoamFile
{
    format      ascii;
    class       surfaceScalarField;
    location    "0.2995";
    object      phi;
}
// * * * * * * * * * * * * * * * * * * * * * * * * * * * * * * * * * * * * * //

dimensions      [0 3 -1 0 0 0 0];

internalField   nonuniform List<scalar> 
1652
(
2.843686947071611
0.8895636090847459
4.440892098500626e-16
1.954123337992948
0.8895636088824102
3.486100297322992e-13
1.064559752333628
0.8895634086412734
5.766498389903063e-13
0.8895613729557796
4.279909759929978e-12
0.1749995355171976
2.84368694707674
1.77912721816246
1.954123337971922
1.779127218338585
1.06455980078581
1.77912600227107
1.778991791955957
0.1750703275698252
2.843686947090738
2.668690827246883
1.954123337670938
2.66869082780771
1.064559753389107
2.668690607664256
2.666945230525577
0.1757889607231152
2.843686947092923
3.558254436315897
1.954123335082782
3.558254445297153
1.064558752260375
3.558249445977718
3.546193295808203
0.1799390554247788
4.41865202548461
2.872852967054171
5.279049614650032
2.872852966952848
6.13944721599183
2.872852955793468
2.872854186682939
6.999842415702914
4.41865202995589
2.01245543479072
5.279049594648339
2.012455354443212
6.139447469844322
2.012455151133874
2.012434069720193
6.999802255463658
4.418643959641002
1.152072972732923
5.279023557926026
1.15204480114996
6.139982863170838
1.151416201394686
1.152531570212418
7.000225757810365
4.42269092946137
0.2564287405999717
5.438269329381877
0.1076864431139268
6.512965833703999
0.03605016382935622
7.597603076246196
0.0160507602138803
6.941497776697901
0.05840028585763424
6.883188708001597
0.05835713323641023
6.824811184964608
0.0582946825046744
0.05826415791335926
6.766484458540128
6.941481734026968
0.1171829454018513
6.883325405545036
0.1164204915551974
6.825416141826178
0.1159465950582736
0.1154356152364419
6.767815066523236
6.952750864489063
0.159436453369613
6.910636344716239
0.1508513441992881
6.875816203538474
0.1389041318091479
0.126531462691729
6.849796726335624
7.707856652848186
0.007817373809882677
7.796199867703928
0.01024488005316992
7.876181172831587
0.005781917258097513
7.934588187233214
0.008468162102248766
7.937252620473671
0.1127620674444817
-0.1558674363562708
7.804690670952146
0.1533255841683281
-0.05160700193599355
7.656876195979068
0.1406584401128408
-0.01369717801845349
0.1314139813341068
7.527648612334819
-0.01106085818907565
6.93066990659273
0.004538422409516185
7.037175190412079
0.01311660729442721
7.114781708034192
0.02454264666650596
0.03829425244630136
7.168237730008258
6.770461778091956
0.0002698143129057362
6.778175599792712
0.0008391430378018594
6.791655848515979
0.00234075975722936
0.005103580532125451
6.810053918673932
6.766561280285951
6.766753931011218
6.767318356972979
6.768858354184659
6.771786504328992
-0.009176615194698701
6.773921117630773
-0.01334781922421169
6.774441547543637
-0.01663993914287842
-0.01838401240076815
6.774023745685739
6.831970981198777
-0.05292531064086992
6.853903478127285
-0.05951063000116874
6.875649463679784
-0.06207360999121248
-0.06176924411306661
6.894514994908122
7.201084500497697
-0.1217585626022606
7.216689110922205
-0.1088364115378853
7.227538426409046
-0.095763490102864
-0.08055480039668383
7.22390205855983
7.416720557000524
-0.01053158339697213
7.346446461353334
-0.007980263179655833
7.292110448574631
-0.00537180662586334
7.248271603675928
-0.004554061865760739
0.06873626164046664
7.207476088896741
-0.004025690864876363
0.05714162663005606
7.207536750696872
0.0182513374371075
6.897275029910507
6.771801354611221
0.04919729823734348
7.191503565714227
0.0006524544479507566
0.05278768056803362
7.180603456723794
0.01689331855333287
6.890845240658374
6.769160241646716
0.04054155009007854
7.283247569401751
-0.08209628077862036
0.04212911076286219
7.155117486814255
0.01424006926139698
6.874249495470488
6.766877064353748
0.04253064287554825
7.557794108513614
-0.2877308725112692
0.02502386722809258
7.141889668242595
0.009790643162427837
6.850784635552726
6.762551043320361
0.1511022789035824
6.606885503203872
0.3040004830728325
6.665869238913048
0.4073629676067784
6.95888860896795
7.59586015473508
0.1655850296935879
0.1537033535621452
6.452121555336127
0.3015689648467684
6.488489327020011
0.2812403553947741
6.818585772972062
7.304340756565092
0.1838617727848449
0.1536563444880916
6.297966357772566
0.2926512651860187
6.324442786699821
0.1738632172203253
6.698170043930943
6.985511680380714
0.1274539958831301
0.1517580853259649
6.144392016468021
0.2712294085005725
6.172821915834515
0.04738264937787651
6.582534829100473
6.595028895947096
0.09017017126907845
0.07343028834975063
6.116674119181008
0.09176468815774297
-0.231176195835168
6.473861907832683
-0.1472922106838933
6.034862202526385
5.991466177843304
0.1787490095606474
5.613286753376462
0.06147915965051032
-0.1502501391693876
6.326482279788896
-0.134999745072915
5.91523564325011
5.842223119647642
0.30082626229337
5.15130819451829
0.0007460225323498992
-0.02603736337143281
6.112504872545112
-0.112285364927292
5.807762783059556
5.697762749575681
0.3577205791757591
4.723466407578826
-0.02342768328862088
0.153648888055357
5.869665401051276
-0.06360684974789244
5.713295903020351
5.567096302266203
0.03591004006150178
5.403753279703369
-0.2619864121574301
5.534254836611048
-0.3286058997835429
5.537313751409306
4.479655966165525
-0.006484869711646191
-0.05327348802703202
5.260366061310527
-0.2731191814192934
5.322330284126601
-0.170415735677155
5.326138580832261
4.380437683783521
0.01368892658515397
-0.06683150630739121
5.11549594663982
-0.1763800776426117
5.097997933062103
-0.01170092023579528
5.117970500977668
4.352821525743742
0.1121939375606498
-0.02901078556195247
4.918353412013859
-0.05627750720463565
4.854542622314402
0.1808901495547722
4.906267381327852
4.305362955980177
0.3380237058965191
-0.5691235377973733
5.24530893457475
-1.076701708320578
5.22743085039834
-1.308979455118257
5.183902419841416
4.356889762564118
-1.269618498539968
-0.5252842864957581
5.576225223584871
-0.9219739524522723
5.560437704457206
-1.1274512842343
5.441591755194872
3.679929195592567
-0.3760080483447876
-0.4642982405826006
5.897321441081993
-0.793527921725373
5.895723391429323
-0.917302400534853
5.641802515551481
2.858200485061221
-0.03604699290496714
-0.4101924604522759
6.207778690793144
-0.7316375541807228
6.21459232109946
-0.6815712091167498
5.781713160851963
2.28809543665631
-0.02075053166403064
0.2754135764432577
2.240576449450334
-0.01467032311194292
0.359228199583825
5.907362460190494
0.2104400310793596
6.353714708362874
6.351271884406551
0.2777371226347816
2.233475489325656
-0.01464745398220663
0.3360770085485458
6.04077893069763
0.1865867679873001
6.52714596815912
6.493411627121826
0.2668202561167934
2.115938433226223
-0.009604954149786351
0.3149412113255686
6.150224490669599
0.1660311197076569
6.708831954391481
6.635772013434484
0.228734061545469
2.005115878107751
-0.001830148291223018
0.2865664470597028
6.272100926104353
0.1699261398101402
6.857233907620972
6.791160206597538
-0.3387449179911129
2.606810601338775
-0.02638516259247099
-0.1386211638236683
6.419078528925149
-0.01115369276738698
6.758457969906075
6.768473153475118
-0.3659427079252371
3.339795472360291
0.02413538251004697
-0.1117845323450168
6.511929323075962
-0.008166703062786107
6.732283192489322
6.766280811562961
-0.3296464867402967
3.970214495375795
0.08439151500125593
-0.0787025824676133
6.480234813675509
-0.004968065629240348
6.730253180071121
6.765682205028302
-0.2849606263207691
0.1517886089113652
4.418368723482738
-0.05902882014316191
6.419944975643837
-0.00249627739913505
6.73042399832086
6.766000503200622
0.5938403997219286
-0.2531092441401166
-0.02134224930102113
-5.748290732299211e-12
1.826399744348349
-0.6299268210362432
5.877787145891489e-11
2.84318211892005
-0.8503672684648134
-4.592060065533587e-11
-0.8740604596051984
3.314770680162837e-10
0.6159097326210492
-0.5267674649974152
-0.02266885705782174
1.814039338018933
-1.3051717660715
2.841818451259391
-1.699937668194323
-1.74811493729272
0.6327878643177245
-0.9087245477757548
-0.02315537969629875
1.800091045164078
-2.037102173297964
2.840055446028026
-2.554517997788774
-2.622137919184579
0.661809598637666
-0.02351148027523737
-1.500536168569593
1.792840191754781
-2.862758703967847
2.839159042666926
-3.411265814723872
-3.496389826133271
-0.2849606263229196
-3.970214495388568
0.1517886089111406
4.418368723493886
-0.05902882014553446
-6.480234813653285
6.419944975636797
-0.002496277459823393
-6.730253180061998
6.730423998304119
-6.76568220510423
6.766000503238534
-0.3296464867511242
-3.339795472369358
0.08439151500247906
-0.07870258249858164
-6.511929323034818
-0.00496806562567631
-6.732283192583597
-6.766280811674811
-0.365942707933667
-2.606810601353842
0.02413538251052581
-0.1117845323471975
-6.419078528891899
-0.008166703129082853
-6.758457969884185
-6.768473153480207
-0.3387449179929439
-2.005115878118011
-0.0263851625932336
-0.1386211638027526
-6.272100926103714
-0.01115369270234789
-6.857233907688726
-6.79116020663661
-0.2104400310604336
6.351271884592456
-6.207778690961128
-0.3592281995545696
6.353714708423166
-6.214592321103704
-0.2754135764330142
5.907362460154043
-5.781713160811955
2.240576449409472
-2.288095436615965
-0.01467032311228352
-0.1865867679828838
6.493411627269066
-0.3360770085292483
6.527145968219586
-0.2777371226262417
6.040778930653029
2.233475489299414
-0.01464745398243983
-0.1660311197322131
6.635772013528775
-0.3149412113162398
6.708831954437223
-0.2668202561076652
6.150224490627272
2.115938433214528
-0.009604954149650992
-0.1699261397988122
-0.2865664470474578
-0.2287340615425792
-0.001830148292044934
0.6815712091167611
-2.858200485036638
-0.02075053166332865
0.7316375541785105
-5.641802515503242
0.4101924604292919
-5.895723391442028
-5.897321441155999
0.9173024005391344
-3.67992919556918
-0.03604699290398669
0.7935279217305871
-5.441591755127756
0.4642982405695136
-5.560437704527572
-5.576225223435507
1.127451284241872
-4.356889762529277
-0.3760080483418451
0.9219739524754431
-5.183902419770846
0.5252842865526564
-5.227430850452878
-5.245308933861249
1.30897945513316
-4.305362955942534
-1.269618498538228
1.076701708358423
-4.906267381298442
0.5691235378440481
-4.854542622366542
-4.918353412058008
0.03591004006731158
5.403753279793864
-5.567096302398388
-0.2619864121745382
5.534254836630739
-5.713295902981939
-0.3286058997887474
5.537313751350069
-5.869665400949414
4.479655966167206
-4.723466407641852
-0.006484869692283457
-0.0532734880626351
5.260366061406925
-0.2731191813993042
5.322330284105444
-0.170415735680445
5.326138580778401
4.380437683728114
0.01368892659996401
-0.06683150621196676
5.115495947402047
-0.1763800775867019
5.097997933092347
-0.0117009202336894
5.117970500962049
4.352821525698963
0.1121939375589349
-0.02901078548929914
-0.05627750721742752
0.180890149552049
0.3380237058918616
0.3577205792113471
-5.151308194548044
-0.02342768327656186
0.1536488881248625
-6.112504872515934
-0.0636068497192942
-5.807762783060797
-5.697762749673094
0.3008262623045701
-5.613286753290232
0.0007460225242562624
-0.02603736333468587
-6.3264822798188
-0.1122853649139754
-5.915235643308709
-5.842223119691275
0.1787490095541464
-6.116674119032199
0.06147915963314621
-0.1502501391800251
-6.473861907793205
-0.1349997450721797
-6.034862202532589
-5.991466177832216
0.0734302883862803
-6.59502889598254
0.09176468819096739
-0.2311761958216393
-6.582534829092058
-0.1472922106765275
-6.172821915992905
-6.144392016382915
0.1511022789262101
6.606885503037464
-6.762551043211715
0.3040004831045512
6.665869238908569
-6.850784635541902
0.4073629676058415
6.958888608981427
-7.141889668223299
7.595860154760866
-7.55779410852594
0.1655850296886925
0.1537033535162479
6.452121555223355
0.3015689647943586
6.488489326896254
0.2812403553925018
6.818585772939339
7.304340756493615
0.1838617727747071
0.1536563444858011
6.297966357651197
0.2926512651745098
6.324442786813726
0.1738632172650778
6.698170044056383
6.98551168049125
0.1274539958892844
0.151758085320621
0.2712294085073083
0.04738264935285619
0.09017017125874638
-6.766877064459898
-0.00979064315257594
-6.769160241661814
-0.01424006925599119
-6.771801354583975
-0.0168933185684107
-0.01825133745203944
-6.774023745639841
-6.87424949548807
-0.02502386725079608
-6.890845240642824
-0.04212911075312276
-6.897275029892168
-0.05278768058108185
-0.05714162664631639
-6.894514994961225
-7.155117486802914
-0.04253064288265118
-7.180603456729446
-0.04054155008908672
-7.207536750740038
-0.04919729823830526
-0.06873626163004315
-7.223902058609932
-7.283247569415789
-0.2877308725088499
-7.191503565719124
-0.08209628077363024
-7.20747608889381
0.0006524544482155448
-7.248271603660922
-0.004025690864235099
-0.01838401241405851
-6.774441547491885
-0.06176924412025597
-6.875649463873447
-0.08055480039360802
-7.227538426446857
-7.292110448523342
-0.004554061863941972
-0.01663993916749795
-6.773921117571336
-0.06207361000334954
-6.853903478440052
-0.09576349009612456
-7.216689110917875
-7.346446461251082
-0.005371806624519249
-0.0133478192498907
-6.771786504236907
-0.05951063001254242
-6.831970981476659
-0.1088364115293426
-7.201084500405257
-7.416720556869699
-0.007980263176980085
-0.009176615199810167
-6.768858354046889
-0.05292531065835304
-6.810053918683351
-0.1217585625947366
-7.168237729878046
-7.527648612183456
-0.01053158339363702
-0.0002698143369317396
6.766561280899884
-6.766484459426215
-0.004538422414888443
6.770461778108672
-6.76781506697195
-0.1127620674419982
6.93066990661087
-6.849796726401494
7.937252620444053
-7.934588187295329
-0.1558674363516629
-0.0008391431085164047
6.766753931067903
-0.013116607281068
6.778175599329525
-0.1533255841774998
7.037175190379367
7.804690670847447
-0.05160700193834783
-0.002340759772464063
6.767318356765063
-0.02454264663818206
6.791655848113447
-0.1406584401145893
7.114781707931047
7.656876195834289
-0.01369717801933651
-0.005103580510121608
-0.0382942524586708
-0.1314139813357436
-0.01106085818745367
-0.1265314626903022
-7.876181172969776
0.008468162099978582
-0.1154356152511595
-6.87581620360866
-0.0582641579763532
-6.825416142150099
-6.824811185830075
-0.1389041318260344
-7.7961998678443
0.005781917261730052
-0.1159465949887538
-6.910636344766842
-0.05829468273174065
-6.883325405028129
-6.883188711215425
-0.1508513442184591
-7.707856652928926
0.0102448800547521
-0.1164204916784707
-6.952750864469676
-0.05835713305752999
-6.941481733888398
-6.941497776706959
-0.1594364533761593
-7.597603076288554
0.007817373791239701
-0.117182945429445
-7.000225757717362
-0.05840028588352131
-6.999802255377953
-6.999842415715569
-1.152531570215819
-6.512965833713789
0.01605076021147211
-2.012434069723881
-6.139982863145362
-2.8728541866908
-6.139447469872009
-6.139447215988767
-1.151416201384246
-5.43826932937879
0.03605016381262338
-2.012455151122056
-5.279023557915516
-2.872852955792975
-5.279049594663607
-5.279049614647389
-1.152044801146026
-4.42269092944077
0.1076864430936433
-2.012455354436114
-4.418643959638805
-2.872852966954336
-4.41865202996167
-4.418652025483537
-1.152072972735986
-3.546193295819239
0.2564287406209034
-2.01245543478677
-3.558249445982994
-2.872852967056246
-3.558254445296802
-3.558254436316295
2.843686947076677
0.8895636090796784
1.954123337999884
0.8895636088795951
1.064559752339075
0.889563408645266
0.8895613729713494
0.1749995355148774
2.843686947077597
1.779127218156552
1.95412333797279
1.779127218335813
1.064559800784861
1.779126002274169
1.778991791969564
0.175070327566272
2.843686947089468
2.668690827242302
1.954123337669126
2.668690827805388
1.064559753385836
2.668690607671863
2.666945230545628
0.1757889607271531
2.843686947088585
1.954123335076115
1.064558752254351
0.1799390553885443
0.1749986496736934
0.1749986496713666
0.1749478078882227
0.175103459260477
0.1747415065939463
0.1759077441596672
0.179982469208904
0.174400830421751
0.17510345926287
0.17494780788712
0.1750810994588552
0.1750810994585773
0.1749642620958437
0.1758979958094091
0.1780981800272132
0.1763730607848722
0.1759077441575729
0.1747415065901073
0.1758979958060678
0.1749642620961617
0.1757600298218902
0.1757600298273987
0.1739124974853863
0.1791397012992434
0.1799824692468576
0.1744008304174916
0.1780981800663977
0.1763730607851516
0.1739124975306771
0.1791397013011498
0.173451457828865
0.1734514578552688
-0.07454172216303789
0.2463178714928943
-0.1361683707131713
0.2389110666096411
-0.2046717603316633
0.2430229935142212
0.2245721152036366
-0.009098578641323685
0.2540479894838322
-0.03238184294090818
0.2604148217976193
-0.06111583881204818
0.2698894111776418
0.2691631654655191
0.001928718180471467
0.2505665434641899
-0.01060429605597135
0.2711874036486971
-0.02222860621315792
0.2793577500945358
0.2806531108135061
-0.0001423073539302822
0.2489341819564218
-0.007931710203511799
0.2769178206349524
-0.01185524351773304
0.2813431624306566
0.2825272325424506
0.2812170076744586
0.007557426463007499
0.2810733711535056
0.008750941048047967
0.2796852822765274
0.005983270101691252
0.006367250881624709
0.2808577156678767
0.2808049636112066
0.006635343007422634
0.2808390306859073
0.007060457373654794
0.2805168002134276
0.005191561934338784
-0.001008870918509874
0.2870691850167221
0.2782222559690188
0.003982756138190102
0.2789738825210056
0.004733501524029515
0.2797074678822694
0.003402103855813354
-0.02500532718390791
0.3028304163585381
0.2515003373703361
0.2547080300584026
0.257134054786007
0.2312831769359305
0.2562529383342841
-0.1314579785144442
0.2287818995614836
-0.02431648731915231
0.2200053152841774
-0.004804068085260127
-0.008821011809613699
0.2183685475578125
0.2508100768061044
-0.09543011776554644
0.2330430595778152
-0.006827585371517619
0.2281829509647893
0.0001408081552772833
-0.004441185201735975
0.2247391238536087
0.2573115553718071
-0.05027944576679733
0.2427319837723813
0.007417812604257501
0.2361197797119805
0.006805538526334309
0.001489176210736298
0.2312114430529927
0.1803510915394865
0.18730081098227
0.1941862105858433
0.1967489973226479
0.2182721369340772
-0.009257767533922268
0.2196710272307502
-0.007586936204792893
0.2224105670742257
-0.005836372619425878
-0.004737859611303352
0.2250533699023862
0.2228558051166711
-0.005995414448586478
0.2224848990858889
-0.005243222131029845
0.2234286776406422
-0.004397575095472339
-0.003303051333349405
0.2247438818253138
0.2274993743790087
-0.0007398421341678896
0.2253773273159337
-0.001250055036012498
0.2246313148291282
-0.001252981692312471
-0.0007878199437857392
0.2241358300272314
0.1975761399274902
0.1982298389857469
0.1994340286645918
0.2008980887261511
0.2281494718525185
-0.004397951804014144
0.2314020814020846
-8.644869674634403e-05
0.2563201352243142
-0.1156738328910835
-0.2645078888153788
0.2349523012744968
0.2270502437663816
-0.004054721782440263
0.2303618112713303
-0.0006212809371126671
0.2481193428745239
-0.1444805461969996
-0.178220128733229
0.1670631539356877
0.224883468895703
-0.002621611539708635
0.2279811922033995
-0.001201785909536124
0.1845433864104227
-0.1086571477461334
-0.08218977129993443
0.09525306487752425
0.2004073452712597
0.2011828292944164
0.08187197475437341
0.007074870127453753
0.2585141710400561
0.1435270671520363
0.2624271926905908
0.1752983871675429
0.2674080464508339
0.1179801200825907
0.07542056833729993
0.276286758370099
0.2228552059918028
0.0938558451965964
0.2521654882768225
0.1432521768366359
0.2653570715888984
0.1005481759245487
0.06095422718404553
0.274536263592446
0.162156974021671
0.03388605999182137
0.2233274115464702
0.08001032688671561
0.2521203560408772
0.06773307549657392
0.04397718185536603
0.2647350480581912
0.05045603500286663
0.1292152763379904
0.1932556411918964
0.2333480450926981
0.2820309993113737
0.0728815654820717
0.2821237263593288
0.05176607475165451
0.2677888246582514
0.01243766681577774
-0.01753489421636811
0.2652193994641744
0.2820024441487654
0.05238984900762933
0.2838068662621394
0.04159042825543835
0.2771623381205535
0.01699502072142345
-0.01052620945061766
0.2722404262050618
0.273129865221041
0.03162761519619184
0.2805432572493038
0.02521295878451968
0.2812077152448919
0.01321710097211259
-0.003462225274924013
0.2767321878317466
0.2527662482886391
0.2699448616880118
0.2817419869862006
0.2836336546448205
0.2768076024304122
-0.008065628244136702
0.2872973958755188
0.0146542552226715
0.3147046422164302
0.09465577962598715
0.2580522139318163
0.3936539793601396
0.2785152419275534
-0.005910001543311783
0.2890832456232791
0.0142229381840977
0.3154135150072129
0.07708180075676341
0.1708635378370111
0.4018165221750744
0.2813687109776039
-0.002528778779739893
0.2909877928446458
0.01299213846524605
0.3173509326105002
0.0571474269673431
0.03282830719510199
0.4569864800657239
0.289169129638895
0.3111058764745012
0.3748372071003194
0.408820438416218
0.1819572113877595
-1.060313532901864
0.01506005902216505
-0.2097977947930262
-0.00275630358846353
-0.01838157426132149
-0.0149089360444807
-0.006372921192058748
0.1240204936396741
-0.7813603583620427
0.003979567784118946
-0.09043988905137124
-0.005230000777607886
-0.009284515343755849
-0.009343095192551063
-0.008819196872697416
0.06530762712645297
-0.3881128495088552
-0.001151715926699081
-0.02514518309491514
-0.00695469776957011
-0.003930893252140211
-0.005304476363597739
-0.009483299038899721
0.02141626241659495
-0.005195349814074855
-0.008240468330563243
-0.01049788343895038
-0.007689737965674719
-0.01103010694446661
-0.01028704298611744
-0.009938465889950558
-0.0124040553072074
-0.005742956175016911
0.0002110626885298839
-0.01140788285549444
-0.01008505705193631
-0.007968744659198099
-0.011698984530362
-0.006235021290856343
-0.01198905968414789
-0.003072819792304605
0.001628735917509616
-0.009908230000286676
-0.01061773719113082
-0.004479209051615897
-0.01134316621489899
-0.003255478653661971
-0.01094051818788919
-0.0006259521976821475
0.001756972793729737
-0.007235977961176625
-0.01215906431439746
-0.01244204615483362
-0.009603813713347814
-0.003649428242026739
-0.006406097221767611
-0.0246513814829495
0.01954307647214671
0.007453922679172678
0.05851958109292944
0.05613138679237736
0.1246624849288036
0.09430021383907709
-0.009077923330663051
-0.0187082675140686
0.007033077996037137
-0.0007662314049174251
0.04347429591546559
0.02917396140891561
0.09151340131222725
0.08590741274111041
-0.009332150814336108
-0.01051704474425789
-0.001339163468718665
-0.001766302627959446
0.02707882104035855
0.007892783664454811
0.05276484149946417
0.07192017658120721
-0.009313992624636881
-0.004932304029569304
0.009019437745308209
0.06666601848384875
0.08567639850062983
-0.05216191026722766
0.06293143073565347
0.07566697274097423
-0.03675541668568071
0.0422752620357371
0.06419462194999666
-0.04065715971712928
0.04304648113931176
-0.04015179575636799
0.04919310503294084
0.04944784260104175
0.0731126181767531
-0.03553266146413622
0.06430061645364413
-0.02926541914487998
0.05240989406703583
-0.0333901831701694
-0.02749244146260129
0.03500233222559154
0.06226553710063683
-0.02303779754698543
0.052507135725957
-0.02090483455020143
0.03533001688508042
-0.01962747566503754
-0.00905597608351822
0.01445290896872153
0.04483619609729203
0.02311762050212438
0.002625698743756205
-0.008228073671007231
-0.01034903540788122
0.001525935485153077
-0.009255794646494238
-0.001249895104081761
-0.005399169423842588
-0.003012966222616882
-0.004275243260255159
-4.428749034168789e-13
0.005537418670794846
0.01018792177469569
0.0007042883179606066
0.004117957963739854
-0.000525766550890365
-0.0009652967368808177
-0.003678824523284666
-4.891087534986127e-13
0.02591794408192333
0.0182203460455864
0.01646623647018337
0.0132921904553148
0.007586308817193549
0.008019314957002869
0.004303416001973332
-4.888242588485525e-13
0.04371111762668529
0.03385293736768561
0.01839730703504554
-6.304956556846264e-13
-0.004275243260299759
0.005399169422982832
-0.003678824523344185
0.0005257665498672182
0.004303416001588196
-0.007586308817884094
-0.01839730703558577
0.02134224930003401
-0.003012966222642487
0.009255794645675337
-0.0009652967369485482
-0.0007042883189165988
0.008019314956713895
-0.01646623647064686
-0.03385293736745761
0.0226688570568892
-0.001249895104119967
0.01034903540727145
0.00411795796370051
-0.005537418671615141
0.0132921904552706
-0.02591794408235089
-0.04371111762613011
0.02315537969599738
0.001525935485158628
0.008228073670596768
0.01018792177462955
-0.01445290896934046
0.01822034604554755
-0.03500233222598324
-0.04919310503225933
0.02351148027513882
-0.0641946219491326
-0.04015179575577343
0.04944784260058847
-0.07566697274026911
-0.04065715971624932
0.04304648113803618
-0.08567639849997956
-0.03675541668480295
0.04227526203413784
-0.05216191026611462
-0.0943002138384311
0.06293143073433857
-0.05240989406714912
-0.02749244146232367
-0.06430061645357175
-0.03339018316984915
-0.07311261817644338
-0.02926541914456106
-0.03553266146330826
-0.08590741274068027
-0.0353300168851679
-0.009055976083594604
-0.05250713572569626
-0.01962747566495681
-0.06226553710032665
-0.02090483455000548
-0.02303779754642109
-0.07192017658086493
-0.002625698743875124
-0.02311762050161155
-0.04483619609669161
-0.06666601848286917
-0.009019437744467708
-0.05276484149958517
0.004932304029869366
-0.007892783664122896
0.009313992624698782
0.001766302628174676
0.01051704474462336
0.003649428241828113
-0.02707882104003678
-0.09151340131279598
0.001339163469304901
-0.02917396140924962
0.009332150814472071
0.0007662314052586106
0.01870826751474852
0.007235977960949122
-0.04347429591558648
-0.1246624849292862
-0.007033077995814874
-0.05613138679332333
0.009077923330882087
-0.007453922679098501
0.02465138148378969
0.009908230000200602
-0.05851958109311961
-0.01954307647216783
0.006406097222060203
0.01140788285565708
0.01240405530722839
0.0002110626876742315
0.0102870429861354
-0.005742956174934581
0.007689737965568127
-0.009938465889979063
-0.01103010694445116
0.006372921191883409
0.01198905968391825
0.001628735916676539
0.01169898453026754
-0.003072819792300778
0.01008505705188471
-0.006235021290725579
-0.007968744659047981
0.008819196872607009
0.01094051818755161
0.001756972793171427
0.01134316621469049
-0.0006259521976057919
0.01061773719103948
-0.003255478653597488
-0.004479209051547623
0.009483299038809402
0.009603813712851567
0.01244204615461881
0.01215906431427894
0.01049788343887085
0.002756303588478588
-0.01490893604427536
-0.01506005902156587
-0.01838157426097498
-0.1819572113858841
-0.2097977947910853
-1.060313532897451
-0.393653979358918
0.00523000077754575
-0.009343095192661398
-0.003979567783900789
-0.009284515343552327
-0.1240204936377839
-0.09043988905103698
-0.7813603583571833
-0.4018165221711114
0.006954697769650391
-0.005304476363695116
0.001151715926838735
-0.003930893252117344
-0.06530762712613428
-0.02514518309478471
-0.3881128495064683
-0.4569864800620862
0.008240468330377981
0.005195349814028818
-0.02141626241633338
-0.4088204384132201
-0.3147046422115347
0.258052213925599
-0.2872973958736897
0.09465577962550842
-0.276807602429744
0.0146542552340696
-0.008065628226925803
-0.2652193994650788
-0.3154135150012942
0.1708635378344944
-0.2890832456221698
0.077081800756022
-0.2785152419275935
0.01422293819316733
-0.005910001533424802
-0.2722404262032454
-0.3173509326061573
0.03282830719406027
-0.2909877928437613
0.05714742696761987
-0.281368710976248
0.01299213846911673
-0.00252877877658686
-0.2767321878287865
-0.3748372070968769
-0.3111058764727396
-0.2891691296380233
-0.2836336546443866
-0.2677888246574919
-0.01753489420052434
-0.2821237263526738
0.01243766680761671
-0.282030999313063
0.05176607474029349
0.07288156551056391
-0.2762867583700213
-0.2771623381187971
-0.01052620944155302
-0.2838068662615661
0.01699502071700376
-0.282002444151583
0.04159042824571879
0.05238984902887822
-0.2745362635930161
-0.2812077152435702
-0.00346222527525375
-0.2805432572493873
0.01321710096948314
-0.2731298652264065
0.02521295877990026
0.03162761520796475
-0.2647350480590808
-0.2817419869822982
-0.269944861687043
-0.2527662482949168
-0.233348045092433
-0.2674080464512222
0.07542056832954092
-0.2624271926857417
0.1179801200843096
-0.258514171037236
0.1752983871556679
0.1435270671566135
-0.2349523012782577
-0.2653570715891194
0.0609542271793222
-0.2521654882750007
0.1005481759247877
-0.2228552059953403
0.1432521768289576
0.09385584520021406
-0.16706315393893
-0.2521203560406145
0.04397718185353816
-0.2233274115457483
0.06773307549615182
-0.1621569740252315
0.08001032688399801
0.03388605999351491
-0.09525306488065916
-0.1932556411894483
-0.1292152763369639
-0.05045603500551102
-0.007074870127535521
-0.2563201352248371
-0.2645078888157509
-0.2314020814030099
-0.115673832886444
-0.2281494718530441
-8.644869722090887e-05
-0.004397951803868094
-0.2250533699020152
-0.2481193428757268
-0.1782201287348188
-0.2303618112722889
-0.1444805461933987
-0.2270502437668197
-0.0006212809379955719
-0.004054721783530724
-0.2247438818238985
-0.1845433864134078
-0.08218977130063843
-0.2279811922040278
-0.1086571477452705
-0.2248834688957526
-0.00120178591055653
-0.002621611540741309
-0.2241358300274293
-0.08187197475333913
-0.201182829293472
-0.2004073452708921
-0.200898088726122
-0.2224105670725793
-0.004737859609116324
-0.2196710272278206
-0.00583637261843456
-0.2182721369301647
-0.007586936202558847
-0.00925776753090779
-0.2183685475537619
-0.2234286776387754
-0.003303051324904827
-0.2224848990827774
-0.004397575094904682
-0.2228558051127052
-0.005243222129281577
-0.005995414447150682
-0.2247391238490652
-0.2246313148279145
-0.0007878199440606304
-0.2253773273129866
-0.001252981692570376
-0.2274993743744042
-0.001250055035691644
-0.0007398421337076466
-0.2312114430482643
-0.1994340286631906
-0.1982298389840038