/*--------------------------------*- C++ -*----------------------------------*\
  =========                 |
  \\      /  F ield         | OpenFOAM: The Open Source CFD Toolbox
   \\    /   O peration     | Website:  https://openfoam.org
    \\  /    A nd           | Version:  11
     \\/     M anipulation  |
\*---------------------------------------------------------------------------*/
FoamFile
{
    format      ascii;
    class       volVectorField;
    location    "0.2995";
    object      U;
}
// * * * * * * * * * * * * * * * * * * * * * * * * * * * * * * * * * * * * * //

dimensions      [0 1 -1 0 0 0 0];

internalField   nonuniform List<vector> 
880
(
(25 6.617833509773944e-16 0)
(24.99999999939601 2.280428932651367e-10 0)
(24.99999978592879 -3.363350556802027e-07 0)
(24.99969398245285 4.542646571571532e-05 0)
(24.99999999999999 -1.205983243807774e-14 0)
(25.00000000133885 -1.191569798066677e-09 0)
(24.99999878310361 -9.332593863799582e-07 0)
(24.99895629947161 -0.001341603418025768 0)
(24.99999999999997 1.687194149729288e-13 0)
(24.99999999605854 4.445554146239944e-09 0)
(24.9999935412822 -1.70488499300726e-05 0)
(24.99800619246739 -0.005056866195769003 0)
(24.99999999999898 8.785203938795535e-12 0)
(25.00000004236341 1.52710511007072e-08 0)
(24.99994005837537 3.088034766545162e-05 0)
(24.95257203463771 -0.09616890127811258 0)
(25.00000000011527 -1.309565780226602e-10 0)
(24.99999999924867 7.565609631369762e-10 0)
(24.99999995113302 1.704510629948393e-08 0)
(25.0000064817641 -2.453215400877769e-06 0)
(25.00000048900732 -2.228098073487993e-07 0)
(24.9999996262906 1.750320374637294e-07 0)
(24.9999960280268 2.986022495814404e-06 0)
(24.99972799085733 0.0003271780651499764 0)
(25.00029641435691 -0.000259474634961104 0)
(24.99954710608663 0.0001519921325616106 0)
(24.98708138088418 0.01557152283811968 0)
(25.01687780951068 -0.01569952688231914 0)
(24.65232200313507 -0.2564276055497358 0)
(23.90534464479476 0.14202871093659 0)
(23.4465912727982 0.7566057452594366 0)
(23.29132161231964 1.160581514161603 0)
(25.0000153455492 2.271868558961767e-05 0)
(24.99992840829494 9.913775797442178e-05 0)
(24.99988182879384 -1.31097504573896e-05 0)
(24.99977246191963 -0.0004516382408591983 0)
(25.00161363169577 -0.0007997855379082236 0)
(24.99991727321234 -0.0006299569811557658 0)
(24.99776775054821 0.0008462844181688946 0)
(24.99674093522396 0.001858328234118454 0)
(24.95214375815954 -0.01794799611637504 0)
(24.89812061606182 0.01551639492687237 0)
(24.83555741475093 0.08333395252624339 0)
(24.77629523451333 0.150469397139204 0)
(23.13664121578746 1.615675479941686 0)
(23.0524983484751 1.985808015026812 0)
(22.83645730466489 2.498146588601776 0)
(22.79430815470715 2.736617621998698 0)
(23.12307850189176 3.262738733386792 0)
(23.73210174190893 3.28687121881087 0)
(24.28431170055363 3.16990097333171 0)
(24.70805617912784 2.959689531143423 0)
(24.62065343824979 0.3066598887612155 0)
(24.47186630440059 0.557113173101944 0)
(24.4791097154193 0.820142545461665 0)
(24.58057994440576 1.02136152776012 0)
(24.98934837519784 0.006623019196508865 0)
(24.96872425085234 0.01927327101073565 0)
(24.93825930900357 0.05177016967319086 0)
(24.90663869775496 0.1090534291601821 0)
(24.9992749882577 -0.0009442174959191961 0)
(24.9973238176831 -0.002524075820216222 0)
(24.99284859218315 -0.006518166860724661 0)
(24.98616785223713 -0.01374563062684149 0)
(24.9796678962335 -0.02322663516013091 0)
(24.97377948251329 -0.03104550733505261 0)
(24.96576891247361 -0.03184527311803714 0)
(24.96187763282294 -0.03002158231856537 0)
(24.88324457880372 0.1879171962047574 0)
(24.89486723830408 0.2630723016167507 0)
(24.93729190051075 0.313073003666667 0)
(25.00197041475782 0.3289890195214459 0)
(24.72833392184959 1.121708710895732 0)
(24.87897189549648 1.14621185764275 0)
(25.03745261580298 1.106713866004985 0)
(25.17739594387493 1.020890736476211 0)
(24.97998250773999 2.685358466585831 0)
(25.16976630645717 2.355609972928546 0)
(25.32707082220109 2.03439393968413 0)
(25.41148938695699 1.722324287244532 0)
(25.5257266113854 1.438492662625052 0)
(25.27862071286077 0.9242118466512119 0)
(25.05686796609395 0.3124202433982524 0)
(24.9601800226385 -0.02578200531992314 0)
(25.5450235507124 1.0767022022059 0)
(25.36841573536517 0.8030703198308589 0)
(25.0883437578183 0.2831637786977556 0)
(24.9615274058322 -0.02119758818602168 0)
(25.66563237009606 0.8161940351913899 0)
(25.38942613809896 0.7228605352611496 0)
(25.10483216959038 0.2375020708385889 0)
(24.96523541458042 -0.01659847855052092 0)
(24.68811515745894 1.182640522768207 0)
(25.4100833976584 0.6380956140941541 0)
(25.12320997284738 0.1720703392448312 0)
(24.97360232234427 -0.01292183337643154 0)
(24.97747856126287 -0.0054493987529842 0)
(25.10189184015141 0.09353828564856126 0)
(25.1916346424779 0.4995155093660296 0)
(20.2000245722253 2.213378388175116 0)
(24.98683763598623 -0.003922199832086744 0)
(25.05951837606474 0.04596186741524293 0)
(24.56644076948105 0.5989650886976601 0)
(16.36300608930921 3.793145587874537 0)
(24.99083552515185 -0.003641596812884936 0)
(25.008082082317 0.04546355339794345 0)
(23.6827873946776 1.021717342692827 0)
(15.42912306324928 5.528446970684223 0)
(24.99085814326502 -0.006516185742436113 0)
(24.94230258487615 0.08498485419630632 0)
(22.68076992083973 1.813858720131642 0)
(15.1060909905836 7.021517539117906 0)
(14.818831785941 8.264767443795957 0)
(21.66467809461254 2.897258253912911 0)
(24.84728681337166 0.1783052117027915 0)
(24.98232222404246 -0.01407568118048972 0)
(14.68709597758341 9.315132643184254 0)
(20.79204020431036 4.169792271974345 0)
(24.64359459363563 0.4237866069595764 0)
(24.96322316588936 -0.03340080096310578 0)
(14.76967935496396 10.14144716471579 0)
(19.85135007518917 5.70648846972117 0)
(24.38388026768716 0.8429487361230606 0)
(24.91862226376828 -0.06505609490292168 0)
(15.13587975914396 10.65504012331545 0)
(19.3685363652454 7.03268488310258 0)
(23.87036191711725 1.679084679096472 0)
(24.8426811770616 -0.1165334228065232 0)
(24.70012098385008 -0.1748466047936971 0)
(23.53010472294724 2.648591566355175 0)
(19.47396720375233 8.260240481785667 0)
(16.01724250582973 10.97146238083894 0)
(24.52465791579943 -0.2096135388943601 0)
(23.18682307838167 3.832662249519393 0)
(20.62108984551003 8.22543685860024 0)
(17.78302381226604 10.78428413275212 0)
(24.53158065569819 -0.1934223746308571 0)
(24.04977009924401 3.972960660096649 0)
(22.42949557035137 7.809292118481197 0)
(20.00440825165632 10.11550933413758 0)
(24.48845507751872 -0.3902402821495469 0)
(24.65999220056786 3.534419284169957 0)
(24.27422921921265 6.564148661848214 0)
(22.87847116032461 8.428799362822049 0)
(24.42498662709438 -0.2725896606981928 0)
(25.27919174109949 3.201654401585577 0)
(25.9086235381134 5.109405145431118 0)
(26.44453252698261 6.064903117558813 0)
(24.7175908398364 0.07705920042913117 0)
(26.00656596314639 2.424172138505683 0)
(27.328583161207 3.524917872093245 0)
(29.41608121584981 2.784789642846222 0)
(24.93088003815686 0.03562457254284865 0)
(26.25743332448356 1.506413771218342 0)
(28.24922118254322 1.946968890893213 0)
(30.79742832449714 -0.2775608667593483 0)
(25.07207376777541 -0.01298068953013199 0)
(26.16472070441332 0.7972197133616098 0)
(28.71004627357463 0.695471234715062 0)
(33.82002021023975 -4.137408421127173 0)
(30.22766559052377 -5.39416306905023 0)
(28.05558065991012 -0.2227591693728025 0)
(25.89178813473015 0.4205508516057863 0)
(25.11720957473706 -0.04425648932620167 0)
(27.74609734066365 -3.895055838287448 0)
(27.40798963318635 -0.8820103853435528 0)
(25.67802767384985 0.1227296693215676 0)
(25.11750540012295 -0.0486625987982102 0)
(24.47342918312599 -2.708690142856581 0)
(26.85174251746973 -1.447345860170828 0)
(25.51479117078045 -0.1511219089480974 0)
(25.08578310275186 -0.03442761279872084 0)
(22.17561954195843 -2.06093220572777 0)
(26.07705112270786 -2.203398725766834 0)
(25.28476947828682 -0.4171557116781512 0)
(25.04296506524043 -0.02432811412685694 0)
(18.67370114002274 -3.723185009748503 0)
(24.73972287751609 -2.569332155816764 0)
(24.98686606419107 -0.3864352768927226 0)
(25.00992491223032 -0.01926381387484957 0)
(16.91749104312641 -6.372894683817242 0)
(23.89513989634344 -2.497526120833462 0)
(24.8589668106663 -0.2573440179597708 0)
(24.99610337854141 -0.009777138165854685 0)
(16.87053428874657 -6.047243843514397 0)
(23.51197334460783 -1.908131809438867 0)
(24.85185105736248 -0.1494350818547626 0)
(24.99563609437662 -0.004417215798697517 0)
(18.32711832438458 -5.466570101430075 0)
(23.86475199304816 -1.446171574774238 0)
(24.92573092016039 -0.1119268603342355 0)
(24.99801547039187 -0.002152313732787314 0)
(18.0636804547614 0.3825304317675476 0)
(23.190501611859 0.09108012723532326 0)
(24.76056430530041 0.001291608198730183 0)
(24.98747745173906 -0.0001883407222591212 0)
(18.16164845856993 0.4855006423131233 0)
(23.07972704518145 0.2598457045604876 0)
(24.74152813608537 0.009068174391016979 0)
(24.98740894024057 -0.0005518084634521091 0)
(17.76596978572113 0.923517750051016 0)
(22.93205198189983 0.2390657056341997 0)
(24.71848145395597 0.002108330609952002 0)
(24.98736527590625 -0.0008684932233894492 0)
(17.69619195797002 0.8291019711983133 0)
(22.91799362222352 0.06240787199254548 0)
(24.71205655744357 -0.01332299301721536 0)
(24.9878344499573 -0.001143573704539432 0)
(18.3271183242964 5.466570101566084 0)
(23.86475199303615 1.446171574821566 0)
(24.92573092003372 0.1119268603359306 0)
(24.9980154704572 0.002152314152728821 0)
(16.87053428869395 6.047243843611043 0)
(23.51197334462434 1.908131809387164 0)
(24.85185105746903 0.1494350823323667 0)
(24.99563609447667 0.004417215659914311 0)
(16.91749104314723 6.372894683933054 0)
(23.8951398963812 2.497526120758128 0)
(24.85896681067521 0.2573440182051707 0)
(24.99610337854533 0.009777138487955936 0)
(18.67370114004468 3.723185009855204 0)
(24.73972287736308 2.569332155721777 0)
(24.98686606432939 0.3864352767816565 0)
(25.00992491232692 0.01926381351947453 0)
(25.11720957434997 0.0442564896037367 0)
(25.8917881344571 -0.4205508515334453 0)
(28.05558065997769 0.2227591695982416 0)
(30.22766559082931 5.394163069184902 0)
(25.11750539983668 0.04866259913970655 0)
(25.67802767374612 -0.1227296693783258 0)
(27.40798963312589 0.8820103852832626 0)
(27.7460973408514 3.895055838433687 0)
(25.08578310287013 0.03442761300795235 0)
(25.51479117068719 0.151121908506131 0)
(26.85174251751142 1.447345860208261 0)
(24.47342918307115 2.708690142837366 0)
(25.04296506520704 0.02432811414768507 0)
(25.28476947842471 0.4171557114764377 0)
(26.07705112269055 2.20339872544324 0)
(22.17561954221491 2.060932205684348 0)
(33.82002021015791 4.137408421159749 0)
(28.71004627371371 -0.6954712345440512 0)
(26.1647207043396 -0.797219712973481 0)
(25.07207376798005 0.01298069006965326 0)
(30.79742832435955 0.2775608665658939 0)
(28.24922118266995 -1.946968890753826 0)
(26.25743332434494 -1.506413770958552 0)
(24.93088003867755 -0.0356245723698914 0)
(29.41608121572072 -2.784789642737731 0)
(27.32858316135253 -3.524917872313159 0)
(26.00656596319255 -2.424172138341774 0)
(24.71759084160309 -0.07705920268309172 0)
(26.44453252693443 -6.064903117539661 0)
(25.90862353825013 -5.109405145763018 0)
(25.27919174146891 -3.201654401521819 0)
(24.42498662536902 0.2725896603699346 0)
(24.70012098383316 0.1748466048948721 0)
(23.53010472274353 -2.64859156651355 0)
(19.47396720362973 -8.260240481962308 0)
(16.01724250587751 -10.97146238075793 0)
(24.52465791606833 0.2096135388436402 0)
(23.18682307843159 -3.832662250073033 0)
(20.62108984544654 -8.225436858601174 0)
(17.7830238121483 -10.78428413273454 0)
(24.53158065685638 0.1934223744311313 0)
(24.04977009883527 -3.97296065954892 0)
(22.42949557041793 -7.809292118400347 0)
(20.0044082516115 -10.11550933415703 0)
(24.48845507481574 0.3902402841508872 0)
(24.65999220068543 -3.534419283793699 0)
(24.27422921930014 -6.564148662006493 0)
(22.87847116028209 -8.428799362878175 0)
(15.13587975921172 -10.65504012327512 0)
(19.36853636504205 -7.032684883537877 0)
(23.8703619165879 -1.679084679691926 0)
(24.84268117706986 0.1165334228872829 0)
(14.76967935488452 -10.14144716475361 0)
(19.85135007499671 -5.706488469768799 0)
(24.38388026740995 -0.8429487362945211 0)
(24.91862226389767 0.0650560949542023 0)
(14.68709597733031 -9.315132643208813 0)
(20.79204020422958 -4.169792271830452 0)
(24.64359459343107 -0.4237866068226339 0)
(24.96322316610634 0.0334008009700342 0)
(14.81883178568262 -8.264767443910651 0)
(21.66467809477238 -2.897258254093804 0)
(24.84728681369084 -0.1783052117176618 0)
(24.98232222429359 0.01407568117184801 0)
(24.97747856068597 0.005449398464943593 0)
(25.10189184044672 -0.09353828505959819 0)
(25.19163464261817 -0.4995155093196504 0)
(20.20002457251501 -2.213378388267865 0)
(24.98683763578715 0.003922199711274474 0)
(25.05951837565088 -0.04596186818012279 0)
(24.56644076932178 -0.5989650888333471 0)
(16.36300608901764 -3.793145587821151 0)
(24.99083552498539 0.003641596714887277 0)
(25.00808208296695 -0.04546355337307688 0)
(23.68278739506069 -1.021717342515628 0)
(15.42912306323567 -5.528446970512863 0)
(24.9908581433691 0.006516185760609432 0)
(24.94230258479445 -0.08498485426538106 0)
(22.68076992054303 -1.813858720317355 0)
(15.10609099089342 -7.02151753910753 0)
(24.97360232262041 0.01292183392163209 0)
(24.96523541455918 0.01659847864935405 0)
(24.96152740592059 0.02119758803315478 0)
(24.96018002275865 0.02578200539560458 0)
(25.12320997271064 -0.1720703395691508 0)
(25.10483216962691 -0.2375020706935371 0)
(25.08834375781389 -0.2831637789399344 0)
(25.05686796607417 -0.3124202436635524 0)
(25.41008339770101 -0.6380956142502265 0)
(25.38942613807606 -0.7228605353054028 0)
(25.36841573537268 -0.8030703198873953 0)
(25.27862071297296 -0.9242118465904877 0)
(24.68811515747909 -1.18264052275469 0)
(25.66563237009431 -0.816194035152793 0)
(25.54502355064006 -1.076702202175173 0)
(25.52572661127792 -1.438492662577201 0)
(24.961877632854 0.03002158237341623 0)
(25.00197041492586 -0.3289890196674087 0)
(25.17739594387381 -1.020890736545007 0)
(25.41148938688499 -1.722324287199835 0)
(24.96576891230114 0.03184527328025114 0)
(24.93729190071742 -0.3130730040086544 0)
(25.03745261584603 -1.106713866077983 0)
(25.32707082217014 -2.034393939637076 0)
(24.97377948225202 0.03104550767077869 0)
(24.89486723852733 -0.2630723020686426 0)
(24.87897189550547 -1.146211857696426 0)
(25.16976630641683 -2.355609972842496 0)
(24.97966789632218 0.02322663599779377 0)
(24.88324457884117 -0.1879171966027292 0)
(24.72833392163565 -1.121708710967655 0)
(24.97998250773354 -2.685358466494269 0)
(24.99927498904553 0.0009442167925151172 0)
(24.98934837589478 -0.006623019143061059 0)
(24.62065343830384 -0.3066598887704413 0)
(23.12307850165422 -3.26273873332139 0)
(24.99732381653089 0.002524073042930868 0)
(24.96872425119187 -0.01927327040166306 0)
(24.47186630449141 -0.5571131731068516 0)
(23.73210174183731 -3.286871218775443 0)
(24.99284859137357 0.006518165601310135 0)
(24.93825930883478 -0.05177016906057419 0)
(24.47910971530585 -0.8201425453469641 0)
(24.28431170054471 -3.169900973247537 0)
(24.98616785233068 0.01374563134861109 0)
(24.90663869757626 -0.1090534290010274 0)
(24.58057994412906 -1.021361527787721 0)
(24.70805617911018 -2.959689531064484 0)
(22.7943081545892 -2.736617622100416 0)
(24.77629523442895 -0.1504693971214882 0)
(24.99674093615113 -0.001858328449995493 0)
(24.99977246598616 0.0004516399924388559 0)
(22.83645730457317 -2.498146588583859 0)
(24.83555741445602 -0.08333395276227802 0)
(24.99776775086091 -0.0008462857047146 0)
(24.99988182522052 1.311808440275361e-05 0)
(23.05249834874196 -1.98580801499746 0)
(24.89812061624648 -0.01551639470686193 0)
(24.99991727217857 0.0006299586253054934 0)
(24.99992840924467 -9.914573899927589e-05 0)
(23.13664121558091 -1.615675480518866 0)
(24.95214375844498 0.01794799628572407 0)
(25.00161363121714 0.0007997856644370381 0)
(25.00001534553731 -2.271862901923531e-05 0)
(23.29132161244803 -1.160581514170542 0)
(25.01687780958613 0.01569952710212245 0)
(24.99972799081476 -0.0003271781895035289 0)
(25.00000648170616 2.453262484312008e-06 0)
(23.44659127263394 -0.7566057455683698 0)
(24.98708138110516 -0.01557152288669645 0)
(24.99999602803852 -2.986012539418554e-06 0)
(24.99999995113848 -1.704763276634975e-08 0)
(23.90534464476921 -0.1420287110058313 0)
(24.99954710610643 -0.0001519921630459341 0)
(24.99999962628193 -1.750254067038363e-07 0)
(24.99999999925299 -7.580027824805397e-10 0)
(24.65232200348935 0.2564276060695949 0)
(25.00029641440725 0.0002594746298638073 0)
(25.00000048900622 2.228193133170085e-07 0)
(25.00000000011494 1.314407050758034e-10 0)
(25 -3.32943880892542e-15 0)
(24.99999999937836 -2.317721724687506e-10 0)
(24.99999978588808 3.363459429876865e-07 0)
(24.99969398244804 -4.542651156971761e-05 0)
(24.99999999999999 1.508098513837734e-14 0)
(25.00000000136165 1.183972487729443e-09 0)
(24.99999878308443 9.332302151188319e-07 0)
(24.99895629951683 0.001341603302425012 0)
(25 -2.541343048693203e-13 0)
(24.99999999606983 -4.442340558843159e-09 0)
(24.99999354131435 1.704881195008088e-05 0)
(24.99800619239816 0.005056866386887999 0)
(25.00000000000188 -8.957564205497997e-12 0)
(25.00000004238456 -1.527347159617996e-08 0)
(24.99994005851025 -3.088035668734387e-05 0)
(24.95257203524174 0.09616890035552104 0)
(24.99929125905767 -7.145965697244754e-11 0)
(24.99767179833236 0.003034963475802972 0)
(24.9903646045184 0.02569075517483072 0)
(24.90560798950214 0.1479184992822376 0)
(24.99767179830518 -0.003034963626879182 0)
(24.99523067857504 -6.532526379118371e-11 0)
(24.97784872951441 0.0252602774314378 0)
(24.74755440953928 0.08890902661936508 0)
(24.99036460466222 -0.02569075514027701 0)
(24.97784872968874 -0.02526027726048048 0)
(24.85266637070391 2.997350415354624e-10 0)
(23.70255787422693 -0.1512047703228229 0)
(24.90560798902028 -0.1479185006290056 0)
(24.7475544095032 -0.08890902781799709 0)
(23.70255787395132 0.1512047687022588 0)
(20.70205921884115 -1.352208016281418e-09 0)
(18.38144461726958 2.369331201155663 0)
(19.45612002933943 3.004741079266832 0)
(22.01047260222603 2.252681028268451 0)
(23.53758121406272 0.9668988017436285 0)
(19.37945698723886 4.487311805580495 0)
(19.46797033707904 4.479289318955637 0)
(20.32600340822585 4.25305552317379 0)
(21.57666372559819 3.582349997528704 0)
(18.61269138952895 5.069157829969157 0)
(20.09537150360805 4.903216984209224 0)
(20.76710326985224 5.022895574209667 0)
(21.39536576784688 4.72614140426928 0)
(18.56354871795907 5.761985158709914 0)
(20.61681485767704 4.994863077478469 0)
(21.07968166170232 5.14925598961107 0)
(21.3563726962455 4.973642020423883 0)
(21.51524094823418 5.107540799372351 0)
(21.69473387601698 5.14846370475954 0)
(21.79499693833446 5.284766646611581 0)
(21.81968727186406 5.293825142122526 0)
(21.3365741375346 5.213335450914871 0)
(21.58754414441951 5.259984019235455 0)
(21.80470991162437 5.346754013958241 0)
(22.270441738821 5.558941010502103 0)
(21.05892346900459 5.087452836072393 0)
(21.40121652000222 5.18119870965499 0)
(21.6708872140136 5.299288288343869 0)
(23.44916429682581 5.896545398612719 0)
(18.98276080165126 5.93586103375784 0)
(19.49486452649037 6.089517180767999 0)
(19.86552057851299 6.02550544400077 0)
(24.81045506491598 7.182674636428223 0)
(24.24640755293638 3.676402861042161 0)
(25.87248602127094 1.434937138300911 0)
(25.74193684047024 0.3454818540510506 0)
(25.59059795395696 0.3526999750359772 0)
(25.5991954640159 2.813231766932671 0)
(27.50323325347363 0.4245081524607561 0)
(27.17719504959286 0.01748237497963385 0)
(26.79072186826022 0.2066342835729821 0)
(28.23069074262976 2.135818113794202 0)
(29.01120805765594 -0.03103552044331023 0)
(27.992314676685 -0.1109271975012553 0)
(27.4729482611443 0.03106252336319269 0)
(21.45951226717901 1.214819995500731 0)
(22.20058037115937 0.5360027458774265 0)
(22.63013811481461 0.1291668250567273 0)
(23.17064854759482 -0.09430330508148665 0)
(25.55402860743416 0.3334818273054458 0)
(25.55151664566583 0.275270967011598 0)
(25.53402780055233 0.2026907392765098 0)
(25.47992916428562 0.1559087428774784 0)
(26.44676964877572 0.2646396873761448 0)
(26.1902872354241 0.2260832828241197 0)
(25.94189092048456 0.1997100433347655 0)
(25.69389356261861 0.1211012826367557 0)
(27.01296854843486 0.100291127485802 0)
(26.5698761070608 0.1035143830768184 0)
(26.16168964177398 0.09346821515786712 0)
(25.77371022879942 0.03456844736468923 0)
(23.41380708675522 -0.1892599742242815 0)
(23.37897828766647 -0.2844264691643925 0)
(23.23175883950287 -0.3985848613509247 0)
(23.12228099693248 -0.3110935362882565 0)
(25.5034773368612 0.1364536258306203 0)
(25.53781375555842 -0.0009218068901017432 0)
(24.78646366222389 1.934987003472391 0)
(18.47162582464773 4.877229431893057 0)
(25.56012448374268 0.1300769012844267 0)
(25.61301098783065 0.01576926466525007 0)
(23.12269421879964 3.313548534994724 0)
(13.08518363563883 3.966744835528642 0)
(25.48199461935873 0.09523845763652848 0)
(25.49255312566598 0.05791821663215294 0)
(19.14127423909294 3.287623343685628 0)
(7.172205303243707 2.368788252145416 0)
(22.74293474922197 -0.2793529858189724 0)
(22.59644302445816 -0.2938259592797542 0)
(12.62348156809931 -0.616443827367553 0)
(1.752595190488941 0.5774037958660124 0)
(12.88849587272203 6.531441888988216 0)
(12.54779879603728 6.253203226197213 0)
(12.86429598475825 7.081993140507042 0)
(13.55679844129327 8.01723830990206 0)
(10.29993478563384 6.178864424184133 0)
(11.8168034588927 6.103593957582754 0)
(12.60817412542589 7.133003877578438 0)
(13.42291888811693 8.137842344236836 0)
(7.025252055459156 3.063453034295266 0)
(9.735545357170016 4.933961725832671 0)
(11.64183680025362 6.766386244325498 0)
(12.85937305754581 8.092558092437473 0)
(1.73589730627673 2.288354113637399 0)
(4.711691003714883 3.432407133799878 0)
(7.764392455929445 4.929791241830786 0)
(10.70893979958345 5.783169274171608 0)
(14.23510882775559 8.505529348171628 0)
(14.23998974470167 8.780936723277247 0)
(13.97776694115348 9.213052254608119 0)
(14.4426159853222 9.923709301394261 0)
(14.10379595056248 8.687033931120892 0)
(14.29450305622228 8.944720795453208 0)
(14.32747684683738 9.289874965680042 0)
(14.76865765175147 9.973974078300804 0)
(13.59308753193283 8.74863051462231 0)
(14.04438956447027 9.04510062337242 0)
(14.39443476264254 9.398604258102196 0)
(14.96021983637176 10.13545363168667 0)
(12.32060718871327 6.667541639838768 0)
(13.23663193173823 7.706559405821935 0)
(14.02476543816697 8.926146978660102 0)
(15.08804265404055 9.914200157511122 0)
(15.58492861557485 10.72768036248588 0)
(17.28670354768263 11.5495138400537 0)
(19.23446997240011 11.6663141672675 0)
(22.09819180150206 10.27562855077489 0)
(15.66219895259001 10.65810772493861 0)
(17.11284144089941 11.37247456485446 0)
(19.00821391583226 11.58495999887552 0)
(22.27425481757547 11.9707687976241 0)
(15.72632387917771 10.71173257427462 0)
(16.92106802389488 11.24448402712345 0)
(19.21143426300958 12.1298093025492 0)
(27.99384100816833 17.07740822469573 0)
(15.87772695269785 10.46253501920578 0)
(17.01033880935065 10.93386163177471 0)
(19.93570788796525 12.4030544460587 0)
(38.29585217796544 22.94484860445799 0)
(27.72973679244219 5.96347783815118 0)
(30.32368013797205 -2.108019509807543 0)
(8.988213694102724 0.8233516518762446 0)
(7.078217222837957 17.35866921249532 0)
(28.2983587360337 5.762414705700617 0)
(25.1712721530719 -1.879675096853076 0)
(6.490514313266861 7.264648022241888 0)
(5.590816687784772 17.33812785105123 0)
(27.44335843744121 3.833795950062732 0)
(17.64972166167029 -5.754685392760887 0)
(2.394373107539846 10.20110809552958 0)
(3.030011207120676 16.98725778711657 0)
(16.91801265789452 -6.169972161699032 0)
(6.724077318367433 -3.77420455792769 0)
(0.9980771186289323 12.6787705015162 0)
(1.833420090131157 17.03313388853646 0)
(6.699647275026203 20.9720031590387 0)
(4.325493192133415 21.2076435096009 0)
(1.022028105460203 17.24760484512572 0)
(-1.256159288089818 12.01215779430821 0)
(5.353420575208148 18.21854598981232 0)
(3.052182418743371 17.14188339288265 0)
(0.9584864799321413 13.67442656079611 0)
(-0.6123214716695839 7.818270362811203 0)
(2.785653646500654 16.75538109966957 0)
(1.620756804932244 14.37421634913539 0)
(0.5459873568526761 10.55558458252922 0)
(-0.3480246872667307 4.681128637063773 0)
(1.263799978246832 16.82338115153517 0)
(0.1841457845512071 13.88169360034414 0)
(-0.8768451450376201 9.300452553888586 0)
(-0.7177314013777435 2.681795446966675 0)
(-3.713745073078236 3.679665467745257 0)
(2.147809385637673 -1.363284600706415 0)
(6.399371263670379 -5.565189062075207 0)
(10.6433535983468 -8.559844676891926 0)
(-3.734913913791629 3.326716348480176 0)
(-1.19560974396076 -0.4563814740553301 0)
(4.326718631300402 -3.644428614724901 0)
(9.930770190826065 -7.101453248824314 0)
(-3.233168654736657 2.019939486113833 0)
(-2.864389972567379 0.09585218410754279 0)
(2.011532691722735 -2.099809516630345 0)
(8.169137357405019 -5.456777392281236 0)
(-1.895305313286379 1.415713429448585 0)
(-2.860860582841634 1.072574610135206 0)
(1.921524228757703 0.6061004335971942 0)
(8.470885308634836 -2.499211930013828 0)
(10.82353396134064 -10.21917525669794 0)
(9.94934901553731 -12.63016479495695 0)
(9.600933146251775 -10.96710391355801 0)
(8.966965656059301 -8.619878216008125 0)
(10.87112608095355 -10.52497042294073 0)
(11.89425883952836 -14.99575839127686 0)
(11.74672369763283 -12.04039014953487 0)
(9.484396543996246 -8.244676944222382 0)
(9.458710537171951 -11.15986970797691 0)
(11.36133443168247 -14.83515248360943 0)
(9.739390044590666 -9.244366353668198 0)
(5.878850172345146 -4.34052454000285 0)
(10.09806441621782 -9.216469572847128 0)
(10.79250651369183 -9.109931825846266 0)
(7.474579083987467 -1.305392020688715 0)
(2.423730189966597 1.014695647204966 0)
(0.1537921331049641 1.696149928973474 0)
(-0.5833175862252153 1.745591332734644 0)
(-1.072340267193356 1.250680871655272 0)
(-1.302928635927667 0.4117316816907377 0)
(1.95022553784667 -1.994714856435217 0)
(-0.07984114091156905 -0.6981847472899488 0)
(-1.058265928173904 0.1340607830929487 0)
(-1.526792090401469 0.000681865105900255 0)
(6.268963585815484 -5.865069334056075 0)
(3.198303402678745 -4.028971581462311 0)
(0.7647747440391054 -2.237124071578769 0)
(-0.3520019353628619 -0.8159488720183675 0)
(7.791179334809554 -7.268660257681635 0)
(6.431678217229242 -6.405073535561677 0)
(4.917184537562689 -4.404950250124927 0)
(3.903949909170355 -1.557109976610044 0)
(-1.302928635924108 -0.4117316815485388 0)
(-1.52679209041121 -0.0006818649443832351 0)
(-0.3520019354112214 0.8159488721540491 0)
(3.903949908964169 1.55710997674645 0)
(-1.072340267214705 -1.250680871516335 0)
(-1.058265928192667 -0.1340607829266721 0)
(0.7647747440232577 2.237124071686246 0)
(4.917184537381865 4.404950250153063 0)
(-0.5833175862602319 -1.745591332617493 0)
(-0.07984114091130895 0.6981847474356225 0)
(3.198303402696515 4.028971581528749 0)
(6.431678217178272 6.405073535552957 0)
(0.1537921330980026 -1.696149928895397 0)
(1.950225537847573 1.994714856572477 0)
(6.268963585749172 5.86506933414376 0)
(7.791179334812466 7.268660257607741 0)
(8.966965655940241 8.619878215882085 0)
(9.600933145961157 10.96710391326617 0)
(9.949349015242191 12.6301647947428 0)
(10.82353396113632 10.21917525670199 0)
(9.484396543790448 8.244676944275652 0)
(11.74672369732205 12.04039014939208 0)
(11.89425883922877 14.9957583911416 0)
(10.87112608075398 10.52497042296586 0)
(5.878850172294325 4.340524540082042 0)
(9.739390044417025 9.2443663535522 0)
(11.36133443142653 14.83515248343866 0)
(9.458710536948772 11.15986970797369 0)
(2.423730190030893 -1.014695647161913 0)
(7.474579084105055 1.305392020635926 0)
(10.79250651366541 9.109931825555568 0)
(10.0980644160454 9.216469572698156 0)
(8.470885308358651 2.499211929964387 0)
(1.921524228578916 -0.6061004336672353 0)
(-2.860860582954965 -1.072574610182324 0)
(-1.89530531327313 -1.415713429451708 0)
(8.169137357216131 5.456777392300959 0)
(2.011532691549533 2.099809516632607 0)
(-2.864389972705014 -0.0958521841671813 0)
(-3.233168654723756 -2.01993948621808 0)
(9.930770190650275 7.101453248891943 0)
(4.326718631181579 3.64442861479836 0)
(-1.195609744076012 0.4563814740543383 0)
(-3.734913913811425 -3.326716348703489 0)
(10.64335359817037 8.559844676946108 0)
(6.39937126361253 5.56518906214745 0)
(2.147809385657562 1.363284600693879 0)
(-3.713745073148673 -3.679665467959973 0)
(-1.256159287852585 -12.01215779499541 0)
(1.022028105493365 -17.24760484523649 0)
(4.325493192107632 -21.20764350997606 0)
(6.699647274772837 -20.9720031591383 0)
(-0.6123214715242343 -7.818270363032109 0)
(0.9584864799322809 -13.67442656076664 0)
(3.052182418685359 -17.14188339285092 0)
(5.353420575083938 -18.21854598974536 0)
(-0.3480246871112282 -4.681128637064006 0)
(0.5459873568560273 -10.55558458239011 0)
(1.620756804908082 -14.37421634895887 0)
(2.785653646458198 -16.75538109954932 0)
(-0.7177314013576395 -2.681795446865588 0)
(-0.8768451450302287 -9.300452553691882 0)
(0.1841457845407567 -13.88169360013345 0)
(1.263799978184039 -16.82338115139684 0)
(7.078217222887294 -17.35866921272392 0)
(8.988213693868518 -0.8233516517831591 0)
(30.32368013781121 2.108019509912175 0)
(27.72973679224111 -5.963477838103771 0)
(5.590816687838745 -17.33812785106995 0)
(6.490514313196389 -7.264648022157638 0)
(25.17127215298502 1.87967509682761 0)
(28.29835873592964 -5.76241470571772 0)
(3.030011207226285 -16.98725778703209 0)
(2.394373107540536 -10.20110809569696 0)
(17.64972166164966 5.754685392776505 0)
(27.44335843740304 -3.833795949922558 0)
(1.833420090321062 -17.03313388847686 0)
(0.9980771187418878 -12.67877050166594 0)
(6.724077318375286 3.774204557771006 0)
(16.91801265782078 6.169972161661831 0)
(22.09819180138761 -10.27562855079266 0)
(19.23446997227075 -11.66631416717816 0)
(17.2867035476309 -11.54951383986877 0)
(15.58492861556418 -10.72768036227235 0)
(22.2742548174421 -11.97076879763778 0)
(19.00821391572293 -11.58495999877529 0)
(17.11284144089376 -11.37247456471017 0)