/*--------------------------------*- C++ -*----------------------------------*\
  =========                 |
  \\      /  F ield         | OpenFOAM: The Open Source CFD Toolbox
   \\    /   O peration     | Website:  https://openfoam.org
    \\  /    A nd           | Version:  11
     \\/     M anipulation  |
\*---------------------------------------------------------------------------*/
FoamFile
{
    format      ascii;
    class       volVectorField;
    location    "8.075";
    object      U;
}
// * * * * * * * * * * * * * * * * * * * * * * * * * * * * * * * * * * * * * //

dimensions      [0 1 -1 0 0 0 0];

internalField   nonuniform List<vector> 
4455
(
(99.962089 -0.41877783 0)
(99.923059 -1.1066888 -1.8905842e-18)
(99.67526 -1.8371025 6.4926315e-18)
(99.438286 -2.1812636 2.3105752e-20)
(98.883539 -2.4889454 6.1532317e-18)
(98.409241 -2.7458815 -2.3112147e-17)
(97.577966 -2.8307099 1.0260216e-17)
(96.661974 -3.218278 0)
(95.188305 -2.8680372 -6.2611983e-17)
(99.94623 -0.37331793 -1.2480746e-17)
(99.87501 -1.056003 1.2171463e-17)
(99.687175 -1.6918432 -1.4950427e-17)
(99.340295 -2.0175109 2.487748e-17)
(98.835943 -2.364871 -4.7646757e-17)
(98.299728 -2.6461309 5.2023869e-17)
(97.375046 -2.8749636 -4.9623304e-18)
(96.41304 -3.3447717 7.2424786e-18)
(94.501452 -3.7583221 2.724355e-16)
(99.930327 -0.3386412 -1.3258469e-17)
(99.866295 -0.96238559 1.6708821e-17)
(99.641483 -1.5455395 1.4616851e-17)
(99.338164 -1.8131037 -1.4529657e-17)
(98.764664 -2.2084278 6.3935013e-17)
(98.227611 -2.3850159 -3.5953329e-17)
(97.219096 -2.5777511 4.6411222e-18)
(96.207054 -3.2392643 -1.0296029e-16)
(94.417003 -3.1056169 -1.9288811e-16)
(99.917469 -0.30373298 -1.474109e-19)
(99.860827 -0.84755658 -1.6639936e-18)
(99.628648 -1.4089896 3.5125987e-17)
(99.322819 -1.631724 4.783079e-18)
(98.714001 -1.966241 2.4381774e-19)
(98.149712 -2.1547144 -6.955372e-18)
(97.145291 -2.1575505 7.726968e-17)
(95.80615 -2.9966019 2.0627994e-16)
(93.791738 -2.3691307 1.6153716e-16)
(99.907808 -0.26777524 2.5631938e-17)
(99.860936 -0.73957178 -2.8630349e-17)
(99.632954 -1.266272 3.673042e-17)
(99.291774 -1.4184035 1.708548e-20)
(98.686249 -1.7729556 -4.4136958e-17)
(98.071682 -1.8804462 -1.3559158e-17)
(97.02024 -1.9491898 -6.089023e-17)
(95.684618 -2.7039613 -9.7256415e-17)
(93.394775 -2.0802523 -4.7809883e-16)
(99.906545 -0.23037779 0)
(99.860933 -0.64369276 0)
(99.63987 -1.1060226 -6.374089e-17)
(99.295597 -1.2313525 -7.3543796e-17)
(98.690039 -1.5368934 0)
(98.022814 -1.6138251 -9.8824469e-17)
(96.905843 -1.5111574 -8.3512329e-18)
(95.284941 -2.380807 -5.8431259e-18)
(92.654007 -1.4443937 5.924563e-16)
(99.911023 -0.19705396 0)
(99.865166 -0.55091189 -1.7444944e-18)
(99.6445 -0.94323954 1.9635097e-18)
(99.303946 -1.0623666 7.1876056e-17)
(98.657659 -1.3571983 -5.3006364e-18)
(98.031306 -1.3322305 2.1090287e-16)
(96.868104 -1.3034314 0)
(95.197305 -2.0245698 0)
(92.212249 -0.86581477 2.7530059e-16)
(99.917809 -0.16511459 4.9607357e-17)
(99.871897 -0.46306251 0)
(99.652939 -0.81024546 0)
(99.313903 -0.86436474 0)
(98.720205 -1.1215242 0)
(97.986116 -1.0507441 -1.0554436e-16)
(96.763697 -0.84935977 -1.1356524e-16)
(94.855224 -1.5747262 1.6364004e-16)
(91.378683 -0.14686652 4.825617e-18)
(99.926679 -0.13532865 -4.8849013e-17)
(99.883681 -0.38245483 -1.6946299e-18)
(99.672724 -0.67386674 -1.9031093e-18)
(99.346301 -0.71568921 4.3239862e-18)
(98.729501 -0.93288632 1.6655099e-16)
(98.075608 -0.80633344 1.87639e-16)
(96.802603 -0.66179541 3.6275536e-16)
(94.791611 -1.1042779 -1.6065127e-16)
(90.813782 0.5826757 -4.7427144e-16)
(99.936591 -0.11306759 0)
(99.947411 -0.09233761 9.1845304e-17)
(99.957244 -0.075909783 -9.1097763e-17)
(99.965638 -0.061446718 8.7763604e-17)
(99.973193 -0.049286161 -8.5783142e-17)
(99.978351 -0.039559164 1.7195229e-16)
(99.9828 -0.0318046 -1.6693757e-16)
(99.983544 -0.029365593 0)
(99.989229 -0.025328876 0)
(99.893068 -0.31043871 0)
(99.904105 -0.25072741 1.5856564e-18)
(99.91291 -0.1983805 0)
(99.922193 -0.15400097 4.5274922e-18)
(99.932508 -0.11542227 9.2823858e-17)
(99.944822 -0.081223927 -2.7760584e-16)
(99.957396 -0.054733081 1.7981232e-16)
(99.97208 -0.031550321 -2.7464351e-18)
(99.988459 -0.0075109898 1.7397239e-16)
(99.696377 -0.54746737 1.1426366e-16)
(99.713685 -0.43553796 -2.2559461e-16)
(99.738628 -0.33388534 2.1618273e-16)
(99.761442 -0.24534409 -6.4817281e-18)
(99.787529 -0.17418346 -1.0245693e-16)
(99.816716 -0.11024947 -3.1242551e-18)
(99.840246 -0.071641917 0)
(99.859738 -0.034715204 5.9334347e-18)
(99.870173 -0.027154266 -2.8950331e-18)
(99.377202 -0.55251618 1.1893357e-16)
(99.423477 -0.39908051 -2.4202109e-16)
(99.465995 -0.28159168 2.3114509e-16)
(99.526711 -0.16443573 -1.1216895e-16)
(99.569581 -0.076971161 -7.0523082e-18)
(99.643368 0.018099797 3.4153199e-18)
(99.687364 0.074135783 0)
(99.781822 0.17659145 -3.2314148e-18)
(99.833182 0.20797617 1.948694e-16)
(98.795647 -0.72984481 -1.3375131e-16)
(98.838207 -0.50136763 0)
(98.910293 -0.30238838 -1.2519735e-16)
(98.979369 -0.11549099 1.2905286e-16)
(99.036758 0.027377663 -1.172984e-16)
(99.130965 0.18899765 1.2116361e-16)
(99.167649 0.27159919 0)
(99.259211 0.42299293 0)
(99.274996 0.41794513 6.9054643e-18)
(98.017873 -0.47870141 -1.6368091e-16)
(98.150656 -0.12550058 -1.578214e-16)
(98.142268 0.18520556 1.5169976e-16)
(98.329119 0.51307488 1.4642161e-16)
(98.401829 0.74071855 -1.4114978e-16)
(98.632623 1.0902496 0)
(98.754786 1.240654 2.6334284e-16)
(99.020429 1.5841161 -1.5179285e-19)
(99.131062 1.6179479 -4.9257917e-16)
(96.716547 -0.23502979 -1.9245216e-16)
(96.795546 0.18795581 0)
(96.780192 0.55234917 0)
(96.873835 1.0070662 5.3827599e-18)
(96.884759 1.3211883 0)
(97.051183 1.8351268 0)
(97.156659 2.0952179 0)
(97.366136 2.6160858 0)
(97.45888 2.697007 0)
(94.477349 -0.55790735 7.488962e-18)
(94.443808 0.61051645 0)
(94.271332 1.367434 6.836567e-18)
(94.453426 2.6430451 -1.2770918e-17)
(94.715899 3.3234759 -1.9356041e-16)
(95.105507 4.5612861 -1.8460948e-16)
(95.648272 4.9705322 3.5347937e-16)
(96.25556 6.0547628 3.4307014e-16)
(96.801999 6.090599 -3.2467633e-16)
(89.468671 1.5644639 9.0710609e-16)
(88.654169 3.7726148 -5.5888002e-16)
(88.0273 5.3772746 5.3520235e-16)
(88.320574 7.7010962 -5.0199885e-16)
(88.862003 8.9615109 -7.2093689e-16)
(89.880474 10.926065 1.3599453e-15)
(90.817469 11.709254 -8.5976959e-16)
(92.003458 13.024287 -4.1041528e-16)
(92.768962 13.322083 3.8612656e-16)
(99.98389 -0.045438676 -2.2911318e-19)
(99.986345 -0.05761614 2.3522993e-16)
(99.990653 -0.068899526 2.1108263e-21)
(99.995284 -0.08069128 -2.3704901e-16)
(100.00097 -0.092407641 2.3233873e-19)
(100.00958 -0.10316061 2.3894317e-16)
(100.02244 -0.11241763 -2.4011047e-16)
(100.04192 -0.12010247 -2.3515237e-19)
(100.07207 -0.12433479 -1.2114786e-16)
(100.01288 0.0076719256 -2.5000304e-16)
(100.01251 0.035250464 2.5204733e-16)
(100.03923 0.052427311 -2.5204771e-16)
(100.03619 0.087405841 0)
(100.06951 0.11101421 2.5489247e-16)
(100.06748 0.16634921 5.4214819e-19)
(100.11926 0.1982094 7.8178853e-19)
(100.1282 0.28921103 -2.5719846e-16)
(100.21748 0.32625138 1.2980135e-16)
(99.872155 -0.0035216768 2.6772318e-16)
(99.849357 0.025357786 -2.6781772e-16)
(99.867158 0.05315361 -2.701767e-16)
(99.85179 0.11623303 2.7088062e-16)
(99.907499 0.16321925 -2.7389667e-16)
(99.89917 0.275014 2.7309116e-16)
(99.998263 0.33596975 -2.7668985e-16)
(100.00295 0.48596891 -5.898516e-19)
(100.13571 0.54725865 2.776619e-16)
(99.928277 0.30483132 -2.8505784e-16)
(99.952124 0.47494496 -1.1247756e-18)
(99.955579 0.57874853 1.1352682e-18)
(100.05077 0.71436091 0)
(99.964856 0.90972382 -5.446266e-21)
(100.08864 1.0561071 -2.9300201e-16)
(100.03451 1.2682002 2.9790328e-16)
(100.20037 1.5003693 1.1661985e-18)
(100.20481 1.6803844 1.1719149e-18)
(99.377074 0.59787265 -1.2062079e-18)
(99.283566 0.80677371 -3.1217565e-16)
(99.388975 0.96980248 -1.539415e-18)
(99.301989 1.2229797 3.1567039e-16)
(99.47462 1.3972144 3.1911534e-16)
(99.42568 1.7100132 -3.2069424e-16)
(99.667584 1.8810335 -1.2499601e-18)
(99.655052 2.2372918 -1.25686e-18)
(99.952033 2.3984151 -1.2639753e-18)
(99.399501 1.9226765 3.3732657e-16)
(99.342087 2.3703378 0)
(99.562225 2.6568699 0)
(99.43689 3.0737952 3.4315044e-16)
(99.655795 3.36266 -3.4771565e-16)
(99.542459 3.8315983 -3.5041591e-16)
(99.814983 4.1184095 7.0217815e-16)
(99.773018 4.670926 1.221397e-19)
(100.09047 4.929252 -7.1091889e-16)
(97.674406 3.1734113 -1.4810863e-18)
(97.652045 3.7998192 0)
(97.788207 4.1020979 1.4976633e-18)
(97.835221 4.6224458 3.8472995e-16)
(98.131189 4.8963553 -3.8708353e-16)
(98.293871 5.4020203 3.8955452e-16)
(98.709844 5.6405392 -3.904082e-16)
(98.915294 6.0975538 -1.537186e-18)
(99.34589 6.2899861 3.9558072e-16)
(97.305627 6.9296353 -4.1861045e-16)
(97.770606 7.6540924 4.2416501e-16)
(98.223615 8.2349135 -4.2751851e-16)
(98.638808 8.8630479 4.253045e-16)
(99.026675 9.4866149 -4.2516539e-16)
(99.472117 10.176665 -6.6625629e-19)
(99.945608 10.822841 4.3151241e-16)
(100.41041 11.343196 3.3917899e-18)
(100.84173 11.756522 2.1647272e-16)
(93.801547 14.212884 0)
(94.398151 14.902839 -4.7911574e-16)
(95.372444 16.019972 2.8763056e-18)
(96.006453 16.533547 4.625384e-18)
(97.317591 16.94781 9.6143262e-16)
(98.333113 16.727443 -4.809968e-16)
(99.717036 16.427345 -4.8134839e-16)
(100.39575 15.017275 4.8319512e-16)
(102.16802 13.554435 2.4290733e-16)
(102.64183 11.854876 -2.8387612e-16)
(103.14816 10.064328 0)
(103.16512 8.7473007 2.8444046e-16)
(103.08573 7.9625793 -2.8443782e-16)
(102.60368 7.7049505 0)
(102.2857 7.463559 0)
(101.61511 7.4133868 0)
(101.21995 7.3315341 -2.9933629e-16)
(100.57016 7.1614182 2.9935149e-16)
(101.23568 12.020965 -2.4659248e-16)
(101.55121 12.219559 0)
(101.80834 12.296963 0)
(102.00868 12.345259 0)
(102.047 12.388699 0)
(102.09499 12.48669 0)
(102.04184 12.545958 0)
(102.00171 12.69474 2.4905226e-16)
(101.80681 12.793794 -4.9980413e-16)
(99.540256 6.6686351 1.9609041e-19)
(99.986598 7.0401386 -4.3516488e-16)
(100.13307 7.3463923 0)
(100.56175 7.6367015 -2.1813388e-16)
(100.67175 7.944699 2.1813337e-16)
(101.06513 8.2534786 0)
(101.10696 8.5561163 0)
(101.44939 8.8569501 0)
(101.42942 9.1625652 0)
(100.10334 5.5095914 3.8259942e-16)
(100.4149 5.835132 0)
(100.46263 6.391992 1.9141059e-16)
(100.78028 6.6911443 -3.8288423e-16)
(100.83282 7.2522512 1.9147014e-16)
(101.1676 7.5558478 0)
(101.23778 8.1318342 0)
(101.59516 8.4340557 0)
(101.67118 9.0430047 1.9176376e-16)
(99.94546 2.784397 0)
(100.27643 2.9822695 3.439265e-16)
(100.28118 3.4120155 -5.1587971e-16)
(100.66621 3.6210395 1.7200389e-16)
(100.69056 4.1032512 1.7205488e-16)
(101.13155 4.327812 -4.5150324e-21)
(101.16373 4.8475436 -3.4412712e-16)
(101.64428 5.0875973 3.4409305e-16)
(101.67708 5.6430529 -1.720635e-16)
(100.36244 2.0160039 0)
(100.44819 2.2004023 1.555028e-16)
(100.63721 2.5459252 -1.5550279e-16)
(100.72041 2.7496706 0)
(100.94676 3.1451389 -3.1091606e-16)
(101.06625 3.3677695 3.1096166e-16)
(101.34874 3.7951176 1.553707e-16)
(101.49614 4.0464492 -3.1064138e-16)
(101.87649 4.4895263 1.5527068e-16)
(100.15809 0.73247194 0)
(100.3391 0.80381379 0)
(100.38448 1.0340996 0)
(100.63432 1.1304875 -1.426993e-16)
(100.69769 1.3500859 2.8538986e-16)
(100.99772 1.5766757 -2.8524438e-16)
(101.1454 1.723533 1.425838e-16)
(101.38459 2.0696028 -1.4239003e-16)
(101.70916 2.1734942 2.845738e-16)
(100.24643 0.45566801 -2.6331314e-16)
(100.37788 0.49279078 2.5098375e-20)
(100.42954 0.65397677 1.3165738e-16)
(100.60156 0.68707792 -1.3157113e-16)
(100.68612 0.8896198 1.3157356e-16)
(100.90718 0.91068619 0)
(101.02866 1.1372031 1.3136581e-16)
(101.32341 1.1574267 -2.626425e-16)
(101.50018 1.4375408 1.3127615e-16)
(100.09462 -0.11564447 5.4318905e-21)
(100.15386 -0.12587256 1.2262343e-16)
(100.20445 -0.096257166 1.2268864e-16)
(100.32309 -0.083935656 -1.2268869e-16)
(100.39277 -0.025394855 0)
(100.5477 -0.014593727 0)
(100.64024 0.056538721 -1.2251667e-16)
(100.84556 0.068820305 2.4495683e-16)
(100.97341 0.13377287 -1.2243953e-16)
(101.26102 0.18249413 0)
(101.43832 0.27000838 -1.2203412e-16)
(101.82093 0.31943423 2.1350272e-19)
(102.07058 0.44063776 2.4936417e-19)
(102.53276 0.50789209 2.8841247e-19)
(102.8583 0.62843159 1.2129966e-16)
(103.42495 0.70829662 1.205782e-16)
(103.84527 0.84845855 -1.2057821e-16)
(104.51009 0.94724239 0)
(101.86793 1.4387209 0)
(102.06969 1.7051277 0)
(102.54855 1.764916 -1.3043287e-16)
(102.82282 2.0859795 2.9842533e-19)
(103.33641 2.0532611 3.5146333e-19)
(103.76964 2.4630236 1.2980431e-16)
(104.27781 2.4862941 1.2894726e-16)
(104.89622 2.8534522 -1.2894724e-16)
(105.39839 2.9553377 0)
(101.85478 2.595256 -1.4216621e-16)
(102.35152 2.7043953 0)
(102.51304 3.2121375 0)
(103.05839 3.3287522 -1.4141545e-16)
(103.2586 3.8682399 2.8260033e-16)
(103.92937 4.0757165 -3.4312961e-19)
(104.15159 4.6145719 -3.7862576e-19)
(104.90186 4.8490465 -1.4038107e-16)
(105.17953 5.4374256 0)
(102.0364 4.7676985 -1.550059e-16)
(102.45135 5.2673483 1.5500572e-16)
(102.65384 5.5600054 0)
(103.1577 6.0232388 0)
(103.32949 6.4614075 1.5413055e-16)
(103.9877 6.8191169 -1.5413054e-16)
(104.16417 7.3606973 1.5344945e-16)
(104.8917 7.7848449 -7.6935194e-17)
(105.13198 8.2680387 -7.6504021e-17)
(102.17777 5.89643 -1.7202894e-16)
(102.23932 6.5146997 1.7202453e-16)
(102.70051 6.7588351 0)
(102.88674 7.4554975 0)
(103.26234 7.7387146 0)
(103.52312 8.4923357 0)
(103.95276 8.8346207 0)
(104.12505 9.6899176 0)
(104.72524 10.098192 0)
(102.0411 9.3535568 -1.917635e-16)
(102.05717 9.9631304 1.919513e-16)
(102.4773 10.323147 -1.919403e-16)
(102.40546 10.950189 1.922137e-16)
(102.88269 11.374013 -1.9223584e-16)
(102.77394 12.072342 0)
(103.25588 12.524239 0)
(103.17985 13.35061 0)
(103.68981 13.867103 0)
(101.72595 9.4739044 0)
(101.60282 9.802953 -2.2131279e-16)
(101.84009 10.208354 2.212399e-16)
(101.59697 10.597912 0)
(101.81466 11.115235 2.2371054e-16)
(101.44841 11.613782 -2.2369082e-16)
(101.706 12.275098 0)
(101.23623 12.896125 1.1321357e-16)
(101.54325 13.693264 -2.2684681e-16)
(101.70803 13.029376 2.5058984e-16)
(101.35406 13.179323 2.5378437e-16)
(101.1655 13.423957 -2.5363332e-16)
(100.60759 13.707782 2.5731568e-16)
(100.40713 14.165212 -5.1686997e-16)
(99.662413 14.693234 5.2100629e-16)
(99.491223 15.334671 -5.2559121e-16)
(98.679002 16.002714 2.6388635e-16)
(98.549168 16.769404 0)
(100.23642 6.8040045 -3.0750227e-16)
(99.46334 6.4215277 3.0750978e-16)
(98.888198 6.3252107 0)
(97.853446 6.5321482 0)
(97.204143 6.9364596 0)
(95.902125 7.5000986 0)
(95.079749 8.2874677 0)
(93.450369 8.7738772 -1.6860871e-16)
(92.567198 9.4928336 1.6860754e-16)
(90.972037 9.3363145 1.7300534e-16)
(97.663921 17.538652 0)
(100.97179 14.456521 1.1365276e-16)
(103.61181 14.826122 0)
(104.8029 11.0567 0)
(105.9165 8.8850512 0)
(106.04552 5.7406235 6.9424573e-17)
(106.22037 3.2769697 6.3602485e-17)
(105.06664 1.0937747 5.950923e-17)
(90.180273 10.017442 -1.7285662e-16)
(97.491333 18.372477 0)
(101.35512 15.353003 0)
(104.17826 15.423508 9.6407084e-17)
(105.55532 11.525545 0)
(106.27456 9.3066548 -7.5641265e-17)
(106.36923 6.32996 -1.3850055e-16)
(106.72144 3.4761102 -1.2683699e-16)
(105.837 1.2178073 -1.1868007e-16)
(88.488567 9.9579104 0)
(96.454583 19.303445 0)
(100.73464 16.320502 1.1473904e-16)
(104.06985 16.519423 -9.6407449e-17)
(105.66765 12.643928 0)
(107.08942 10.089371 7.5641247e-17)
(107.34747 6.6784161 6.9087025e-17)
(107.73693 3.7927067 6.3234505e-17)
(106.53541 1.3710629 5.9170827e-17)
(87.89961 11.191879 1.7905585e-16)
(96.217187 20.215295 0)
(101.18993 17.284629 -2.2977956e-16)
(104.74247 17.18782 0)
(106.3984 13.114718 0)
(107.57075 10.515065 -7.4827465e-17)
(107.74478 7.3336208 -6.8291443e-17)
(108.28654 4.060578 0)
(107.44212 1.5096667 -5.835148e-17)
(85.898184 11.742527 -1.7886481e-16)
(95.027547 21.485422 -1.3901061e-16)
(100.57541 18.496684 1.1501936e-16)
(104.64553 18.452809 0)
(106.73622 14.390546 0)
(108.51609 11.417372 7.4827436e-17)
(108.86407 7.6900555 6.8291415e-17)
(109.47986 4.3245197 0)
(108.28352 1.679774 5.8351473e-17)
(85.535626 13.767589 0)
(94.873399 22.606128 1.3900649e-16)
(101.03101 19.523711 -1.1533402e-16)
(105.44042 19.199278 0)
(107.42823 14.910529 0)
(109.06989 11.890978 -7.3767053e-17)
(109.33683 8.4521111 -6.7281962e-17)
(110.09551 4.7337189 0)
(109.33293 1.8340837 -5.7318738e-17)
(83.077134 15.191003 0)
(93.677108 24.389141 0)
(100.42031 21.071094 1.1533389e-16)
(105.38421 20.690065 -4.7594637e-17)
(107.91129 16.303535 -4.1767406e-17)
(110.15147 12.913966 1.103335e-16)
(110.61765 8.7716463 1.0062289e-16)
(111.46004 4.9484714 0)
(110.33265 2.0084497 8.5676698e-17)
(82.737043 17.946478 0)
(93.734013 25.780697 -7.0263016e-17)
(101.0019 22.194732 0)
(106.29035 21.461211 4.7583591e-17)
(108.72406 16.857823 4.1750048e-17)
(110.86465 13.363313 -3.5525145e-19)
(111.18358 9.603378 -6.6354372e-17)
(112.16428 5.4559694 0)
(111.52606 2.1642621 -2.8357962e-17)
(80.157755 19.330226 -9.3749462e-17)
(92.701284 28.002968 7.0245843e-17)
(100.48776 24.222167 0)
(106.415 23.246418 0)
(109.31149 18.493731 0)
(112.01477 14.624085 -7.2010491e-17)
(112.63266 9.9777408 3.786565e-19)
(113.69965 5.6461344 0)
(112.67731 2.3452374 0)
(114.22785 2.5206533 0)
(114.51728 6.1716322 0)
(113.3674 10.827993 -1.5937219e-18)
(112.9441 14.890218 3.7574446e-17)
(110.30646 18.85734 0)
(107.45853 23.905371 -5.9652758e-18)
(101.42658 25.195575 -5.8191779e-19)
(93.031408 29.542552 -5.8446617e-17)
(80.041527 21.676769 1.7536286e-16)
(115.69021 2.6455934 -1.3552103e-17)
(116.19048 6.2839842 -1.8503017e-18)
(115.05671 11.021965 1.6410706e-17)
(114.09906 16.139253 -6.8975552e-20)
(111.23448 20.369649 -1.7520917e-17)
(107.83279 25.648919 2.2699231e-17)
(101.4034 27.3749 -7.2427767e-18)
(92.365125 32.318005 7.5933694e-17)
(78.848374 26.395532 -8.959816e-17)
(117.19529 2.7481857 2.7121088e-17)
(117.18011 6.7212077 0)
(115.92843 11.788305 3.2019139e-17)
(115.39804 16.213056 -1.7403166e-17)
(112.5089 20.608601 1.771432e-17)
(109.29917 26.179139 -4.2960995e-17)
(103.08955 28.176295 -3.4925201e-17)
(94.10049 33.677014 1.7319486e-17)
(81.534626 28.826731 1.8309784e-18)
(118.81063 2.8497252 -1.3587675e-17)
(119.01676 6.8258766 -1.8289036e-18)
(117.89917 12.105534 -1.4100042e-17)
(116.63174 17.616427 1.9884058e-17)
(113.85497 22.184798 7.4819384e-18)
(109.96706 28.048461 2.3079331e-17)
(103.58393 30.545171 2.8171668e-17)
(94.281461 36.465229 9.1532434e-18)
(81.671696 33.594365 -1.0482403e-17)
(120.54577 2.9532542 3.2796023e-18)
(120.20171 7.2476382 -3.5470313e-18)
(118.90809 12.676442 -1.9887338e-18)
(118.13955 17.509442 6.4576513e-18)
(115.23286 22.334154 -7.5402419e-18)
(111.80885 28.378273 -8.4401775e-18)
(105.66982 31.1165 -7.2572912e-18)
(96.481139 37.549238 8.1944471e-18)
(84.411786 35.497953 -1.2163369e-17)
(122.37957 3.0574905 -3.3182123e-18)
(122.2286 7.3614683 3.5896797e-18)
(121.09822 13.151225 -1.9700159e-18)
(119.67767 18.904494 -9.3461181e-21)
(116.87233 23.887116 -2.4191811e-18)
(112.68256 30.305279 5.7336111e-18)
(106.50221 33.52668 -7.2304209e-18)
(97.00513 40.327972 8.1844292e-18)
(84.848613 39.347242 0)
(124.29904 3.1532576 -3.1701762e-18)
(123.58512 7.780987 -1.7691404e-18)
(122.24925 13.501404 -1.8975655e-18)
(121.17775 18.772854 -2.1874822e-18)
(118.4398 23.879519 -2.4451728e-18)
(114.67355 30.429721 5.9045455e-18)
(108.74827 33.844087 -1.3797551e-17)
(99.373018 41.114905 1.7258362e-17)
(87.673445 40.389315 -1.0519795e-17)
(126.29624 3.2342307 9.4144832e-18)
(125.77086 7.8482217 6.7883542e-18)
(124.62149 13.97898 9.4382411e-18)
(123.13333 20.038936 1.040069e-17)
(120.18942 25.46397 7.3921798e-18)
(115.82712 32.376513 -2.7395893e-18)
(109.87526 36.195488 -7.1332298e-18)
(100.24192 43.794442 -9.3915623e-19)
(88.416056 43.703663 -1.1591189e-17)
(128.37402 3.2940236 -1.8393897e-17)
(127.26593 8.2500423 -6.8730009e-18)
(125.89588 14.233466 -2.4207672e-17)
(124.54565 19.910077 -6.3723017e-18)
(121.93352 25.239321 1.6407717e-17)
(117.93265 32.3186 8.4880739e-18)
(112.25282 36.278642 -4.0252397e-17)
(102.76785 44.256308 8.0594882e-18)
(91.249697 44.347588 2.268364e-17)
(92.309742 47.491572 -2.2294014e-17)
(103.95214 46.813499 8.9295002e-18)
(113.65422 38.594774 6.0000082e-17)
(119.37099 34.270523 -8.3680511e-18)
(123.87705 26.801891 4.0721051e-18)
(126.86054 20.926712 1.1930127e-17)
(128.47736 14.648158 1.6773341e-17)
(129.60072 8.309132 -8.2127389e-19)
(130.53202 3.3300341 2.4789935e-17)
(95.240033 47.932864 8.7467408e-17)
(106.62533 46.978648 7.8848586e-18)
(116.13409 38.461036 -8.5573779e-17)
(121.57785 33.96804 -2.6248365e-18)
(125.6963 26.412893 -1.647945e-17)
(128.30678 20.837214 -1.4309442e-17)
(129.84167 14.789356 -2.9934184e-17)
(131.19816 8.5984417 0)
(132.76646 3.3450783 -1.1915213e-17)
(96.629399 51.102067 -1.1207399e-16)
(108.09015 49.481734 7.9581667e-17)
(117.8455 40.75463 4.6181979e-17)
(123.35243 35.8693 -2.5732431e-18)
(127.92006 27.877091 3.5581995e-17)
(130.78121 21.743743 6.9976793e-20)
(132.58052 15.145359 4.6665074e-18)
(133.67567 8.6608011 2.3053614e-17)
(135.06168 3.3372447 2.197281e-17)
(99.526775 51.332875 -2.1911629e-17)
(110.93573 49.438639 1.3390493e-17)
(120.39954 40.359941 -6.6075947e-18)
(125.62398 35.318592 0)
(129.79206 27.30301 -3.6100855e-17)
(132.39895 21.319904 0)
(134.06356 14.977585 2.6060632e-17)
(135.33338 8.8397183 -4.728178e-17)
(137.40502 3.3008793 -1.1547022e-18)
(101.16157 54.34957 -1.0087404e-17)
(112.72597 52.002477 -6.2421691e-17)
(122.46065 42.559928 6.4481797e-18)
(127.67959 37.117853 0)
(132.26529 28.637764 -3.5660988e-17)
(134.94182 22.35734 2.8927794e-17)
(136.92572 15.377139 1.6629697e-18)
(137.93346 8.9267022 4.71787e-17)
(139.78171 3.2355262 -2.1334998e-17)
(104.07634 54.210617 -9.5985813e-17)
(115.67493 51.672274 -5.1410332e-17)
(125.02638 41.850129 -4.8334555e-19)
(130.01938 36.267865 -5.0723083e-18)
(134.2042 27.836919 -3.3669098e-19)
(136.74208 21.561689 -5.7114631e-17)
(138.49764 14.993473 1.6036988e-18)
(139.60505 8.9418171 -2.3315104e-17)
(142.18156 3.1405443 0)
(106.10479 57.042569 6.6012138e-17)
(117.72391 53.989845 7.5533022e-17)
(127.43524 43.835727 -4.5602806e-19)
(132.30096 37.928526 -4.9069201e-18)
(136.84757 29.050219 3.1094611e-17)
(139.31464 22.545855 3.0078414e-17)
(141.36783 15.238185 1.5003081e-18)
(142.31827 9.0088382 -1.374743e-18)
(144.58234 3.0125771 0)
(109.08781 56.534381 0)
(120.9037 53.448488 -6.8639209e-18)
(129.95949 42.765548 5.8495504e-18)
(134.65452 36.775384 -6.7893138e-17)
(138.84183 27.936429 -1.9682781e-18)
(141.24779 21.537204 4.9652603e-17)
(143.04638 14.673485 -4.3387048e-17)
(143.97718 8.8651878 4.0139277e-17)
(146.96035 2.8482479 3.3851116e-17)
(111.61991 59.254191 1.491199e-16)
(123.11321 55.316452 1.1890604e-16)
(132.66137 44.483897 -5.6102854e-18)
(137.16585 38.29063 7.1576785e-17)
(141.64678 29.014062 -1.8075148e-18)
(143.77486 22.31446 -5.0518929e-17)
(145.85906 14.766426 4.6907573e-17)
(146.72235 8.8856685 -4.1945265e-17)
(149.28569 2.6562747 -2.6080482e-18)
(151.70093 2.3701606 -3.136851e-17)
(148.38337 8.5894139 3.4631911e-17)
(147.55647 13.965874 0)
(145.89459 21.05542 -2.9644736e-18)
(143.58761 27.599932 5.4760799e-17)
(139.47136 36.727235 5.928692e-17)
(135.15588 42.913559 0)
(126.62196 54.360076 -8.228049e-18)
(115.05807 58.222251 -1.4579316e-16)
(153.74091 2.0422096 0)
(151.11132 8.367848 -3.5826475e-17)
(150.39864 13.902108 0)
(148.47575 21.512745 -2.8057919e-18)
(146.78168 28.29256 -9.8334621e-17)
(142.47887 37.960206 -6.4733646e-17)
(138.36464 44.272145 7.3679455e-17)
(129.45505 55.663694 -8.9015562e-17)
(119.12504 61.345924 1.0838804e-16)
(155.75648 1.6523634 0)
(152.77772 7.8736479 0)
(152.01314 12.737576 -3.4277118e-17)
(150.62843 20.012292 0)
(148.72766 26.565733 4.9879525e-17)
(144.81163 36.020029 -5.3022379e-17)
(141.03973 42.297558 -6.7231846e-17)
(133.35964 54.04407 -4.9435003e-18)
(123.42663 59.484128 -2.4152385e-17)
(157.63939 1.2461752 0)
(155.34173 7.5297196 0)
(154.83347 12.656361 3.4988653e-17)
(153.24782 20.2169 3.4063607e-17)
(151.98063 27.014795 4.2467672e-17)
(147.86088 36.969742 5.7714252e-17)
(143.97913 43.137631 0)
(136.1272 54.481316 7.0066672e-17)
(128.89727 62.37654 -1.1945955e-16)
(159.33715 0.84053116 3.6021422e-19)
(156.8801 6.9440538 -3.9587632e-19)
(156.26413 11.254852 0)
(155.11412 18.335388 -3.739948e-18)
(153.84124 24.925218 -8.5719961e-17)
(150.29033 34.796644 2.9752328e-18)
(146.63006 41.020661 5.963943e-17)
(139.69563 52.398663 -7.7210956e-17)
(133.56095 59.607495 8.8352073e-17)
(160.83255 0.43874618 -3.2502902e-19)
(159.16998 6.4424775 3.57808e-19)
(158.94999 10.961184 0)
(157.88579 18.343218 -3.6530231e-17)
(156.89832 25.091543 4.5188715e-17)
(153.37725 35.431666 -2.7461162e-18)
(149.37015 41.67254 -6.1691953e-17)
(141.79364 52.046769 0)
(140.57023 61.406524 -8.6232591e-17)
(162.1141 0.041382152 2.9081193e-19)
(160.44181 5.7436547 2.0538096e-17)
(160.1524 9.3938839 -8.166975e-19)
(159.31402 16.235098 2.6828116e-17)
(158.84767 22.719637 3.4806495e-17)
(155.62456 32.986974 0)
(152.04208 39.606193 0)
(144.60378 49.438224 -6.571358e-17)
(144.8057 58.1369 0)
(163.2386 -0.38990094 0)
(162.4584 5.1365471 -2.1289057e-17)
(162.50031 8.9983276 0)
(161.92253 16.054128 -3.0201301e-17)
(161.44685 22.518758 -3.1629633e-17)
(158.85017 33.299286 3.3362739e-17)
(154.50668 40.307328 0)
(145.69636 48.665378 7.0973852e-17)
(152.09006 58.132652 -1.0720675e-17)
(163.72877 -0.702531 0)
(163.33795 4.2405024 0)
(163.48264 7.294908 -6.54097e-19)
(163.23016 13.377072 -8.01595e-19)
(163.76232 19.390888 1.713705e-18)
(161.37784 30.189984 -3.4439024e-17)
(158.51529 37.990073 0)
(147.37023 45.981801 0)
(153.65022 53.340054 8.0524353e-18)
(164.75951 -0.81578446 -3.8641874e-19)
(164.92108 3.6825388 -5.6712771e-20)
(165.3539 6.8465884 1.5925723e-17)
(165.19393 13.853742 0)
(165.1202 19.73886 0)
(163.94421 30.584218 -1.6646527e-18)
(159.61927 40.111788 -2.8449779e-17)
(146.99253 48.450719 1.6588179e-18)
(158.73004 52.796117 0)
(165.22367 -1.2093378 -3.2086283e-19)
(165.54454 3.3281453 -4.3240385e-20)
(166.43806 6.3250795 -1.4438045e-17)
(166.52598 12.526776 0)
(167.38462 19.573449 0)
(166.20462 31.424135 1.1546508e-18)
(161.86342 41.691827 6.2757657e-17)
(146.99587 49.92564 -1.4974861e-18)
(154.32709 49.868952 -7.2343435e-17)
(165.21894 -1.5106912 0)
(166.71052 2.5418554 1.8633341e-17)
(167.67477 5.3811705 0)
(168.60335 12.818822 7.6223958e-19)
(168.74173 20.044463 -8.3219345e-19)
(167.89584 31.873476 -7.0291993e-19)
(163.22697 44.096785 -5.0685576e-17)
(144.07153 51.787971 1.289114e-18)
(139.13043 46.280551 6.8772965e-17)
(165.09377 -1.7650345 1.2315898e-17)
(166.99116 1.9371777 -1.7801261e-17)
(168.77674 4.9481067 1.5088679e-17)
(169.85354 11.464492 1.4774092e-17)
(170.86415 19.552322 -1.5734692e-17)
(169.56214 32.772645 1.067204e-17)
(165.90105 45.39735 1.7278271e-17)
(138.44368 50.113362 1.1607037e-16)
(119.67481 52.011812 0)
(164.80582 -2.0416133 -2.307915e-17)
(167.88144 0.95452074 1.2044733e-17)
(169.61318 3.9066519 -1.4596366e-17)
(171.75889 11.264198 -5.6336415e-18)
(172.44637 19.748613 1.4910162e-17)
(171.23687 33.117063 -8.3101654e-18)
(166.67602 47.213765 0)
(132.48369 53.583895 -1.1124655e-16)
(86.893069 63.623919 0)
(164.27624 -2.2901899 2.0195101e-17)
(167.81142 0.13886281 -1.1522075e-17)
(170.39409 3.061775 8.0052091e-18)
(173.18255 9.6159921 -8.5679937e-18)
(174.90999 18.833877 -1.4321749e-20)
(173.15477 33.931936 -1.9080901e-18)
(165.87052 50.537424 -8.4425292e-18)
(121.87741 52.771111 7.809377e-17)
(45.773605 33.715312 4.2873805e-17)
(163.49542 -2.5148405 -9.6195962e-18)
(168.50997 -1.1591726 2.4623374e-19)
(171.03465 1.8850179 -7.6577484e-18)
(174.94777 9.0250401 -6.3137986e-20)
(176.60423 18.79388 6.8110751e-20)
(174.76469 34.510928 1.5746402e-17)
(163.105 51.228823 2.0717737e-17)
(99.016512 43.958656 -7.3827213e-17)
(-7.5137121 -6.1238778 -4.0642957e-17)
(162.46978 -2.7321787 -1.1081946e-19)
(168.1902 -1.9567457 1.1947067e-19)
(171.2855 0.85464853 2.5781559e-18)
(176.07485 7.1016553 -6.4866454e-18)
(178.94749 17.723739 1.5270995e-17)
(176.42944 34.710115 -4.0048012e-17)
(157.93057 52.688944 -2.7939502e-17)
(70.232966 35.563953 5.0303422e-17)
(-10.538253 -2.4354643 5.8346263e-17)
(161.22963 -2.9444242 9.0704476e-18)
(168.4204 -3.4877143 -4.4280549e-20)
(172.0433 -0.27702581 -1.8409678e-18)
(177.60052 6.0678845 6.2904496e-18)
(180.50362 17.37936 -1.4073174e-17)
(177.06829 34.960475 2.3929013e-17)
(147.8786 52.370778 1.3812157e-17)
(35.517984 16.331812 -4.7993784e-17)
(-16.728025 1.3053637 -5.5603987e-17)
(-19.080273 -0.9808847 -1.0923326e-16)
(14.869377 7.09569 -1.6143086e-19)
(138.6064 54.036527 5.5340288e-19)
(177.30567 34.546416 -4.7291637e-19)
(182.17867 16.163523 0)
(178.2815 4.197856 1.0524853e-19)
(171.56513 -1.7344203 2.1359182e-19)
(167.6664 -4.1595034 -3.4727823e-18)
(159.77468 -3.1380697 -1.8623635e-17)
(-20.542967 -0.43627898 1.0489622e-16)
(2.3449396 2.8785438 0)
(129.73327 53.110224 0)
(178.18183 33.370702 1.2509083e-16)
(183.28492 14.255388 0)
(179.23013 2.5920291 -3.4581171e-17)
(172.0924 -2.9734802 -5.4432329e-18)
(167.1869 -5.7187156 3.3313088e-18)
(158.12722 -3.3064974 -1.1227222e-17)
(-20.593412 -0.68636085 2.8448781e-19)
(-2.7883437 7.3802808 -2.2976737e-19)
(119.06562 52.736195 0)
(177.81576 32.633244 -1.2222133e-16)
(184.53521 12.965747 0)
(179.57606 0.52378758 3.4125494e-17)
(171.29698 -4.5697725 4.3478987e-18)
(166.10294 -6.3611786 -6.2067005e-20)
(156.30667 -3.4396896 2.0540414e-17)
(-20.994815 0.043992633 2.2448924e-16)
(-0.34903776 17.611253 3.5247512e-17)
(111.30457 50.765237 2.4351377e-20)
(177.73317 30.875821 0)
(185.24441 10.832607 -9.0650813e-17)
(180.02274 -1.293081 0)
(171.34808 -5.9283553 1.5070323e-21)
(165.15182 -7.8732188 -6.454066e-20)
(154.38416 -3.509489 5.7198838e-20)
(-20.265715 1.574325 -2.1624065e-16)
(1.8984765 27.757597 -2.190638e-17)
(102.26187 50.913861 6.8233778e-17)
(176.62373 30.115086 -8.4179216e-19)
(186.10568 9.3569947 -8.8297386e-18)
(180.07246 -3.5704103 0)
(170.32656 -7.4956285 -7.7589812e-18)
(163.68926 -8.3801296 0)
(152.40229 -3.5138259 0)
(-18.529011 4.0656332 4.5666102e-19)
(1.9379503 33.635762 -1.2866702e-17)
(96.237751 49.511408 -1.471269e-16)
(175.80052 28.214467 1.8910912e-16)
(186.32213 6.9450796 9.6014597e-17)
(180.18885 -5.2144367 4.8504717e-17)
(169.82416 -8.936505 7.4574238e-18)