/*--------------------------------*- C++ -*----------------------------------*\
  =========                 |
  \\      /  F ield         | OpenFOAM: The Open Source CFD Toolbox
   \\    /   O peration     | Website:  https://openfoam.org
    \\  /    A nd           | Version:  11
     \\/     M anipulation  |
\*---------------------------------------------------------------------------*/
FoamFile
{
    format      ascii;
    class       volVectorField;
    location    "4.7";
    object      U;
}
// * * * * * * * * * * * * * * * * * * * * * * * * * * * * * * * * * * * * * //

dimensions      [0 1 -1 0 0 0 0];

internalField   nonuniform List<vector> 
4455
(
(9.9985234 0.0031328609 0)
(9.9892067 0.0037866952 -1.4217386e-19)
(9.9696703 0.010510529 4.880229e-19)
(9.9429035 0.0075776989 1.0029077e-21)
(9.8951033 0.019839367 4.5789003e-19)
(9.8465148 0.014853617 -1.7211762e-18)
(9.7548614 0.040338642 7.6458094e-19)
(9.6638015 0.017492004 0)
(9.5161848 0.073005751 -4.5953019e-18)
(10.000699 0.0066413184 -9.2931545e-19)
(9.9907506 0.01344422 9.0538908e-19)
(9.9686439 0.024205389 -1.1129248e-18)
(9.9411828 0.023956018 1.8523448e-18)
(9.8912342 0.035715881 -3.5468398e-18)
(9.8386158 0.027338642 3.8614491e-18)
(9.7367865 0.040546428 -3.6629715e-19)
(9.6490013 0.014678064 5.3459049e-19)
(9.4727431 -0.0024798163 1.9937766e-17)
(10.001374 0.010499187 -9.7279468e-19)
(9.9922741 0.022524885 1.228647e-18)
(9.9688386 0.039009547 1.0891616e-18)
(9.9408387 0.041808873 -1.0828115e-18)
(9.8894843 0.058670339 4.7322922e-18)
(9.8355774 0.053402738 -2.6608038e-18)
(9.735304 0.074379313 3.4375835e-19)
(9.6281709 0.019806133 -7.5252425e-18)
(9.4566083 0.061103614 -1.4093664e-17)
(10.002035 0.013987644 2.390527e-21)
(9.9938083 0.030270939 -1.3627905e-19)
(9.9698854 0.053843651 2.5856483e-18)
(9.940691 0.058462385 3.5277755e-19)
(9.892462 0.084157568 4.2313412e-23)
(9.8314791 0.076424455 -5.1192431e-19)
(9.7272355 0.11881966 5.6475116e-18)
(9.6096205 0.046852253 1.5044513e-17)
(9.4151316 0.11115173 1.1693079e-17)
(10.004324 0.018219267 1.8816075e-18)
(9.9946166 0.036015469 -2.103814e-18)
(9.9725801 0.067991468 2.6769342e-18)
(9.941586 0.074615981 1.114359e-21)
(9.8960557 0.10904451 -3.2456933e-18)
(9.831177 0.099264846 -9.917393e-19)
(9.7205124 0.14289027 -4.4509802e-18)
(9.5925546 0.066238864 -7.0780802e-18)
(9.3717969 0.14601544 -3.4494504e-17)
(10.005351 0.020308248 0)
(9.9967278 0.042614661 0)
(9.975446 0.079424335 -4.6662913e-18)
(9.9446165 0.090910865 -5.3611312e-18)
(9.9016583 0.1320225 0)
(9.8342867 0.13046943 -7.1819296e-18)
(9.7140838 0.1853292 -6.0715199e-19)
(9.5674909 0.10132892 -4.2102408e-19)
(9.3212484 0.19802047 4.2580242e-17)
(10.008494 0.02279612 0)
(9.9965724 0.046543675 -1.266013e-19)
(9.9801827 0.090738062 1.4249517e-19)
(9.948464 0.10431102 5.2399749e-18)
(9.9067098 0.1506492 -3.848184e-19)
(9.8378568 0.15001198 1.5295877e-17)
(9.7181159 0.21243966 0)
(9.5538421 0.12886476 0)
(9.2704262 0.25624107 1.9514869e-17)
(10.010179 0.023699558 3.5631805e-18)
(9.9989576 0.05042491 0)
(9.9826975 0.098886015 0)
(9.9562617 0.12099407 0)
(9.9156967 0.17422837 0)
(9.8431379 0.18233019 -7.6365897e-18)
(9.7133171 0.25495894 -8.1498015e-18)
(9.5353759 0.17026976 1.1681306e-17)
(9.2167037 0.3185339 1.1587587e-19)
(10.012237 0.024218466 -3.5086634e-18)
(10.000684 0.052315998 -1.2191306e-19)
(9.9868949 0.10392796 -1.3747131e-19)
(9.9601054 0.12824657 3.1174449e-19)
(9.9260493 0.18738948 1.1986919e-17)
(9.8537721 0.1993603 1.3476989e-17)
(9.7250493 0.28468778 2.5969381e-17)
(9.5200153 0.20777008 -1.1473419e-17)
(9.1626105 0.38937085 -3.3624068e-17)
(10.013007 0.023637877 0)
(10.013978 0.022693088 6.5261081e-18)
(10.013877 0.021208751 -6.4731467e-18)
(10.013255 0.018875394 6.2062983e-18)
(10.013011 0.016356024 -6.0663099e-18)
(10.011185 0.012995992 1.2120258e-17)
(10.009929 0.010145117 -1.1766376e-17)
(10.007689 0.0058240307 0)
(10.003577 0.0022575301 0)
(10.00374 0.054818513 0)
(10.00536 0.054198634 1.1289693e-19)
(10.008516 0.053245215 0)
(10.009916 0.051149856 3.2119571e-19)
(10.011964 0.048428193 6.5617125e-18)
(10.014597 0.044338691 -1.9604228e-17)
(10.014588 0.039656926 1.26933e-17)
(10.018733 0.034636784 -1.9353714e-19)
(10.01542 0.023148326 1.2267396e-17)
(9.9920613 0.1112876 8.1861845e-18)
(9.9974137 0.11570342 -1.6134805e-17)
(10.002854 0.1177957 1.5412522e-17)
(10.009879 0.11708214 -4.8125849e-19)
(10.0136 0.11463396 -7.2770447e-18)
(10.022078 0.11137913 -2.2124479e-19)
(10.023893 0.10393755 0)
(10.033598 0.098843621 4.1858389e-19)
(10.032968 0.081125899 -2.0374921e-19)
(9.9690975 0.14169253 8.5306598e-18)
(9.9777449 0.15199024 -1.7332425e-17)
(9.9860276 0.15918541 1.6498152e-17)
(9.9982884 0.16459277 -7.9957131e-18)
(10.005512 0.16524361 -5.0039795e-19)
(10.019643 0.16778399 2.4181556e-19)
(10.026144 0.16290293 0)
(10.042697 0.16172885 -2.2785478e-19)
(10.044843 0.14564899 1.3732423e-17)
(9.9334544 0.20851582 -9.6263929e-18)
(9.9507661 0.2281996 0)
(9.9581008 0.24255861 -8.9154189e-18)
(9.9780244 0.25698602 9.1933318e-18)
(9.9865457 0.26432915 -8.3079828e-18)
(10.008088 0.27412171 8.5853485e-18)
(10.017911 0.27471434 0)
(10.04137 0.28119425 0)
(10.048682 0.26670257 4.8577597e-19)
(9.8598758 0.22802022 -1.1757255e-17)
(9.877609 0.26067444 -1.1248525e-17)
(9.886828 0.28359308 1.0813073e-17)
(9.9078923 0.31373801 1.036941e-17)
(9.9221944 0.32877521 -9.9968323e-18)
(9.9463022 0.35632872 0)
(9.9654358 0.36148414 1.8519636e-17)
(9.9918597 0.38750771 -4.4415387e-20)
(10.009836 0.37708071 -3.4577109e-17)
(9.7230695 0.32163756 -1.3758743e-17)
(9.7426651 0.38021611 0)
(9.7527179 0.40617454 0)
(9.779042 0.4594611 3.7711636e-19)
(9.8012928 0.47815419 0)
(9.8332401 0.53135504 0)
(9.863229 0.54210141 0)
(9.8985864 0.59179058 0)
(9.926496 0.58917297 0)
(9.5085222 0.25517732 5.2700605e-19)
(9.4904268 0.35214036 0)
(9.4988017 0.41264156 4.7268578e-19)
(9.5001803 0.51658788 -8.8634108e-19)
(9.5371783 0.56540277 -1.3430225e-17)
(9.5620192 0.65805855 -1.2743769e-17)
(9.6137315 0.69002262 2.4468693e-17)
(9.6529662 0.76935651 2.3654666e-17)
(9.7102057 0.78437081 -2.2375849e-17)
(9.0889505 0.4703356 6.3018172e-17)
(9.0202941 0.68403333 -3.9062521e-17)
(9.0166492 0.81609152 3.627991e-17)
(9.0614419 1.0348653 -3.4266757e-17)
(9.134528 1.1309315 -4.8737823e-17)
(9.2257267 1.3043024 9.1722272e-17)
(9.3165084 1.3598629 -5.7945174e-17)
(9.4201515 1.4966107 -2.7620103e-17)
(9.5041975 1.510403 2.5966471e-17)
(10.005053 0.0027693971 -1.617261e-20)
(10.008101 0.0039720575 1.6608322e-17)
(10.012902 0.0058921552 -6.001454e-21)
(10.019115 0.0080512782 -1.6730496e-17)
(10.026618 0.010287125 1.637395e-20)
(10.035626 0.012579795 1.6831919e-17)
(10.046203 0.014991165 -1.6914067e-17)
(10.058523 0.017458771 -1.6518278e-20)
(10.073897 0.02100162 -8.5072854e-18)
(10.022843 0.026259381 -1.7602398e-17)
(10.02745 0.036417346 1.771299e-17)
(10.039354 0.03756813 -1.7717891e-17)
(10.0469 0.050695163 0)
(10.062683 0.050697112 1.7870664e-17)
(10.073344 0.066360519 1.4604249e-20)
(10.092721 0.064855432 2.9815345e-20)
(10.106754 0.082782065 -1.7980119e-17)
(10.130332 0.079370232 9.0450339e-18)
(10.045363 0.087993747 1.8772914e-17)
(10.049077 0.10422144 -1.8830208e-17)
(10.064922 0.10893452 -1.895785e-17)
(10.070053 0.12676958 1.9002789e-17)
(10.088537 0.13126642 -1.9161225e-17)
(10.095751 0.15190235 1.9096251e-17)
(10.117999 0.156127 -1.9285141e-17)
(10.127824 0.1802836 -1.0950604e-20)
(10.154454 0.1836243 1.9317168e-17)
(10.063914 0.15773087 -2.0061922e-17)
(10.066789 0.18192467 -7.892371e-20)
(10.087421 0.19147054 7.938771e-20)
(10.090466 0.21628294 0)
(10.1136 0.22571756 -1.5979092e-22)
(10.119012 0.25399324 -2.041551e-17)
(10.146479 0.26323875 2.075386e-17)
(10.154873 0.29572433 8.0781572e-20)
(10.187295 0.30380249 8.1036587e-20)
(10.071245 0.2839864 -8.4712099e-20)
(10.07254 0.31389541 -2.181072e-17)
(10.094123 0.328011 -6.6250703e-20)
(10.093716 0.35652081 2.2008748e-17)
(10.11798 0.37030097 2.2159945e-17)
(10.120391 0.40285173 -2.2272812e-17)
(10.149718 0.41643301 -8.6795797e-20)
(10.155301 0.45357503 -8.7105668e-20)
(10.189959 0.46571357 -8.7415004e-20)
(10.041259 0.40353604 2.3640792e-17)
(10.040387 0.44436863 0)
(10.067837 0.46522992 0)
(10.06449 0.50359248 2.3827807e-17)
(10.09518 0.52338623 -2.4146805e-17)
(10.095757 0.5660444 -2.4210747e-17)
(10.132129 0.58509098 4.8458592e-17)
(10.136523 0.63190464 -4.5176874e-20)
(10.17796 0.64837396 -4.8824645e-17)
(9.960618 0.63143965 -1.0214096e-19)
(9.9649079 0.67712316 0)
(9.9899484 0.70522447 1.0288912e-19)
(9.9928544 0.74387838 2.6427835e-17)
(10.022307 0.77087836 -2.6587571e-17)
(10.032491 0.80775226 2.6652791e-17)
(10.068373 0.83178 -2.6710604e-17)
(10.08344 0.86579129 -1.0457295e-19)
(10.12106 0.88745116 2.687065e-17)
(9.7545561 0.84421132 -2.8740933e-17)
(9.7986146 0.90354684 2.9140432e-17)
(9.8388689 0.9448586 -2.9247898e-17)
(9.8853393 0.99470485 2.9097874e-17)
(9.9303049 1.027992 -2.8961652e-17)
(9.9819111 1.0697602 -2.8926539e-22)
(10.030453 1.0948815 2.935112e-17)
(10.08257 1.1283451 2.2995621e-19)
(10.128236 1.142682 1.4653299e-17)
(9.6058243 1.6127249 0)
(9.6576314 1.6456982 -3.2247107e-17)
(9.7548476 1.7218616 1.9020043e-19)
(9.8071044 1.7301646 3.1195223e-19)
(9.9085845 1.7756703 6.4710712e-17)
(9.9576248 1.7450529 -3.2368245e-17)
(10.077649 1.7393284 -3.2384779e-17)
(10.116566 1.6464287 3.2518236e-17)
(10.257302 1.560978 1.6317735e-17)
(10.286112 1.4083285 -1.9072752e-17)
(10.343722 1.2998995 0)
(10.33825 1.2066488 1.8979635e-17)
(10.336244 1.1360809 -1.898123e-17)
(10.272689 1.0564845 0)
(10.220611 0.9899989 0)
(10.131637 0.92361048 0)
(10.061553 0.87518678 -1.9477419e-17)
(9.9652438 0.83019179 1.9477464e-17)
(10.170252 1.1614911 -1.6691562e-17)
(10.202894 1.1783989 0)
(10.23318 1.1828126 0)
(10.253298 1.1847354 0)
(10.269158 1.1809263 0)
(10.27351 1.1843202 0)
(10.269387 1.1852989 0)
(10.260746 1.1935804 1.6517099e-17)
(10.237944 1.1949069 -3.3111463e-17)
(10.13561 0.91600584 -5.7707751e-20)
(10.170133 0.94213121 -2.9497369e-17)
(10.183236 0.96385019 0)
(10.215711 0.98819564 -1.4669739e-17)
(10.223952 1.0099037 1.4669734e-17)
(10.252076 1.0319152 0)
(10.254869 1.0520818 0)
(10.278336 1.0737731 0)
(10.27366 1.0954402 0)
(10.181822 0.6947028 2.6250365e-17)
(10.224945 0.71850073 0)
(10.22906 0.7631646 1.3048795e-17)
(10.272369 0.78591791 -2.6071879e-17)
(10.276546 0.83022587 1.3022793e-17)
(10.320006 0.85304641 0)
(10.323197 0.89781963 0)
(10.366844 0.92214154 0)
(10.367661 0.96820398 1.2895666e-17)
(10.1961 0.50600426 0)
(10.233984 0.52091181 2.3588553e-17)
(10.241184 0.56324189 -3.5360841e-17)
(10.281822 0.57807151 1.1772022e-17)
(10.290133 0.62227965 1.1724084e-17)
(10.333537 0.6375894 -2.5387311e-20)
(10.342561 0.68414195 -2.3370774e-17)
(10.389117 0.70070596 2.3317114e-17)
(10.398235 0.75016535 -1.1644779e-17)
(10.197287 0.34004813 0)
(10.234021 0.34961776 1.0730122e-17)
(10.246191 0.38902713 -1.0730261e-17)
(10.287001 0.39809111 0)
(10.301411 0.4404393 -2.1318564e-17)
(10.346239 0.44924108 2.131863e-17)
(10.362777 0.49479267 1.0604701e-17)
(10.411951 0.50363092 -2.1179878e-17)
(10.430438 0.5528052 1.05751e-17)
(10.16622 0.21137277 0)
(10.197155 0.21536343 0)
(10.211515 0.24669259 0)
(10.247089 0.2500825 -9.8373925e-18)
(10.264296 0.28509057 1.9652837e-17)
(10.304679 0.28791539 -1.9607271e-17)
(10.324889 0.32681197 9.7917518e-18)
(10.370576 0.32907844 -9.7391625e-18)
(10.393973 0.3723591 1.944915e-17)
(10.147052 0.099946362 -1.8331543e-17)
(10.175264 0.096008913 1.7088493e-20)
(10.195283 0.12011606 9.1411796e-18)
(10.22773 0.11482486 -9.1027555e-18)
(10.251872 0.14224333 9.1027599e-18)
(10.289003 0.1348176 0)
(10.316905 0.16506891 9.0329289e-18)
(10.359223 0.15589722 -1.8039094e-17)
(10.39147 0.18979009 9.0060217e-18)
(10.083096 0.024977229 1.2199271e-20)
(10.104447 0.029202705 8.5626791e-18)
(10.122459 0.035965066 8.5362168e-18)
(10.151682 0.036534106 -8.5362176e-18)
(10.168953 0.049759832 0)
(10.201262 0.045775927 0)
(10.224194 0.059188199 -8.465772e-18)
(10.262808 0.063020492 1.6909359e-17)
(10.292459 0.068219727 -8.4435844e-18)
(10.337588 0.073277173 0)
(10.370736 0.08893957 -8.3635937e-18)
(10.426371 0.083301661 3.1638047e-20)
(10.467041 0.099043928 3.4343228e-20)
(10.524896 0.10948182 3.6883176e-20)
(10.57691 0.11459833 8.2607291e-18)
(10.64672 0.11796269 8.177172e-18)
(10.700827 0.14019923 -8.1771725e-18)
(10.780702 0.14405585 0)
(10.439943 0.17871521 0)
(10.477148 0.21710885 0)
(10.531982 0.20394667 -8.8770713e-18)
(10.574123 0.24727327 3.8284532e-20)
(10.636887 0.23237912 4.1024468e-20)
(10.68416 0.2810546 8.7980373e-18)
(10.754573 0.26431791 8.7077909e-18)
(10.808496 0.31994683 -8.7079232e-18)
(10.888691 0.30118607 0)
(10.445603 0.37423291 -9.7100057e-18)
(10.472259 0.42252499 0)
(10.530278 0.42419415 0)
(10.560374 0.47800438 -9.5724517e-18)
(10.625651 0.47975786 1.9104518e-17)
(10.659565 0.54023116 -4.3007124e-20)
(10.732939 0.5419917 -4.594008e-20)
(10.771085 0.60989446 -9.4430317e-18)
(10.853651 0.61196686 0)
(10.484371 0.56215164 -1.0511191e-17)
(10.504555 0.61554368 1.0511141e-17)
(10.563676 0.62595302 0)
(10.585351 0.68433287 0)
(10.650332 0.69644133 1.0362077e-17)
(10.673491 0.7610061 -1.0362019e-17)
(10.745267 0.7753584 1.0274804e-17)
(10.770223 0.84758058 -5.1611287e-18)
(10.850157 0.86452301 -5.113552e-18)
(10.448155 0.7689279 -1.1587263e-17)
(10.456688 0.82203383 1.1587137e-17)
(10.510301 0.84407579 0)
(10.517665 0.90201447 0)
(10.575599 0.92842478 0)
(10.581485 0.99294362 0)
(10.644889 1.024615 0)
(10.649413 1.0978772 0)
(10.720002 1.1353878 0)
(10.411385 0.99566128 -1.2895662e-17)
(10.408451 1.043991 1.284807e-17)
(10.452406 1.0767949 -1.2847729e-17)
(10.444741 1.1289565 1.2802743e-17)
(10.489633 1.16873 -1.2802133e-17)
(10.476729 1.227255 0)
(10.524414 1.2750155 0)
(10.506262 1.3429901 0)
(10.559441 1.3995804 0)
(10.291888 1.1218764 0)
(10.277814 1.1468946 -1.4579536e-17)
(10.292626 1.1815789 1.4577355e-17)
(10.268659 1.2119128 0)
(10.282475 1.2575611 1.4585561e-17)
(10.246893 1.2970358 -1.4586104e-17)
(10.263098 1.3559428 0)
(10.215843 1.407966 7.3047751e-18)
(10.237617 1.4814822 -1.4613498e-17)
(10.221152 1.2131261 1.6577482e-17)
(10.177366 1.2248221 1.6656309e-17)
(10.153733 1.2522377 -1.665849e-17)
(10.090863 1.2783164 1.6763149e-17)
(10.061712 1.3156673 -3.3588292e-17)
(9.9823725 1.3590579 3.3713431e-17)
(9.9492617 1.4081894 -3.3847548e-17)
(9.8553962 1.4714343 1.6957895e-17)
(9.820319 1.5343786 0)
(9.8817339 0.80120135 -1.9739135e-17)
(9.7815635 0.77860692 1.9739177e-17)
(9.6856375 0.76378741 0)
(9.5848866 0.7591239 0)
(9.4726016 0.76130157 0)
(9.3700043 0.77654552 0)
(9.2388576 0.79760618 0)
(9.1332597 0.83566409 -1.0385294e-17)
(8.9837452 0.87723336 1.0385229e-17)
(8.8744615 0.94146204 1.0550212e-17)
(9.7133176 1.6207481 0)
(10.179567 1.5503656 7.3097058e-18)
(10.536656 1.4801718 0)
(10.723767 1.2197396 0)
(10.877644 0.94616904 0)
(10.896965 0.68859137 4.6424383e-18)
(10.948311 0.36376302 4.2736449e-18)
(10.852027 0.15379067 4.012113e-18)
(8.7056841 1.0144425 -1.0550122e-17)
(9.6788606 1.7002543 0)
(10.208932 1.636346 0)
(10.598379 1.5459993 6.3141834e-18)
(10.803689 1.2632844 0)
(10.967423 0.96571482 -5.0320785e-18)
(10.99021 0.69044672 -9.2544533e-18)
(11.039049 0.34313448 -8.5163579e-18)
(10.938396 0.1655281 -7.9944465e-18)
(8.5902796 1.1160367 0)
(9.5607336 1.81476 0)
(10.144364 1.7324719 7.3141087e-18)
(10.57234 1.6424887 -6.3142521e-18)
(10.807831 1.3610798 0)
(10.998597 1.0586101 5.0320663e-18)
(11.039675 0.7771386 4.6121106e-18)
(11.107324 0.41505148 4.2428862e-18)
(11.017899 0.18390014 3.9823327e-18)
(8.4035448 1.2267096 1.0805055e-17)
(9.5312338 1.9136664 0)
(10.181428 1.8294798 -1.4625644e-17)
(10.646053 1.7173728 0)
(10.899462 1.4103512 0)
(11.100181 1.0804265 -4.9670006e-18)
(11.144877 0.77865244 -4.5445235e-18)
(11.210964 0.39205859 0)
(11.12274 0.19162179 -3.9149024e-18)
(8.2838842 1.3783893 -1.0805058e-17)
(9.4054384 2.0610386 -8.715877e-18)
(10.114431 1.9560637 7.311401e-18)
(10.619264 1.8332521 0)
(10.90579 1.5238872 0)
(11.13668 1.1863856 4.9670014e-18)
(11.202064 0.87651683 4.5445132e-18)
(11.284194 0.47125643 0)
(11.214905 0.20770309 3.9149019e-18)
(8.0798952 1.5476769 0)
(9.3873434 2.1817787 8.7157822e-18)
(10.162858 2.0640498 -7.2944722e-18)
(10.7067 1.9140688 0)
(11.011549 1.5777665 0)
(11.252057 1.2095516 -4.8907134e-18)
(11.320611 0.87643188 -4.466107e-18)
(11.40617 0.45133605 0)
(11.330318 0.21957646 -3.8362197e-18)
(7.9667035 1.7706535 0)
(9.2601324 2.3695905 0)
(10.099226 2.2244826 7.2944681e-18)
(10.687294 2.0556389 -3.0974271e-18)
(11.022903 1.7092474 -2.7242627e-18)
(11.29599 1.3299612 7.3145296e-18)
(11.387343 0.98632712 6.6773015e-18)
(11.486218 0.53450271 0)
(11.439539 0.23790213 5.732295e-18)
(7.7643844 2.0136012 0)
(9.264352 2.5128702 -4.3768115e-18)
(10.164148 2.3417156 0)
(10.787778 2.1393489 3.0969172e-18)
(11.144126 1.7649201 2.7237406e-18)
(11.426976 1.3530121 -2.3433136e-20)
(11.520137 0.98334014 -4.3981953e-18)
(11.62223 0.51805209 0)
(11.569017 0.25205112 -1.8960756e-18)
(7.6908309 2.3429088 -5.544743e-18)
(9.1441141 2.7554382 4.3763875e-18)
(10.110622 2.5510952 0)
(10.782642 2.3183009 0)
(11.169095 1.9284325 0)
(11.484049 1.4968169 -4.7745789e-18)
(11.603112 1.1115036 2.5691574e-20)
(11.717282 0.60715904 0)
(11.690816 0.26838361 0)
(11.854207 0.28369084 0)
(11.864553 0.59146384 0)
(11.746748 1.09203 -1.058455e-19)
(11.624569 1.5012746 2.4917306e-18)
(11.305389 1.9606249 0)
(10.903612 2.383592 -3.8130338e-19)
(10.21177 2.653295 -2.7067271e-20)
(9.2083486 2.9040588 -3.6301318e-18)
(7.5350055 2.6769806 1.0331676e-17)
(12.008271 0.29427021 -9.0782081e-19)
(11.976283 0.66979099 -1.2309897e-19)
(11.853585 1.2174351 1.0872385e-18)
(11.708331 1.6395197 -3.2254384e-21)
(11.370477 2.121741 -1.1407251e-18)
(10.939851 2.5674604 1.4800461e-18)
(10.219933 2.8846304 -4.5253112e-19)
(9.1904651 3.2022227 4.7218581e-18)
(7.7332238 3.1369872 -5.2576458e-18)
(12.166017 0.30288316 1.8185725e-18)
(12.138865 0.64573332 0)
(12.018745 1.1861095 2.124179e-18)
(11.868661 1.6345111 -1.1572052e-18)
(11.538959 2.1407028 1.1543727e-18)
(11.108404 2.6176098 -2.8041878e-18)
(10.408649 2.9682826 -2.1990053e-18)
(9.4113639 3.3219778 1.0623451e-18)
(7.9426848 3.3277213 6.5412585e-20)
(12.334913 0.31120524 -9.1129004e-19)
(12.269967 0.72534684 -1.2194266e-19)
(12.146925 1.3224056 -9.354291e-19)
(11.975129 1.7850265 1.3209474e-18)
(11.632713 2.3168278 4.8867915e-19)
(11.177726 2.8166787 1.5082293e-18)
(10.458967 3.2104583 1.7764634e-18)
(9.4462888 3.6085184 5.5420553e-19)
(8.0821816 3.7278238 -6.3450804e-19)
(12.515504 0.32005184 2.2083201e-19)
(12.451362 0.69578537 -2.3816212e-19)
(12.329335 1.2775248 -1.3253769e-19)
(12.154686 1.7658126 4.3101709e-19)
(11.825803 2.3192151 -4.93235e-19)
(11.375175 2.8500549 -5.5509005e-19)
(10.678592 3.2760276 -4.5779836e-19)
(9.6861394 3.7074286 5.1691865e-19)
(8.2480071 3.8706868 -6.9905724e-19)
(12.706003 0.32877649 -2.2335275e-19)
(12.598025 0.78585947 2.4102561e-19)
(12.477053 1.4195345 -1.3165455e-19)
(12.284138 1.9241621 -1.6071472e-21)
(11.943008 2.5030408 -1.6049055e-19)
(11.467968 3.0567894 3.7755482e-19)
(10.753082 3.5224499 -4.5873836e-19)
(9.7450972 3.9912927 5.192482e-19)
(8.4292746 4.2145705 0)
(12.904954 0.33628321 -2.1486928e-19)
(12.799564 0.7503874 -1.1889242e-19)
(12.672831 1.3620221 -1.2710653e-19)
(12.477802 1.8897062 -1.4571491e-19)
(12.150355 2.4886991 -1.6122579e-19)
(11.680625 3.0728689 3.8495331e-19)
(10.984253 3.5680477 -8.8988764e-19)
(9.9970601 4.0638249 1.0825465e-18)
(8.6087712 4.3243434 -6.4902082e-19)
(13.111626 0.34247327 6.3998295e-19)
(12.962871 0.83311874 4.608152e-19)
(12.843416 1.502599 6.3486302e-19)
(12.633499 2.0520579 7.0251122e-19)
(12.293881 2.675887 4.907044e-19)
(11.801047 3.2845405 -1.8244422e-19)
(11.088653 3.8159625 -4.590779e-19)
(10.088446 4.3425503 -4.0824217e-20)
(8.8184125 4.6272028 -6.9088018e-19)
(13.325756 0.34622248 -1.256969e-18)
(13.174763 0.8003331 -4.6656118e-19)
(13.058862 1.4384377 -1.6363624e-18)
(12.837075 2.0015976 -4.3077592e-19)
(12.511551 2.6429184 1.0994791e-18)
(12.030087 3.2791223 5.6340828e-19)
(11.335409 3.8382145 -2.6335755e-18)
(10.356646 4.3907111 5.2303609e-19)
(8.9915842 4.714909 1.3802532e-18)
(9.2159574 4.9889368 -1.3790525e-18)
(10.476075 4.6659938 5.6575916e-19)
(11.47154 4.0854914 3.9472766e-18)
(12.181149 3.4924834 -5.5965903e-19)
(12.685638 2.8294531 2.8320769e-19)
(13.019571 2.163586 8.1837145e-19)
(13.241787 1.5639966 1.1362999e-18)
(13.357648 0.88739061 -5.6222559e-20)
(13.548031 0.34792943 1.7029803e-18)
(9.3909039 5.0645056 5.4820224e-18)
(10.757546 4.6919877 5.2240781e-19)
(11.732599 4.0822518 -5.6836353e-18)
(12.42522 3.4622837 -1.7840922e-19)
(12.911766 2.7740896 -1.1098907e-18)
(13.22952 2.0957568 -9.7853504e-19)
(13.472466 1.4918164 -2.0516276e-18)
(13.577344 0.84030954 0)
(13.778033 0.3477442 -8.2140177e-19)
(9.6279501 5.3111031 -7.0369089e-18)
(10.904446 4.9650448 5.3506639e-18)
(11.900471 4.3257058 3.0757637e-18)
(12.607185 3.6731893 -1.7640284e-19)
(13.119036 2.9541681 2.4349131e-18)
(13.439682 2.2527535 4.1609492e-21)
(13.669278 1.6073521 3.0716001e-19)
(13.776882 0.9219946 1.6079992e-18)
(14.014023 0.3458211 1.5425524e-18)
(9.8111827 5.382187 -1.402732e-18)
(11.197937 4.9681385 9.5911344e-19)
(12.172039 4.2948996 -4.4910743e-19)
(12.862189 3.6160491 0)
(13.348395 2.8755897 -2.4707333e-18)
(13.651506 2.1662485 0)
(13.92086 1.5280028 1.798847e-18)
(14.006661 0.8744676 -3.3114884e-18)
(14.254336 0.34078354 -6.3711316e-20)
(10.059996 5.602903 -6.7304902e-19)
(11.374626 5.2384265 -4.3053236e-18)
(12.373019 4.5308022 4.4490847e-19)
(13.075409 3.8199996 0)
(13.587807 3.042421 -2.4856044e-18)
(13.891341 2.3108368 2.0462481e-18)
(14.118715 1.6091132 1.167419e-19)
(14.215715 0.94252629 3.3367558e-18)
(14.497789 0.33232353 -1.5156847e-18)
(10.257955 5.6660784 -6.3436631e-18)
(11.67756 5.2161259 -3.6738983e-18)
(12.652095 4.469551 -3.2415461e-20)
(13.33663 3.7337677 -3.5721522e-19)
(13.820038 2.9373638 -4.9493904e-20)
(14.100954 2.2060291 -4.0640489e-18)
(14.385667 1.5279417 1.1383364e-19)
(14.454888 0.88885139 -1.6579493e-18)
(14.742779 0.32061371 0)
(10.527607 5.8662546 4.3660074e-18)
(11.891484 5.4807689 5.3691942e-18)
(12.887767 4.6932857 -3.2936187e-20)
(13.582009 3.9251872 -3.5049146e-19)
(14.085143 3.0879991 2.1883272e-18)
(14.363447 2.3318681 2.1521432e-18)
(14.587937 1.5937441 1.0816908e-19)
(14.665664 0.94646456 -9.9116374e-20)
(14.98744 0.30570882 0)
(10.74569 5.9224781 0)
(12.198954 5.4313774 -5.0069906e-19)
(13.1719 4.5981178 4.2687099e-19)
(13.844457 3.8072442 -4.998406e-18)
(14.31336 2.9555601 -1.4260249e-19)
(14.574356 2.2078818 3.6492821e-18)
(14.852899 1.4884963 -3.1833164e-18)
(14.912937 0.88604528 2.9827124e-18)
(15.228962 0.28693984 2.5858334e-18)
(11.043327 6.0976443 1.0597121e-17)
(12.458093 5.6871235 9.1030596e-18)
(13.444935 4.8082196 -4.1877642e-19)
(14.126725 3.9823048 5.2691194e-18)
(14.603848 3.0818229 -1.3260913e-19)
(14.848324 2.3111604 -3.7124898e-18)
(15.060366 1.5373686 3.4425566e-18)
(15.121535 0.9322551 -3.1172236e-18)
(15.465388 0.26532666 -1.3817989e-19)
(15.709401 0.23560695 -2.4635196e-18)
(15.369941 0.86141028 2.6895212e-18)
(15.318754 1.4162825 0)
(15.064569 2.1611326 -2.2109238e-19)
(14.832344 2.9180858 4.0819049e-18)
(14.384699 3.8197975 4.4948865e-18)
(13.73489 4.6611186 0)
(12.783743 5.5946265 -3.9468195e-19)
(11.311349 6.146064 -1.0356344e-17)
(15.918854 0.20184617 0)
(15.576273 0.8809627 -2.7822895e-18)
(15.529505 1.436308 0)
(15.355583 2.2253575 -2.1330208e-19)
(15.147547 2.9987659 -7.3965624e-18)
(14.729197 3.9558651 -4.9074456e-18)
(14.090714 4.8459948 5.6313467e-18)
(13.144988 5.8420732 -7.0966039e-18)
(11.734609 6.3110018 8.5310069e-18)
(16.124709 0.16345433 0)
(15.817326 0.78997367 0)
(15.777354 1.2930884 -2.7669327e-18)
(15.566809 2.0469279 0)
(15.390642 2.8001115 3.7914586e-18)
(15.000572 3.7506102 -4.1616586e-18)
(14.398193 4.6365034 -5.1208194e-18)
(13.520774 5.701532 -4.001825e-19)
(12.108826 6.3310752 -1.2072785e-18)
(16.317044 0.12358154 0)
(16.007774 0.7934133 0)
(15.975194 1.2885312 2.8243654e-18)
(15.8557 2.078334 2.8119777e-18)
(15.69754 2.8391112 3.3980626e-18)
(15.354996 3.8382528 4.5318042e-18)
(14.770915 4.7729408 0)
(13.90217 5.8830361 6.2432816e-18)
(12.606031 6.4401338 -9.9795657e-18)
(16.491389 0.084425891 3.3058613e-20)
(16.235102 0.69860204 -3.6019033e-20)
(16.210919 1.1328786 0)
(16.04887 1.875543 -1.9879192e-19)
(15.930107 2.6118673 -6.9632431e-18)
(15.622942 3.5977365 2.4167928e-19)
(15.084547 4.5234981 4.7070445e-18)
(14.265111 5.6989829 -6.908756e-18)
(13.055866 6.413015 9.4242966e-18)
(16.646812 0.045142478 -3.1622311e-20)
(16.402585 0.69294732 3.4508708e-20)
(16.380502 1.1082311 0)
(16.318018 1.876619 -3.1280545e-18)
(16.219614 2.6101144 3.7450527e-18)
(15.968108 3.6373986 -2.3056564e-19)
(15.453955 4.6069371 -4.8684874e-18)
(14.631463 5.8065946 0)
(13.651851 6.4360348 -9.3153486e-18)
(16.781461 0.0073754611 3.0256524e-20)
(16.600032 0.57882981 2.0943447e-18)
(16.595286 0.94280925 -7.624761e-20)
(16.490217 1.6527003 2.5425688e-18)
(16.429017 2.3542687 3.1472336e-18)
(16.221811 3.3615552 0)
(15.767578 4.3230503 0)
(14.945112 5.5732429 -5.6953722e-18)
(14.216327 6.3387383 0)
(16.902879 -0.034590277 0)
(16.741941 0.56808086 -2.1713226e-18)
(16.732854 0.90317295 0)
(16.728137 1.6315712 -2.8574251e-18)
(16.69215 2.3176187 -2.8553523e-18)
(16.543226 3.3513051 3.1957056e-18)
(16.127902 4.3666354 0)
(15.247098 5.5979834 6.2877695e-18)
(14.919904 6.2500498 -6.4601477e-18)
(16.960275 -0.05998089 0)
(16.900138 0.44232578 0)
(16.920967 0.73288901 -6.9752451e-20)
(16.884995 1.3746842 -7.7798875e-20)
(16.89016 2.000161 1.7420695e-19)
(16.808374 2.9773463 -3.2999558e-18)
(16.523868 3.9858278 0)
(15.496963 5.2498473 0)
(15.489527 6.0649337 6.3649136e-18)
(17.066592 -0.086640529 -5.2557947e-20)
(17.008263 0.43665729 -1.601945e-21)
(17.020172 0.69123918 2.019688e-18)
(17.072129 1.3685422 0)
(17.079039 2.0173364 0)
(17.008123 3.0442716 -1.6209016e-19)
(16.825164 4.1820445 -2.60248e-18)
(15.602468 5.3896185 1.2615773e-19)
(15.914836 5.9518286 0)
(17.121906 -0.11895518 -4.8624575e-20)
(17.132258 0.36115427 -9.2748475e-22)
(17.187397 0.63323802 -1.8284729e-18)
(17.231296 1.3021155 0)
(17.267839 2.0076241 0)
(17.261242 3.1011865 1.325418e-19)
(16.960001 4.3524956 6.6726283e-18)
(15.576585 5.5806893 -1.0986874e-19)
(15.197362 5.8096617 6.1485091e-18)
(17.1657 -0.11096346 0)
(17.214594 0.34283403 3.0702038e-18)
(17.254724 0.57900043 0)
(17.409544 1.2635087 1.0530458e-19)
(17.463107 2.0131869 -1.149713e-19)
(17.417941 3.147851 -1.0775115e-19)
(17.322306 4.5604466 -7.2667431e-18)
(15.215241 5.7095623 9.5016618e-20)
(13.424709 5.732993 -5.7763403e-18)
(17.169935 -0.14172538 2.6961065e-18)
(17.315828 0.2477823 -2.9281725e-18)
(17.390871 0.50965066 2.9881933e-18)
(17.573985 1.1735116 2.86571e-18)
(17.640131 1.9780154 -2.9982088e-18)
(17.698269 3.1972814 2.7488838e-18)
(17.342075 4.7002037 3.3335176e-18)
(14.849684 5.7874658 6.725684e-18)
(11.037503 6.9272774 0)
(17.155724 -0.16141318 -5.3002353e-18)
(17.376671 0.20390329 2.6295052e-18)
(17.429832 0.44940385 -2.8906875e-18)
(17.740176 1.0969209 -2.8033018e-19)
(17.85146 1.9665187 2.870617e-18)
(17.837238 3.2255387 -6.1929287e-19)
(17.475412 4.9511697 0)
(14.182497 6.2076452 -6.4533787e-18)
(7.7048826 7.1411388 0)
(17.124737 -0.18367265 5.1280708e-18)
(17.454854 0.087897773 -2.5107825e-18)
(17.537183 0.36617631 2.642197e-18)
(17.901511 0.97902633 -2.4793752e-18)
(18.014572 1.9045757 -5.8493715e-20)
(18.135573 3.2691002 -1.9374953e-18)
(17.348017 5.1253113 1.1947454e-18)
(12.914217 5.8329782 5.2600805e-18)
(1.6640567 1.6061889 -5.8399482e-18)
(17.074043 -0.20407451 -2.5587582e-18)
(17.48733 0.024971584 7.5589381e-20)
(17.555805 0.30006287 -2.5282485e-18)
(18.046623 0.87037005 5.5517743e-20)
(18.231665 1.8755547 -5.9891302e-20)
(18.232456 3.2686458 -8.294329e-19)
(17.041283 5.1418704 -1.9068136e-18)
(10.178159 5.1476517 -4.9675593e-18)
(-0.61325095 1.3412852 5.5369269e-18)
(17.003562 -0.22227702 -3.5839775e-20)
(17.528174 -0.10243723 3.8301126e-20)
(17.636543 0.19926713 2.2655253e-18)
(18.190395 0.73212348 1.5544766e-18)
(18.365488 1.7849853 -1.1876834e-18)
(18.453463 3.2368262 1.0352687e-18)
(16.513798 5.2922907 1.0359196e-18)
(7.9117544 4.711783 4.0782136e-18)
(-0.51903566 2.403742 -4.8284643e-18)
(16.915166 -0.23840232 2.5805778e-18)
(17.524827 -0.16756826 -3.2468905e-20)
(17.628755 0.12124663 -1.310153e-20)
(18.301234 0.60099389 -1.5069109e-18)
(18.566918 1.7266754 1.1341177e-18)
(18.451383 3.2288944 -2.1776043e-19)
(15.511798 5.2793248 -3.6033696e-19)
(4.5163254 2.6896505 -3.8752011e-18)
(-1.0646764 2.9209475 4.6011184e-18)
(-1.3011726 2.8454042 7.3908108e-18)
(2.4002526 1.6849089 4.2878936e-20)
(14.574223 5.2792874 4.8848596e-21)
(18.480653 3.1617959 -4.1731665e-21)
(18.640762 1.6196643 0)
(18.409479 0.46062788 -3.0258737e-20)
(17.681202 0.014474739 -4.4774366e-18)
(17.518649 -0.29528053 -2.2182911e-18)
(16.808995 -0.25436768 -5.2169542e-18)
(-1.3800914 2.9662601 -7.1569404e-18)
(1.5536425 1.5876253 0)
(13.643663 5.1382769 0)
(18.509784 3.0072702 2.8434107e-18)
(18.801179 1.4254671 0)
(18.469891 0.25916897 2.2686204e-18)
(17.645049 -0.098600236 6.7139426e-18)
(17.483531 -0.35983145 2.1022167e-18)
(16.687311 -0.26744963 -2.8674306e-18)
(-1.455007 2.9371973 -4.7727688e-20)
(1.8052427 2.7289019 3.8446163e-20)
(12.704923 4.9129147 0)
(18.424685 2.9241884 -2.7798345e-18)
(18.825755 1.3140807 0)
(18.534223 0.1204325 -2.2576053e-18)
(17.659048 -0.2035725 -4.3276225e-18)
(17.438675 -0.481331 -5.2567346e-20)
(16.551027 -0.27725513 5.4483083e-18)
(-1.5245487 3.1283459 -1.2573761e-17)
(2.2107675 3.8508751 7.3593501e-18)
(12.109276 4.8470235 -1.8002363e-20)
(18.364191 2.7320948 0)
(18.941699 1.1015306 -1.1055949e-19)
(18.553406 -0.081237556 0)
(17.595398 -0.31135678 3.566356e-20)
(17.364633 -0.54276441 -5.3275599e-20)
(16.402387 -0.28420294 1.8961444e-20)
(-1.5816702 3.173073 1.209068e-17)
(2.2320095 4.5118563 -7.5592202e-19)
(11.383625 4.7290049 3.5956597e-18)
(18.197435 2.6522581 -2.9511603e-20)
(18.925156 0.97718634 -3.9054096e-19)
(18.582124 -0.22744455 0)
(17.577492 -0.41815264 4.4292135e-18)
(17.300848 -0.64766557 0)
(16.243361 -0.28886514 0)