/*--------------------------------*- C++ -*----------------------------------*\
  =========                 |
  \\      /  F ield         | OpenFOAM: The Open Source CFD Toolbox
   \\    /   O peration     | Website:  https://openfoam.org
    \\  /    A nd           | Version:  11
     \\/     M anipulation  |
\*---------------------------------------------------------------------------*/
FoamFile
{
    format      ascii;
    class       surfaceScalarField;
    location    "0.0275";
    object      phi;
}
// * * * * * * * * * * * * * * * * * * * * * * * * * * * * * * * * * * * * * //

dimensions      [0 3 -1 0 0 0 0];

internalField   nonuniform List<scalar> 
1652
(
2.843686947071611
0.8895636090847481
0
1.954123337988149
0.8895636090834618
2.220446049250313e-16
1.064559728903287
0.8895636090848635
0
0.8895636100075397
4.131217590241931e-10
0.1749961225065481
2.843686947076741
1.779127218162428
1.954123337998014
1.779127218162189
1.064559728910183
1.779127218172691
1.779127155264033
0.1749961648233327
2.843686947090741
2.668690827246526
1.954123338008367
2.668690827244562
1.06455972891429
2.66869082726677
2.668688350790291
0.1749973182270309
2.843686947092868
3.558254436328659
1.954123338013008
3.558254436324421
1.064559728916617
3.558254436363174
3.558268814431645
0.1749783795592793
4.418652025448567
2.872852967045247
5.279049614570545
2.872852967043177
6.139447203693196
2.872852967042502
2.872852967040008
6.999844792818275
4.418652025437509
2.012455377932159
5.279049614550975
2.012455377929712
6.139447203664236
2.012455377929244
2.012455377926213
6.99984479277803
4.418652025480204
1.152057788815209
5.279049614607028
1.152057788812998
6.139446375742492
1.152057795785372
1.15205773443469
6.999852052927857
4.420138701683713
0.2834790881809734
5.287138513477307
0.2448888756168405
6.152209907504234
0.2154843430019714
7.013831880421778
0.2119898765397956
6.941512752874274
0.05833203982651347
6.883180712934838
0.05833203979625601
6.824848672994841
0.05833203978251944
0.05833203990622404
6.766516633058687
6.941512754905069
0.1166640622567412
6.883180715124567
0.1166640599249802
6.824848675132383
0.116664058379246
0.1166640679904395
6.766516640924719
6.941519543289747
0.1749527791597755
6.883187766674197
0.1749474019702283
6.824855522475126
0.1749451024216974
0.1749502616308556
6.766537766389768
6.957745447076844
0.1645029500944615
6.899580542434263
0.1614883651152086
6.840767690197711
0.1608061867695035
6.788826025397444
0.154850020234053
6.790376616473589
0.0001270689612159481
-0.07736174304880883
6.773969067798051
6.648254117447294e-05
-0.02420649956228799
6.767095515460025
1.284848031996022e-05
-0.002507290481747748
6.832735919837241e-07
6.76652284940886
-3.930729321555138e-05
6.766538832389863
9.558845304180608e-08
6.766525740081969
5.557988902449296e-08
6.766517536314595
1.210448330457581e-08
6.85689172108539e-10
6.766516646230827
6.766516644145171
8.389702266242693e-10
6.7665166381337
5.239821909697184e-10
6.766516633563137
1.165535445935006e-10
2.979061441976683e-12
6.766516633051957
6.766516633039803
6.766516633043643
6.766516633047884
6.766516633044927
6.766516633046038
-1.213362743612834e-12
6.766516633047141
-1.097011370632117e-12
6.766516633048259
-1.11743947428522e-12
-1.084243805848928e-12
6.766516633049343
6.766516633046096
-4.073630321954624e-11
6.766516633047166
-1.558642104271257e-12
6.76651663304825
-2.057576331537803e-12
-2.180700064968732e-12
6.766516633049348
6.766516632919313
2.228081608102173e-09
6.76651663291491
9.961080849052451e-10
6.766516633043326
1.971083851692867e-10
2.264299858723007e-12
6.766516633049367
6.766516454522733
2.964924143866732e-06
6.766516457936175
5.906719875992117e-07
6.766516626884068
2.166658280566836e-08
6.766516633053956
4.400924069614121e-13
4.136135878241021e-13
6.766516633063474
-1.073197086753908e-11
1.110223024625157e-14
6.766516633048097
1.110223024625157e-16
6.766516633049339
6.766516633049344
-1.691801088110623e-09
6.766516714013215
1.353048784125122e-10
-3.337585763318884e-11
6.766516633377665
-8.104628079763643e-15
6.766516633046928
6.766516633049342
1.430638214283686e-06
6.766469165812373
8.620271735315654e-08
1.323202769576426e-09
6.766516817448002
9.869549622010254e-12
6.766516633152277
6.766516633049211
-7.522174112134516e-05
6.762561446668191
0.0319584639488889
-6.341463465453501e-08
6.76651609728269
-3.287359273684842e-11
6.76651663279686
6.766516633049139
0.1555520676221875
6.610964565426888
0.3111041328751736
6.610964566354008
0.4666429564225897
6.610968544262881
6.621706994184538
0.5665166923855056
0.1555520674790548
6.455412497805021
0.3111041074156857
6.455412499135565
0.4665641225707924
6.455417738333359
6.470857075033968
0.4166826074109235
0.1555520674289951
6.299860430183384
0.3111040987245564
6.299860431689908
0.4665434528268723
6.299865950770569
6.314600567777398
0.3987547652030706
0.1555520673861166
6.144308362561892
0.3111040921164221
6.14430836428049
0.4665326240562152
6.144314192298578
6.158218442008469
0.4003268031097697
-0.4665201046673359
6.00179525565387
0.4017377488291886
-0.3111043170590843
5.988762352614744
-0.1555521839882545
5.988756180257409
5.988756178282701
-0.4665046990411251
5.845185982824793
0.402878290036544
-0.3111043063610716
5.833210455321509
-0.1555521839147168
5.833203996248886
5.833203994003457
-0.4664868885027793
5.688887326052804
0.4041143837822243
-0.3111042930671616
5.677658959162455
-0.1555521838185051
5.677651812488437
5.677651809727242
-0.4664607840315708
5.531446540309966
0.403461909524938
-0.3111042720534336
5.522105906246364
-0.1555521836569916
5.522099627912683
5.522099625449265
0.1993010972300154
5.322798527874879
0.3986021408583868
5.322798529074467
0.59776850277851
5.322802052969194
5.329283470613615
0.5914414430494288
0.1993010972613513
5.1234974303009
0.3986021461008871
5.12349743122432
0.5977893199539087
5.123499982524459
5.127798651583147
0.6351252061574268
0.1993010972826772
4.924196329565998
0.3986021483696983
4.924196333482283
0.5978045944589747
4.924198236321669
4.926968334327404
0.6708338841735166
0.1993010973936445
4.724895238492117
0.3986021728032887
4.724895235699097
0.5978639228743851
4.724895989018331
4.725782700968769
0.751871688256647
-0.3354092081038206
5.060304468352135
-0.6708062314743066
5.06030328852563
-1.003108623073915
5.059508528379918
4.971826405060044
-1.283367356988967
-0.3354092089167486
5.395713697265762
-0.6707926541151567
5.395710469302987
-0.9937283827763307
5.392544627954984
4.909563869168612
-0.6137848326790191
-0.3354092121200425
5.731122926409477
-0.6707923712396315
5.731120236017009
-0.9895066238501915
5.726889521303093
5.02455391010373
-0.1542743339507229
-0.3354092175542828
6.066532155748678
-0.6707952695107164
6.06653042966966
-0.988248627254488
6.064377918855022
5.429314788674308
-0.1090281825157721
0.5170106119111895
5.631127864709084
-0.05268426940863656
0.3499771772844225
6.239426631428103
0.1749961058351824
6.241526877457441
6.241528274746762
0.5179390864207645
5.849896627855437
-0.05264576624456647
0.3499800675383891
6.414927330310776
0.1749961095708052
6.416523464120667
6.416524394386137
0.5191865497030576
6.02134732938713
-0.0525721184269113
0.3499832602241187
6.589927221063485
0.174996112852797
6.591519602609675
6.591520514190907
0.5175575559502599
6.2997707958353
-0.02227347612639354
0.3499812931340393
6.765511596309532
0.1749961114902976
6.766516075257833
6.766516633583869
-0.001319480648923066
6.73193489080467
0.1385100545989205
-2.382082502361271e-06
6.766495398310732
-1.995752230143921e-09
6.766516625884725
6.766516633092799
-5.862683489687992e-05
6.766094808901514
0.01894219429164273
-5.916667022987099e-08
6.766516597793403
8.599787548746463e-13
6.766516633299256
6.766516633061218
-8.685059355029168e-06
6.766928460657074
0.003438939341882219
-1.02436303883735e-08
6.766517169773783
5.411227022023013e-12
6.766516634259417
6.766516633067166
-6.494223991815318e-05
0.01939215573324971
6.765267584761697
-8.654870287116978e-08
6.766507615901755
-5.526978874570432e-11
6.766516634276878
6.766516633366631
1.107360133091762
-0.8708899062801208
-0.1379429358902554
-3.241851231905457e-12
1.983287412381647
-0.8749698763594673
-9.396927680427325e-13
2.858270012234489
-0.8749806157942213
4.414246745909622e-13
-0.8749805999129037
-6.625811010962934e-13
1.107361820646781
-1.74174504437266
-0.1382552074695493
1.983287410503863
-1.749939120751245
2.858270011347375
-1.749961223686161
-1.749961199665311
1.107363162995841
-2.612493212528973
-0.1388473113743051
1.983287370984016
-2.624907547409368
2.858270001317067
-2.624941808315443
-2.624941798828393
1.107371551438113
-0.1394053165298072
-3.484578292696212
1.983287290486648
-3.499877362797129
2.858269978697806
-3.499922403879195
-3.499922397855095
-6.494224001551974e-05
-6.766928460657505
0.01939215573272995
6.765267584755117
-8.654862337920122e-08
-6.766517169774148
6.766507615900226
-5.542943881664542e-11
-6.766516634260943
6.766516634276694
-6.766516633066889
6.766516633375315
-8.685059563307007e-06
-6.76609480890232
0.003438939341711356
-1.024434448382294e-08
-6.766516597794
5.257572155414891e-12
-6.766516633302668
-6.766516633061491
-5.862683544055614e-05
-6.731934890807628
0.01894219429200461
-5.916682122020234e-08
-6.766495398311051
8.597567102697212e-13
-6.766516625883281
-6.766516633092934
-0.001319480649258575
-6.299770795832464
0.1385100545999405
-2.382082370022687e-06
-6.765511596308783
-1.995711373936615e-09
-6.766516075258016
-6.766516633583738
-0.1749961058251951
6.241528274782447
-6.066532155793883
-0.3499771772639867
6.241526877492172
-6.066530429714895
-0.5170106119018696
6.239426631393942
-6.064377918808824
5.631127864668261
-5.429314788636467
-0.05268426940859518
-0.1749961095595655
6.416524394410748
-0.3499800675167303
6.416523464143654
-0.5179390864107161
6.414927330286908
5.849896627830487
-0.05264576624459232
-0.1749961128407593
6.591520514203914
-0.3499832602012374
6.591519602621346
-0.5191865496924226
6.58992722105157
6.021347329376309
-0.05257211842672851
-0.174996111478034
-0.3499812931084066
-0.5175575559369819
-0.02227347612648133
0.988248627263504
-5.024553910073879
-0.1090281825155172
0.6707952695358981
-5.726889521273119
0.3354092175675635
-5.731120236049119
-5.731122926442087
0.9895066238597532
-4.909563869148031
-0.1542743339495143
0.6707923712628316
-5.392544627936901
0.3354092121318421
-5.395710469324907
-5.395713697286
0.9937283827889729
-4.97182640505275
-0.6137848326776232
0.6707926541375722
-5.059508528371659
0.3354092089271573
-5.06030328853642
-5.060304468362449
1.003108623085945
-4.725782700968775
-1.283367356992913
0.670806231494156
-4.724895989017829
0.3354092081135959
-4.724895235699618
-4.724895238492556
0.1993010972364998
5.322798527891779
-5.522099625472718
0.3986021408732238
5.322798529095288
-5.522099627941601
0.597768502786184
5.32280205295028
-5.522105906219017
5.329283470593934
-5.531446540284221
0.5914414430520465
0.1993010972675114
5.123497430311615
0.3986021461148638
5.123497431237295
0.5977893199612789
5.123499982510901
5.127798651569313
0.635125206159142
0.1993010972883293
4.924196329571457
0.3986021483822603
4.924196333489842
0.5978045944645021
4.924198236314751
4.926968334321187
0.6708338841724564
0.1993010973989886
0.3986021728149768
0.5978639228793416
0.7518716882561395
-0.4664607840250296
-5.688887326032437
0.4034619095270293
-0.3111042720410462
-5.677658959140883
-0.1555521836514645
-5.677651812510446
-5.677651809745425
-0.4664868884960034
-5.845185982810682
0.4041143837821422
-0.3111042930541202
-5.833210455304367
-0.1555521838127381
-5.833203996264966
-5.83320399401565
-0.4665046990352645
-6.00179525565175
0.4028782900377317
-0.3111043063478151
-5.988762352607394
-0.1555521839087156
-5.988756180265448
-5.988756178288815
-0.4665201046611673
-6.158218442007581
0.4017377488304559
-0.3111043170450259
-6.1443141923032
-0.155552183981944
-6.144308364280595
-6.14430836256181
0.155552067622253
6.610964565426809
-6.766516633049098
0.3111041328754444
6.61096456635411
-6.766516632796929
0.4666429564233366
6.610968544262723
-6.766516097282815
6.621706994184921
-6.762561446667195
0.5665166923849929
0.1555520674791232
6.455412497804847
0.3111041074159097
6.455412499134886
0.4665641225712077
6.455417738332837
6.470857075032885
0.4166826074126238
0.1555520674289117
6.299860430183289
0.3111040987241975
6.299860431690575
0.466543452826048
6.299865950767472
6.314600567777543
0.398754765201608
0.1555520673860707
0.3111040921163382
0.466532624055752
0.4003268031104615
-6.766516633049225
3.295042017015248e-11
-6.766516633049343
-9.882539231398368e-12
-6.766516633049343
8.215650382226158e-15
1.110223024625157e-16
-6.766516633049345
-6.766516633150983
6.341467551074231e-08
-6.766516633048399
-1.32326516411041e-09
-6.766516633049345
3.380418167608923e-11
-1.443289932012704e-14
-6.766516633049347
-6.766516817448932
7.522174096796785e-05
-6.76651663337705
-1.430637610932983e-06
-6.766516633048066
1.691416950944102e-09
-4.177769241664464e-13
-6.766516633049369
-6.766469165812146
0.0319584639487957
-6.76651671401354
8.620255814717481e-08
-6.76651663306338
1.351365130908277e-10
-6.76651663305386
-1.072741895313811e-11
-1.101341240428155e-12
-6.766516633048242
-2.180811087271195e-12
-6.766516633048266
2.236044682746297e-12
-6.766516633043884
-6.766516626883944
4.877764858690625e-13
-1.100786128915843e-12
-6.766516633047141
-2.076783189863818e-12
-6.76651663304717
1.971909857623189e-10
-6.766516632915232
-6.766516457936112
2.166642742995606e-08
-1.100786128915843e-12
-6.76651663304604
-1.552535877635819e-12
-6.766516633046096
9.960498537076035e-10
-6.766516632919651
-6.766516454522661
5.906720699777601e-07
-1.219691014853197e-12
-6.76651663304493
-4.125277897060187e-11
-6.766516633051865
2.228019213568189e-09
-6.766516646231381
-6.766522849408395
2.964924071369168e-06
-8.440429466460841e-10
6.766516633024251
-6.766516633038665
-9.559853664242723e-08
6.766516644129435
-6.766516640904229
-0.0001270689665395786
6.766538832405051
-6.766537766409927
6.790376616488629
-6.788826025417545
-0.07736174304862298
-5.288001148073818e-10
6.76651663303355
-5.558947313577534e-08
6.766516638126775
-6.6482545956148e-05
6.766525740092338
6.773969067807962
-0.02420649956301235
-1.216807765658245e-10
6.766516633042783
-1.211453737326451e-08
6.766516633559256
-1.284848538685157e-05
6.766517536318654
6.767095515465014
-0.002507290481752522
-8.08819677899919e-12
-6.957866505175048e-10
-6.832785010013609e-07
-3.930729406437239e-05
-0.1749502616369996
-6.840767690209679
0.1548500202353161
-0.116664068009865
-6.824855522483289
-0.05833203991038516
-6.824848675126331
-6.824848672978894
-0.1749451024288608
-6.899580542439053
0.1608061867698503
-0.1166640583990877
-6.883187766669771
-0.05833203978681645
-6.88318071513417
-6.883180712922627
-0.1749474019781255
-6.957745447079168
0.1614883651158549
-0.1166640599451449
-6.941519543268758
-0.05833203980058932
-6.941512754933736
-6.941512752867025
-0.1749527791694803
-7.013831880413489
0.1645029500938078
-0.116664062277534
-6.999852052884243
-0.05833203983102753
-6.999844792821216
-6.999844792815499
-1.152057734429521
-6.152209907499751
0.2119898765402777
-2.012455377910965
-6.139446375730035
-2.872852967039931
-6.139447203692224
-6.139447203690341
-1.152057795781492
-5.287138513475525
0.2154843430025175
-2.01245537791648
-5.279049614598136
-2.872852967042259
-5.279049614566445
-5.279049614567443
-1.152057788812477
-4.42013870168173
0.2448888756173085
-2.012455377921993
-4.418652025475622
-2.872852967044603
-4.418652025443834
-4.418652025446892
-1.15205778881527
-3.558268814429126
0.2834790881811864
-2.012455377927508
-3.558254436363204
-2.872852967046921
-3.558254436324422
-3.55825443632866
2.843686947076677
0.8895636090796828
1.954123337995112
0.8895636090815651
1.064559728908975
0.8895636090861363
0.8895636099974846
0.1749961225186365
2.843686947077599
1.7791272181565
1.954123337999196
1.779127218159969
1.064559728911147
1.779127218174184
1.779127155292727
0.1749961648234497
2.843686947089469
2.668690827241873
1.95412333800662
2.668690827242819
1.064559728912863
2.668690827267941
2.668688350796845
0.1749973182263041
2.843686947088214
1.954123338006611
1.06455972891139
0.1749783795576636
0.1749961344639402
0.1749961344668202
0.1749964829943195
0.1749960711963633
0.1749956630938528
0.1750004814273923
0.174921837489753
0.1750081456989556
0.1749960711959405
0.1749964829959393
0.1749969682646655
0.1749969682661877
0.1750223503687907
0.1749739617574143
0.1750073416643636
0.1748714746011042
0.1750004814284143
0.1749956630947522
0.1749739617583126
0.175022350369568
0.1749606584213593
0.1749606584211081
0.1732389085526218
0.175390311129988
0.1749218374915756
0.1750081456996548
0.1750073416657434
0.1748714746022594
0.173238908554178
0.1753903111291661
0.1700568040608554
0.170056804061834
-0.0997082568538819
0.2672920873123943
-0.1828774949942172
0.2439551835351343
-0.2507685243112847
0.2281321483518422
0.1981832939343915
-0.001237218886523284
0.3004590747420945
-0.06089109407520488
0.2864932154988143
-0.1550097788529441
0.2804011439178855
0.2317328184559277
0.02790808797628586
0.3099211311630992
-0.01340195336688399
0.2965360152257474
-0.09893917442184996
0.2972149657301524
0.2490426513959496
0.0321583249242362
0.3114316170798205
-0.006183165700426541
0.2953763906286429
-0.09233324572474233
0.303028411812768
0.2603767525416121
0.2620339356974378
0.07151982502488324
0.2629221459158747
0.06852335135515303
0.26311933891061
0.06787408426812053
0.0405987962778282
0.2635848901044376
0.3038115403986638
0.003414316135690876
0.304493565240936
0.002753113179517874
0.3049790571795084
0.00246898154571118
-0.05751567069979757
0.3169705935108169
0.2955538518303122
-0.03318119806941372
0.2961226876491455
-0.03381432638319909
0.2965467145811617
-0.03398748930197365
-0.1029381519599205
0.3143405764806556
0.3116851933716533
0.3119879411217044
0.3123725328937449
0.2677747906736489
0.2573803167846292
-0.1345838218161883
0.2383925914185081
-0.02859055293800761
0.2335865397516307
-0.002029905808093979
1.992707855030806e-05
0.2333289744386782
0.2690761327635718
-0.1251219426301248
0.239503210474961
-0.02089117269984425
0.233585203731257
-0.0006660122949629366
0.0001455484302047005
0.2333279603664611
0.2654939641669362
-0.08713212800578268
0.2392126252085654
-0.0004090715677558809
0.233560547282319
0.002169470424002728
0.0002677851051053892
0.2333340023633475
0.2123089526165809
0.2284380878319069
0.2328908023978756
0.2332648928250335
0.2333274065091686
6.776781230566353e-06
0.2333280847090174
5.458120414525425e-07
0.2333281588291773
2.816732680432921e-09
-1.475103372783337e-10
0.2333281597603777
0.2333277995527202
1.583991521081352e-05
0.2333281572785889
8.222755557563133e-07
0.2333281596901936
5.973974204209753e-09
-1.365068613701226e-10
0.2333281597925334
0.2333288266268577
3.252891567750993e-05
0.2333281730168595
1.838388234254307e-06
0.2333281598312045
1.68015551471612e-08
-8.787065519655357e-11
0.2333281597970857
0.2333227442919877
0.233328074838753
0.2333281596740248
0.2333281597979789
0.2333281597959246
-4.333639003206713e-11
0.2333281598128998
2.124961318017426e-11
0.2333281338173694
3.56905848764022e-08
0.04728131269057562
0.223356433677399
0.2333281597767836
-4.947325882298514e-11
0.233328159772854
-4.88192819503297e-12
0.2333281609764582
5.636626942973066e-09
0.04691800097059201
0.2155671800602086
0.2333281597798675
-4.428862832028813e-11
0.2333281597659258
-7.507772181725159e-12
0.2333281601480573
8.779991178542446e-10
0.02200565811601535
0.2000546038340952
0.2333281597962402
0.2333281597681294
0.2333281598084159
0.1999148771277313
0.2638595888661094
0.3565388282362555
0.2870109226473135
0.09372672266833904
0.2883749617218314
0.07650812045582467
0.07798267260698377
0.2883820028905243
0.3111722938931033
0.1305456733336516
0.3413816139170687
-0.06752535766598144
0.3431540997390664
-0.07368770153692505
-0.07237838089761228
0.3431621133376334
0.2720481947311253
0.02563856437243173
0.3002626191354065
-0.1194360274548415
0.3020021866399333
-0.1259572267343679
-0.1252021931115002
0.3020053096054661
0.2821591956013242
0.311500188879737
0.3135520135987606
0.3135572804504881
0.2883842184764816
0.07890590795364072
0.2884606223339655
0.07919960125502035
0.2885748713250846
0.07942822823480222
0.07954128651452175
0.2880236574386143
0.3430319058916185
-0.07157394563993369
0.3430248116435289
-0.07135737616139859
0.3430680203447415
-0.07127764268719339
-0.06982450343804736
0.3435572865752298
0.3018668562389417
-0.124654968164411
0.3018594245992987
-0.1245049426323538
0.3018856441716069
-0.1244827100879647
-0.1235524133745521
0.3024708467701729
0.3133723146655211
0.313328338402594
0.3133668901182245
0.3143824017015715
0.3138025496428634
0.1709081769859399
0.3462532795284784
0.2144678830128435
0.3806802737322935
0.2645427868207221
0.4686494042211355
0.4168593034720324
0.3579964746232213
-0.05061493149877605
0.3760184840773687
-0.03917727473688704
0.4029151452955122
-0.013085097024361
0.1086843168147416
0.5086541762380649
0.2988448829569356
-0.117183750148999
0.295879468042045
-0.1142876447058057
0.3089655334644715
-0.08788843190126272
-0.07964797094388198
0.4971416786538909
0.3190793850989628
0.3330442161863048
0.3962434152704806
0.5598207385170327
0.2659351325310688
-1.171772116488956
0.05627293728747697
-0.3902218787785826
0.008257293084594667
-0.04738861211983242
-0.02567516412299047
0.0001693077266613288
0.1897415978026775
-0.9390050045668744
0.02395465796631676
-0.2036968975710853
0.0009098303394523
-0.0006345994266802948
0.007483892207790464
0.0002377988238628486
0.1095985215737854
-0.53132099222366
0.008440294838052559
-0.08246013176195467
-0.0005020954996935671
0.006852079444610068
0.009730022793617232
0.0004882747653890077
0.06973269240473733
0.002230559210711217
0.000249558036896168
0.0004378702672119808
0.004387093432452711
-0.01613666501100851
0.008606820145845087
-0.016609934799034
0.01220055295872849
-0.01896992299771263
-0.01339244111144895
0.02443387773516099
0.0004196474548574733
0.00528775074824734
-0.0005794363482647599
0.005327088908229839
-0.005440570783023152
0.00505701713842787
-0.006857642867807177
0.001876315196671322
-0.0002018233458997779
0.007873675808211519
-0.002458166114969195
0.008223786422432551
-0.007431668210582979
0.008869682580533691
-0.002896857413610541
-0.006254286473484541
0.000206046959595107
-0.0009326142363482353
-0.006001814360601346
-0.004184147561584663
0.1894996710568889
0.0685540503480617
0.2310046072120011
0.0214697839888251
0.2340612327433933
0.008044916903165944
0.03463473591575456
0.2373882287029589
0.1409887984250718
0.004716962828924143
0.2226738435963203
0.02912746906108388
0.2332120324449263
0.02734838468283041
0.03703581296024544
0.2521759240238121
0.10159960180232
-0.04812449731897304
0.2095340686971256
0.01850766883549609
0.251719404497605
0.03556876623190691
0.01374243060439584
0.2917711947330533
0.0223114821871722
0.129458577499218
0.2257416311811987
0.258825013724567
0.1817644651155446
-0.3649499475749205
0.440717363679109
0.1130737254764119
-0.2834574015297592
0.3891706996427217
0.04570041535271083
-0.1857858079368075
0.3247360411705305
-0.1349159091553034
0.002462685369361978
0.292409344245788
0.2065863136688021
-0.2795547267013941
0.1244051241794021
-0.1792918470230895
0.04211122965405367
-0.0962108737180415
-0.04452971506634259
0.004532090073114316
0.2242774639375513
-0.1608000363251905
0.1533227498805057
-0.07190134452003194
0.05825806907699496
-0.04042827422509634
-0.01349757007937473
0.007304722119319408
0.1186893294610548
0.08233490653878241
0.0500833587106174
0.006890470164650091
0.0006381928649849683
0.006161071325152696
0.0003954390938984559
0.006128959427735895
0.0002497139415519791
0.00606270943188671
0.006022664219383224
-3.165523398962478e-14
0.003323542099739413
0.02384979771662188
0.002004192304154218
0.02391374510178222
0.0008473274261411035
0.02328419163818153
0.02284912720002743
1.0172418463128e-13
0.002514124565318354
0.07086879685088923
0.001696163178473889
0.07058907551449918
0.0007772835287367316
0.06969587216873066
0.06913943722857704
-2.76743905569532e-13
0.0008982519181785636
0.000519559179430501
0.0002239895895675692
3.376465773641257e-13
0.0060226642193903
-0.0002497139415947574
0.02284912720010864
-0.0008473274261060863
0.06913943722846747
-0.0007772835287847488
-0.0002239895890897708
0.1379429358914429
0.006062709431867497
-0.0003954390938720256
0.02328419163832738
-0.00200419230432938
0.06969587216869098
-0.001696163178246023
-0.000519559178940629
0.138255207469706
0.006128959427703231
-0.0006381928648784285
0.02391374510179841
-0.003323542099956087
0.07058907551456675
-0.002514124565153909
-0.0008982519182277604
0.1388473113744869
0.006161071325181303
-0.006890470164640167
0.02384979771652058
-0.007304722119314797
0.07086879685084023
-0.004532090073005153
-0.002462685369392995
0.1394053165298168
-0.04570041535272101
-0.1349159091553829
0.2924093442458186
-0.1130737254761222
-0.1857858079366384
0.3247360411702545
-0.1817644651154348
-0.2834574015297711
0.3891706996427527
-0.3649499475750098
-0.2373882287031329
0.4407173636791454
-0.0421112296543667
-0.044529715066321
-0.1244051241793291
-0.09621087371819829
-0.2065863136685342
-0.1792918470228961
-0.2795547267013682
-0.2521759240239278
-0.05825806907690131
-0.01349757007937154
-0.1533227498805842
-0.04042827422505733
-0.2242774639373999
-0.07190134451999915
-0.160800036325061
-0.2917711947328961
-0.05008335871066351
-0.08233490653874966
-0.1186893294609949
-0.2588250137243371
-0.2257416311808113
-0.01374243060406827
-0.129458577499475
-0.03556876623119709
-0.02231148218714205
-0.01850766883584329
0.04812449731893302
0.00418414756162587
-0.2517194044975778
-0.03703581295976788
-0.2095340686969695
-0.02734838468209166
-0.1015996018023727
-0.02912746906132418
-0.004716962829219434
0.006254286473502745
-0.2332120324452071
-0.03463473591506905
-0.2226738435964656
-0.008044916903240995
-0.1409887984251825
-0.02146978398923022
-0.06855405034868986
-0.001876315196605742
-0.2340612327433012
-0.2310046072120004
-0.1894996710570353
-0.0244338777350694
-0.01220055295872485
-0.01339244111149795
-0.008606820145918764
-0.01896992299771039
-0.00438709343245829
-0.01660993479915342
-0.01613666501116896
-0.0001693077266352004
0.005440570782983059
-0.006857642867790635
0.000579436348232468
0.005057017138396923
-0.0004196474548748674
0.005327088908350458
0.005287750748291797
-0.0002377988238681777
0.007431668210621826
-0.002896857413467131
0.002458166114995601
0.008869682580525302
0.0002018233459033167
0.008223786422617188
0.007873675808328113
-0.0004882747653971488
0.006001814360683811
0.0009326142363821647
-0.0002060469596210871
-0.0004378702672421415
-0.008257293084456267
-0.0256751641233634
-0.056272937286123
-0.04738861211907033
-0.2659351325296051
-0.3902218787770159
-1.171772116491246
-0.4168593034720142
-0.0009098303394410052
0.007483892207813432
-0.0239546579657079
-0.0006345994262228552
-0.1897415978013881
-0.2036968975703455
-0.9390050045679086
-0.5086541762382453
0.0005020954997079496
0.009730022793701481
-0.008440294837840069
0.006852079444875429
-0.1095985215732126
-0.08246013176148362
-0.5313209922239124
-0.4971416786538095
-0.0002495580368747988
-0.002230559210596757
-0.06973269240429851
-0.5598207385171047
-0.3806802737324917
0.4686494042232459
-0.3462532795285709
0.2645427868209664
-0.3138025496426107
0.2144678830137251
0.1709081769876873
-0.2880236574378707
-0.4029151452957504
0.1086843168160302
-0.376018484077422
-0.01308509702372218
-0.3579964746233019
-0.03917727473661237
-0.05061493149821383
-0.3435572865752827
-0.3089655334645974
-0.07964797094347509
-0.2958794680422985
-0.08788843190059048
-0.2988448829570922
-0.1142876447053441
-0.1171837501489443
-0.3024708467703596
-0.3962434152709199
-0.3330442161867127
-0.3190793850993406
-0.3143824017021418
-0.2885748713247586
0.07954128651749548
-0.2884606223339744
0.07942822823547435
-0.2883842184762082
0.07919960125492087
0.07890590795462527
-0.2883820028903799
-0.3430680203446174
-0.06982450343597402
-0.3430248116434791
-0.07127764268610115
-0.3430319058916
-0.07135737616112214
-0.07157394563966546
-0.3431621133377124
-0.301885644171832
-0.1235524133729987
-0.3018594245993129
-0.1244827100868344
-0.3018668562390358
-0.1245049426321381
-0.1246549681646201
-0.3020053096055867
-0.3133668901186374
-0.3133283384028847
-0.3133723146656274
-0.3135572804506393
-0.2883749617217273
0.07798267260751268
-0.2870109226472479
0.07650812045541544
-0.2638595888666913
0.0937267226699019
0.3565388282348636
-0.2233564336773552
-0.3431540997391606
-0.07237838089702098
-0.3413816139170432
-0.07368770153668636
-0.3111722938933998
-0.06752535766565393
0.1305456733332192
-0.2155671800602468
-0.3020021866400427
-0.1252021931110672
-0.3002626191354071
-0.1259572267338552
-0.2720481947312498
-0.1194360274544886
0.02563856435207723
-0.2000546038340424
-0.3135520135988895
-0.3115001888798175
-0.2821591956013169
-0.1999148771276336
-0.2333281338173579
0.04728131269044988
-0.2333281598128822
3.569052509089232e-08
-0.2333281597959184
2.118133446415982e-11
-4.332856295974352e-11
-0.2333281597603772
-0.2333281609764496
0.04691800097036714
-0.2333281597728376
5.636596855929099e-09
-0.2333281597767797
-4.895805982840784e-12
-4.947858789350335e-11
-0.2333281597925093
-0.2333281601480549
0.02200565811568711
-0.2333281597659246
8.779891813581742e-10
-0.2333281597798724
-7.511991029218734e-12
-4.428168942638422e-11
-0.2333281597971273
-0.2333281598084111
-0.2333281597681276
-0.2333281597962329
-0.2333281597979683
-0.2333281588291684
-1.474901312192856e-10
-0.2333280847089921
2.816643585035195e-09
-0.2333274065091213
5.458120905244002e-07
6.776781402428877e-06
-0.23332897443864
-0.2333281596901398
-1.364779955714823e-10
-0.2333281572784351
5.97395916068777e-09
-0.2333277995525992
8.2227560815884e-07
1.583991539866325e-05
-0.2333279603663651
-0.2333281598311508
-8.786682492711861e-11
-0.2333281730167038
1.680156536121302e-08
-0.2333288266269773
1.838388280606118e-06
3.252891580024508e-05
-0.2333340023632559
-0.2333281596740084
-0.2333280748387278