/*--------------------------------*- C++ -*----------------------------------*\
  =========                 |
  \\      /  F ield         | OpenFOAM: The Open Source CFD Toolbox
   \\    /   O peration     | Website:  https://openfoam.org
    \\  /    A nd           | Version:  11
     \\/     M anipulation  |
\*---------------------------------------------------------------------------*/
FoamFile
{
    format      ascii;
    class       volVectorField;
    location    "0.0275";
    object      U;
}
// * * * * * * * * * * * * * * * * * * * * * * * * * * * * * * * * * * * * * //

dimensions      [0 1 -1 0 0 0 0];

internalField   nonuniform List<vector> 
880
(
(25 -5.818108104814064e-16 0)
(25 -3.956919221848747e-16 0)
(25 1.611716493349257e-15 0)
(24.99999999845551 -2.45530923231895e-09 0)
(25 5.585286771738455e-16 0)
(25 -7.489716582106782e-16 0)
(25.00000000000002 3.326250598712495e-15 0)
(25.00000010964241 -1.355616933314584e-08 0)
(25 0 0)
(25.00000000000001 1.153686351872818e-15 0)
(25 -5.128020614054249e-15 0)
(25.0000007045963 -1.118700621004825e-06 0)
(25 0 0)
(25 -9.052434209358648e-16 0)
(25 -1.592646111752567e-15 0)
(24.99995034318497 -2.25440193513595e-05 0)
(25 -4.40451777937736e-16 0)
(25 -3.669448871833175e-16 0)
(25.00000000000001 1.597456861971146e-15 0)
(25 8.046347183999865e-15 0)
(25 -1.706539402289494e-16 0)
(25 1.457651512578279e-17 0)
(25.00000000000003 6.792880370683027e-15 0)
(25 1.625025620338406e-14 0)
(25 6.207672401371599e-14 0)
(24.99999999998927 1.483657529534903e-11 0)
(25.00000006126916 1.047113181520742e-07 0)
(24.99999957316151 -1.26427028191857e-06 0)
(24.99877194428504 0.003616614644566296 0)
(24.99497852203876 0.01687740813213456 0)
(24.99441117581774 0.02482701245652225 0)
(24.99516395552592 0.02360826496722228 0)
(24.99999999999237 -1.362511591868865e-11 0)
(24.99999999998859 -1.765475762402335e-11 0)
(24.99999999998794 -1.999956591469684e-11 0)
(24.99999999999979 -4.069984292944042e-12 0)
(24.99999999955073 2.666035720879886e-09 0)
(24.99999999963083 3.381618780008348e-09 0)
(24.99999999960042 3.705162503610389e-09 0)
(24.99999999901389 7.640575322928708e-10 0)
(24.99999823863343 1.014941328083424e-05 0)
(24.99999804708469 1.136244986255532e-05 0)
(24.9999980012017 1.210907171112744e-05 0)
(24.99999599919075 6.518555334894259e-06 0)
(24.99450844676343 0.02568329038715184 0)
(24.99452787863736 0.02838747684412342 0)
(24.99453689564006 0.02928908381314582 0)
(24.9920762050395 0.02662046620666153 0)
(24.99941021414489 0.04268032431199218 0)
(25.00567171208425 0.02028708032233823 0)
(25.0021546315883 0.003163721426211702 0)
(25.00013597817404 0.0001258679368765557 0)
(24.99999884899444 3.903676443676301e-05 0)
(25.00000357171865 2.26258199955007e-05 0)
(25.00000196737563 4.759577188268854e-06 0)
(25.00000016484028 2.576671646037706e-07 0)
(24.99999999941313 1.961422324480506e-08 0)
(25.00000000146336 1.228306440206804e-08 0)
(25.00000000089606 2.794798044363075e-09 0)
(25.00000000009172 1.54045597216958e-10 0)
(24.99999999983716 -1.14107598662008e-10 0)
(24.99999999988301 -7.205106232062892e-11 0)
(24.99999999999309 -1.474371546949136e-11 0)
(25 -8.923361538621193e-13 0)
(25.00000000000001 -2.260819075370553e-15 0)
(25.00000000000001 9.622424515381853e-16 0)
(25 -3.64953284867938e-16 0)
(24.99999999999999 -4.434656936693793e-16 0)
(24.99999999999995 2.589087251009421e-12 0)
(25 -9.846242539092092e-14 0)
(25 -1.920562029153006e-14 0)
(25 -9.208783839992852e-16 0)
(25.00000000173186 6.044830425471448e-10 0)
(24.99999999996234 -2.611785815039652e-10 0)
(24.99999999998741 -4.926011610905187e-11 0)
(25 -9.52414858521408e-13 0)
(25.00000127285679 -7.727462123870845e-07 0)
(24.99999995101521 -3.487053025038355e-07 0)
(24.99999996625464 -4.223165041580864e-08 0)
(24.99999999930592 -4.996607790832884e-10 0)
(25.00000000004754 1.574284039801782e-11 0)
(25 3.343745052912957e-13 0)
(25 3.020197643926392e-15 0)
(25 -1.892426047919591e-17 0)
(24.99999997487825 -3.136790342995135e-08 0)
(24.99999999976606 -5.14649179569647e-10 0)
(24.99999999999378 -5.313878676556326e-12 0)
(25 1.810703212654946e-14 0)
(25.00001099645643 2.974182133792357e-05 0)
(25.00000005750579 3.812210318233927e-07 0)
(25.0000000000206 2.30158388856688e-10 0)
(25 -1.158723251066425e-12 0)
(25.004171560996 -0.02295999586964759 0)
(25.00000202372967 -2.543106262874228e-05 0)
(25.00000000052191 -1.350990162715755e-08 0)
(24.99999999999994 -4.756182733259452e-12 0)
(25.00000000000002 1.737851641904198e-14 0)
(24.99999999972393 1.018812333829281e-10 0)
(24.9999980992036 9.975214056561225e-07 0)
(24.98874707281343 0.007538791007134272 0)
(24.99999999999181 -1.307143092744906e-11 0)
(24.99999999886101 3.303362513369332e-09 0)
(24.99999228665423 1.534289235526328e-05 0)
(24.95916784505097 0.06385964661934504 0)
(24.99999999998603 -1.777350219807907e-11 0)
(24.99999999856487 4.450409615379289e-09 0)
(24.99999077576475 1.963262681482746e-05 0)
(24.95604801934109 0.07633481609001562 0)
(24.99999999998276 -2.236095150621022e-11 0)
(24.99999999827504 5.423316113883267e-09 0)
(24.99998949941969 2.235554204100292e-05 0)
(24.95422343176914 0.07969370159198785 0)
(24.95198834731463 0.08352568999877007 0)
(24.99998791570887 2.570047407587405e-05 0)
(24.99999999786222 6.693147242943233e-09 0)
(24.99999999997312 -2.829537129328284e-11 0)
(24.94945662375118 0.08798108165205248 0)
(24.99998598419174 2.984121603034712e-05 0)
(24.99999999734004 8.364300949374845e-09 0)
(24.99999999996636 -3.634139045385484e-11 0)
(24.94645870277254 0.09265604173414388 0)
(24.99998351603152 3.472367847765965e-05 0)
(24.99999999661492 1.048229189906947e-08 0)
(24.99999999995443 -4.672205926675998e-11 0)
(24.94287278749382 0.1007056166660228 0)
(24.99998037966743 4.266670998982218e-05 0)
(24.9999999956807 1.411138611915472e-08 0)
(24.99999999992482 -6.581841525960573e-11 0)
(24.99999999996406 -3.789472290368547e-11 0)
(24.99999999768463 7.710447327289346e-09 0)
(24.99998780913655 2.695058982795577e-05 0)
(24.95660108434659 0.07906770045689275 0)
(24.99999999996125 -3.364981049551646e-11 0)
(24.99999999770852 6.971108913037935e-09 0)
(24.99998922352168 2.276757358496082e-05 0)
(24.96535741412596 0.06201958448677502 0)
(25.00000000226225 4.183948474014728e-10 0)
(24.99999999750637 6.495936461059285e-09 0)
(24.99999024211493 2.036680632902952e-05 0)
(24.97216988675429 0.04952757031608778 0)
(24.99999998982879 -3.180049784804967e-09 0)
(24.99999999919926 6.435571505225334e-09 0)
(24.99999610214121 9.085734762226223e-06 0)
(24.99008091737157 0.01844523238638575 0)
(24.99999999614712 5.803396863898925e-09 0)
(24.99999380349371 -9.391994237178344e-06 0)
(24.99821023343492 -0.00160444538943614 0)
(24.95159360668831 -0.1410247221972335 0)
(24.9999999922217 4.169764073670405e-09 0)
(24.99999334101779 -6.250895581672092e-06 0)
(24.993734613551 -0.002812069278413082 0)
(24.28503658194185 -0.2477503605824252 0)
(24.99999999410611 2.807925768286099e-09 0)
(24.99999319081147 -5.075112671709853e-06 0)
(24.99230190665904 -0.002325259173137913 0)
(23.93059172182917 -0.1098094701520395 0)
(24.99999999587987 2.594989015842627e-09 0)
(24.99999455122956 -3.602683997382091e-06 0)
(24.99198717587893 -0.001327771895535585 0)
(23.81087670967358 0.01896176866679294 0)
(24.16115697089737 -0.02440110472830973 0)
(24.99577069290871 -0.001999147523684653 0)
(24.99999654228099 -3.764856397435087e-06 0)
(24.99999999579455 1.224500842193166e-10 0)
(24.2034209477412 0.006864663735516756 0)
(24.99628117634647 -0.001566881721034018 0)
(24.99999726552043 -2.825552894440046e-06 0)
(24.99999999559717 5.10918587064734e-10 0)
(24.29745797357887 -0.01861934491532858 0)
(24.99723357057067 -0.001325334494785009 0)
(24.99999820422416 -2.04229778241148e-06 0)
(24.99999999627343 7.022157993796993e-10 0)
(24.12008172397958 0.08352510674992444 0)
(24.99614701000989 -0.001391849768691966 0)
(24.99999753544999 -2.407104043732362e-06 0)
(24.99999999757955 -5.615197068800366e-10 0)
(24.79760076852832 0.02797327173451548 0)
(24.99957049771656 -0.0001689691189406475 0)
(24.999999761427 -2.236539729662143e-07 0)
(24.99999999964274 -2.220004909497556e-10 0)
(24.9888212524518 0.0002248460693273587 0)
(24.99999071084199 -5.867981294240533e-06 0)
(24.99999999933888 -1.803270448552269e-09 0)
(24.99999999992867 1.151343951111367e-11 0)
(25.00000163639609 -0.0009386799769867688 0)
(25.00000011319727 -1.303267675340941e-06 0)
(25.00000000045897 -1.030966143738015e-09 0)
(25 3.238147158167871e-13 0)
(25.00153787216448 -0.007612982274658166 0)
(25.00000236292864 -1.180391169898433e-05 0)
(25.00000000085988 -8.444292052566942e-09 0)
(24.99999999987028 -1.314598641975532e-11 0)
(24.95721415201096 -1.30971419507389e-05 0)
(24.99988230282431 -4.761260774848726e-09 0)
(25.00000020336394 5.14017798780719e-11 0)
(25.00000000938049 7.012318775514844e-13 0)
(24.95730618912314 -2.821941376374484e-05 0)
(24.99988230085554 3.65505988576462e-07 0)
(25.00000020063784 3.689281206084978e-09 0)
(25.00000000929295 6.035472720167286e-11 0)
(24.95738806051247 0.0001522852896741405 0)
(24.99988038601488 2.54205514670012e-06 0)
(25.00000016566801 2.836090889176024e-08 0)
(25.00000000851654 5.214641219943549e-10 0)
(24.95755381289137 0.0009209821192285727 0)
(24.99987589438817 6.353630349864495e-06 0)
(25.00000008242869 5.044740222995127e-08 0)
(25.00000000651296 9.753682484253453e-10 0)
(25.00153787219315 0.007612982267473805 0)
(25.00000236294824 1.180391316997362e-05 0)
(25.00000000088496 8.44375611611007e-09 0)
(24.99999999986478 1.358827545672619e-11 0)
(25.00000163642921 0.0009386799802395029 0)
(25.00000011321884 1.303269494442964e-06 0)
(25.00000000050933 1.03685666484674e-09 0)
(25 -2.886932989702805e-13 0)
(24.98882125246353 -0.0002248460573661176 0)
(24.99999071083795 5.867986226471888e-06 0)
(24.99999999933899 1.804320482895014e-09 0)
(24.9999999999255 -1.160609316576879e-11 0)
(24.79760076848649 -0.02797327172980979 0)
(24.99957049766553 0.0001689691220334606 0)
(24.99999976142407 2.236538350552789e-07 0)
(24.99999999965398 2.219588058250595e-10 0)
(24.9999999957598 -1.270539469723257e-10 0)
(24.99999654222452 3.764856575849253e-06 0)
(24.99577069288364 0.001999147525322321 0)
(24.16115697088686 0.02440110474742191 0)
(24.99999999557713 -5.078516441223523e-10 0)
(24.99999726551128 2.825551509512903e-06 0)
(24.99628117632577 0.001566881728251102 0)
(24.20342094772166 -0.006864663769519806 0)
(24.99999999630188 -6.963377256630022e-10 0)
(24.99999820419186 2.042294015479147e-06 0)
(24.99723357056985 0.001325334495956616 0)
(24.29745797351489 0.01861934491153396 0)
(24.99999999757457 5.566316710933638e-10 0)
(24.99999753543984 2.407108863260966e-06 0)
(24.99614700996069 0.00139184975213036 0)
(24.12008172400517 -0.08352510672800739 0)
(23.81087670970087 -0.01896176868612218 0)
(24.99198717590677 0.001327771879219608 0)
(24.99999455124853 3.602674711860385e-06 0)
(24.99999999588848 -2.600223331359951e-09 0)
(23.93059172186708 0.1098094701605135 0)
(24.9923019066943 0.002325259173925135 0)
(24.99999319086901 5.075111887196835e-06 0)
(24.99999999415694 -2.807425895533408e-09 0)
(24.2850365819462 0.2477503605880115 0)
(24.99373461359293 0.002812069283388115 0)
(24.99999334101934 6.250899285937577e-06 0)
(24.99999999226331 -4.161319422450242e-09 0)
(24.95159360667423 0.1410247221927019 0)
(24.99821023345228 0.001604445389583081 0)
(24.99999380351183 9.391999866133948e-06 0)
(24.99999999608728 -5.80313952331745e-09 0)
(24.99999999996682 3.775946490444403e-11 0)
(24.99999999766211 -7.711238379142223e-09 0)
(24.99998780911535 -2.69505935332343e-05 0)
(24.95660108430301 -0.07906770045641379 0)
(24.99999999995939 3.357833303690668e-11 0)
(24.99999999770061 -6.970559300430905e-09 0)
(24.99998922352104 -2.27675721610923e-05 0)
(24.96535741413437 -0.06201958447963565 0)
(25.00000000223489 -4.191482051598315e-10 0)
(24.99999999751116 -6.494741865738153e-09 0)
(24.9999902421409 -2.036680222837865e-05 0)
(24.97216988676032 -0.04952757031587291 0)
(24.99999998978226 3.178917752773179e-09 0)
(24.99999999920082 -6.432566317893773e-09 0)
(24.99999610216116 -9.085733131126996e-06 0)
(24.99008091737204 -0.01844523238894787 0)
(24.9428727874134 -0.1007056166731064 0)
(24.99998037969891 -4.266670688788598e-05 0)
(24.99999999564726 -1.41126823382728e-08 0)
(24.99999999992878 6.593139818592951e-11 0)
(24.94645870270498 -0.09265604173649263 0)
(24.99998351597984 -3.472367637923935e-05 0)
(24.9999999966079 -1.048333312983757e-08 0)
(24.99999999995307 4.67372880236889e-11 0)
(24.94945662376401 -0.08798108165293578 0)
(24.99998598413481 -2.984121941489473e-05 0)
(24.9999999973146 -8.364817957461824e-09 0)
(24.99999999996795 3.634098960510866e-11 0)
(24.95198834728288 -0.08352569000116741 0)
(24.99998791575263 -2.570047394651009e-05 0)
(24.99999999785983 -6.693487129436755e-09 0)
(24.99999999997493 2.83103583241945e-11 0)
(25 3.716661816774645e-14 0)
(24.9999999997059 -1.023733643920961e-10 0)
(24.99999809920731 -9.975202408857158e-07 0)
(24.98874707288069 -0.007538791002765242 0)
(24.99999999999502 1.28003512355526e-11 0)
(24.999999998881 -3.302820716918348e-09 0)
(24.9999922866357 -1.534289384544562e-05 0)
(24.95916784504674 -0.06385964661672418 0)
(24.99999999998785 1.776724534888528e-11 0)
(24.99999999856271 -4.450468946006357e-09 0)
(24.99999077575789 -1.963262753092527e-05 0)
(24.95604801931069 -0.07633481609176314 0)
(24.99999999998489 2.234468936095242e-11 0)
(24.99999999827024 -5.423469842476113e-09 0)
(24.99998949944254 -2.235553980140231e-05 0)
(24.95422343175846 -0.07969370159385851 0)
(24.99999999999982 4.964913591440426e-12 0)
(25 1.139951326911172e-12 0)
(25 1.37542024661136e-15 0)
(25 4.75081809706405e-16 0)
(25.00000000055937 1.35113005873082e-08 0)
(25.00000000002121 -2.30082300690852e-10 0)
(24.99999999999786 5.446236652428856e-12 0)
(25 -2.791454943693036e-15 0)
(25.00000202372151 2.543105931473455e-05 0)
(25.00000005747695 -3.812196212681565e-07 0)
(24.99999999978272 5.136348919635343e-10 0)
(25 -3.361541413844727e-13 0)
(25.0041715609927 0.02295999586706807 0)
(25.00001099645501 -2.97418208492127e-05 0)
(24.99999997487676 3.13681175526108e-08 0)
(25.00000000004714 -1.590151286383099e-11 0)
(25.00000000000002 -2.807125126367152e-15 0)
(25 -2.447582121208674e-16 0)
(25.00000000000002 7.401877183568759e-13 0)
(24.99999999929896 4.994396327692964e-10 0)
(25 5.167674032761404e-16 0)
(25 1.375720276541985e-14 0)
(24.99999999996651 4.965443125364908e-11 0)
(24.99999996625442 4.223191794217764e-08 0)
(25 4.915539764461965e-18 0)
(25 1.01199797495461e-13 0)
(24.99999999997499 2.604311725258612e-10 0)
(24.99999995101228 3.487060253645067e-07 0)
(25 4.878599426371189e-15 0)
(25.00000000000002 -2.746823478825913e-12 0)
(25.00000000171153 -6.059286298538758e-10 0)
(25.00000127286292 7.727472096538597e-07 0)
(24.99999999985214 1.139771261374685e-10 0)
(24.99999999944901 -1.961542894180301e-08 0)
(24.9999988490243 -3.90367676971859e-05 0)
(24.99941021415142 -0.04268032431619809 0)
(24.99999999990471 7.150499635930286e-11 0)
(25.0000000014577 -1.227691557627598e-08 0)
(25.00000357171916 -2.262581468246622e-05 0)
(25.00567171212108 -0.02028708032767464 0)
(24.99999999999337 1.573436344036403e-11 0)
(25.00000000085858 -2.796787706656324e-09 0)
(25.00000196738765 -4.759575728451681e-06 0)
(25.00215463159315 -0.003163721426574948 0)
(25 9.139576493409634e-13 0)
(25.00000000008232 -1.555777074156478e-10 0)
(25.00000016483489 -2.576649793972787e-07 0)
(25.00013597820537 -0.0001258679307945967 0)
(24.99207620502274 -0.02662046619696764 0)
(24.99999599913883 -6.51857516481528e-06 0)
(24.99999999902815 -7.651841370095929e-10 0)
(25.00000000000015 3.540325425981043e-12 0)
(24.99453689565581 -0.02928908380834459 0)
(24.99999800112094 -1.210907609947426e-05 0)
(24.99999999960506 -3.705035603376464e-09 0)
(24.99999999998658 2.009169466200285e-11 0)
(24.99452787859145 -0.02838747686490152 0)
(24.99999804704472 -1.136243993467641e-05 0)
(24.99999999963061 -3.383002717516935e-09 0)
(24.99999999998978 1.768868518742602e-11 0)
(24.99450844677545 -0.02568329038323046 0)
(24.9999982387341 -1.014937008335876e-05 0)
(24.99999999955969 -2.664950528614705e-09 0)
(24.99999999999235 1.358787514271689e-11 0)
(24.99516395550059 -0.02360826496971151 0)
(24.99999957316315 1.264240867174889e-06 0)
(25 -1.102536068575418e-13 0)
(25 -7.957453300707909e-15 0)
(24.99441117583142 -0.02482701245236607 0)
(25.00000006130873 -1.047060203480457e-07 0)
(25 5.547099904731548e-16 0)
(25.00000000000001 9.182602032202259e-16 0)
(24.9949785220135 -0.0168774081277051 0)
(24.9999999999997 -1.494301803588932e-11 0)
(25 2.916930549518276e-16 0)
(25.00000000000001 2.533531796578588e-15 0)
(24.99877194429179 -0.003616614639599631 0)
(25 -2.049997037568418e-13 0)
(25 -7.692071572601323e-16 0)
(25.00000000000002 -2.783321615621789e-15 0)
(25 1.163410053394257e-15 0)
(25 7.91441403742263e-16 0)
(25 0 0)
(24.99999999835339 2.493569967426708e-09 0)
(24.99999999999999 -2.843418720158383e-19 0)
(25 1.084184137092207e-15 0)
(25 -1.811756261851014e-16 0)
(25.00000010967627 1.353576658104407e-08 0)
(25 -1.073607702128362e-15 0)
(25 -6.735803697600363e-16 0)
(25 3.770665210930602e-16 0)
(25.00000070460445 1.118680278815169e-06 0)
(25 -4.670205130926188e-16 0)
(25 -6.099878444877814e-17 0)
(25.00000000000002 -8.568016009907097e-17 0)
(24.99995034320593 2.254401324062112e-05 0)
(25.00000018269863 9.935961682393835e-11 0)
(25.00000862270408 -1.98583469424783e-06 0)
(25.00011777714562 3.412671300447999e-05 0)
(24.99966051437823 -0.001016585638207326 0)
(25.00000862273929 1.985845660106559e-06 0)
(25.00002095556218 1.622784914579009e-11 0)
(25.00040723669198 -0.0008347264640135673 0)
(24.99603327726568 -0.01477165683009791 0)
(25.00011777715158 -3.41267256451497e-05 0)
(25.00040723668019 0.0008347264498363288 0)
(24.99822532190881 2.013887397748658e-11 0)
(24.86291087850129 -0.02957557758895102 0)
(24.99966051435809 0.001016585617216049 0)
(24.99603327725604 0.01477165679733607 0)
(24.86291087851289 0.02957557759363169 0)
(22.8789335616521 -2.144653501854907e-12 0)
(21.6949870149584 2.091892105439867 0)
(22.82223947588102 2.70687749551854 0)
(24.63747525707226 1.219782875888721 0)
(24.93015783973268 0.2670638505130707 0)
(22.21523992288508 4.66973702307078 0)
(22.56455262947086 5.335019250053903 0)
(24.2620285444857 3.536140547204512 0)
(24.66007282745251 1.375637156917146 0)
(22.77412593035755 5.430217558032736 0)
(23.02004538131161 6.218314492240063 0)
(24.46092068102103 4.549172005267923 0)
(24.65096030303016 2.11916241026868 0)
(22.88928495476215 5.541670963539265 0)
(23.14485706626338 6.357780236268288 0)
(24.53794773251204 4.679651020735668 0)
(24.67109640419909 2.192209610146491 0)
(24.64556556333417 2.335508881551063 0)
(24.6530723222673 2.426435602213417 0)
(24.66305692438567 2.448631579290344 0)
(24.51376835253436 2.590451544865409 0)
(24.50946220256186 4.772815718893354 0)
(24.52368376556704 4.827386766879393 0)
(24.53709188594248 4.841722833628801 0)
(24.55291995810403 5.435490323466072 0)
(23.0729448086043 6.401901656910882 0)
(23.091321665449 6.417634143744435 0)
(23.10765277125839 6.42600389571542 0)
(23.59556287728637 7.67684458798136 0)
(22.8428050309966 5.536472353330682 0)
(22.87034633836382 5.568311310259009 0)
(22.88651885378787 5.580893620435075 0)
(24.79055734455007 7.190529496942839 0)
(25.1655575080814 1.976944276070668 0)
(25.34527949978487 0.6404571543800348 0)
(25.07016629839622 0.0614735234193254 0)
(25.00257790482637 0.0006627822011615687 0)
(25.94883385694457 2.951489090728566 0)
(25.69794880157251 0.6890534847512786 0)
(25.10316421311328 0.04280276462231802 0)
(25.00304426092653 -0.001709501572246743 0)
(27.27543713672825 3.200795682257755 0)
(26.17376617367103 0.2668715573232407 0)
(25.13818454776759 -0.03257644433059829 0)
(25.00612637511898 -0.005333054994888664 0)
(23.44633984521162 0.5237850614550967 0)
(24.41445728995216 -0.04771705360362589 0)
(24.88990318123838 -0.02772128358181908 0)
(24.98243798286783 -0.004491653888393679 0)
(25.00003733485553 -8.705590223084835e-05 0)
(24.9999944602469 -1.725750567797347e-05 0)
(24.99999932376198 -5.211429864008151e-07 0)
(24.99999999413693 -4.005218844692527e-10 0)
(25.00019212182962 -0.0003015468988577412 0)
(25.00000801458513 -1.614093955468982e-05 0)
(24.99999988753242 -3.286072737979495e-08 0)
(24.99999999992375 2.720290756402608e-09 0)
(25.00080763287208 -0.0005449034822442862 0)
(25.00002643449317 -2.569306839035742e-05 0)
(25.00000018413672 -1.890713193830531e-07 0)
(25.00000000158566 3.712713229074869e-09 0)
(24.99783793979883 -0.0005822572026667651 0)
(24.99990500590445 -2.470762498031396e-05 0)
(24.99999924511657 -1.720409530182467e-07 0)
(25.00000000354659 2.633925433805942e-09 0)
(24.99999999983582 4.196187361266589e-10 0)
(25.00000000402298 -3.746555611819753e-10 0)
(24.99999767128551 -1.595122204064245e-06 0)
(25.28041651258384 -0.9388528770748977 0)
(25.00000000064893 1.231197712017785e-09 0)
(25.00000000061776 -3.458847446593674e-11 0)
(24.99999972676954 -3.301153959761213e-07 0)
(25.20658524224812 -1.45759151112022 0)
(25.00000000155168 1.357507230056538e-09 0)
(25.00000000025486 1.45920839325914e-10 0)
(24.99999998464401 -4.100940959815743e-08 0)
(23.400679730978 -1.359174049022494 0)
(25.00000000225969 1.22482397190436e-09 0)
(25.00000000035305 1.608063032594914e-10 0)
(24.99999999577274 4.873200266928625e-09 0)
(20.26779986319482 -2.750606878384529 0)
(22.88440896130965 2.531349261993712 0)
(21.21890117101038 6.1972199329983 0)
(21.38193028817874 6.717840298912817 0)
(21.40006037838418 6.718044592480249 0)
(18.56972922461335 7.482861933953742 0)
(18.5442256664039 11.08685256168987 0)
(18.89098569111797 11.50565303792226 0)
(18.90878860076736 11.50288353127628 0)
(14.06576764961201 8.977176442486099 0)
(15.52823614714853 12.37248750453076 0)
(15.87220401482392 12.67079474579269 0)
(15.87889457236004 12.66176692260592 0)
(13.41265802268452 7.725040995540192 0)
(15.56123628375786 11.18981349301638 0)
(15.90500479684831 11.46380577438956 0)
(15.90815108693534 11.44952204037459 0)
(21.4001956049169 6.714952307864652 0)
(21.39604090396756 6.719510330097006 0)
(21.39129348234872 6.726006870428829 0)
(21.39146389108501 6.785258138002376 0)
(18.90761108614955 11.49450147434458 0)
(18.90586998284394 11.49336398039704 0)
(18.90509366793844 11.49415524629611 0)
(18.92513313385691 11.51754729846661 0)
(15.87473349409384 12.64984168244338 0)
(15.87376052969391 12.64687366056223 0)
(15.87423180568474 12.64655280843836 0)
(15.89998650327185 12.64480408307791 0)
(15.90133878610677 11.43866617691975 0)
(15.89877376479099 11.43630189958616 0)
(15.89884244208518 11.43641638914781 0)
(15.91092346432685 11.43945773161791 0)
(21.94051561119476 5.933248946622665 0)
(22.26490167708151 5.21011483400703 0)
(22.61372487868264 4.567163176441454 0)
(23.6203084022305 2.375069845742588 0)
(19.28401455371411 11.19467498703647 0)
(19.48401283655604 10.84485222228609 0)
(19.91667767961572 10.43646179818562 0)
(21.55034337186415 9.04166287489608 0)
(16.02214627817425 12.60764535053295 0)
(16.0080455494564 12.55564155425301 0)
(16.50206943541786 12.63920589869578 0)
(20.02396199101419 15.37190309378438 0)
(15.98281303703106 11.38169607419089 0)
(16.02517784107668 11.24242595369719 0)
(16.77471595077671 11.37175245567186 0)
(25.84427524497865 16.23446495018523 0)
(25.59842141171919 -0.5326330358052228 0)
(18.71623178197405 -4.063677631470301 0)
(8.235811801700672 -1.261637130509871 0)
(7.045872749511249 -0.1157198314779409 0)
(26.15674705031019 1.759453213240326 0)
(15.76941382222378 -5.331346658201634 0)
(2.203160008476591 -1.451576582606089 0)
(0.3776965683759737 -0.1452209283429792 0)
(22.97001406220524 2.137161364311806 0)
(13.37569560539438 -6.87993550132011 0)
(-0.4758574997092414 -1.062098469024963 0)
(-1.348858544485691 -0.3112275536325995 0)
(18.36510791227859 -9.118869995632846 0)
(9.41149123421336 -8.221143244240004 0)
(0.4477601554451509 -0.5545789885907377 0)
(0.05386945181963846 -0.1724962877716303 0)
(6.948891939298659 -0.08031295744934225 0)
(7.038524595063453 0.002332102593822119 0)
(7.076022952125818 0.04441979949636098 0)
(5.170343473352174 2.929980035839874 0)
(0.4073706648772799 -0.1316185111871543 0)
(0.4024140930124117 0.03675299456095811 0)
(0.5704981798549864 0.8277618198607638 0)
(0.5253489553968771 6.185947099952848 0)
(-1.340502532947018 -0.2575044216238753 0)
(-1.356336211310661 0.06224832811821151 0)
(-1.207027542270801 1.546848856533326 0)
(1.203893316503505 8.095315505682334 0)
(0.4053337089810274 -0.1203431375865292 0)
(0.3984526305621672 0.05849886808695423 0)
(0.2579843080521688 1.57381101415558 0)
(-0.1265594466990042 9.929527279398823 0)
(21.00262021763725 -1.239441899297693 0)
(24.39704370884956 -0.1195199805751561 0)
(24.99121972202584 -0.0688449622696832 0)
(25.07129351338127 -0.4484249543322791 0)
(17.65273718199443 -1.551311985935053 0)
(23.57709933013044 -0.416709410758799 0)
(24.96859565300774 -0.4157879890679553 0)
(25.29074106729222 -0.9230381391597217 0)
(13.98434247335297 0.3154788386608631 0)
(22.73720194218002 -1.380070907386192 0)
(24.78584968969872 -1.022471591867523 0)
(28.3619966023247 -1.093894951016928 0)
(10.19824284209219 7.972022072972528 0)
(18.16079234272236 3.379196261507367 0)
(22.45844307849023 0.5612331350658654 0)
(34.06230462271006 0.047709247544916 0)
(24.60152290011879 -1.005220577158838 0)
(23.16343022563976 -1.764342018992542 0)
(21.32844825371923 -1.086002776933817 0)
(20.47293068211926 -0.3755573764036302 0)
(25.56432499879919 -4.344805125068957 0)
(20.69050480316001 -6.439984824348894 0)
(15.49575685405586 -4.253179922861959 0)
(12.65019664591109 -1.532127035182296 0)
(28.95873597488436 -9.253157995777471 0)
(20.05268592515589 -13.95132340358266 0)
(12.31089234568405 -9.948695591706171 0)
(7.820110539723205 -4.085382181580186 0)
(17.96744719394509 -10.96832000694567 0)
(8.193074906511669 -15.53047334089974 0)
(5.380822623996068 -11.77214476713993 0)
(3.094692207180014 -5.338891544540735 0)
(2.496481259157793 -0.6482694767304922 0)
(2.533891131144564 -0.2223765034175328 0)
(2.528943931000995 -0.1356982181958832 0)
(2.535095952297057 -0.02544622426443803 0)
(7.096507642547708 -1.288652789537424 0)
(7.30115923861075 -0.6629202580554741 0)
(7.263995915029553 -0.3394582232693699 0)
(7.257378815867295 -0.06180813239245571 0)
(12.07701362887425 -0.5652263925212473 0)
(12.16748518231148 -0.2663591245851737 0)
(12.08495742684945 -0.1672247851641394 0)
(12.03935678788632 -0.03639630653103933 0)
(20.09946851531171 -0.1647549897046251 0)
(20.10649654337965 -0.04581453470588148 0)
(20.07466013367217 -0.03159517298645313 0)
(20.05583500547495 -0.006764071064545884 0)
(2.535095952299829 0.02544622428781081 0)
(7.257378815874547 0.06180813235291217 0)
(12.03935678786916 0.03639630658200289 0)
(20.05583500547369 0.006764071160070474 0)
(2.528943930995993 0.1356982182005155 0)
(7.263995915044879 0.3394582232980341 0)
(12.08495742685712 0.1672247851266194 0)
(20.07466013370674 0.0315951728675073 0)
(2.533891131139874 0.2223765033840174 0)
(7.30115923860515 0.6629202581078893 0)
(12.16748518233114 0.2663591245612485 0)
(20.10649654340192 0.04581453469759138 0)
(2.496481259163327 0.6482694767313147 0)
(7.096507642535592 1.288652789540196 0)
(12.07701362888318 0.5652263925039588 0)
(20.0994685153403 0.1647549896951296 0)
(20.47293068213634 0.3755573764122922 0)
(21.32844825372661 1.086002776938273 0)
(23.16343022567291 1.764342018961585 0)
(24.60152290016772 1.005220577174244 0)
(12.65019664593292 1.532127035187237 0)
(15.49575685404304 4.253179922913239 0)
(20.69050480313416 6.439984824305506 0)
(25.56432499882931 4.344805125069716 0)
(7.820110539715263 4.085382181577724 0)
(12.31089234567949 9.948695591677582 0)
(20.05268592515678 13.95132340359094 0)
(28.95873597488609 9.253157995764115 0)
(3.094692207179425 5.33889154453923 0)
(5.380822623997131 11.77214476714515 0)
(8.19307490650541 15.53047334089212 0)
(17.96744719394124 10.96832000695081 0)
(34.06230462269588 -0.04770924754937608 0)
(22.45844307847694 -0.5612331350422962 0)
(18.16079234273624 -3.379196261501459 0)
(10.19824284207996 -7.97202207297143 0)
(28.36199660233519 1.093894951009432 0)
(24.7858496897406 1.022471591832008 0)
(22.73720194216953 1.380070907398444 0)
(13.9843424733478 -0.3154788386525378 0)
(25.29074106731025 0.9230381391475192 0)
(24.96859565305485 0.4157879890754047 0)
(23.57709933012539 0.4167094107630166 0)
(17.6527371819927 1.551311985954832 0)
(25.07129351339646 0.4484249543233932 0)
(24.99121972204769 0.06884496226807028 0)
(24.39704370885615 0.1195199805842141 0)
(21.00262021761902 1.239441899322056 0)
(5.170343473360199 -2.929980035839152 0)
(7.076022952125343 -0.04441979949373167 0)
(7.038524595065756 -0.002332102601248987 0)
(6.948891939304749 0.08031295744124668 0)
(0.5253489554077142 -6.185947099951515 0)
(0.5704981798588925 -0.8277618198505795 0)
(0.4024140930152143 -0.03675299455808768 0)
(0.4073706648905915 0.1316185111910662 0)
(1.203893316493367 -8.095315505682684 0)
(-1.207027542271913 -1.546848856546599 0)
(-1.356336211335823 -0.06224832811683009 0)
(-1.340502532958481 0.2575044216268755 0)
(-0.1265594467065241 -9.929527279436364 0)
(0.2579843080476465 -1.573811014171216 0)
(0.3984526305462944 -0.05849886808550653 0)
(0.4053337089726631 0.120343137601958 0)
(7.045872749533654 0.1157198314772378 0)
(8.235811801649819 1.261637130505562 0)
(18.71623178186439 4.063677631462248 0)
(25.59842141170878 0.5326330358177435 0)
(0.3776965683989038 0.1452209283383159 0)
(2.203160008418193 1.451576582574394 0)
(15.76941382215798 5.331346658188855 0)
(26.15674705032789 -1.759453213231952 0)
(-1.348858544492787 0.3112275536270239 0)
(-0.4758574997608286 1.062098468997741 0)
(13.37569560533667 6.879935501310388 0)
(22.97001406224641 -2.137161364325761 0)
(0.05386945181492589 0.1724962877633641 0)
(0.4477601554170844 0.5545789885570894 0)
(9.4114912342016 8.221143244219675 0)
(18.3651079122943 9.118869995620303 0)
(23.62030840224811 -2.375069845721363 0)
(22.61372487867929 -4.567163176437709 0)
(22.26490167709024 -5.210114833993368 0)