/*--------------------------------*- C++ -*----------------------------------*\
  =========                 |
  \\      /  F ield         | OpenFOAM: The Open Source CFD Toolbox
   \\    /   O peration     | Website:  https://openfoam.org
    \\  /    A nd           | Version:  11
     \\/     M anipulation  |
\*---------------------------------------------------------------------------*/
FoamFile
{
    format      ascii;
    class       volScalarField;
    location    "1.25";
    object      p;
}
// * * * * * * * * * * * * * * * * * * * * * * * * * * * * * * * * * * * * * //

dimensions      [0 2 -2 0 0 0 0];

internalField   nonuniform List<scalar> 
4455
(
4103.5857
4113.7309
4133.5792
4166.0001
4208.9586
4267.5772
4338.4658
4447.7791
4515.3846
4098.6419
4109.4132
4131.0857
4164.6542
4211.3028
4273.0708
4354.6989
4467.6349
4587.3169
4088.4158
4100.9886
4124.8545
4160.5997
4209.6631
4274.9684
4360.5592
4483.742
4613.1113
4073.2499
4088.7339
4115.1752
4153.397
4204.4591
4273.6183
4363.7001
4497.8608
4643.3152
4054.2615
4072.9877
4102.2848
4143.0072
4196.1518
4268.7017
4365.4218
4511.3716
4685.596
4032.3043
4054.3514
4086.5361
4129.616
4184.9821
4260.9298
4364.5064
4524.9373
4725.9686
4008.1703
4033.4326
4068.3765
4113.4544
4170.675
4249.9969
4360.2715
4537.6573
4767.8515
3982.8652
4010.8014
4048.2274
4094.9839
4153.7257
4236.2874
4352.2804
4548.2179
4810.1843
3957.1468
3987.1769
4026.4837
4074.6364
4134.5851
4220.3785
4341.7072
4556.5225
4855.4723
3931.6613
3907.1434
3884.4104
3863.86
3845.722
3830.3013
3817.8416
3808.5538
3802.6857
3963.0083
3938.6885
3914.9629
3892.2958
3871.1135
3851.8047
3834.7279
3820.2155
3808.3644
4003.3147
3978.9053
3954.2013
3929.6399
3905.5846
3882.3466
3860.1312
3838.9915
3818.5855
4052.177
4027.3853
4001.4832
3974.9331
3948.0619
3921.251
3894.8778
3869.3105
3844.202
4112.9329
4088.108
4061.7573
4034.2658
4005.7147
3976.478
3946.986
3917.8692
3888.57
4201.9599
4179.4353
4154.5738
4127.6697
4098.3768
4067.286
4034.9235
4002.3647
3969.7015
4329.0717
4312.4896
4293.6188
4271.5409
4243.6971
4210.5978
4173.1041
4133.4934
4092.786
4564.9459
4562.632
4548.4466
4523.3064
4488.4016
4447.0225
4401.5871
4353.3222
4301.9446
4916.6346
4957.8976
4950.4427
4894.3751
4811.3152
4714.6848
4611.8896
4506.2359
4400.5219
3801.3063
3799.3751
3795.4566
3790.273
3783.4627
3775.5959
3765.7426
3754.6679
3741.2571
3801.5415
3794.8654
3786.2831
3775.828
3763.487
3749.3846
3733.4434
3715.652
3695.8293
3804.3128
3793.5143
3782.4221
3770.5318
3757.433
3742.8515
3726.6184
3708.6651
3688.9143
3825.749
3812.9521
3800.8374
3788.343
3774.6459
3759.2721
3741.9705
3722.6659
3701.3097
3865.0863
3850.2172
3837.6333
3825.2275
3811.4827
3795.7271
3777.683
3757.3436
3734.8443
3942.8325
3926.0431
3912.0665
3898.021
3882.1409
3863.8373
3842.968
3819.7293
3794.6489
4059.1571
4038.3359
4021.5257
4004.1966
3984.1972
3961.1237
3935.207
3906.9714
3877.4226
4252.9243
4208.2652
4162.5297
4115.3933
4066.4593
4016.006
3965.1366
3915.1646
3867.8995
4307.202
4223.7938
4140.4641
4058.564
3978.7046
3901.6139
3828.1496
3760.0019
3701.9521
3666.9463
3636.3705
3623.6746
3640.2788
3686.0429
3754.7524
3836.13
3924.2157
4016.0326
3827.8375
3793.7414
3765.0632
3743.4129
3729.489
3723.5359
3726.5116
3738.5092
3757.7122
3848.8541
3822.1944
3796.6031
3772.8754
3751.5468
3733.0327
3717.4945
3705.1042
3695.9307
3768.9694
3743.7743
3718.2902
3692.6578
3666.9705
3641.3419
3615.8612
3590.6677
3565.8508
3710.9964
3686.4418
3660.6686
3633.7768
3605.8151
3576.8594
3546.9417
3516.1436
3484.4528
3678.3089
3653.9065
3627.6953
3599.666
3569.7816
3538.0137
3504.3028
3468.6379
3430.9465
3667.5558
3644.6161
3619.7969
3593.0444
3564.2702
3533.3747
3500.2186
3464.6914
3426.6307
3674.0693
3650.2112
3624.2093
3596.0236
3565.6799
3532.962
3497.7803
3459.823
3419.0287
3724.1551
3703.4822
3681.4524
3657.9394
3632.8271
3605.3933
3575.3483
3542.1442
3505.7021
3465.6592
3422.0211
3374.372
3322.7259
3266.5523
3205.8099
3139.8026
3068.508
2990.9985
3375.0622
3327.889
3277.2171
3223.0268
3164.9035
3102.8083
3036.2232
2965.0588
2888.6529
3385.9351
3342.4158
3295.9879
3246.4099
3193.5717
3137.1287
3076.9401
3012.5344
2943.7219
3391.234
3349.3866
3305.4036
3259.0827
3210.3879
3158.9704
3104.7338
3047.1423
2986.0242
3451.939
3418.5053
3384.1942
3348.7696
3312.2269
3274.1382
3234.4368
3192.4775
3148.1317
3541.5687
3517.8638
3494.851
3472.3814
3450.4735
3428.615
3406.6664
3383.7456
3359.6133
3690.0807
3687.4199
3687.8996
3690.9582
3696.3927
3703.3828
3711.6778
3720.3026
3728.8742
3783.3883
3814.921
3851.8609
3893.698
3939.891
3989.8446
4042.9075
4098.3653
4155.403
4110.7598
4207.648
4306.609
4407.2723
4510.3684
4615.6374
4723.9043
4834.6506
4948.4487
5064.4565
4213.0808
3736.3136
3333.1134
3100.5352
2920.6319
2869.8833
2806.8988
2907.2526
5182.6602
4270.3123
3741.9991
3303.9219
3049.5011
2850.7145
2790.7862
2718.9543
2816.1929
5301.9335
4325.7291
3744.9126
3270.6303
2993.9524
2775.3107
2705.677
2624.6915
2717.7473
5421.5163
4377.8291
3744.0667
3232.7172
2933.6398
2694.099
2614.2891
2523.0798
2610.6827
5538.2649
4424.5387
3737.9269
3188.4268
2867.2722
2605.9243
2515.7355
2413.9089
2495.0356
5650.8489
4463.7516
3725.03
3136.9732
2794.5016
2510.4199
2409.6933
2296.0947
2369.5697
5749.3764
4492.4043
3703.276
3076.9314
2713.781
2406.3407
2295.1609
2169.3744
2234.4499
5829.8689
4507.5457
3670.5367
3007.1277
2624.4551
2293.4104
2171.6339
2033.1816
2089.2291
5869.568
4502.1613
3622.8674
2925.5505
2524.3991
2170.4322
2037.6301
1887.4833
1934.4373
1771.1208
1731.5015
1890.2359
2035.4374
2408.6764
2827.4174
3552.5763
4464.6695
5858.8984
1603.8525
1564.1389
1726.3315
1886.0774
2269.9707
2703.3135
3437.7489
4351.5489
5634.0585
1414.6321
1383.8905
1547.1394
1721.7124
2109.4719
2552.7135
3281.4995
4176.2232
5366.1537
1200.0068
1189.1975
1352.7856
1541.7536
1929.1174
2379.6047
3098.041
3974.6778
5116.5515
957.55294
978.45816
1143.2969
1345.912
1732.3454
2189.7506
2898.7483
3763.9951
4875.8904
699.93977
751.72451
918.57211
1135.0758
1520.9271
1985.8791
2687.8282
3545.6303
4635.5664
424.82614
508.55518
678.28494
908.90798
1295.6329
1768.0615
2464.6725
3316.2182
4389.5082
135.57606
249.83068
422.10353
668.04527
1056.2153
1536.24
2228.4249
3073.5227
4136.0676
-174.80036
-24.666184
149.43171
411.69158
802.16872
1288.9288
1977.6776
2816.5406
3876.1234
3610.3218
2545.4723
1712.2603
1025.9398
532.8226
140.43711
-140.04491
-314.80106
-503.18227
3340.0737
2261.2968
1431.9112
747.12038
247.73888
-146.40937
-447.19238
-620.6615
-853.72965
3065.9429
1963.8916
1137.4437
453.00326
-53.558093
-448.19578
-771.45449
-941.75775
-1221.7903
2786.6299
1653.5046
828.85673
143.81628
-370.81057
-765.5053
-1113.8006
-1278.7589
-1610.6156
2499.4397
1328.7563
507.17669
-179.98137
-703.85498
-1097.942
-1471.9289
-1630.3878
-2015.6746
2202.2314
989.59638
172.18847
-517.88598
-1051.784
-1445.4968
-1846.6177
-1997.5544
-2439.9676
1892.5709
634.92211
-174.82093
-869.20572
-1414.1045
-1807.5406
-2234.5175
-2378.5509
-2878.2175
1569.2035
265.53693
-533.68815
-1233.2795
-1789.7753
-2184.1833
-2636.2005
-2773.991
-3331.8922
1229.9814
-119.10794
-903.46238
-1609.6445
-2178.5884
-2573.9433
-3047.4258
-3181.6941
-3790.9367
-4245.822
-3605.3757
-3473.0696
-2985.6077
-2589.5055
-2012.5883
-1302.5307
-544.73721
838.62652
-4687.5083
-4045.3833
-3908.2244
-3420.6226
-3025.6153
-2447.5885
-1735.7966
-1028.8076
362.49669
-5142.3103
-4497.071
-4348.7063
-3869.306
-3472.8586
-2896.9256
-2179.562
-1525.773
-156.38314
-5609.0545
-4956.5545
-4791.0424
-4327.6725
-3930.8881
-3357.2664
-2628.1201
-2024.1205
-716.78209
-6083.932
-5421.2322
-5236.5042
-4793.1698
-4396.7068
-3826.1587
-3076.9011
-2509.8695
-1324.2477
-6541.192
-5884.7604
-5681.2718
-5259.8298
-4868.989
-4302.42
-3519.864
-2971.7697
-1993.0574
-6980.8369
-6342.8467
-6124.026
-5725.2604
-5343.6862
-4786.5098
-3956.7151
-3386.2001
-2753.2095
-7388.4071
-6788.4635
-6558.4825
-6183.0027
-5817.8341
-5278.6935
-4388.961
-3734.0208
-3598.3168
-7825.3867
-7214.6516
-6982.2654
-6629.8259
-6283.2853
-5776.7169
-4820.6246
-3982.4122
-4450.6247
-8249.7668
-7617.4762
-7397.1349
-7065.5453
-6751.0459
-6289.2487
-5293.7333
-4097.2118
-5102.8727
-8607.4958
-7988.378
-7801.5697
-7489.4581
-7204.1004
-6770.4501
-5734.5625
-4098.9249
-5454.9169
-8890.6214
-8335.9929
-8186.6529
-7894.5943
-7628.2364
-7186.0279
-6095.9333
-4165.4878
-5289.7833
-9121.9554
-8660.9956
-8549.8511
-8293.1397
-8042.6359
-7591.6549
-6394.9489
-4350.5156
-4202.3235
-9312.9842
-8966.4478
-8892.5649
-8695.0036
-8472.0495
-8031.46
-6666.7022
-4742.7399
-4066.1416
-9466.9933
-9249.651
-9212.3128
-9109.0552
-8918.2706
-8522.9186
-6962.9772
-5089.0344
-4670.9378
-9579.2046
-9513.2773
-9506.36
-9536.9065
-9380.1451
-9059.4168
-7256.794
-5087.2905
-4611.6174
-9646.8613
-9757.8527
-9771.9184
-9979.2592
-9852.1916
-9604.5479
-7506.5907
-5277.2682
-4817.3394
-9664.3129
-9983.423
-10008.386
-10428.985
-10335.708
-10177.347
-7713.6905
-5587.4407
-4883.5081
-4915.0372
-5691.9632
-7855.0208
-10667.297
-10793.309
-10849.974
-10206.636
-10179.898
-9647.1278
-4930.1901
-5740.2399
-8094.5207
-11154.104
-11217.366
-11229.008
-10373.842
-10342.952
-9586.8391
-4958.2443
-5821.9322
-8415.8681
-11645.856
-11646.07
-11585.247
-10512.891
-10468.856
-9481.2849
-5010.1166
-5998.3492
-8765.8975
-12123.956
-12077.112
-11916.965
-10625.784
-10553.323
-9329.8154
-5084.6842
-6176.5091
-9136.1902
-12578.539
-12508.977
-12223.225
-10709.531
-10594.276
-9139.9802
-5165.233
-6347.1593
-9532.4042
-13020.955
-12937.886
-12501.616
-10767.988
-10593.664
-8913.8256
-5250.9611
-6521.2922
-9925.7116
-13455.394
-13360.448
-12746.193
-10798.902
-10550.805
-8658.5295
-5380.8362
-6667.7247
-10314.221
-13863.701
-13768.999
-12949.326
-10803.882
-10464.285
-8376.3686
-5459.6639
-6751.991
-10636.158
-14301.302
-14219.688
-13102.694
-10780.327
-10326.59
-8042.2162
-5542.1058
-7101.5003
-11189.254
-14971.139
-14810.906
-13235.006
-10673.765
-10007.193
-7437.0817
-5725.922
-7870.532
-12749.092
-16343.619
-15481.28
-13190.136
-10341.883
-9385.9139
-6554.1729
-5856.557
-8713.2381
-13754.675
-17531.097
-15888.042
-12907.23
-9829.6901
-8606.1478
-5640.5859
-5940.5268
-9628.5366
-15266.062
-18604.592
-16021.904
-12387.04
-9147.1931
-7691.8167
-4729.6457
-6246.1198
-10564.094
-16300.599
-19517.475
-15858.122
-11659.388
-8371.154
-6712.5837
-3867.3901
-6709.7356
-11500.247
-17675.983
-20274.754
-15414.605
-10746.692
-7533.4487
-5704.5417
-3105.6343
-7245.2033
-12422.892
-18693.073
-20734.803
-14697.679
-9722.0671
-6696.8331
-4721.7175
-2453.9057
-7796.8527
-13345.535
-19797.889
-20902.933
-13749.568
-8631.5866
-5881.1149
-3780.3553
-1924.422
-8261.3999
-14307.006
-20689.279
-20577.215
-12606.305
-7592.8866
-5132.1797
-2928.2574
-1519.0558
-7576.959
-12673.549
-19963.275
-20703.646
-13061.238
-6419.7977
-3702.6033
-1273.9023
887.10004
-7579.6134
-12692.905
-20025.393
-20756.381
-13203.687
-6470.4384
-3744.3321
-1473.1226
753.46732
-7599.4259
-12708.88
-20172.958
-20880.249
-13374.968
-6565.4771
-3822.2444
-1671.2673
624.52291
-7631.3427
-12773.572
-20468.477
-20968.818
-13663.451
-6715.5752
-3895.725
-1869.534
464.44403
-7666.1179
-12837.259
-20714.785
-21186.495
-13956.62
-6895.4055
-4037.0221
-2049.6186
330.0148
-7708.7395
-12912.269
-20947.669
-21581.317
-14237.835
-7079.5681
-4189.1676
-2217.1073
198.04096
-7753.1056
-13003.594
-21203.38
-21888.961
-14542.002
-7241.4238
-4366.0225
-2378.1465
90.328747
-7795.2365
-13112.501
-21482.163
-22285.273
-14896.321
-7379.3389
-4527.6746
-2500.279
-7.8408147
-7825.3079
-13232.47
-21753.28
-22600.883
-15151.24
-7485.6748
-4675.2557
-2528.905
-159.19246
-8295.9744
-14432.483
-20876.458
-20583.333
-12454.326
-7541.0405
-5125.5866
-2918.4495
-1513.0413
-7826.1688
-13463.796
-19984.571
-20930.287
-13621.307
-8566.7529
-5866.3882
-3769.0677
-1917.5421
-7267.3801
-12528.005
-18875.795
-20788.466
-14594.992
-9652.323
-6672.843
-4707.4338
-2445.6284
-6726.9893
-11592.191
-17853.939
-20350.811
-15337.731
-10680.762
-7501.334
-5686.2947
-3095.381
-6261.4043
-10641.855
-16466.218
-19613.015
-15807.273
-11600.917
-8334.8794
-6690.2172
-3854.6504
-5957.466
-9692.0032
-15428.242
-18712.808
-15997.124
-12339.593
-9110.7261
-7666.2452
-4714.0133
-5872.046
-8763.8366
-13895.983
-17646.44
-15887.543
-12873.227
-9796.6701
-8579.3398
-5622.3046
-5737.4777
-7908.5447
-12886.046
-16461.416
-15500.529
-13169.378
-10314.771
-9359.9863
-6533.9614
-5551.2202
-7128.5448
-11299.461
-15085.366
-14844.331
-13227.001
-10653.81
-9984.37
-7416.3276
-9641.3403
-10184.381
-10217.447
-10878.285
-10843.611
-10746.876
-7915.6389
-5697.5977
-4913.078
-9578.4117
-10344.635
-10382.08
-11255.534
-11268.32
-11238.017
-8160.3643
-5745.6288
-4929.2733
-9470.3086
-10467.45
-10518.336
-11609.4
-11697.158
-11734.234
-8486.5392
-5832.4226
-4959.2107
-9316.5676
-10548.677
-10628.205
-11938.203
-12127.892
-12217.123
-8841.6089
-6012.285
-5013.4344
-9124.7345
-10586.405
-10708.739
-12241.087
-12558.96
-12676.814
-9217.6655
-6191.8454
-5089.7742
-8896.9306
-10582.693
-10763.862
-12515.723
-12986.715
-13124.053
-9619.182
-6364.6071
-5171.8618
-8640.2775
-10536.906
-10791.409
-12756.179
-13407.654
-13563.126
-10018.035
-6540.7968
-5258.7332
-8357.1055
-10447.654
-10793.021
-12954.821
-13814.189
-13975.397
-10411.389
-6689.048
-5389.909
-8022.1798
-10307.461
-10766.119
-13103.253
-14261.743
-14415.145
-10741.507
-6773.0596
-5469.5146
-4880.9801
-5594.2108
-7772.2262
-10252.825
-10384.88
-10458.707
-10021.785
-9990.4816
-9661.1195
-4815.4318
-5288.4477
-7562.0915
-9674.6387
-9899.7829
-10009.965
-9787.8872
-9767.2715
-9646.0338
-4607.4162
-5095.8311
-7308.8086
-9124.3507
-9426.094
-9568.215
-9524.6845
-9524.8936
-9581.1043
-4668.2516
-5099.8664
-7011.7239
-8582.5583
-8962.5258
-9140.6601
-9232.6363
-9263.3928
-9471.7328
-4066.7201
-4755.8562
-6712.1426
-8086.1882
-8514.5849
-8726.6998
-8914.5342
-8982.1967
-9320.5018
-4198.8454
-4365.2767
-6437.9268
-7642.1434
-8083.3899
-8324.687
-8573.0884
-8678.5954
-9132.0582
-5284.9944
-4183.1251
-6137.1637
-7232.8711
-7667.1804
-7925.8411
-8210.8377
-8355.2203
-8903.0992
-5452.7865
-4118.6722
-5773.9896
-6814.1253
-7241.2544
-7520.3051
-7826.5459
-8009.0433
-8622.2079
-5103.5822
-4117.1723
-5329.8003
-6329.4864
-6786.6354
-7096.1134
-7422.8017
-7639.4165
-8266.727
-4268.0489
-3627.9508
-3495.5577
-3008.1757
-2610.6976
-2030.7174
-1315.7918
-553.97807
830.35316
-4710.031
-4068.684
-3931.5918
-3444.4136
-3048.2936
-2467.2295
-1750.0194
-1038.1973
354.52619
-5165.0745
-4521.007
-4372.9173
-3894.3331
-3497.1704
-2918.3435
-2195.0434
-1535.3041
-163.94102
-5631.9075
-4980.9702
-4816.0325
-4353.9067
-3956.9291
-3380.7061
-2645.2033
-2034.0523
-723.90374
-6106.6601
-5445.9051
-5262.1764
-4820.5756
-4424.5486
-3851.8795
-3095.9518
-2520.3758
-1330.713
-6563.4948
-5909.451
-5707.4453
-5288.286
-4898.6111
-4330.684
-3541.3121
-2983.3286
-1998.6106
-7002.4087
-6367.2893
-6150.4807
-5754.608
-5375.0516
-4817.5605
-3981.0368
-3399.2402
-2757.3824
-7408.9579
-6812.3726
-6584.9497
-6213.0036
-5850.7979
-5312.6979
-4416.6976
-3749.126
-3601.1184
-7844.4977
-7237.728
-7008.469
-6660.2137
-6317.6672
-5813.7859
-4852.2337
-3999.9831
-4452.4662
1221.3417
-128.35138
-916.07797
-1626.5606
-2198.4551
-2595.3587
-3069.0181
-3203.4897
-3812.6991
1560.2913
256.27736
-545.82832
-1249.1952
-1808.4783
-2204.5147
-2656.9113
-2794.9884
-3353.0686
1883.4302
625.61848
-186.56192
-884.26902
-1431.7654
-1826.8513
-2254.354
-2398.7369
-2898.7236
2193.1864
980.28668
160.77669
-532.22265
-1068.5251
-1463.8472
-1865.607
-2016.9391
-2459.7549
2490.4128
1319.3951
496.02813
-193.69941
-719.7729
-1115.4059
-1490.1
-1648.9914
-2034.7164
2777.6316
1644.1456
817.94482
130.63981
-386.00463
-782.16
-1131.1988
-1296.617
-1628.9062
3056.9404
1954.5424
1126.7281
440.29918
-68.100492
-464.12702
-788.12361
-958.90028
-1239.3379
3331.1296
2251.9859
1421.381
734.83542
233.77336
-161.66751
-463.185
-637.12184
-870.55068
3601.4291
2536.2039
1701.8912
1014.0228
519.38174
125.80018
-155.40824
-330.59734
-519.30037
1759.9397
1720.1928
1879.1437
2024.6008
2398.3429
2817.7019
3543.5193
4456.1875
5851.0238
1592.2309
1552.4372
1714.8729
1874.9327
2259.3858
2693.4213
3428.572
4342.9666
5626.0285
1402.5554
1371.7778
1535.2952
1710.236
2098.612
2542.6286
3272.1844
4167.5436
5357.9598
1187.4551
1176.6502
1340.538
1529.9187
1917.9605
2369.3108
3088.5776
3965.8805
5108.1985
944.49394
965.44529
1130.6152
1333.6949
1720.877
2179.2345
2889.1362
3755.1034
4867.435
686.33453
738.22139
905.42287
1122.4465
1509.127
1975.124
2678.066
3536.6474
4627.009
410.63792
494.52981
664.63797
895.83736
1283.4765
1757.0592
2454.7623
3307.1557
4380.8722
120.77543
235.24954
407.92252
654.49589
1043.6704
1524.949
2218.3651
3064.3838
4127.3247
-190.24399
-39.839234
134.67037
397.62334
789.19776
1277.3299
1967.4682
2807.3351
3867.2935
1923.6722
2078.8532
2224.4427
2359.9127
2485.7131
2601.6792
2709.0492
2807.7871
2899.1274
1876.5451
2022.5912
2159.1175
2286.1566
2404.2769
2513.7431
2615.6384
2710.1725
2798.3791
2026.8748
2161.1936
2285.0255
2399.8512
2506.1751
2605.0002
2696.6496
2782.012
2861.3537
2159.8801
2283.1275
2396.3152
2500.6434
2596.388
2684.7965
2766.235
2841.8605
2911.9943
2514.288
2614.553
2704.0795
2784.9958
2857.9568
2924.5117
2985.008
3040.7382
3091.951
2915.9902
2997.7145
3067.6611
3127.8435
3179.4358
3223.8642
3261.9142
3295.3431
3324.6717
3613.9034
3661.6587
3694.4819
3716.3195
3729.3003
3735.5248
3736.4566
3733.6302
3728.0337
4493.7424
4499.1813
4484.0883
4455.4821
4416.3158
4369.6521
4317.5973
4262.2272
4205.0448
5861.6979
5822.0135
5741.5324
5643.0098
5530.4331
5413.688
5294.1161
5174.8541
5056.6595
2983.1417
2880.3866
2935.4295
2977.5991
3139.7246
3351.3096
3720.6858
4147.4161
4940.6641
3060.9092
2957.0372
3004.4718
3038.9252
3184.2455
3375.5806
3712.2087
4090.4297
4826.8817
3132.4508
3028.4377
3069.1009
3096.7215
3226.3785
3398.642
3703.6807
4035.0264
4716.1463
3198.6952
3095.2525
3129.5062
3151.1591
3266.252
3420.7327
3695.4855
3982.0206
4607.8907
3259.6647
3157.5697
3186.1601
3202.7748
3304.512
3442.7353
3688.5983
3932.1267
4502.6338
3316.0562
3215.9078
3239.2029
3251.6647
3341.225
3464.7887
3683.2705
3885.9976
4399.5497
3367.9106
3270.3065
3288.9801
3298.1777
3376.8198
3487.4048
3680.3221
3844.2275
4298.8995
3415.7591
3321.1803
3335.6011
3342.3494
3411.3008
3510.5643
3679.9562
3807.3576
4199.9563
3459.5865
3368.5477
3379.3079
3384.3824
3444.9048
3534.4161
3682.7345
3775.8984
4103.0863
3719.3632
3668.9858
3662.3476
3672.945
3705.4532
3763.2082
3842.7585
3821.2499
3659.686
3698.5774
3644.9983
3639.2745
3648.3968
3680.744
3737.8561
3815.9436
3787.0311
3629.0123
3676.4297
3618.8589
3614.3153
3622.0334
3654.8111
3712.2122
3790.1975
3758.2284
3616.2378
3652.7931
3590.5278
3587.4167
3593.8467
3627.7562
3686.4195
3766.32
3736.4597
3632.7867
3627.5506
3560.032
3558.4905
3563.8
3599.6285
3660.5732
3744.8475
3722.4275
3678.5173
3599.976
3527.1548
3527.4373
3531.8658
3570.5051
3634.7885
3726.1947
3716.3795
3747.1749
3569.7821
3491.8071
3494.1176
3497.9847
3540.4181
3609.1547
3710.523
3719.2646
3828.5286
3536.4197
3453.6763
3458.4209
3462.1458
3509.45
3583.8108
3698.0037
3731.1752
3916.5886
3499.809
3412.7017
3420.1847
3424.2765
3477.5889
3558.8454
3688.7055
3750.2988
4008.38
3694.7938
3861.4378
3871.4871
3789.0456
3729.4539
3696.0872
3683.8337
3690.8668
3736.5673
3752.9674
3908.8418
3901.205
3814.2863
3752.1054
3717.5813
3703.7059
3710.8031
3750.0612
3821.2433
3958.964
3929.6103
3837.6829
3772.5926
3737.0175
3721.7732
3728.6999
3761.2072
3894.8349
4009.993
3955.6969
3858.7079
3790.7801
3754.4448
3738.1133
3744.7384
3771.1244
3972.0408
4060.6185
3978.9418
3877.1663
3806.6751
3769.9378
3752.7952
3758.9294
3779.0439
4051.9894
4109.7421
3999.1139
3893.201
3820.5554
3783.7479
3765.988
3771.3504
3785.8999
4133.9889
4157.0851
4016.6178
3907.4017
3833.0925
3796.3484
3777.9652
3781.8755
3791.119
4217.4509
4203.0293
4033.6046
3921.5312
3845.8013
3808.5623
3789.1372
3790.5174
3795.0645
4301.0014
4247.8842
4054.5976
3938.467
3860.7884
3821.4525
3800.0088
3797.2408
3797.0096
4394.4916
4297.0994
4088.407
3965.4929
3884.404
3840.0162
3814.3669
3804.1112
3798.3995
4500.4603
4348.6957
4129.3268
3998.3413
3913.8735
3865.2772
3834.8972
3816.0431
3804.3087
4606.403
4397.1891
4169.1569
4031.086
3943.1613
3891.0062
3856.1741
3830.6559
3813.6604
4709.4785
4442.8738
4206.8886
4063.6489
3972.8354
3917.5509
3878.5411
3847.8543
3826.2072
4806.4061
4484.5258
4240.2457
4094.9534
4002.2675
3944.5441
3901.9457
3867.3065
3841.739
4889.8345
4519.7438
4268.3654
4124.4709
4031.0262
3971.6101
3926.1846
3888.6558
3860.0122
4946.4041
4545.2386
4290.7304
4151.6115
4058.7376
3998.3683
3950.9474
3911.5138
3880.7196
4954.7189
4559.8165
4309.889
4176.7204
4085.3206
4024.493
3975.8689
3935.4523
3903.633
4914.4103
4562.5336
4326.752
4199.5027
4110.3904
4049.5224
4000.5093
3960.0006
3928.3663
4103.3887
4113.5576
4133.4158
4165.8402
4208.8153
4267.4532
4338.3603
4447.7082
4515.2946
4098.0227
4108.8784
4130.5944
4164.1898
4210.8757
4272.6824
4354.3562
4467.3725
4587.0849
4087.3907
4100.08
4124.0393
4159.8443
4208.9607
4274.3181
4359.9786
4483.2666
4612.786
4071.8312
4087.4655
4114.0423
4152.3526
4203.4795
4272.7027
4362.8719
4497.1566
4642.8119
4052.4723
4071.3749
4100.841
4141.678
4194.8975
4267.5174
4364.3452
4510.4246
4684.9255
4030.1688
4052.4141
4084.7903
4128.0047
4183.4571
4259.48
4363.179
4523.7338
4725.1036
4005.7069
4031.1951
4066.3432
4111.5667
4168.8837
4248.2872
4358.694
4536.183
4766.775
3980.1007
4008.2843
4045.9225
4092.8298
4151.6769
4234.3247
4350.456
4546.4546
4808.8475
3954.1061
3984.4053
4023.9213
4072.2282
4132.2889
4218.1718
4339.6429
4554.4617
4853.8076
4795.4588
4861.662
4927.3146
5004.8915
5094.7566
5194.2246
5301.8732
5414.5722
5522.4235
4861.7517
4922.3813
4990.8774
5071.4542
5163.79
5264.4628
5371.6618
5482.2272
5587.0438
4927.5057
4990.9737
5063.4124
5146.6872
5240.2189
5340.8701
5447.1749
5556.1355
5660.4025
5005.191
5071.6789
5146.8159
5231.1879
5324.3894
5424.1538
5529.0919
5637.9185
5744.9916
5095.2166
5164.1823
5240.5374
5324.5908
5416.0177
5514.377
5618.5698
5728.1766
5841.3085
5194.9197
5265.1342
5341.4824
5424.6758
5514.7126
5612.1956
5716.977
5830.1694
5950.9379
5302.9914
5372.7858
5448.2926
5530.1408
5619.4757
5717.5508
5824.0006
5943.6039
6075.4105
5416.3967
5484.0833
5558.0114
5639.7845
5729.9564
5831.751
5944.7678
6070.4778
6207.9038
5525.3046
5589.9749
5663.3891
5748.0535
5844.4334
5954.0732
6078.4476
6210.0897
6388.6819
6785.2698
6463.0504
6329.103
6155.9823
6018.7156
5897.6163
5795.1273
5709.2909
5638.4659
5876.6468
5966.7218
5968.4462
5944.2934
5904.2694
5844.2572
5775.5245
5702.6819
5634.5576
5456.9381
5520.986
5539.5764
5562.0327
5570.6732
5565.2408
5549.8346
5521.9866
5480.9935
5217.4378
5246.1156
5248.8985
5266.3084
5274.315
5279.3355
5279.7355
5275.7627
5258.6582
5039.5823
5056.761
5054.9551
5060.7889
5060.91
5060.4018
5060.8999
5062.1582
5055.4833
4887.34
4899.4677
4894.3217
4900.8995
4897.1519
4895.8447
4891.4366
4889.3098
4882.8423
4750.4945
4754.5261
4751.0547
4751.9722
4748.2277
4744.4724
4740.3205
4736.3806
4731.0049
4617.2622
4616.6765
4610.2499
4610.7755
4604.6213
4603.1808
4597.6389
4594.6887
4589.8278
4485.9555
4479.5482
4472.7607
4467.6135
4461.2187
4455.6226
4450.3446
4445.2952
4439.3116
4295.5699
4153.5038
3998.6883
3820.0965
3617.8056
3363.0856
3072.7142
2733.5965
2492.1907
4302.2187
4159.9224
4003.4492
3822.6203
3612.2731
3356.0187
3051.2747
2716.677
2420.5086
4306.1981
4163.3178
4003.4463
3820.1076
3602.1533
3341.1117
3023.3637
2677.7006
2327.6956
4313.3788
4167.7514
4008.0486
3820.0247
3599.3395
3328.6573
2999.5681
2622.9415
2217.7246
4317.7017
4173.3017
4010.3621
3822.9984
3597.618
3321.5344
2978.0462
2567.8678
2102.6892
4326.7169
4179.9658
4017.6518
3827.7162
3601.3155
3318.3933
2963.8255
2515.1829
1988.1048
4331.2426
4187.2707
4022.9516
3836.5571
3606.4016
3325.7375
2956.9553
2483.0991
1891.9283
4340.1514
4193.4355
4030.8978
3840.5862
3615.1842
3325.7256
2959.1831
2451.2847
1860.6536
4351.6449
4207.4198
4044.4385
3859.5678
3633.4204
3355.4544
2980.8502
2481.0762
1758.1887
2527.5317
2733.8979
3050.7754
3313.09
3483.5617
3615.5288
3743.4155
3877.2694
4009.0327
2418.7027
2639.3083
3009.487
3293.9248
3468.869
3603.4627
3736.0519
3872.7336
4007.5646
2285.8613
2543.331
2980.1654
3281.5653
3455.1241
3592.4146
3728.4234
3867.7608
4004.5203
2126.429
2440.9021
2947.8849
3264.8449
3442.5967
3586.1735
3729.2903
3870.5374
4009.0578
1928.7253
2341.1793
2909.8014
3234.021
3411.5623
3563.0344
3712.3741
3858.7611
3999.7768
1642.5211
2290.8958
2930.7159
3244.7987
3422.8924
3575.2578
3725.6464
3870.2598
4010.088
1224.9213
2103.0805
2862.9243
3186.7425
3377.818
3544.5535
3704.3742
3854.7645
3997.623
878.65129
2182.9577
2928.1351
3211.946
3400.0781
3564.1842
3719.8607
3867.0964
4007.711
-275.55708
1993.9634
2889.2301
3169.5515
3374.5413
3548.1175
3709.3399
3858.3021
4000.9013
4137.647
4260.534
4383.1779
4506.1259
4636.0365
4770.6378
4915.4974
5066.7067
5230.3439
4137.7787
4262.7887
4386.2679
4510.9019
4641.1702
4777.4354
4922.2281
5075.5393
5239.8048
4136.3104
4262.8885
4387.6324
4513.9941
4645.0358
4782.9169
4928.5066
5083.744
5249.0961
4140.4032
4268.1483
4392.5918
4520.2203
4651.1549
4790.3189
4936.1523
5093.0622
5259.2978
4133.7154
4263.298
4389.8197
4519.1188
4651.513
4791.7208
4938.9197
5097.2714
5265.266
4142.3103
4271.7705
4397.5123
4526.9284
4658.3684
4798.9876
4945.9678
5105.2053
5273.4286
4132.4388
4263.8575
4391.7481
4522.3965
4655.7603
4797.2493
4945.8104
5105.8455
5275.6819
4141.445
4271.9183
4399.158
4529.269
4662.1312
4803.1589
4951.4106
5111.3888
5281.2549
4135.691
4267.4052
4395.2544
4526.2045
4659.4268
4801.2592
4949.8014
5110.5658
5280.6799
5402.5349
5590.6867
5790.1389
6008.356
6237.7618
6485.9806
6739.9277
7005.2329
7199.2829
5415.2033
5604.9428
5809.3251
6031.7461
6270.4013
6528.3934
6797.8051
7076.076
7285.7522
5427.3102
5619.0816
5827.9915
6054.8116
6302.1746
6569.989
6854.1789
7142.3305
7371.5639
5439.797
5633.4398
5846.2131
6076.623
6331.2018
6606.4012
6903.3394
7202.7176
7455.481
5447.9608
5643.6651
5859.5433
6093.4465
6353.7534
6636.3559
6945.4566
7258.7429
7537.9175
5457.5349
5654.23
5872.6336
6108.8594
6374.1223
6662.2563
6983.2608
7310.1587
7618.1164
5460.9178
5659.5687
5879.8439
6118.4724
6387.8651
6679.7448
7012.5783
7351.1721
7697.0992
5466.8076
5665.8692
5887.0786
6126.8661
6398.6507
6692.9909
7035.3124
7384.1232
7786.1641
5467.0903
5666.4103
5888.7354
6128.8685
6402.3004
6698.2834
7045.0241
7402.7799
7797.3415
7268.0484
6634.8115
6248.3975
5938.3106
5630.1216
5325.6063
5025.088
4730.5629
4441.2784
7380.5042
6716.4697
6320.0615
6001.2113
5685.7617
5373.5428
5068.0861
4769.6902
4478.7109
7491.2977
6790.5165
6388.2198
6059.8584
5740.0093
5421.4618
5111.7522
4810.6623
4518.4212
7602.2961
6861.334
6453.1084
6111.1323
5788.8452
5462.5635
5152.1811
4847.054
4555.841
7715.4919
6938.9465
6524.2123
6172.2965
5843.5299
5514.2638
5198.5992
4893.2818
4598.5289
7830.9029
7003.7498
6580.0663
6214.9519
5886.4136
5547.4882
5233.3051
4920.1778
4628.0581
7949.4343
7101.0688
6653.9085
6281.0464
5944.9061
5606.9986
5288.0862
4975.8518
4680.6539
8031.2574
7135.5849
6686.6688
6301.8642
5966.4773
5621.3308
5304.28
4986.9289
4693.5896
8244.2034
7285.1794
6788.2166
6387.665
6044.7881
5696.6377
5375.8387
5055.968
4760.3065
4156.3745
3870.5878
3583.4436
3292.2133
2997.0357
2695.9632
2388.3574
2073.5265
1752.0491
4190.8678
3904.807
3616.1773
3324.8242
3028.7489
2727.7591
2419.9335
2105.0821
1782.4759
4229.4926
3942.9721
3654.4471
3363.2644
3068.0733
2767.4517
2461.3463
2147.1928
1827.1462
4263.1438
3978.2297
3686.6472
3397.862
3100.2217
2802.1193
2494.1592
2182.7825
1860.7431
4307.0583
4019.2021
3729.3362
3438.8255
3142.7996
2843.9976
2537.5302
2226.4952
1905.8705
4330.6783
4045.9953
3751.9167
3465.0434
3165.8191
2870.5044
2561.7053
2253.9469
1931.4252
4384.7198
4098.2442
3805.4721
3517.6421
3219.691
2924.3374
2616.1616
2310.6958
1986.5977
4394.2124
4109.5976
3814.5302
3528.7035
3229.2315
2935.5599
2626.8138
2322.1806
1999.3821
4459.7486
4174.5249
3879.0878
3593.7453
3294.4971
3001.8471
2693.5527
2392.7265
2065.559
1384.3569
963.84088
528.13582
76.920355
-388.4219
-841.63047
-1303.173
-1833.1731
-2511.6385
1417.1541
1005.5906
580.0362
141.65125
-307.59109
-740.03564
-1172.9445
-1664.3805
-2295.4906
1465.0917
1063.6774
647.81211
220.91787
-217.45648
-645.99813
-1066.5605
-1547.8698
-2156.8913
1507.9598
1114.8744
712.12767
293.04817
-133.32299
-558.28532
-951.81739
-1375.1254
-1944.1441
1555.972
1170.2009
779.66769
367.80492
-47.916837
-470.08812
-835.10399
-1213.5571
-1549.1369
1592.5881
1217.5705
837.01069
435.78087
23.188072
-393.81809
-763.35651
-1022.7575
-1300.4897
1651.4428
1285.1004
923.40469
531.33701
133.46728
-289.66815
-659.72265
-1016.1074
-161.16085
1672.5795
1315.1725
955.69207
575.75357
176.64297
-247.79058
-693.84593
-922.79154
-912.32791
1748.9137
1406.1667
1072.8047
709.0439
344.99037
-59.638995
-448.41275
-1382.2404
1863.974
-3818.3578
-4952.1489
-5006.8127
-5031.4164
-5189.5916
-4920.7491
-4770.4311
-4748.9011
-4826.9964
-3672.2012
-4968.0133
-4968.8203
-4951.2442
-4970.0963
-4870.192
-4756.5431
-4738.7909
-4814.1427
-3637.004
-5060.4148
-4914.1956
-4981.0309
-5036.6001
-4858.4109
-4745.9131
-4733.7433
-4801.7816
-3782.932
-5250.8453
-4846.8994
-4941.444
-4924.4688
-4833.5189
-4737.0075
-4723.5967
-4791.4162
-4092.3446
-5453.3971
-4748.2931
-4973.4511
-4922.0872
-4810.3976
-4726.2103
-4714.9342
-4780.2656
-4107.7048
-5317.2064
-4692.6204
-4976.1958
-4890.1516
-4783.8804
-4718.5324
-4704.348
-4768.3666
-3487.6514
-4733.1385
-4778.6205
-4965.3086
-4861.5934
-4763.9106
-4709.5616
-4695.2327
-4759.6732
-3963.7376
-5950.823
-4747.3064
-4991.5823
-4846.2363
-4747.573
-4705.3843
-4688.8269
-4752.5244
-10561.249
-4208.767
-4819.8155
-4974.3443
-4790.6841
-4731.1108
-4698.3203
-4685.1866
-4750.6852
-4953.0936
-5085.8405
-5271.4538
-5513.0614
-5787.9609
-6128.4656
-6483.9355
-7398.5059
-7092.8113
-4926.0099
-5061.5995
-5255.9681
-5499.9129
-5803.161
-6184.4599
-6564.6556
-7446.209
-7021.0389
-4913.8928
-5058.9325
-5260.0592
-5525.6302
-5846.3339
-6269.5036
-6724.357
-7378.1116
-7035.8325
-4905.7395
-5054.6545
-5268.5899
-5548.8037