/*--------------------------------*- C++ -*----------------------------------*\
  =========                 |
  \\      /  F ield         | OpenFOAM: The Open Source CFD Toolbox
   \\    /   O peration     | Website:  https://openfoam.org
    \\  /    A nd           | Version:  11
     \\/     M anipulation  |
\*---------------------------------------------------------------------------*/
FoamFile
{
    format      ascii;
    class       volScalarField;
    location    "0.032";
    object      T;
}
// * * * * * * * * * * * * * * * * * * * * * * * * * * * * * * * * * * * * * //

dimensions      [0 0 0 1 0 0 0];

internalField   nonuniform List<scalar> 
880
(
300
300
300
299.9999999380986
300
300
299.9999999999998
300.0000000362132
300
300
300
300.0000149441178
300.0000000000001
300
300
300.0000454753496
300
300
299.9999999999999
300
300
300
299.9999999999997
300
300.000000000008
300.000000000295
300.0000044438633
299.9999615971653
300.0530443001783
300.2986657638573
300.4976858123941
300.503055076664
300.0000000004442
300.0000000005388
300.0000000005524
300.000000000159
300.0000000815347
300.0000001053274
300.0000001167512
300.0000000396105
300.0002737822186
300.0003064241727
300.000328606312
300.0002258712154
300.5417348504421
300.5922204637756
300.6110955622605
300.6444264126554
300.7427443806279
300.361317434838
300.0791485886392
300.0057058376055
300.0008572677998
300.0005304082127
300.0001443967524
300.0000124723696
300.000000497429
300.0000003359314
300.0000000972136
300.0000000080901
300.0000000040481
300.0000000026662
300.0000000003232
299.9999999999415
300
300.0000000000001
300
299.9999999999999
299.9999999998852
300
300.0000000000001
300
300.0000003128714
299.9999999947187
299.9999999975404
299.9999999997146
300.0000613515602
299.9999951399373
299.9999986966329
299.9999999229273
299.99999999944
300
300.0000000000001
300
299.999999439676
299.9999999887391
299.9999999998208
300
300.0003349776226
300.0000069980193
300.0000000059891
300
299.7550986198701
299.9995773208863
299.9999996940841
300.0000000001028
299.9999999999998
300.000000006382
300.0000655088039
300.4703616739469
300.0000000010397
300.0000002242846
300.000917679675
302.8436063402146
300.0000000014711
300.0000003194044
300.0012400662415
303.501328125726
300.0000000017286
300.0000003894147
300.0014159669388
303.6657763483001
303.8396035476912
300.0016285963502
300.0000004806814
300.0000000022879
304.0426198056863
300.0018942824931
300.0000006016091
300.0000000029044
304.2569227933537
300.0022065090327
300.0000007539742
300.0000000037968
304.5773791453104
300.002701004174
300.0000010130914
300.0000000055094
300.0000000032791
300.0000006302071
300.0019568676051
304.0205562965247
300.0000000033768
300.0000006057312
300.001768874396
303.4530928477089
300.0000000222203
300.0000006217863
300.0016500772436
302.9334497265649
299.9999999522676
300.0000003243732
300.0007216434404
301.1563927874864
299.9999997154002
299.9994030225687
299.9746211901174
301.7130214608448
300.0000000370646
299.9998328802055
299.9220570597679
298.1916303201632
300.0000000347042
299.9998811332327
299.9377164322692
295.6533082282563
300.0000000334487
299.9998962045302
299.9263617634281
294.414770319316
296.5835739623424
299.9658630953728
299.9999339475457
300.0000000068903
296.4645981318018
299.9686806526958
299.9999478133386
300.0000000152894
297.2044029966356
299.9778277176026
299.9999649095039
300.0000000220081
296.5924800799955
299.9721605026242
299.9999585309391
299.9999999997059
298.4429751094126
299.9960965677988
299.9999955149606
300.0000000016504
299.7984440656309
299.9997970781983
299.9999998770176
300.0000000005535
299.9758441412126
299.99996697976
299.9999999734806
300
299.9017968933938
299.9998150083964
299.999999806461
299.9999999994272
299.6371732007623
299.9980521429935
299.9999988495317
300.0000000756793
299.6367401534056
299.9980499166664
299.9999988149606
300.0000000752182
299.6334170023966
299.9980244130458
299.9999984924058
300.0000000657319
299.6341513723905
299.9979858409383
299.9999978467997
300.0000000464781
299.9017968930046
299.9998150081318
299.999999806093
299.9999999995178
299.9758441407944
299.9999669794717
299.9999999727905
299.9999999999997
299.7984440656032
299.9997970782852
299.9999998770276
300.0000000004686
298.4429751099601
299.9960965685303
299.9999955149835
300.0000000014589
300.0000000072964
299.9999339483826
299.9658630956667
296.5835739626678
300.0000000155837
299.9999478134387
299.9686806530524
296.4645981316835
300.0000000216663
299.9999649099583
299.97782771762
297.2044029974434
299.9999999997513
299.9999585311224
299.9721605032078
296.5924800796334
294.4147703185731
299.9263617629185
299.999896204117
300.0000000332952
295.6533082277105
299.9377164318776
299.9998811324294
300.0000000340043
298.1916303200756
299.9220570591481
299.9998328802892
300.0000000364496
301.7130214610229
299.9746211899592
299.9994030222934
299.9999997164027
300.0000000031743
300.0000006305632
300.001956867811
304.0205562971587
300.0000000034404
300.0000006059086
300.0017688744297
303.4530928477115
300.0000000226104
300.0000006217083
300.0016500769357
302.9334497265118
299.9999999529441
300.0000003243391
300.0007216432088
301.1563927874217
304.5773791463548
300.0027010037365
300.0000010136257
300.0000000054337
304.2569227942039
300.0022065099577
300.0000007540785
300.0000000038269
304.0426198052925
300.0018942832445
300.0000006020421
300.0000000028862
303.839603548281
300.0016285955627
300.0000004806824
300.000000002248
300
300.0000000067035
300.000065508716
300.4703616731676
300.0000000008583
300.0000002239176
300.000917679934
302.8436063400595
300.0000000013949
300.0000003194327
300.0012400664214
303.5013281262496
300.0000000016806
300.0000003895079
300.0014159666389
303.6657763482322
300.0000000001032
300.0000000000095
300
300
299.9999996936104
300.0000000059691
300.00000000013
300.0000000000002
299.9995773210615
300.0000069983505
299.9999999885084
300
299.7550986199477
300.0003349776459
299.999999439701
299.999999999454
299.9999999999999
300
299.9999999997353
299.9999999230333
300
300
299.9999999979498
299.9999986966425
300
300
299.9999999944999
299.99999513998
300
300.0000000000292
300.000000313225
300.0000613514648
300.000000003765
300.0000004969851
300.0008572674151
300.7427443805302
300.0000000023323
300.0000003359386
300.0005304081707
300.3613174343906
300.0000000002814
300.0000000977227
300.0001443965817
300.079148588589
299.999999999934
300.0000000081952
300.0000124724091
300.0057058371596
300.6444264128516
300.0002258721299
300.0000000394223
300.0000000000916
300.6110955620217
300.0003286074431
300.0000001166842
300.0000000005996
300.5922204646216
300.0003064245788
300.0000001054182
300.000000000469
300.5417348501739
300.00027378036
300.000000081377
300.0000000004812
300.5030550769906
299.9999615975469
300
300
300.4976858121648
300.0000044432078
300
300.0000000000001
300.2986657641457
299.9999999999432
300
300
300.0530443000529
300.0000000000002
300
299.9999999999999
300
299.9999999999999
300
299.999999953057
300.0000000000002
300
300
300.0000000357453
300
300
300
300.0000149442353
300
300
299.9999999999999
300.0000454751338
299.9999937916009
299.9999234937894
299.9992578906579
300.0161560168662
299.9999234939461
299.9993309819844
299.9944671402257
299.9885619942653
299.9992578907381
299.9944671403708
300.0111991748963
301.6792244343458
300.0161560171358
299.9885619944933
301.6792244345111
317.3850703322485
345.1015648519505
322.1176186400205
311.0925805465239
302.7943863098479
347.0606451556836
337.4580593684834
331.0453978385822
315.451482234643
348.0687168777167
343.4722479823969
340.4586597524801
324.9432753701943
348.907843121516
345.0796866216593
342.5831987349908
326.6936226917448
327.9207475301142
328.5044312462676
328.6924981834346
332.9041775283168
343.1773688929393
343.4188013658173
343.5334112940616
350.3936835732738
345.6432318440303
345.8974470767264
346.019933684547
349.1536089351059
349.4384532089886
349.5522501574563
349.609942101328
350.4302081090173
322.0411233503091
307.8332163216147
301.2810919386012
300.0616002589706
328.4738473493977
309.1601817708155
301.3293140578594
300.0424335108279
319.1005589927344
304.846028345979
300.9439311024885
300.0342101808607
294.6602783537337
296.9058367778475
299.5075992383244
299.9372285384435
299.9994684619296
299.9998334832969
299.9999858398691
299.9999996900619
299.9976554197222
299.9997636864995
299.9999966919225
299.9999999676194
299.995994961172
299.9996214822031
299.9999970065374
299.9999999009904
299.9877486946985
299.998727978774
299.9999694176303
299.9999998740532
299.9999999942316
300.0000000155794
300.0000312497943
293.1600332280858
300.0000000073526
300.0000000063585
300.0000098320013
292.0079093255382
300.0000000070626
300.0000000053802
300.0000014013542
301.4368840313684
300.0000000038372
300.0000000040841
300.0000003089535
321.5431172054338
350.4335895714624
391.6754932888392
397.1103632267698
397.2956499058675
391.8080853592009
418.0922224380707
421.9890985645523
422.1140721281812
403.8766377875738
417.2922586268559
421.1591350320465
421.290535249432
409.8665981557148
411.4057612340827
414.672153500078
414.9060867089942
397.2928681485357
397.3596915346324
397.4551294744289
397.6166810460692
422.0510089947041
422.0345223905202
422.0444702952526
421.864852347071
421.2332776398299
421.2103496139583
421.213415044863
421.1362344116415
414.8789300159564
414.8546464100452
414.8529814458483
414.7835734372621
391.2414643736566
385.7765992604689
379.2379499276658
353.1825884310922
420.1583561164781
417.994232319713
413.7771195311465
403.5795124809192
420.1527835169157
418.4549306344991
413.8665537439468
411.2780077632059
414.8971967045796
414.7105985232076
412.4680266453228
398.5040159763312
325.6694557171473
300.6458911028973
220.7738546183843
198.0601814741443
337.9022535345964
292.1599881233392
182.043227120978
152.8435200781749
332.3797863358613
243.4651887787085
141.0286744925312
117.6259376763954
259.4783522583378
170.3074576749948
104.9581371908414
92.91833716984296
199.7081576016511
200.8946827456711
202.3701519120794
191.5919322231218
152.2892484946116
153.0066305857382
158.0794767909058
157.8888221217291
114.5570291316284
114.8164091773526
121.0784554613814
142.2406661878819
88.72493920639333
88.6033121561256
95.19207118838503
119.0227898981433
277.3125625252604
294.9484675284104
298.3508966848677
294.759410769447
261.0498402958163
286.2309798832548
293.2766345305001
293.0394871045578
241.067553286664
279.2213636427992
287.0051701888395
295.444357991271
196.2074452407973
265.3317000799537
280.9561745870049
279.7496666584319
293.6857882986461
286.8097636768626
277.4957962932381
269.0700074463423
271.0172717501996
256.9421693160256
239.4517881678871
213.3546895315414
224.8734074581173
200.7086196125815
199.1109284502443
171.913409887984
183.8711077566562
127.5433156256477
126.6916950749186
123.1666320407776
97.2324891551238
83.42994308065224
82.20860303083161
81.82728601425076
138.6591482455741
130.6618022239505
129.0474513481251
128.1730606720986
199.3898284673521
197.4295117073339
196.9240071458281
196.5610104728336
265.5822299030182
265.1549023608416
265.0270061142178
264.9358341225103
81.82728601427759
128.1730606721189
196.5610104726569
264.9358341231922
82.20860303106537
129.0474513481851
196.9240071457345
265.0270061141931
83.4299430806974
130.66180222412
197.4295117071412
265.1549023611685
97.23248915520277
138.6591482456912
199.3898284673161
265.5822299027207
269.0700074461722
277.4957962930311
286.8097636765561
293.6857882981311
213.3546895314336
239.4517881679846
256.9421693164132
271.0172717498991
171.9134098880933
199.1109284503745
200.7086196124299
224.8734074579771
123.1666320408395
126.6916950749593
127.5433156257391
183.8711077566398
279.7496666582517
280.956174586735
265.3317000801524
196.2074452408774
295.4443579910616
287.0051701886607
279.2213636429014
241.0675532868109
293.0394871043983
293.2766345301396
286.2309798832597
261.0498402960634
294.7594107692496
298.3508966845939
294.9484675283857
277.3125625255611
191.5919322229733
202.3701519121608
200.8946827455353
199.7081576014273
157.8888221218619
158.0794767909333
153.0066305858887
152.2892484946723
142.2406661883612
121.0784554614239
114.8164091776549
114.557029131936
119.0227898983937
95.19207118845227
88.60331215630674
88.72493920675421
198.0601814733376
220.7738546178634
300.6458911030203
325.6694557170897
152.8435200782194
182.0432271205905
292.1599881228545
337.9022535344729
117.625937676886
141.0286744922072
243.4651887785677
332.3797863355289
92.918337170692
104.9581371902883
170.307457674589
259.4783522582506
353.182588430717
379.2379499275937
385.7765992604538
391.2414643739336
403.57951248065
413.777119531085
417.9942323197832
420.1583561167839
411.2780077630164
413.8665537438953
418.4549306345336
420.1527835169367
398.5040159761942
412.4680266453639
414.7105985232762
414.8971967046852
397.6166810461683
397.45512947467
397.3596915345199
397.2928681487176
421.8648523471679
422.0444702953959
422.0345223905335
422.0510089948399
421.1362344115342
421.2134150449377
421.2103496139924
421.2332776398189
414.783573437303
414.8529814459839
414.8546464100821
414.8789300159419
397.2956499057076
397.1103632270868
391.6754932886146
350.4335895714769
422.1140721281104
421.9890985647311
418.0922224379096
391.8080853591783
421.290535249373
421.1591350320975
417.2922586268212
403.8766377876086
414.9060867089747
414.6721535001438
411.4057612340455
409.8665981557145
293.1600332281187
300.000031249751
300.000000015542
299.9999999942411
292.0079093255811
300.0000098319819
300.0000000063476
300.000000007367
301.4368840314703
300.0000014013458
300.0000000053779
300.0000000070644
321.5431172055172
300.000000308949
300.0000000040803
300.0000000038432
299.9999996900891
299.9999858400494
299.9998334832946
299.999468461976
299.9999999676407
299.9999966922007
299.9997636864268
299.9976554197082
299.9999999009948
299.9999970068562
299.9996214820883
299.9959949610345
299.9999998740617
299.9999694178429
299.9987279786391
299.9877486944893
300.0616002586426
301.2810919385689
307.8332163214076
322.0411233502018
300.0424335106813
301.3293140578505
309.1601817707176
328.473847349347
300.034210180849
300.9439311024677
304.8460283459348
319.1005589926916
299.937228538407
299.5075992383605
296.9058367777417
294.6602783536164
332.9041775281756
328.6924981833465
328.5044312465484
327.9207475302711
350.393683573014
343.5334112939929
343.4188013659237
343.177368893215
349.1536089347962
346.019933684311
345.8974470762956
345.6432318442108
350.430208108786
349.6099421010554
349.552250157007
349.4384532092035
326.6936226918664
324.9432753699458
315.4514822349564
302.7943863099644
342.5831987350143
340.4586597523577
331.0453978386844
311.0925805465189
345.0796866216998
343.4722479819387
337.4580593684966
322.1176186399246
348.9078431215422
348.068716877381
347.0606451556824
345.101564852016
299.893312711802
299.9996180071841
299.9999996319305
300.0000000078126
299.7445459077075
299.9989184491654
299.9999989310803
300.0000000254799
299.5665026799421
299.9980039742612
299.9999974842066
300.0000000256207
299.4243600065087
299.9973955871408
299.9999967751973
300.0000000314951
300.0000000759043
299.9999988493711
299.9980521431254
299.6371732007794
300.0000000753894
299.9999988153132
299.9980499161142
299.6367401535962
300.0000000655413
299.9999984927968
299.9980244130738
299.6334170019092
300.0000000458547
299.9999978472106
299.9979858393327
299.6341513724286
300.0000000314258
300.0000000255266
300.000000024783
300.0000000070326
299.9999967752737
299.9999974841955
299.9999989309135
299.9999996314717
299.9973955876445
299.998003973662
299.9989184497941
299.9996180067093
299.4243600058812
299.5665026793906
299.7445459079662
299.8933127118468
)
;

boundaryField
{
    back
    {
        type            empty;
    }
    inlet
    {
        type            zeroGradient;
    }
    front
    {
        type            empty;
    }
    top
    {
        type            zeroGradient;
    }
    outlet
    {
        type            fixedValue;
        value           uniform 300;
    }
    bottom
    {
        type            zeroGradient;
    }
    wall
    {
        type            zeroGradient;
    }
}


// ************************************************************************* //
