/*--------------------------------*- C++ -*----------------------------------*\
  =========                 |
  \\      /  F ield         | OpenFOAM: The Open Source CFD Toolbox
   \\    /   O peration     | Website:  https://openfoam.org
    \\  /    A nd           | Version:  11
     \\/     M anipulation  |
\*---------------------------------------------------------------------------*/
FoamFile
{
    format      ascii;
    class       surfaceScalarField;
    location    "9.5";
    object      phi;
}
// * * * * * * * * * * * * * * * * * * * * * * * * * * * * * * * * * * * * * //

dimensions      [0 3 -1 0 0 0 0];

internalField   nonuniform List<scalar> 
8667
(
1.5884069
0.18937311
-2.1920065e-06
1.3984393
0.18997208
-4.4711186e-06
1.2070528
0.19139305
-6.6094132e-06
1.0165862
0.19047543
-8.8045344e-06
0.82463405
0.19196285
-1.0712756e-05
0.6353363
0.18931051
-1.2754004e-05
0.44432129
0.19102962
-1.461899e-05
0.26014391
0.18419339
-1.6013895e-05
0.18126912
-2.2342254e-05
0.078897137
1.5885556
0.37859532
1.3981645
0.38036322
1.206986
0.38257155
1.0158331
0.38162832
0.82444423
0.38335169
0.63388124
0.3798735
0.44392633
0.38098454
0.26021147
0.36790825
0.36400185
0.077478734
1.5885076
0.56786553
1.3981356
0.57073518
1.2068623
0.57384491
1.0154867
0.57300392
0.82352732
0.57531105
0.63323478
0.57016604
0.44286388
0.57135544
0.25884749
0.55192463
0.54746392
0.075385427
1.5884182
0.75722513
1.3983819
0.76077149
1.2067549
0.76547191
1.0154695
0.76428931
0.822984
0.76779654
0.63213387
0.76101617
0.44136919
0.76212012
0.2570136
0.73628023
0.7309405
0.073537016
1.5884493
0.94655342
1.3984918
0.95072897
1.2070518
0.95691195
1.0154611
0.95587999
0.82287209
0.96038556
0.63137351
0.95251475
0.44034756
0.95314607
0.25530984
0.92131795
0.91417542
0.072074918
1.588516
1.1358152
1.398734
1.1405109
1.2074199
1.1482261
1.0156552
1.1476446
0.82286104
1.1531798
0.63044039
1.1449354
0.43866008
1.1449264
0.25310585
1.1068722
1.0972357
0.070045603
1.5885808
1.3250123
1.399004
1.3300877
1.2079127
1.3393174
1.0159182
1.3396392
0.82291625
1.3461817
0.63022632
1.3376253
0.4377692
1.3373835
0.25085831
1.2937831
1.2804758
0.067618138
1.5887858
1.5140043
1.3992182
1.5196553
1.2084919
1.5300436
1.0165216
1.5316096
0.82297117
1.5397321
0.62946214
1.5311343
0.43615911
1.5306865
0.24845993
1.4814822
1.4634341
0.065501694
1.5890153
1.7027668
1.3996386
1.7090319
1.2089315
1.7207507
1.0171383
1.7234028
0.82351977
1.7333506
0.62969865
1.7249555
0.43529572
1.7250895
0.24571196
1.671066
1.6476387
0.061507332
1.885175
1.5953696
2.0673485
1.5956043
2.2492009
1.595926
2.4308788
1.5961001
2.6122418
1.596413
2.79332
1.5966998
2.9742306
1.5968674
3.1545161
1.5974924
1.5973276
3.3349665
1.8921259
1.4122756
2.0749591
1.4127711
2.2576369
1.4132481
2.4399244
1.4138127
2.6220919
1.4142454
2.8036786
1.4151131
2.9850799
1.4154662
3.1660062
1.4165662
1.4164709
3.3468628
1.9057595
1.2272668
2.0904807
1.22805
2.2748995
1.2288293
2.4587177
1.2299945
2.6422741
1.2306891
2.8252746
1.2321125
3.0080543
1.2326865
3.1904759
1.2341445
1.234522
3.3724249
1.9100648
1.0406048
2.0964566
1.0416582
2.2830726
1.0422133
2.4694099
1.0436572
2.6557522
1.0443468
2.8418303
1.0460344
3.0277467
1.0467701
3.2133855
1.0485057
1.0492467
3.3986608
1.9224331
0.85152232
2.1117197
0.85237163
2.3012844
0.85264861
2.4911041
0.85383753
2.6809132
0.85453769
2.8709702
0.85597737
3.0606311
0.85710921
3.2504117
0.85872504
0.86021726
3.4394412
1.9150352
0.66144254
2.106354
0.6610529
2.2982942
0.66070843
2.491451
0.66068072
2.6848118
0.66117683
2.8792723
0.66151696
3.0736248
0.66275662
3.2689949
0.663355
0.66487507
3.4643371
1.9160142
0.47051777
2.1095643
0.46750278
2.3040036
0.46626916
2.5015815
0.46310284
2.699866
0.46289235
2.9004266
0.46095634
3.101185
0.46199822
3.3036288
0.46091115
0.46280472
3.5056992
1.8593476
0.28223622
2.054292
0.27255834
2.2529096
0.26765157
2.456395
0.2596174
2.6614948
0.25779259
2.869851
0.25260015
3.0788736
0.25297564
3.290252
0.24953268
0.25157394
3.5014828
1.8385281
0.091346851
2.0491016
0.061984844
2.2732144
0.043538728
2.5039058
0.02892603
2.7366564
0.025042002
2.970096
0.019160514
3.2048761
0.018195597
3.4389279
0.015480877
3.6742041
0.016297676
3.3240748
0.010891757
3.3137638
0.010310973
3.3035885
0.010175361
3.2941995
0.0093889823
3.284899
0.0093004549
3.2765276
0.0083713947
3.2681705
0.0083571066
3.2608723
0.0072982343
0.0073336953
3.2535386
3.3385743
0.019180269
3.3310133
0.017871952
3.3235918
0.017596902
3.3168966
0.016084177
3.31031
0.015887014
3.3045534
0.014128052
3.2988864
0.014024121
3.2941874
0.011997189
0.01204111
3.28948
3.3653364
0.026268694
3.358737
0.024471357
3.3524307
0.023903235
3.3465133
0.022001611
3.3409442
0.02145607
3.3357944
0.019277805
3.3310531
0.018765475
3.3268061
0.016244137
0.015838104
3.3230091
3.3934597
0.031469829
3.388725
0.029206072
3.3843233
0.028304927
3.3802253
0.026099576
3.3764451
0.025236297
3.3729824
0.02274052
3.3698315
0.021916365
3.3669982
0.019077383
0.018384644
3.3644517
3.4344406
0.036470351
3.4298077
0.033839014
3.4254401
0.032672484
3.4213832
0.030156497
3.4175634
0.029056066
3.4140576
0.026246382
3.4107617
0.025212234
3.4077458
0.022093343
0.021230985
3.4048994
3.4616952
0.039112199
3.4593952
0.036139051
3.4574389
0.034628791
3.4555814
0.032013949
3.4539852
0.030652302
3.4522356
0.027996017
3.4506848
0.026763
3.4486698
0.02410835
0.023110315
3.4467905
3.5041193
0.040692122
3.5023145
0.037943837
3.5009398
0.036003481
3.4991481
0.033805664
3.4975918
0.032208563
3.49525
0.03033784
3.4928737
0.029139247
3.4892702
0.027711921
0.026869676
3.4855108
3.5109016
0.031273298
3.51938
0.029465479
3.5287249
0.026658567
3.5366229
0.025907709
3.5446753
0.024156165
3.5504538
0.024559288
3.5552267
0.024366342
3.5560193
0.026919339
0.028689581
3.5541994
3.6921093
0.013368129
3.7067903
0.014784442
3.7174057
0.016043173
3.7242755
0.019037958
3.7255239
0.022907703
3.7206459
0.029437347
3.709222
0.035790169
3.6905361
0.045605282
3.6676117
0.051613982
3.6512285
0.068110203
-0.051727025
3.6206201
0.066046033
-0.035437645
3.5840877
0.062697589
-0.026165128
3.5450182
0.061417911
-0.022348455
3.5043487
0.058362127
-0.017692572
3.4626415
0.05763481
-0.015927645
3.4208145
0.054891064
-0.013064083
3.3795113
0.054932173
-0.013628956
0.05272945
3.3387095
-0.011927603
3.5605988
0.061710798
3.5635861
0.063058761
3.5625415
0.063742124
3.5594181
0.064541348
3.5528096
0.064970651
3.5447082
0.065736132
3.5332815
0.066317775
3.5210635
0.067150254
0.067766539
3.5060264
3.4924582
0.054763399
3.4990246
0.056492403
3.5040001
0.058766537
3.5081399
0.060401556
3.5105109
0.062599725
3.512102
0.064145047
3.5120946
0.06632508
3.5113183
0.067926642
0.070203707
3.5088811
3.4567537
0.044800116
3.4669771
0.046269058
3.4762399
0.049503767
3.4857052
0.050936204
3.4940754
0.054229508
3.5025339
0.055686602
3.5097746
0.059084406
3.5170502
0.060650983
0.064208606
3.5230453
3.4145186
0.035180894
3.4245544
0.036233244
3.4344262
0.039632026
3.4446957
0.040666734
3.454658
0.04426716
3.4650258
0.045318833
3.4749567
0.04915344
3.4853396
0.050268169
0.054378602
3.4951696
3.3749458
0.024686808
3.3858797
0.025299339
3.3970455
0.028466222
3.408677
0.029035255
3.4204427
0.032501438
3.4327231
0.033038434
3.4450468
0.036829688
3.4579619
0.037353134
0.041510823
3.4708297
3.3322876
0.01540836
3.342153
0.015433925
3.3524378
0.018181475
3.3633612
0.01811184
3.3746741
0.021188463
3.3867122
0.021000335
3.3991187
0.024423256
3.4123544
0.024117411
0.027947784
3.4259174
3.298386
0.0065024099
3.3075368
0.006283118
3.3175477
0.0081704985
3.3278052
0.0078543522
3.3391565
0.0098372366
3.3507291
0.0094277107
3.3635515
0.011600858
3.3765659
0.011103017
0.013522228
3.3909914
3.260041
3.2663241
3.2744946
3.282349
3.2921862
3.3016139
3.3132148
3.3243178
3.33784
3.350829
-0.012989
3.3665022
-0.015673207
3.3816149
-0.015112665
3.3996854
-0.018070486
3.417122
-0.017436611
3.4378901
-0.020768084
3.4580221
-0.020132024
3.4818655
-0.023843424
-0.023174325
3.5050398
3.4055398
-0.02753735
3.421706
-0.031839469
3.4379261
-0.031332714
3.4560169
-0.036161292
3.4741525
-0.035572237
3.4944001
-0.041015705
3.514623
-0.04035493
3.5372853
-0.04650569
-0.045773067
3.559884
3.4404297
-0.042049596
3.455219
-0.046628766
3.4711056
-0.04721932
3.4872326
-0.052288328
3.5046311
-0.052970759
3.5222401
-0.058624673
3.5413211
-0.059435951
3.5606092
-0.065793736
-0.066753063
3.5815892
3.4843957
-0.055615592
3.4978243
-0.060057406
3.5120921
-0.06148708
3.5261476
-0.066343916
3.5412156
-0.068038739
3.5560231
-0.073432134
3.5720429
-0.075455759
3.5877884
-0.081539247
-0.083934864
3.6049702
3.5055418
-0.065987831
3.5152542
-0.069769842
3.5256504
-0.071883227
3.5352995
-0.075993023
3.545806
-0.078545218
3.555518
-0.083144126
3.5662697
-0.086207491
3.5762211
-0.09149062
-0.095120901
3.5874071
3.5291359
-0.07207842
3.5339059
-0.07453981
3.5388928
-0.076870124
3.5425372
-0.079637417
3.5465734
-0.0825815
3.549296
-0.085866713
3.5526248
-0.089536303
3.5546942
-0.093559964
-0.098021595
3.5575949
3.5059246
-0.069121884
3.5015642
-0.070179445
3.4967769
-0.072082802
3.4908611
-0.073721604
3.4845434
-0.076263814
3.4773392
-0.078662566
3.4697698
-0.081966933
3.4615289
-0.085319
-0.089479862
3.4529872
3.4904937
-0.053589213
3.4723954
-0.05208113
3.4540142
-0.053701647
3.4332535
-0.052960921
3.412343
-0.055353251
3.3891439
-0.055463451
3.365904
-0.058727022
3.3403982
-0.059813201
-0.064112894
3.3150312
3.2986315
-0.013511292
3.2585279
-0.011977515
3.219055
-0.01422877
3.1788142
-0.012720089
3.1392027
-0.015741734
3.097892
-0.014152724
3.0573944
-0.018229415
3.0142398
-0.016658591
2.9721637
-0.022036844
0.066382225
2.9262899
-0.020508471
0.094036932
3.2873765
0.10305797
3.4439661
0.10129272
3.5593601
0.090880038
3.5978198
0.073951784
3.6218985
0.052756056
3.6027849
0.027326041
3.5853141
3.5323659
0.071990432
2.881934
-0.027634497
0.099060893
3.260306
0.1082529
3.4347741
0.1055176
3.5620954
0.093664439
3.609673
0.075059796
3.6405031
0.051940476
3.6259042
0.026680935
3.6105736
3.5590468
0.075745206
2.8324425
-0.026253742
0.10523466
3.2308166
0.11472367
3.4252851
0.11278671
3.5640324
0.10165028
3.6208094
0.083248916
3.6589045
0.059884536
3.6492686
0.031406455
3.6390517
3.5904533
0.083054058
2.7854076
-0.036019065
0.11114724
3.2027234
0.12060059
3.4158318
0.11759133
3.5670416
0.10480359
3.6335971
0.084468458
3.6792396
0.058946185
3.6747909
0.030725466
3.6672724
3.6211787
0.088683086
2.7323515
-0.035627045
0.11918696
3.1722195
0.12873395
3.4062848
0.12616725
3.5696083
0.11400413
3.6457602
0.093781337
3.6994624
0.067965964
3.7006063
0.036074355
3.699164
3.6572531
0.098155636
2.6845071
-0.050311216
0.12605838
3.1443168
0.13520102
3.3971421
0.13138992
3.5734194
0.11745612
3.659694
0.095039777
3.7218787
0.066841501
3.7288045
0.035379284
3.7306262
3.6926324
0.10566725
2.6312964
-0.0524566
0.13628524
3.1136988
0.14534391
3.3880835
0.14161456
3.5771488
0.12803448
3.6732741
0.10559712
3.7443161
0.077014122
3.7573875
0.041293587
3.7663468
3.733926
0.11809287
2.58946
-0.076256449
0.14409868
3.087693
0.1522324
3.3799497
0.14706302
3.5823182
0.13160445
3.6887327
0.10678949
3.7691311
0.075694973
3.788482
0.040665524
3.8013762
3.7745915
0.12936405
2.5376479
-0.077551886
0.15742807
3.0596289
0.1652455
3.3721323
0.15988984
3.5876738
0.14452552
3.704097
0.11919285
3.7944637
0.08700483
3.8206701
0.046945632
3.8414354
3.8215371
-0.0079210086
3.8294581
-0.0070268015
3.8405412
-0.0041999452
3.8178432
0.005203213
3.7850606
0.017965343
3.6913349
0.036982626
3.5686565
0.057304276
3.3518107
0.073906253
3.043027
2.5545996
0.056954505
-0.012537587
3.8419957
-0.016344414
3.844348
-0.014952744
3.8164515
-0.0065710915
3.7766789
0.0054698194
3.679294
0.023382978
3.5507434
0.041147605
3.334046
0.058975494
3.0251991
2.5590185
0.05455657
-0.011399365
3.8533951
-0.013765419
3.8467141
-0.013006716
3.8156928
-0.0053956535
3.7690679
0.0052064121
3.6686919
0.022086077
3.5338637
0.03952166
3.3166105
0.053707932
3.0110128
2.5626797
0.05004673
-0.015817361
3.8692124
-0.022726128
3.8536229
-0.024175061
3.8171418
-0.018165302
3.7630581
-0.0078133929
3.65834
0.0083871425
3.5176632
0.024634811
3.3003628
0.040563754
2.9950839
2.5680985
0.035145022
-0.014629772
3.8838422
-0.020010135
3.8590032
-0.021495953
3.8186276
-0.015531216
3.7570934
-0.0065379691
3.6493467
0.0087143653
3.5024108
0.024648645
3.2844285
0.036823903
2.9829086
2.5681019
0.036820505
-0.019279534
3.9031218
-0.028707187
3.8684309
-0.0327698
3.8226902
-0.028751234
3.7530748
-0.019798943
3.6403944
-0.005065782
3.4876777
0.010223757
3.269139
0.025799233
2.9673331
2.5659652
0.027935881
-0.018274005
3.9213958
-0.025692639
3.8758495
-0.029260282
3.8262578
-0.024719658
3.7485342
-0.017159888
3.6328347
-0.0033320919
3.4738499
0.01176814
3.2540387
0.024186943
2.9549143
2.5583805
0.031771625
-0.022808656
3.9442044
-0.033768964
3.8868098
-0.040477173
3.832966
-0.03815794
3.746215
-0.030538979
3.6252157
-0.016983738
3.4602946
-0.0018344241
3.2388894
0.014957456
2.9381224
2.5493632
0.023974804
-0.021484562
3.965689
-0.03069294
3.8960182
-0.036225698
3.8384988
-0.032527377
3.7425166
-0.026295621
3.618984
-0.013570813
3.4475698
0.001455932
3.2238627
0.014949616
2.9246288
2.535696
0.028616791
-0.006972494
2.5208361
0.021832426
0.011328157
2.9063281
0.026734384
3.2084565
0.039542533
3.4347617
0.045524378
3.6130021
0.046831188
3.7412098
0.03803252
3.8472975
0.02552902
3.9085217
3.991218
-0.0081773458
2.5020716
0.026941842
0.0064214149
2.8917293
0.021530672
3.1933472
0.03348856
3.4228038
0.038815829
3.6076748
0.041885753
3.7381399
0.0346496
3.8545336
0.02399154
3.9191798
4.0152095
-0.0012917169
2.4827544
0.020608948
0.018408391
2.8720292
0.034060307
3.1776953
0.046406702
3.4104574
0.051066505
3.603015
0.05114379
3.7380626
0.040935181
3.8647422
0.027454016
3.9326609
4.0426636
-0.0035791779
2.4603572
0.025976303
0.011944806
2.8565053
0.027044897
3.1625952
0.038578068
3.3989242
0.043050593
3.5985425
0.045500737
3.7356125
0.037029011
3.873214
0.025523976
3.944166
4.0681875
0.002444685
2.4379437
0.019968846
0.023055314
2.8358946
0.038694142
3.1469564
0.050834301
3.3867841
0.054228307
3.5951485
0.053186679
3.7366541
0.04213036
3.8842703
0.028374221
3.9579221
4.0965618
-0.0011166436
2.4135674
0.025492972
0.01496779
2.8198102
0.029834157
3.13209
0.040846187
3.375772
0.044780319
3.5912144
0.046645088
3.7347893
0.037461439
3.8934539
0.025857943
3.9695256
4.1224197
0.0038954932
2.3899082
0.019763715
0.024929977
2.7987757
0.040492901
3.1165271
0.051988911
3.364276
0.054578722
3.5886246
0.052534511
3.7368335
0.041280977
3.9047075
0.02798414
3.9828224
4.1504038
-0.00095968766
2.3655352
0.025332629
0.01513781
2.7826782
0.029959402
3.1017055
0.040157658
3.3540778
0.043560273
3.585222
0.044930344
3.7354635
0.035798277
3.9138395
0.02483246
3.9937882
4.1752363
0.0026300637
2.3431455
0.019759653
0.023799061
2.7615092
0.039205454
3.0862991
0.049805267
3.343478
0.051727714
3.5832995
0.048799343
3.7383918
0.038178132
3.9244607
0.026158297
4.0058081
4.2013946
-0.0078093893
4.209204
-0.0064844697
4.0044832
-0.0041052706
3.9220815
0.0020279947
3.7322586
0.0089573912
3.5763701
0.017687022
3.3347483
0.028105141
3.075881
0.032681656
2.7569327
2.3337932
0.042033927
-0.0068783744
4.2160824
-0.0059570888
4.0035619
-0.004146269
3.9202707
-0.0024250398
3.7305373
0.0029966607
3.5709484
0.011705769
3.3260392
0.021721112
3.0658656
0.032642052
2.7460118
2.3310467
0.035388566
-0.00045625732
4.2165386
0.0030448154
4.0000608
0.0078885846
3.9154269
0.014883408
3.7235425
0.021541863
3.56429
0.030141633
3.3174395
0.041346473
3.0546608
0.045656063
2.7417022
2.3318431
0.04485963
0.0020723566
4.2144663
0.005704356
3.9964288
0.010321636
3.9108097
0.013347327
3.7205168
0.018762909
3.5588744
0.027456004
3.3087464
0.038711731
3.0434051
0.050078573
2.7303353
2.3421013
0.039820429
0.0087998807
4.2056664
0.01658741
3.9886413
0.024198354
3.9031987
0.032731617
3.7119836
0.039698885
3.5519071
0.047911412
3.3005338
0.060467023
3.0308494
0.067064738
2.7237376
2.363355
0.045811047
0.012259188
4.1934072
0.020820229
3.9800802
0.028984157
3.8950348
0.034139401
3.7068283
0.040097823
3.5459487
0.047884503
3.2927472
0.060843217
3.0178907
0.079173332
2.7054075
2.4064749
0.036053373
0.019752529
4.1736547
0.032824706
3.967008
0.044646685
3.8832128
0.055387068
3.6960879
0.06284515
3.5384906
0.069820741
3.2857716
0.083345615
3.0043659
0.10149244
2.6872607
2.4600855
0.047881834
0.024481206
4.1491735
0.038408051
3.9530812
0.051375843
3.870245
0.059492586
3.6879712
0.066442006
3.5315412
0.071682639
3.2805309
0.08345564
2.9925929
0.11932573
2.6513906
2.5333006
0.046110695
0.032874814
4.1162986
0.051400467
3.9345555
0.068370854
3.8532746
0.082573708
3.6737683
0.091341255
3.5227736
0.096272584
3.2755996
0.10733292
2.9815325
0.1472414
2.6114821
2.5485578
0.13198415
-0.17008442
4.2863831
-0.33679766
4.1012688
-0.50083859
4.0173156
-0.65048573
3.8234155
-0.77946626
3.6517542
-0.88032155
3.3764549
-0.92566305
3.026874
-0.93599939
2.6218184
2.5245798
-0.9120214
-0.16712686
4.4535099
-0.34005379
4.2741957
-0.50862158
4.1858834
-0.66273384
3.9775277
-0.7948705
3.7838908
-0.89258197
3.4741664
-0.93240685
3.0666989
-0.912308
2.6017196
2.2919539
-0.67968203
-0.1677696
4.6212795
-0.33777707
4.4442032
-0.50702033
4.3551266
-0.66903435
4.1395418
-0.80387578
3.9187322
-0.90608676
3.5763774
-0.93053179
3.0911439
-0.84998943
2.5211772
1.6293113
-0.18734682
-0.16309357
4.7843731
-0.33883974
4.6199493
-0.51142261
4.5277095
-0.67997989
4.3080991
-0.81943838
4.0581907
-0.92164895
3.6785879
-0.92078909
3.0902841
-0.78969854
2.3900867
0.88714279
-0.047530068
-0.1618041
4.9461772
-0.33608918
4.7942344
-0.50788631
4.6995066
-0.68576452
4.4859773
-0.82768471
4.2001109
-0.93191517
3.7828184
-0.90605848
3.0644274
-0.6701714
2.1541996
0.21913092
-0.0021595364
-0.15490676
5.101084
-0.33660875
4.9759364
-0.51132622
4.8742241
-0.69467939
4.6693304
-0.84228195
4.3477135
-0.94108216
3.8816186
-0.85772723
2.9810724
-0.41256036
1.7090327
-0.26979831
0.076368872
-0.15056335
5.2516473
-0.33234119
5.1577143
-0.50617243
5.0480553
-0.69894223
4.8621002
-0.84938417
4.4981554
-0.93313483
3.9653692
-0.76452904
2.8124666
-0.28190421
1.2264079
-0.61578079
0.064078265
-0.14221586
5.3938632
-0.32840551
5.3439039
-0.50746238
5.2271122
-0.70524416
5.059882
-0.8600565
4.6529678
-0.92606626
4.031379
-0.6697027
2.5561031
-0.20881497
0.7655202
-0.88341364
0.058817887
-0.13695989
5.5308231
-0.32227554
5.5292196
-0.50038933
5.405226
-0.70732913
5.2668218
-0.86414903
4.8097877
-0.89224151
4.0594715
-0.53197318
2.1958348
-0.097344807
0.33089182
-1.0547103
0.073951819
0.031363241
-1.1275279
0.041454355
0.2702546
0.092000457
0.54531495
1.9207744
0.54532956
4.0594569
0.44291924
4.912198
0.30103659
5.4087045
0.18328666
5.5229759
0.064320585
5.6481856
5.5951436
0.026844106
-1.1981856
0.043813668
0.24937889
-0.13053432
0.52296005
1.6471932
0.54187267
4.0405443
0.43390544
5.0201652
0.2876198
5.5549901
0.17326794
5.6373278
0.05811679
5.7633368
5.6532604
0.042291604
-1.2855332
0.04505592
0.26056669
-0.34880941
0.50565396
1.402106
0.53870743
4.0074908
0.43229449
5.1265782
0.28331229
5.7039723
0.16433126
5.7563088
0.049811284
5.8778567
5.7030717
0.056645584
-1.3877285
0.045549791
0.27091004
-0.56307387
0.49176019
1.1812558
0.53270485
3.9665461
0.42112052
5.2381625
0.26896928
5.8561235
0.15382524
5.8714529
0.043856821
5.9878252
5.7469285
0.059185263
-1.4917366
0.044822803
0.26556295
-0.76945156
0.47507084
0.97174793
0.52780554
3.9138114
0.41746867
5.3484994
0.2629175
6.0106747
0.14372346
5.9906469
0.035615224
6.0959334
5.7825438
0.05796897
-1.5951568
0.045451263
0.25448953
-0.96597211
0.45910648
0.76713097
0.51947227
3.8534456
0.40418703
5.4637846
0.24765836
6.1672034
0.13275266
6.1055526
0.029974191
6.1987119
5.812518
0.055139813
-1.6867827
0.036486066
0.23658801
-1.1474203
0.43723148
0.5664875
0.51252255
3.7781546
0.39834767
5.5779595
0.24014698
6.3254041
0.12172654
6.223973
0.022023616
6.2984148
5.8345416
0.049973349
-1.7802649
0.043508803
0.21879436
-1.3162413
0.41905763
0.36622422
0.50049239
3.6967198
0.38000664
5.6984452
0.22333824
6.4820725
0.1104209
6.3368904
0.017504649
6.3913311
5.8520462
0.047601537
-1.8313612
0.003494759
0.20342011
-1.4720599
0.39987034
0.16977399
0.49032171
3.6062685
0.37613063
5.8126363
0.21719763
6.6410055
0.099878944
6.4542091
0.011429652
6.4797803
5.8634759
0.3462597
-2.1308306
-0.046790228
0.5196496
-1.6454498
0.58036919
0.1090544
0.41209535
3.7745423
0.11052541
6.1142062
-0.082542998
6.8340739
-0.15176125
6.5234273
-0.15774902
6.4857681
5.7057269
0.36770531
-2.5001682
0.0016323088
0.53545399
-1.8131985
0.54801244
0.096495948
0.31143233
4.0111224
0.020882143
6.4047564
-0.17468765
7.0296437
-0.23179764
6.5805373
-0.19859037
6.4525609
5.5071365
0.38511233
-2.7811631
-0.10411743
0.56025178
-1.9883379
0.53630033
0.1204474
0.19138011
4.3560426
-0.12129755
6.7174341
-0.25815441
7.1665005
-0.26585349
6.5882364
-0.20103063
6.387738
5.3061058
0.39436286
-2.9348298
-0.24069618
0.5591113
-2.1530864
0.46626037
0.21329833
0.091398974
4.730904
-0.19823098
7.007064
-0.32229516
7.2905647
-0.31965514
6.5855963
-0.2214207
6.2895036
5.0846851
0.39361807
-2.9839913
-0.34445657
0.56159787
-2.3210662
0.418692
0.3562042
-0.045702968
5.195299
-0.3268668
7.2882279
-0.37955422
7.3432521
-0.32976022
6.5358023
-0.20192599
6.1616693
4.8827592
0.38552406
-2.9880654
-0.38145004
0.52830537
-2.4638475
0.31788263
0.56662694
-0.1398624
5.653044
-0.37653081
7.5248963
-0.41299069
7.379712
-0.36466627
6.4874779
-0.21000752
6.0070106
4.6727516
0.36143092
-2.9605715
-0.38892477
0.48352192
-2.5859385
0.22252048
0.82762838
-0.29015135
6.1657159
-0.47786699
7.7126119
-0.44622512
7.3480701
-0.35492977
6.3961826
-0.17349734
5.8255781
4.4992543
0.34235899
-2.9574447
-0.3454858
0.43686269
-2.6804422
0.12310228
1.1413888
-0.35358951
6.6424077
-0.49091235
7.8499348
-0.45622099
7.3133788
-0.37244853
6.3124101
-0.1724034
5.625533
4.3268509
0.32570455
-0.23085605
-3.0522932
0.39090879
-2.7456464
-0.0015454366
1.533843
-0.53063273
7.171495
-0.59246168
7.9117637
-0.47669868
7.1976158
-0.34998653
6.185698
-0.12091479
5.3964613
4.2059361
-0.36553342
0.30317844
0.058619659
0.0037353254
-0.78945929
0.4194531
0.0044727706
-1.2351618
0.44329774
0.0024047255
-1.4191192
0.19055223
-0.0065947408
-1.2299844
-0.17971853
-0.0094162715
-0.98364922
-0.25041029
0.0040750646
-0.77069267
-0.21639977
0.003443228
-0.16976494
-0.5991006
-0.0018271339
-0.62820141
-0.00087059624
-0.36261659
0.60175305
0.064041973
-0.76044517
0.81728168
-1.1744629
0.85731548
-1.2814597
0.29754902
-1.0204919
-0.44068628
-0.7207934
-0.55010884
-0.42484145
-0.51235172
0.12259638
-1.1465384
-1.18672
-0.35457113
0.8894256
0.066898584
-0.73462228
1.1973328
-1.1280709
1.250764
-1.1860734
0.35555156
-0.86769103
-0.75906865
-0.46462143
-0.95317844
-0.030006571
-0.94696658
0.45942875
-1.6359738
-1.6354613
-0.34419035
1.1646898
0.068926194
-0.69881732
1.5519598
-1.0595453
1.6114921
-1.0632653
0.35927152
-0.69054813
-1.1317858
-0.24933908
-1.3943875
0.26013405
-1.4564397
0.74226496
-2.1181047
-2.0300178
-0.33435884
1.4273232
0.07172538
-0.66189563
1.8794966
-0.98791966
1.9375161
-0.91931299
0.29066485
-0.45671898
-1.5943798
0.0050683661
-1.8561748
0.5457521
-1.9971234
1.0152821
-2.5876347
-2.3731134
-0.31795644
1.6709494
0.074330232
-0.62066884
2.182209
-0.91989488
2.2367421
-0.78644304
0.157213
-0.23386932
-2.1469535
0.26726196
-2.3573061
0.81189819
-2.5417597
1.2491646
-3.0249011
-2.6767608
-0.30801086
1.9036666
0.075293695
-0.58935783
2.463556
-0.81858513
2.4659694
-0.59377813
-0.067593995
0.0031278746
-2.7438595
0.52786569
-2.8820439
1.0589869
-3.0728809
1.4593509
-3.4252652
-2.9449667
-0.29007421
2.1170273
0.076713466
-0.54075122
2.714233
-0.62407011
2.5492883
-0.28976533
-0.40189878
0.23221079
-3.2658357
0.77583967
-3.4256728
1.2839421
-3.5809833
1.6384493
-3.7797723
-3.1795527
-0.27731403
0.081853613
2.3124877
-0.48813078
2.9250497
-0.44509262
2.5062502
-0.005195205
-0.84179619
0.47521378
-3.7462446
1.0071533
-3.9576123
1.4753774
-4.0492074
1.789675
-4.0940699
-3.3893922
0.32637355
2.9628874
-0.23141701
-3.0578439
0.39110275
2.6828919
-2.7476211
-0.0022883205
-1.1458821
1.5392732
-0.53142467
-6.6475658
7.1767022
-0.59242179
-7.8498522
7.9108494
-0.47658346
-7.3125365
7.1966982
-0.34999634
-6.3121564
6.1855692
-0.12089867
-5.6252861
5.3961884
-4.3266471
4.2057484
0.3431123
2.9657794
-0.34600432
0.43735508
2.5886492
0.12270904
-0.83123606
-0.35429973
-6.170557
-0.49104477
-7.7131072
-0.45614645
-7.3474348
-0.37241491
-6.3958879
-0.17238828
-5.8253128
-4.4990354
0.36212897
2.9929217
-0.38927132
0.48392878
2.4668494
0.22205644
-0.56936372
-0.29092184
-5.6575788
-0.47807497
-7.5259541
-0.446196
-7.3793138
-0.35491992
-6.487164
-0.17347871
-6.006754
-4.6725141
0.38624234
2.988396
-0.38171665
0.52887165
2.32422
0.31766212
-0.35815419
-0.14053418
-5.1993825
-0.37680574
-7.2896825
-0.41302263
-7.3430969
-0.36463708
-6.5355495
-0.209989
-6.161402
-4.8825031
0.39430764
2.9386455
-0.34455706
0.56218303
2.1563447
0.418521
-0.21449216
-0.046380893
-4.7344806
-0.32727095
-7.0087925
-0.37965253
-7.2907153
-0.3297839
-6.5854182
-0.20190894
-6.289277
-5.084412
0.39501796
2.7840984
-0.24047094
0.55977791
1.9915847
0.46625846
-0.12097272
0.090891925
-4.359114
-0.1986758
-6.7192247
-0.32246689
-7.1669242
-0.31969164
-6.5881934
-0.22141512
-6.3875535
-5.3058272
0.38574256
2.5023978
-0.10404191
0.56099749
1.8163298
0.53648122
-0.096456445
0.19093688
-4.0135697
-0.12177022
-6.4065176
-0.2583944
-7.0303001
-0.26595172
-6.5806361
-0.20104173
-6.4524635
-5.5068689
0.3682031
2.1325369
0.0016577706
0.53628726
1.6482456
0.54838787
-0.10855706
0.31115215
-3.776334
0.02048625
-6.1158517
-0.17496366
-6.8348502
-0.23192241
-6.5236773
-0.19862247
-6.4857635
-5.7054913
0.34680062
1.8322949
-0.046558577
0.52041491
1.4746313
0.58078182
-0.16892396
0.41193535
-3.6074875
0.1101672
-5.8140836
-0.082812812
-6.6418701
-0.15191709
-6.4545731
-0.15780321
-6.4798773
-5.8632946
-0.064290542
5.5952085
-5.530918
-0.1832479
5.6484947
-5.5295374
-0.30101015
5.5233995
-5.4056373
-0.44293745
5.4093536
-5.2674263
-0.54542104
4.9128923
-4.8104087
-0.54540556
4.0596298
-4.0596453
-0.27024446
1.9191672
-2.1943283
-0.031324391
0.09038992
-0.32930999
-1.1275677
1.0547653
0.041478025
-0.058086059
5.6532946
-0.17322271
5.7636314
-0.28758273
5.6377596
-0.433907
5.5556779
-0.54195201
5.0209373
-0.52302168
4.0406995
-0.24953834
1.6456839
-0.026968254
-0.13218017
-1.198339
0.043803017
-0.049780819
5.7030754
-0.16428301
5.8781336
-0.28326765
5.7567442
-0.43229054
5.7047008
-0.53878732
5.1274341
-0.5058028
4.007715
-0.26090987
1.400791
-0.042501639
-0.3505884
-1.2858672
0.045026619
-0.043824122
5.7468995
-0.15377081
5.9880802
-0.26891519
5.8718886
-0.42110006
5.8568857
-0.53276929
5.2391033
-0.49191745
3.9668631
-0.27121169
1.1800852
-0.056840985
-0.56495911
-1.3882091
0.045500909
-0.035583313
5.7824828
-0.14366704
6.096164
-0.26285597
5.9910775
-0.41744044
6.0114701
-0.52787312
5.349536
-0.47526505
3.9142551
-0.26583756
0.97065771
-0.05933443
-0.77146224
-1.4923125
0.044768905
-0.029941093
5.8124239
-0.13269092
6.1989138
-0.2475883
6.1059749
-0.40414239
6.1680242
-0.5195194
5.464913
-0.45929836
3.854034
-0.25475694
0.76611629
-0.058118929
-0.96810025
-1.5958121
0.045380731
-0.021992743
5.8344166
-0.1216642
6.2985853
-0.24007009
6.2243808
-0.39829281
6.326247
-0.51256975
5.5791899
-0.43747553
3.7789398
-0.23688598
0.56552674
-0.055283718
-1.1497025
-1.6874894
0.036393533
-0.017474716
5.8518914
-0.11035594
6.3914665
-0.22325435
6.3372792
-0.37993278
6.4829254
-0.50052074
5.6997779
-0.4193027
3.6977218
-0.21909993
0.36532396
-0.050136372
-1.3186661
-1.781037
0.043411252
-0.011403198
-0.099814046
-0.21710795
-0.37605269
-0.49035836
-0.4001241
-0.2037241
-0.04775883
0.0034990422
0.097159317
0.88361226
0.073993723
0.53180761
-0.76395828
0.89233829
-2.554859
0.86427918
-4.0315862
0.70737754
-4.6535071
0.50038373
-5.0604325
0.32224956
-5.2275031
0.13693266
-5.3442205
-5.3939853
0.20857709
0.61609303
0.058942129
0.66953731
-1.2249185
0.92622128
-2.811543
0.86019218
-3.9655571
0.70530308
-4.498618
0.5074649
-4.8625944
0.32838633
-5.0484245
0.14219243
-5.1580266
-5.2517929
0.28174757
0.27022271
0.064122753
0.76448439
-1.7076553
0.9332872
-2.9803458
0.84950767
-3.8817776
0.69900011
-4.3481104
0.50618171
-4.669776
0.33233023
-4.8745731
0.15054226
-4.9762386
-5.1012506
0.41233822
-0.21855597
0.076440452
0.85771824
-2.1530353
0.94123401
-3.0638616
0.84240644
-3.78295
0.69474652
-4.2004505
0.51134336
-4.4863728
0.33660366
-4.6998334
0.15488756
-4.7945225
-4.946363
0.66999002
-0.88642145
-0.002124534
0.90609556
-2.3891409
0.93205373
-3.0898197
0.82779543
-3.6786917
0.68582751
-4.0584826
0.5079075
-4.3084528
0.33609094
-4.5280168
0.16179498
-4.6202265
-4.7845681
0.78962488
-1.6286254
-0.047420946
0.92083273
-2.5203487
0.92177165
-3.0907587
0.8195488
-3.5764688
0.68005141
-3.9189852
0.51145005
-4.1398514
0.33884613
-4.3554129
0.16307832
-4.4444587
-4.6214897
0.84987777
-2.2913072
-0.18719598
0.93056132
-2.6010323
0.90618996
-3.0663873
0.8039746
-3.4742535
0.66909918
-3.7841098
0.50705042
-3.9778027
0.33778723
-4.1861497
0.16776761
-4.2744391
-4.4537221
0.91223787
-2.5240034
-0.67954171
0.93244948
-2.6212439
0.89268312
-3.0266209
0.79496854
-3.3765389
0.66280861
-3.6519498
0.50865974
-3.8236538
0.3400678
-4.0175578
0.16713521
-4.1015065
-4.2865869
0.93593868
-2.5480395
-0.91190249
0.92570238
-2.6110076
0.88041765
-2.9813362
0.77955471
-3.275676
0.6505485
-3.5229436
0.5008754
-3.6739807
0.33681654
-3.8534989
0.17007067
-3.9347607
-4.1165162
-0.0078221427
4.2093716
-4.2015495
-0.0065095732
4.00462
-4.0059325
-0.0041460575
3.9221928
-3.9245564
0.0019724301
3.732314
-3.7384325
0.0088958056
3.5763493
-3.5832726
0.017623697
3.3346239
-3.3433518
0.028057546
3.075647
-3.0860808
0.032655249
2.7566941
-2.7612918
2.3336376
-2.3430102
0.042027775
-0.0068913941
4.216263
-0.0059819097
4.0037105
-0.0041876969
3.9203986
-0.0024801496
3.7306065
0.0029249491
3.5709442
0.011627806
3.3259211
0.021656904
3.0656179
0.032613898
2.7457371
2.3308676
0.03538396
-0.00046811992
4.2167311
0.0030195865
4.0002228
0.0078512952
3.9155669
0.014827201
3.7236305
0.021471087
3.5643003