/*--------------------------------*- C++ -*----------------------------------*\
  =========                 |
  \\      /  F ield         | OpenFOAM: The Open Source CFD Toolbox
   \\    /   O peration     | Website:  https://openfoam.org
    \\  /    A nd           | Version:  11
     \\/     M anipulation  |
\*---------------------------------------------------------------------------*/
FoamFile
{
    format      ascii;
    class       volVectorField;
    location    "9.5";
    object      U;
}
// * * * * * * * * * * * * * * * * * * * * * * * * * * * * * * * * * * * * * //

dimensions      [0 1 -1 0 0 0 0];

internalField   nonuniform List<vector> 
4455
(
(99.986183 0.47421739 0)
(99.957932 1.4347997 -1.5598932e-18)
(99.687506 2.4327389 5.3624638e-18)
(99.46678 3.4475016 2.585769e-20)
(98.974209 4.5134808 5.0354277e-18)
(98.460823 5.8090552 -1.9100004e-17)
(97.58582 7.1124285 8.5265814e-18)
(96.517611 9.0560993 0)
(93.79648 11.372687 -5.2624366e-17)
(100.01549 0.52548296 -9.9757461e-18)
(100.01536 1.5304267 9.7557042e-18)
(99.740427 2.6135512 -1.2052465e-17)
(99.508742 3.6408329 2.0182023e-17)
(99.080299 4.7886879 -3.8892718e-17)
(98.582992 6.0767206 4.2543495e-17)
(97.73817 7.3638575 -4.0931223e-18)
(96.55966 9.5386185 5.972069e-18)
(93.522045 11.119045 2.292921e-16)
(100.07414 0.55259022 -1.0207348e-17)
(100.04812 1.6134526 1.3011713e-17)
(99.797623 2.7336413 1.1810857e-17)
(99.568669 3.8162141 -1.178857e-17)
(99.234658 5.0559062 5.148081e-17)
(98.670096 6.4037052 -2.9255607e-17)
(97.909234 7.6598279 3.7506575e-18)
(96.668156 10.224139 -8.3520018e-17)
(93.283359 11.322825 -1.6263782e-16)
(100.12024 0.57038534 2.5998598e-19)
(100.09136 1.658777 -1.6862012e-18)
(99.849498 2.8477713 2.750277e-17)
(99.672536 3.9774307 3.8015827e-18)
(99.310844 5.2501133 -2.6726054e-19)
(98.921813 6.7443945 -5.549335e-18)
(98.079118 8.1290579 6.1702275e-17)
(96.676474 10.99716 1.6647559e-16)
(93.033437 11.897022 1.3512633e-16)
(100.17453 0.57972609 1.9745961e-17)
(100.11343 1.6806442 -2.2236383e-17)
(99.909174 2.9283816 2.7996988e-17)
(99.775199 4.0686155 3.4228161e-20)
(99.478144 5.5153515 -3.4900757e-17)
(99.03483 6.9374401 -1.0703951e-17)
(98.373915 8.3682119 -4.8652203e-17)
(96.900406 11.680847 -7.7911394e-17)
(92.748488 12.305702 -3.9809754e-16)
(100.20155 0.56633688 0)
(100.16517 1.6867717 0)
(99.949255 2.9720442 -4.9168395e-17)
(99.888349 4.1638961 -5.6362386e-17)
(99.678553 5.6960204 0)
(99.279647 7.2814526 -7.6486277e-17)
(98.551796 8.8006828 -6.5229869e-18)
(96.985771 12.479545 -4.7248291e-18)
(92.384498 12.702595 4.9106966e-16)
(100.23213 0.55752211 0)
(100.18327 1.6569518 -1.310278e-18)
(100.03818 2.9955487 1.4747782e-18)
(99.97519 4.1916802 5.5088628e-17)
(99.820052 5.7977541 -4.0693693e-18)
(99.503634 7.3678872 1.6230325e-16)
(98.944996 8.9830093 0)
(97.222056 13.24266 0)
(92.208745 12.989191 2.2461576e-16)
(100.26351 0.52384587 3.5808126e-17)
(100.19781 1.617604 0)
(100.10231 2.9868772 0)
(100.14049 4.2653573 0)
(100.03924 5.9718488 0)
(99.691164 7.6522157 -8.0705981e-17)
(99.178774 9.2925748 -8.6100312e-17)
(97.443388 14.042058 1.2279332e-16)
(91.977607 13.445892 3.6619702e-19)
(100.27194 0.4996109 -3.5257465e-17)
(100.23626 1.5370622 -1.2387154e-18)
(100.147 2.9060757 -1.4194167e-18)
(100.22049 4.1811197 3.1941915e-18)
(100.23 5.9733197 1.236675e-16)
(100.00182 7.6998789 1.400418e-16)
(99.590276 9.4481205 2.7284043e-16)
(97.796841 14.697864 -1.2055604e-16)
(92.036644 13.988707 -3.8238369e-16)
(100.28298 0.4575082 0)
(100.27747 0.42989739 6.3926384e-17)
(100.26765 0.37434831 -6.3417973e-17)
(100.25349 0.33502051 6.0022434e-17)
(100.2232 0.28498403 -5.8675618e-17)
(100.19921 0.22723528 1.1617279e-16)
(100.15626 0.1858134 -1.1277883e-16)
(100.12046 0.11658743 0)
(100.04238 0.052849143 0)
(100.25685 1.4789427 0)
(100.29154 1.3869442 1.1169132e-18)
(100.3197 1.3034337 0)
(100.32643 1.1707372 3.1504595e-18)
(100.3633 1.0723728 6.36779e-17)
(100.36805 0.92743529 -1.8955904e-16)
(100.37069 0.79488585 1.2250775e-16)
(100.41188 0.69061871 -1.8579408e-18)
(100.32218 0.4447337 1.1681805e-16)
(100.24379 2.9056393 8.2443712e-17)
(100.29951 2.8146119 -1.6186884e-16)
(100.39109 2.7361997 1.5339348e-16)
(100.47345 2.607782 -5.2948808e-18)
(100.51091 2.4452437 -7.16149e-17)
(100.62712 2.3258038 -2.1608486e-18)
(100.61271 2.0939595 0)
(100.76798 1.957723 4.0256191e-18)
(100.71703 1.5674304 -1.9454511e-18)
(100.34931 4.2147191 8.6552928e-17)
(100.50967 4.2099082 -1.7521411e-16)
(100.59337 4.1299113 1.6534184e-16)
(100.79053 4.0931053 -7.9824203e-17)
(100.83482 3.9125754 -4.947541e-18)
(101.05604 3.8215937 2.3608268e-18)
(101.06339 3.5900291 0)
(101.3031 3.4484363 -2.1946837e-18)
(101.24361 3.0159555 1.3125411e-16)
(100.40744 6.0517646 -9.9342597e-17)
(100.70483 6.1915298 0)
(100.86205 6.1563387 -8.951201e-17)
(101.18128 6.2044211 9.2308638e-17)
(101.31688 6.0946327 -8.201231e-17)
(101.63733 6.0591504 8.4758359e-17)
(101.74695 5.8870013 0)
(102.1117 5.7934494 0)
(102.10254 5.4260277 4.6613121e-18)
(100.14206 7.905936 -1.2217196e-16)
(100.55903 8.1559791 -1.1465898e-16)
(100.75443 8.2601539 1.102175e-16)
(101.1572 8.4296254 1.0365597e-16)
(101.36497 8.4117905 -9.9913434e-17)
(101.74992 8.5130075 0)
(101.94466 8.3969359 1.7979319e-16)
(102.39741 8.4146694 -2.0803841e-18)
(102.47341 8.1328183 -3.3061875e-16)
(99.914098 9.5790171 -1.4415565e-16)
(100.45932 9.9954442 0)
(100.89992 10.072311 0)
(101.47061 10.41205 3.7404143e-18)
(101.89771 10.328392 0)
(102.42352 10.589856 0)
(102.81849 10.385217 0)
(103.3322 10.646377 0)
(103.6429 10.286736 0)
(98.098335 15.516235 5.7190661e-18)
(98.675493 16.737951 0)
(99.131455 17.113111 4.8744764e-18)
(99.894943 17.630541 -8.8325324e-18)
(100.3803 17.452553 -1.2789381e-16)
(101.12399 17.508892 -1.1820618e-16)
(101.60727 17.090472 2.3000115e-16)
(102.22378 17.042402 2.1703746e-16)
(102.82042 16.58506 -2.0541346e-16)
(92.600714 14.474956 7.0246073e-16)
(94.174358 14.678553 -4.447385e-16)
(96.578831 13.624461 3.7267906e-16)
(99.569527 13.621177 -3.6627721e-16)
(101.75599 13.298476 -4.8363413e-16)
(103.66244 13.817124 8.8526293e-16)
(104.82823 14.161659 -5.5433102e-16)
(106.09344 14.793649 -2.5307422e-16)
(106.70769 14.990234 2.3806715e-16)
(100.08244 0.091527066 -1.5377465e-19)
(100.13354 0.12235064 1.5730151e-16)
(100.22014 0.16900988 -2.4524931e-19)
(100.33662 0.22390115 -1.5826597e-16)
(100.47885 0.28050619 1.5405937e-19)
(100.6492 0.33649955 1.5826315e-16)
(100.84875 0.3946605 -1.5903174e-16)
(101.07935 0.4551286 -1.5380257e-19)
(101.36153 0.53373339 -7.9181716e-17)
(100.44203 0.50413235 -1.6764197e-16)
(100.52648 0.69301443 1.6824184e-16)
(100.73375 0.70650758 -1.6835913e-16)
(100.89328 0.93756521 0)
(101.14845 0.92589538 1.6826468e-16)
(101.43302 1.1846971 -5.6765871e-19)
(101.72264 1.1587901 -4.7568336e-19)
(102.03245 1.431765 -1.6786004e-16)
(102.39463 1.3485433 8.3583528e-17)
(100.96738 1.6879389 1.7851826e-16)
(101.06668 2.0160654 -1.7922348e-16)
(101.39347 2.0860522 -1.7924684e-16)
(101.53176 2.4404048 1.7966823e-16)
(101.89686 2.4852356 -1.7971178e-16)
(102.0768 2.859168 1.7909879e-16)
(102.49041 2.8849221 -1.7916411e-16)
(102.71835 3.2946817 8.5205497e-19)
(103.18643 3.2913908 1.7848883e-16)
(101.57976 3.1632037 -1.9186523e-16)
(101.70865 3.5760103 -7.5040518e-19)
(102.10876 3.669716 7.5173895e-19)
(102.27455 4.1126158 0)
(102.71349 4.1815931 3.4904484e-22)
(102.91699 4.6368672 -1.9008465e-16)
(103.38181 4.6763273 1.9320886e-16)
(103.63295 5.1465184 7.4305766e-19)
(104.14363 5.1419037 7.4030326e-19)
(102.50393 5.6195951 -8.100944e-19)
(102.67261 6.1247978 -2.0695952e-16)
(103.1005 6.2528716 5.4597004e-19)
(103.28145 6.7308175 2.0772671e-16)
(103.71883 6.8127332 2.0667878e-16)
(103.9173 7.2726937 -2.0772699e-16)
(104.38324 7.3230001 -8.0366452e-19)
(104.62824 7.7986049 -8.0126524e-19)
(105.13465 7.8021536 -7.9882941e-19)
(102.96347 8.280252 2.2534752e-16)
(103.16299 8.7052333 0)
(103.6199 8.7627708 0)
(103.81668 9.1458571 2.2136494e-16)
(104.28169 9.2124914 -2.2434027e-16)
(104.50785 9.5836863 -2.2194618e-16)
(104.98059 9.649612 4.4268973e-16)
(105.23957 10.016759 -1.9945862e-18)
(105.72748 10.074296 -4.3975741e-16)
(104.1044 10.564041 -9.5569861e-19)
(104.45499 11.067473 0)
(104.88313 11.454707 9.4359951e-19)
(105.22751 11.905873 2.4676003e-16)
(105.55578 12.172267 -2.4818411e-16)
(105.93335 12.478788 2.443009e-16)
(106.23165 12.681437 -2.4482699e-16)
(106.64934 12.908405 -9.1489059e-19)
(106.99622 13.046794 2.3928587e-16)
(103.03918 16.58809 -2.5929011e-16)
(103.32116 16.701929 2.6270707e-16)
(103.77185 16.603786 -2.5845263e-16)
(104.30462 16.533984 2.5711149e-16)
(104.87903 16.344037 -2.50468e-16)
(105.45723 16.176706 2.3399511e-18)
(105.99019 16.001682 2.5159765e-16)
(106.45193 15.845633 1.9657634e-18)
(106.91022 15.589601 1.2301104e-16)
(107.84266 15.389881 0)
(108.93119 15.890789 -2.8220807e-16)
(110.14471 16.342979 5.1696458e-18)
(111.19511 16.696856 5.6017636e-18)
(111.94976 17.345937 5.5080449e-16)
(112.46948 17.96689 -2.741637e-16)
(112.91321 17.975513 -2.6804106e-16)
(113.28111 17.694967 2.6919038e-16)
(113.65385 16.933614 1.3241065e-16)
(113.81452 15.957677 -1.545097e-16)
(113.62596 14.400383 0)
(113.48011 13.636113 1.5292737e-16)
(112.92571 12.58838 -1.5292921e-16)
(112.27046 12.248407 0)
(111.19985 11.203305 0)
(110.30035 10.991844 0)
(108.95119 10.005523 -1.6623774e-16)
(108.04037 9.9529139 1.6623863e-16)
(107.31179 15.41074 -1.4010775e-16)
(107.74609 15.175963 0)
(108.09116 15.033431 0)
(108.37118 14.789714 0)
(108.53817 14.607778 0)
(108.66507 14.344868 0)
(108.6298 14.195193 0)
(108.54744 14.041467 1.3590524e-16)
(108.32126 14.004153 -2.7254141e-16)
(107.35803 13.226798 -2.7875193e-18)
(107.64881 13.357036 -2.6028373e-16)
(107.94059 13.487826 0)
(108.23484 13.565622 -1.2631345e-16)
(108.4716 13.632077 1.2631039e-16)
(108.73973 13.676205 0)
(108.87548 13.714094 0)
(109.06766 13.757948 0)
(109.11661 13.809136 0)
(106.00739 10.421022 2.3552488e-16)
(106.52452 10.560733 0)
(106.79926 10.896872 1.1437568e-16)
(107.33333 11.021698 -2.2759984e-16)
(107.58518 11.339869 1.132231e-16)
(108.10301 11.453523 0)
(108.31932 11.762979 0)
(108.80591 11.865233 0)
(108.9749 12.187129 1.0783036e-16)
(105.39243 8.2830171 0)
(105.9299 8.3354426 2.1057797e-16)
(106.20689 8.8044325 -3.1479947e-16)
(106.77013 8.8374834 1.0422155e-16)
(107.05942 9.2989433 1.0202943e-16)
(107.62853 9.3117538 -1.1101787e-18)
(107.91768 9.7693482 -2.0072098e-16)
(108.47925 9.7655566 1.9847896e-16)
(108.78203 10.232048 -9.8677168e-17)
(104.42314 5.6356909 0)
(104.97462 5.6351199 9.6710289e-17)
(105.29447 6.1426728 -9.6713126e-17)
(105.87652 6.1097089 0)
(106.23536 6.621769 -1.8751082e-16)
(106.84147 6.5608807 1.8752007e-16)
(107.22486 7.0706336 9.1593518e-17)
(107.85107 6.9882838 -1.8204552e-16)
(108.25597 7.5026655 9.0453435e-17)
(103.45196 3.7419241 0)
(103.9708 3.7337953 0)
(104.2787 4.2098478 0)
(104.83863 4.1735424 -8.797487e-17)
(105.19134 4.6691996 1.7507498e-16)
(105.78893 4.6049546 -1.7328824e-16)
(106.17693 5.1100721 8.6182035e-17)
(106.80844 5.0219943 -8.4209733e-17)
(107.23164 5.5462294 1.6735042e-16)
(102.74826 1.658464 -1.6890016e-16)
(103.17532 1.5622351 6.9229937e-19)
(103.60204 1.9159174 8.3444024e-17)
(104.0852 1.7905618 -8.1915439e-17)
(104.54443 2.1775545 8.1915428e-17)
(105.10531 1.9908667 0)
(105.59527 2.3989836 7.9269104e-17)
(106.20585 2.1730798 -1.5755112e-16)
(106.74716 2.6051717 7.8284693e-17)
(101.5606 0.60151632 5.1353776e-19)
(101.85183 0.68512212 7.9763392e-17)
(102.32062 0.85509704 7.8609603e-17)
(102.63774 0.90532223 -7.8609611e-17)
(103.12434 1.0452984 0)
(103.48823 1.0842801 0)
(104.03954 1.2180157 -7.5929054e-17)
(104.49278 1.2585956 1.5103271e-16)
(105.11333 1.4016158 -7.5103632e-17)
(105.65105 1.4514661 0)
(106.34165 1.5991694 -7.2225374e-17)
(106.94907 1.6375091 1.0844764e-18)
(107.67832 1.7931213 1.1562942e-18)
(108.38608 1.8245309 1.2301218e-18)
(109.16452 1.9674042 6.8754477e-17)
(109.95015 2.0202232 6.6056169e-17)
(110.7985 2.1508812 -6.6056172e-17)
(111.65713 2.2025766 0)
(107.41297 2.3475275 0)
(107.9967 2.8074112 0)
(108.70487 2.5258986 -7.3795926e-17)
(109.33974 3.0143321 1.2754055e-18)
(110.10875 2.7044468 1.3379798e-18)
(110.76982 3.2198775 7.1198403e-17)
(111.59347 2.9229296 6.8325356e-17)
(112.32547 3.3814166 -6.8325294e-17)
(113.15767 3.2377642 0)
(107.91086 5.4400986 -8.3145395e-17)
(108.37354 5.9951626 0)
(109.09938 5.8715673 0)
(109.5961 6.4562456 -7.8340251e-17)
(110.34582 6.3186493 1.5534593e-16)
(110.92329 6.9271395 -1.4055209e-18)
(111.65244 6.8148961 -1.4797736e-18)
(112.33683 7.3842455 -7.4117112e-17)
(113.10183 7.3748276 0)
(108.90991 7.4085948 -8.8060777e-17)
(109.3377 7.9354701 8.8064614e-17)
(109.99916 7.8576402 0)
(110.47949 8.350412 0)
(111.11518 8.3677729 8.2779345e-17)
(111.66093 8.7933822 -8.2779336e-17)
(112.31152 8.8737862 7.985141e-17)
(112.8478 9.3402602 -4.0705169e-17)
(113.60196 9.4316432 -3.9146226e-17)
(109.31344 10.236883 -9.6389816e-17)
(109.66647 10.708672 9.6389795e-17)
(110.1398 10.753978 0)
(110.54341 11.23844 0)
(111.01723 11.309537 0)
(111.37648 11.851672 0)
(111.93676 11.944269 0)
(112.26103 12.558296 0)
(112.82233 12.688581 0)
(109.42846 12.293011 -1.0783184e-16)
(109.56545 12.642549 1.0582989e-16)
(110.01172 12.764501 -1.0583696e-16)
(110.10563 13.160313 1.0389589e-16)
(110.5567 13.343105 -1.0389153e-16)
(110.5996 13.793999 0)
(111.06664 14.052361 0)
(111.06759 14.587376 0)
(111.58475 14.924994 0)
(109.24553 13.882215 0)
(109.22695 13.981599 -1.208483e-16)
(109.30236 14.164882 1.2074514e-16)
(109.16119 14.342578 0)
(109.23915 14.639226 1.2013615e-16)
(108.98769 14.923549 -1.202213e-16)
(109.10108 15.341041 0)
(108.76146 15.793908 5.9962049e-17)
(108.90146 16.288138 -1.1985934e-16)
(108.10239 13.939404 1.3670623e-16)
(107.68396 14.017989 1.3874214e-16)
(107.39633 14.077879 -1.3875293e-16)
(106.84553 14.31318 1.4132382e-16)
(106.51165 14.51168 -2.8410782e-16)
(105.817 14.923527 2.8712077e-16)
(105.45312 15.264968 -2.9034195e-16)
(104.63194 15.859099 1.4598209e-16)
(104.263 16.353956 0)
(106.61757 9.1661804 -1.7353559e-16)
(105.65406 9.3866797 1.7353637e-16)
(104.13454 8.8149169 0)
(103.14011 9.2573376 0)
(101.54679 8.8626432 0)
(100.6072 9.4881644 0)
(98.981061 9.2438909 0)
(98.065511 10.050281 -1.0038051e-16)
(96.310771 9.9129607 1.0037982e-16)
(95.334411 10.992529 1.0467234e-16)
(103.3183 17.152829 0)
(108.53806 16.984431 5.9891196e-17)
(111.55249 15.582613 0)
(113.23684 13.384135 0)
(114.11427 9.89303 0)
(113.78297 7.8524848 3.461124e-17)
(113.9693 3.5601878 3.1722276e-17)
(112.57936 2.3339546 3.0678699e-17)
(93.387669 10.99988 -1.046705e-16)
(102.9612 17.832439 0)
(108.68724 17.575039 0)
(112.15463 15.999056 4.832363e-17)
(113.81631 13.574063 0)
(114.95298 10.115414 -3.6573476e-17)
(114.69015 7.9683294 -6.8321443e-17)
(114.87387 3.5215229 -6.2545951e-17)
(113.52179 2.388482 -6.0476332e-17)
(92.12593 12.527824 0)
(101.88163 18.901904 0)
(108.30671 18.543782 5.9444626e-17)
(112.11126 16.812772 -4.8324367e-17)
(114.24334 14.37569 0)
(115.51218 10.527933 3.6573472e-17)
(115.37676 8.3497506 3.371006e-17)
(115.71152 3.8157658 3.0823548e-17)
(114.50664 2.5151579 2.9797625e-17)
(90.278447 13.008387 1.1123237e-16)
(101.58571 19.810698 0)
(108.53922 19.273612 -1.1860405e-16)
(112.84122 17.304536 0)
(114.94793 14.586871 0)
(116.40734 10.82038 -3.4596674e-17)
(116.33534 8.5750378 -3.1746296e-17)
(116.67616 3.8628988 0)
(115.54667 2.5846715 -2.7876315e-17)
(88.632129 15.187489 -1.1123218e-16)
(100.41429 21.254226 -7.823736e-17)
(108.16242 20.54517 5.9157083e-17)
(112.81466 18.31147 0)
(115.44865 15.52705 0)
(117.06904 11.285994 3.4596666e-17)
(117.14492 8.9351261 3.1746298e-17)
(117.60858 4.0500048 0)
(116.59326 2.6960829 2.7876312e-17)
(87.015343 16.289912 0)
(100.24887 22.411079 7.8238585e-17)
(108.53082 21.409692 -5.8225809e-17)
(113.71417 18.863328 0)
(116.18282 15.770409 0)
(118.01147 11.599801 -3.2347275e-17)
(118.1296 9.107227 -2.95583e-17)
(118.61513 4.1990861 0)
(117.72203 2.7533725 -2.5726891e-17)
(85.156211 19.26334 0)
(99.069515 24.296309 0)
(108.23245 23.014909 5.8225744e-17)
(113.74681 20.093732 -2.2021869e-17)
(116.89372 16.814843 -1.8273119e-17)
(118.81625 12.077928 4.789527e-17)
(119.0148 9.5746744 4.3739603e-17)
(119.59433 4.4018251 0)
(118.83294 2.863069 3.8009805e-17)
(83.955158 21.248921 0)
(99.140568 25.684841 -3.9295729e-17)
(108.78264 23.988723 0)
(114.82557 20.659085 2.2009237e-17)
(117.65539 17.109485 1.826697e-17)
(119.8218 12.511982 -6.6661269e-19)
(120.14729 9.7126216 -2.7732899e-17)
(120.70912 4.5040469 0)
(120.03794 2.9196814 -1.2282915e-17)
(82.197869 25.175378 -5.9031918e-17)
(98.081606 28.168122 3.9285568e-17)
(108.67998 26.076002 0)
(115.05343 22.28044 0)
(118.61809 18.293531 0)
(120.78219 12.877321 -2.9046744e-17)
(121.0228 10.10618 6.7495789e-19)
(121.72324 4.7339494 0)
(121.19339 3.0036375 0)
(122.71899 3.0369953 0)
(122.89299 4.8571188 0)
(122.37253 10.272179 -5.7332863e-20)
(121.84682 13.430652 1.4844871e-17)
(119.444 18.501148 0)
(116.29796 22.567668 -2.7259749e-18)
(109.54175 26.918236 -6.9683947e-19)
(98.712327 29.615286 -3.2178835e-17)
(82.003469 28.240959 1.0948291e-16)
(124.07483 3.0086895 -4.9198336e-18)
(123.96484 4.88736 -6.7635298e-19)
(123.31498 10.466007 6.4830926e-18)
(123.08541 13.444385 -4.7010409e-20)
(120.82448 19.432522 -6.6051216e-18)
(117.06596 24.138715 9.2740815e-18)
(110.22025 29.093617 -3.6555257e-18)
(98.655082 32.72099 4.1137914e-17)
(81.643505 33.435658 -5.5421886e-17)
(125.36618 2.9653677 9.562577e-18)
(125.21981 4.9510898 0)
(124.82801 10.52353 1.1160952e-17)
(124.15382 13.955509 -5.9156298e-18)
(121.88177 19.505778 6.6641045e-18)
(118.63227 24.208297 -1.7164849e-17)
(111.786 29.71892 -1.5600467e-17)
(100.94861 33.776977 9.1098202e-18)
(85.371903 35.389213 1.8806809e-18)
(126.7468 2.9201413 -4.6482956e-18)
(126.32351 4.9121936 -5.9515852e-19)
(125.86069 10.633367 -4.7960604e-18)
(125.68848 13.940358 6.7548048e-18)
(123.63619 20.396066 2.4935877e-18)
(120.01764 25.877776 8.963227e-18)
(113.23132 32.051021 1.2277684e-17)
(101.70235 36.867438 4.964273e-18)
(85.927289 39.93558 -5.6857783e-18)
(128.15188 2.8660643 9.6480399e-19)
(127.70964 4.90423 -1.026047e-18)
(127.57035 10.638103 -6.0745336e-19)
(126.85309 14.28228 1.920648e-18)
(124.83983 20.313268 -2.5118587e-18)
(121.67293 25.739382 -2.8620424e-18)
(115.15249 32.385155 -3.2299771e-18)
(104.49421 37.579816 3.646776e-18)
(89.227347 41.401403 -7.2480087e-18)
(129.54065 2.7923273 -9.7548507e-19)
(128.84129 4.8665947 1.0383819e-18)
(128.55581 10.574123 -5.5290486e-19)
(128.58402 14.186829 -4.0219181e-20)
(126.90045 21.121756 -6.9855952e-19)
(123.61433 27.262041 1.9470017e-18)
(117.04865 34.662043 -3.0417739e-18)
(105.60719 40.652831 3.4427065e-18)
(89.917414 45.383099 0)
(130.90752 2.6931945 -7.6152394e-19)
(130.31491 4.7753069 -4.4723165e-19)
(130.39824 10.539365 -4.3012511e-19)
(129.83196 14.295678 -5.6959677e-19)
(128.19434 20.840606 -5.9258092e-19)
(125.26355 26.986429 1.9065617e-18)
(119.09842 34.761368 -4.9616478e-18)
(108.52692 41.060528 7.58113e-18)
(93.253639 46.317219 -5.0545139e-18)
(132.24768 2.5658845 2.0785898e-18)
(131.45445 4.671542 1.4263105e-18)
(131.4732 10.244603 2.0722961e-18)
(131.7206 14.204138 2.1880072e-18)
(130.54397 21.358747 1.8520255e-18)
(127.64262 28.239521 -6.8230794e-19)
(121.45159 36.884628 -2.5887403e-18)
(110.08009 44.116109 -1.1814249e-18)
(94.382684 49.981389 -5.9295182e-18)
(133.54849 2.4078869 -3.4988567e-18)
(132.89533 4.4896323 -1.4440872e-18)
(133.27208 10.048994 -4.5942776e-18)
(133.00827 13.971739 -1.3482087e-18)
(131.87671 20.906614 2.8920586e-18)
(129.34588 27.741284 2.0359439e-18)
(123.65875 36.68648 -1.0803725e-17)
(113.21497 44.168881 2.6430597e-18)
(97.842015 50.5311 1.1004334e-17)
(99.309064 54.030158 -9.960148e-18)
(115.26327 47.198849 3.5405341e-18)
(126.48862 38.615155 1.3914029e-17)
(132.08842 28.646693 -1.6608482e-18)
(134.39206 21.1766 -8.4742835e-20)
(134.98046 13.711554 1.5365082e-18)
(134.36795 9.6089614 2.9621246e-18)
(134.0192 4.2785607 -1.3494541e-19)
(134.79232 2.2171942 4.0504711e-18)
(102.82658 54.278824 3.5168972e-17)
(118.65237 46.857172 1.9172003e-18)
(128.86978 38.006397 -1.5696541e-17)
(133.93698 27.911905 -3.3489191e-19)
(135.81214 20.425596 -2.3464963e-18)
(136.27042 13.171222 -1.9807558e-18)
(136.11357 9.2595903 -3.2772657e-18)
(135.40945 3.9999408 0)
(135.96081 1.9969124 -1.7463781e-18)
(104.59033 57.688459 -4.4622194e-17)
(121.22984 49.856169 1.7813524e-17)
(132.18346 39.676434 7.2209144e-18)
(136.94822 28.43145 -2.0053161e-19)
(138.42469 20.330499 1.6961197e-18)
(138.27534 12.7093 -1.1459848e-20)
(137.1943 8.5288526 1.4862842e-18)
(136.3755 3.6657788 1.7948677e-18)
(137.03269 1.7462764 1.6510918e-18)
(108.18777 57.588621 -7.5465657e-18)
(124.83473 49.081961 -1.0958258e-18)
(134.67653 38.53484 -8.6979494e-19)
(138.8929 27.277979 0)
(139.90724 19.197644 -1.7093188e-18)
(139.47048 11.903046 0)
(138.70878 8.0576301 1.8556275e-18)
(137.69234 3.2586038 -2.8697312e-18)
(137.98457 1.4680768 -8.94154e-19)
(110.41443 60.967903 -2.2579393e-18)
(128.0309 51.986113 -8.1891436e-18)
(138.48261 39.812252 4.0611384e-19)
(142.03564 27.27058 0)
(142.42897 18.733806 2.1923515e-18)
(141.42333 11.144864 -1.2402684e-18)
(139.81286 7.050361 -8.0292054e-21)
(138.45466 2.8472406 1.0453235e-18)
(138.79868 1.1642792 -7.8631485e-19)
(114.2737 60.500311 -2.3502946e-17)
(131.85816 50.652727 4.0055498e-19)
(140.9634 38.069417 -4.4076799e-19)
(144.02395 25.641705 4.8090494e-19)
(143.89271 17.114801 2.1061386e-18)
(142.46356 10.053024 3.8011094e-18)
(141.00137 6.4334361 -8.5379319e-20)
(139.57658 2.2450748 -4.705865e-20)
(139.4486 0.83721357 0)
(117.12418 63.980233 1.6285349e-17)
(135.51979 53.213289 -5.8887978e-19)
(145.29625 38.76026 -3.4521532e-19)
(147.20157 25.084001 8.8707437e-19)
(146.22074 16.363935 -3.9120232e-18)
(144.25717 8.9166381 -2.9322004e-18)
(141.98592 5.1528344 -1.0959086e-19)
(140.08219 1.777251 1.0041898e-19)
(139.91754 0.49426573 0)
(121.15607 63.016096 0)
(139.9606 51.429299 1.5065278e-18)
(147.60454 36.314602 -1.284491e-18)
(149.05669 22.957929 2.2494604e-17)
(147.59648 14.251515 5.0701205e-19)
(144.97117 7.5453542 -1.0589054e-17)
(142.77729 4.3974952 6.9468789e-18)
(140.91887 1.0230695 -5.0510879e-18)
(140.17488 0.15017446 -4.3885285e-18)
(124.93179 66.477842 2.6002902e-18)
(143.95595 53.316979 -4.3697688e-17)
(152.26238 36.22866 1.9488861e-18)
(152.10896 21.798179 -2.3551007e-17)
(149.52582 13.177537 5.0103984e-19)
(146.59534 6.1324661 1.0580468e-17)
(143.54927 2.9320667 -7.5198872e-18)
(141.14411 0.4784858 5.3312183e-18)
(140.31386 -0.061378549 -1.0030985e-18)
(140.14314 -0.35082828 5.472914e-18)
(141.51767 -0.43197171 -7.502071e-18)
(143.82199 1.9837169 0)
(146.8559 4.5441957 1.0481303e-18)
(150.73761 10.447493 -2.369355e-17)
(153.7258 18.993817 -3.2474841e-17)
(154.45193 32.841626 0)
(149.33163 50.751259 -1.5113543e-17)
(129.68295 64.518514 -2.2159643e-18)
(139.9127 -0.69063383 0)
(141.39758 -1.0394793 7.7488602e-18)
(144.329 0.35909481 0)
(148.18438 2.6966473 1.2237958e-18)
(152.13043 8.813871 4.770588e-17)
(156.60784 16.720613 3.5861881e-17)
(159.51731 31.203074 -5.6619362e-17)
(154.46221 51.401529 5.3532613e-17)
(136.15137 68.342753 -3.7847087e-17)
(139.27618 -0.82067778 0)
(141.20866 -1.9875083 0)
(143.94604 -0.68172129 1.3129351e-17)
(147.81269 0.89161566 0)
(152.92738 5.6301351 -2.660571e-17)
(157.58879 13.204991 4.2987133e-17)
(161.43242 26.48947 5.1406925e-17)
(160.67119 47.253763 4.6813773e-18)
(142.18927 64.59289 -2.3795244e-17)
(138.49426 -1.246418 0)
(140.6398 -2.6838569 0)
(144.05639 -2.3073178 -1.3402759e-17)
(148.6303 -1.0402278 -1.9436252e-17)
(153.55119 3.8246387 -3.1032717e-17)
(159.77556 10.440218 -4.6726298e-17)
(165.62358 23.602256 0)
(165.81927 46.115349 -1.0950319e-16)
(151.10686 67.746358 7.0626001e-17)
(137.23634 -1.4046129 -1.2963718e-19)
(139.96683 -3.6774934 1.4038227e-19)
(143.0023 -3.3039201 0)
(147.6345 -2.8768411 -6.8174555e-19)
(153.63258 0.56186008 6.8605681e-17)
(159.79403 6.5678504 -2.7467823e-18)
(166.69257 17.80976 -7.8469623e-17)
(171.58205 40.22238 1.2065856e-16)
(157.88851 61.841605 -1.5255813e-16)
(135.89158 -1.6614879 1.2691242e-19)
(139.0998 -4.3997313 -1.3764016e-19)
(142.64622 -4.7733264 0)
(147.90215 -4.8110127 2.4353706e-17)
(153.68583 -1.270806 -3.9123569e-17)
(161.06049 3.7431656 2.9244171e-18)
(169.42198 14.0124 8.1158616e-17)
(175.72307 37.069862 0)
(169.8412 63.307068 1.5294338e-16)
(134.15985 -1.66542 -1.2003169e-19)
(137.89272 -5.324637 -9.794899e-18)
(141.00617 -5.6484429 5.6248724e-19)
(146.37219 -6.5535821 -2.2255833e-17)
(152.78206 -4.3537992 -3.8577841e-17)
(160.04392 -0.057423074 0)
(169.07844 7.7561236 0)
(179.49464 29.069784 1.5873775e-16)
(177.02072 54.976249 0)
(132.39366 -1.84248 0)
(136.69431 -6.0466768 1.0130164e-17)
(140.19607 -6.9202728 0)
(146.13521 -8.4156261 2.5766661e-17)
(152.56662 -6.1933858 3.5571101e-17)
(160.47071 -2.453874 -5.8489102e-17)
(169.82824 4.2025735 0)
(181.13547 23.699064 -1.7795274e-16)
(191.92366 53.218645 3.4755983e-16)
(130.19614 -1.8156242 0)
(135.04727 -6.8196959 0)
(137.93394 -7.6341765 5.4655187e-19)
(143.89804 -10.214751 1.2071347e-18)
(150.57442 -9.2829989 -2.0352638e-18)
(158.60388 -6.4224426 6.0370446e-17)
(167.82541 -2.8100431 0)
(181.18183 9.9870646 0)
(195.25421 39.175664 -3.4959549e-16)
(127.14243 -2.205897 1.5267845e-19)
(133.65667 -7.6019916 1.2860539e-19)
(137.08784 -8.5952462 -1.1231246e-17)
(143.71578 -11.602854 0)
(150.68249 -10.326974 0)
(159.43055 -7.3764379 3.9433053e-18)
(168.55442 -2.7686707 8.0277804e-17)
(181.37441 12.779478 -3.4516867e-18)
(207.82019 42.687474 0)
(124.95127 -2.4085426 1.1691797e-19)
(131.99468 -8.4002574 1.2656659e-19)
(134.82329 -9.2548701 1.0244507e-17)
(141.9203 -12.982554 0)
(149.58775 -12.031612 0)
(159.88975 -8.9684 -3.9971882e-18)
(170.81621 -2.5231876 -2.4759013e-16)
(186.71478 16.065257 3.6620671e-18)
(204.67196 41.411981 -7.1353805e-16)
(122.51832 -2.4936162 0)
(130.56322 -9.1143483 -1.0928121e-17)
(134.09561 -10.322647 0)
(142.11052 -14.792286 -1.5897253e-18)
(150.71395 -13.775119 1.7320514e-18)
(162.35113 -10.87096 4.2458575e-18)
(173.3988 -4.8635501 3.4815718e-16)
(189.61046 14.511097 -4.1088138e-18)
(192.78892 44.498283 6.7962334e-16)
(119.95507 -2.5377826 5.9043948e-18)
(128.68095 -9.8648996 1.0544289e-17)
(131.94423 -11.286921 -1.4420153e-17)
(140.30905 -16.651811 -3.8438503e-17)
(149.63423 -15.896686 7.2024078e-17)
(162.73246 -13.235084 -1.2103254e-16)
(176.94514 -6.2971622 -1.856102e-16)
(191.99281 12.046783 -3.7290367e-16)
(173.93551 54.306966 0)
(117.33858 -2.5570525 -1.4612418e-17)
(127.0001 -10.699322 -6.0270673e-18)
(131.07298 -12.394525 1.3948846e-17)
(140.29325 -18.56442 3.9396208e-19)
(150.86422 -18.172117 -6.9476348e-17)
(165.57243 -15.798504 -5.0908324e-18)
(178.25233 -9.5653362 0)
(191.94358 12.595952 3.5300285e-16)
(140.43559 75.306681 0)
(114.717 -2.5474199 2.0405738e-17)
(124.80742 -11.223443 5.8975733e-18)
(128.63782 -13.334024 -1.0302371e-17)
(138.19841 -20.497525 3.618431e-17)
(149.71315 -20.641352 2.845772e-18)
(165.40665 -18.801672 1.1744652e-16)
(179.51671 -10.96812 -2.0791087e-16)
(191.02059 13.999797 -4.3707091e-16)
(119.13002 95.250064 5.1449998e-16)
(112.11547 -2.4791535 -1.1554888e-17)
(122.8388 -12.089692 1.6269545e-20)
(127.52877 -14.291351 9.4075433e-18)
(137.68667 -22.201257 -1.4795475e-18)
(149.5444 -23.262094 1.5964638e-18)
(167.29909 -21.347176 1.2978531e-16)
(179.35273 -14.530334 4.2468921e-16)
(186.80318 14.884059 4.1403659e-16)
(75.776878 87.140502 -4.8772783e-16)
(109.47465 -2.2620252 -1.2563718e-19)
(120.33994 -12.368605 1.3479168e-19)
(124.81341 -15.112243 -4.5420435e-18)
(135.14417 -24.15664 -2.9527964e-17)
(149.20311 -25.283046 6.5327773e-17)
(166.82966 -24.840421 -2.5603806e-16)
(179.07371 -17.10631 -4.4093224e-16)
(175.09916 10.919899 -4.5108625e-16)
(-9.097344 3.4180422 5.1259406e-16)
(107.43123 -1.9870113 2.012364e-17)
(118.2625 -13.140053 -2.3504486e-21)
(123.54164 -16.014782 2.3523445e-18)
(134.39615 -25.578799 2.863938e-17)
(147.87944 -28.445723 -6.0343925e-17)
(167.65562 -27.486436 1.2864559e-16)
(176.028 -21.396157 2.1938925e-16)
(154.62231 10.144093 4.3175412e-16)
(-19.530134 23.333986 -4.8789229e-16)
(-23.009883 26.653808 -8.0971965e-16)
(140.58093 10.575053 -5.0820578e-18)
(173.08112 -23.286035 4.0210024e-18)
(166.53796 -30.436921 -3.4314903e-18)
(147.27388 -30.408807 0)
(131.539 -27.432509 2.3459794e-19)
(120.79155 -16.626949 1.7897398e-18)
(115.53586 -13.150802 -8.0876478e-18)
(105.07497 -1.5870899 -4.3358936e-17)
(-30.932511 26.784819 7.853282e-16)
(132.18209 6.6057782 0)
(171.63807 -28.269483 0)
(166.47708 -33.409885 3.26999e-16)
(145.46677 -33.365006 0)
(130.13658 -28.339783 -4.7199271e-17)
(119.30978 -17.264804 5.6885699e-18)
(113.1842 -13.91974 7.7316366e-18)
(102.7202 -1.0575383 -2.8899891e-17)
(-36.157034 28.43319 5.9470315e-18)
(121.70301 7.2340427 -4.7925478e-18)
(167.92041 -28.996807 0)
(164.47989 -35.862706 -3.2002717e-16)
(144.42008 -34.780124 0)
(127.12317 -29.861412 4.6573452e-17)
(116.53581 -17.609654 -5.3170924e-18)
(110.40865 -13.619725 -2.838243e-19)
(100.4561 -0.77787491 5.149507e-17)
(-41.48124 28.790564 1.4526402e-15)
(113.74367 3.491023 -1.2103838e-15)
(165.65011 -33.419716 6.4364596e-18)
(163.75184 -38.681058 0)
(142.13904 -37.696409 -1.267272e-16)
(125.2878 -30.318635 0)
(114.96758 -18.051485 1.7811311e-19)
(108.05982 -14.178956 -3.4354171e-19)
(98.57044 -0.19544602 1.664583e-19)
(-45.627504 31.76896 -1.3960047e-15)
(103.21229 4.9526668 -1.2418368e-17)
(161.55817 -33.913828 6.3009189e-16)
(160.89771 -41.265864 -3.3116493e-18)
(140.61663 -38.897602 5.2531695e-18)
(122.13065 -31.586828 0)
(112.13137 -18.135002 2.0664873e-17)
(105.09719 -13.780526 0)
(96.960375 0.43437561 0)
(-49.923163 31.015632 5.337315e-18)
(96.01243 0.82709688 1.1315075e-15)
(158.88557 -38.351547 -1.215645e-15)
(160.17745 -43.807408 3.0048842e-16)
(138.32553 -41.51107 1.1697041e-16)
(120.09417 -31.80732 1.8486618e-17)
(110.57983 -18.495488 -2.0088541e-17)
(102.77965 -14.048989 -4.5634629e-19)
(95.79959 1.293338 6.8199001e-17)
(-51.951619 36.927995 5.1815364e-18)
(85.860116 2.8941654 -1.1148224e-15)
(154.77646 -38.734404 6.0149746e-16)