/*--------------------------------*- C++ -*----------------------------------*\
  =========                 |
  \\      /  F ield         | OpenFOAM: The Open Source CFD Toolbox
   \\    /   O peration     | Website:  https://openfoam.org
    \\  /    A nd           | Version:  11
     \\/     M anipulation  |
\*---------------------------------------------------------------------------*/
FoamFile
{
    format      ascii;
    class       surfaceScalarField;
    location    "0.35905";
    object      phi;
}
// * * * * * * * * * * * * * * * * * * * * * * * * * * * * * * * * * * * * * //

dimensions      [0 3 -1 0 0 0 0];

internalField   nonuniform List<scalar> 
1652
(
1.706212168242977
0.5337381654478508
-1.749711486809247e-13
1.172474003763556
0.5337381584601615
9.356959651540819e-13
0.6387445889753087
0.5335573844874477
6.685763054292693e-13
0.5291694379100622
-8.956835273465913e-12
0.1057108735378195
1.706212168247669
1.067476330876281
1.17247400581555
1.067476302972505
0.6387502859439775
1.067106106250906
1.053469711983479
0.1085001334191816
1.706212168244335
1.601214496297491
1.17247401366007
1.601214387332915
0.6388068443778728
1.600474948344012
1.575036528854076
0.1089064682438329
1.706212168319324
2.134952661524985
1.172474043625302
2.1349522301199
0.6388941654960084
2.133495063535023
2.097346112685841
0.105228057402847
2.651191214820912
1.723711780178269
3.167429763815842
1.723711779118497
3.683668091248368
1.723711850961485
1.723712858541924
4.199906976889767
2.651189465071915
1.207473398879944
3.167421590816583
1.207473281686492
3.683647091126016
1.207475961907071
1.207511759920537
4.199820837530866
2.649583228904292
0.6899966150162304
3.166042664463096
0.6888428048900808
3.682704497686751
0.6872927260222214
0.6887259217814736
4.19453010237401
2.650858091437326
0.1168464538848444
3.273907452108221
0.04172948606860138
3.912918257569208
0.01812745854405429
4.554396637637244
0.01129282119471209
4.164891509472955
0.03501636671703445
4.129861262024983
0.03500472325752257
4.094845572893616
0.03485884579718856
0.03478338645572243
4.059708525195498
4.16499013192982
0.06971417682995901
4.130355939923108
0.06893752806225467
4.096343233432834
0.06750290990390262
0.06568327420594544
4.062543583019377
4.174762225679087
0.08243064836953273
4.160192236021246
0.07411709802706928
4.152915988036916
0.06157202969489067
0.0530025863803123
4.147933526529872
4.602999811026002
0.006230415182739535
4.647494415508956
0.005265715442677898
4.680641474460756
0.006629803815467128
4.712885369349397
0.007741361015776715
4.670348116724899
0.1044027752073965
-0.06872356793102422
4.5857241374231
0.1015165538918649
-0.01838085184622953
4.503730047319921
0.09665173731646037
-0.008941168987616821
0.08784974152495684
4.431612125502583
-0.006796949286805409
4.220047662121464
0.01359807815965247
4.275115916389773
0.02649719521729316
4.314295662968361
0.03725444349554741
0.04539463400774707
4.338102397220702
4.068837602668675
0.001072275158228386
4.081303658664877
0.002961252475571108
4.09882885983134
0.005652791795806245
0.00994554715253837
4.11839810432324
4.059562209240158
4.059935057028942
4.061253787891727
4.064429827461158
4.069788257686849
-0.01553706197850846
4.077664254177106
-0.02161286609552016
4.087592059333503
-0.02800492582595793
-0.03208686684945738
4.096854683879552
4.138804705078504
-0.05367870308413014
4.158770878568915
-0.06001103483982034
4.176950706953389
-0.06319642278193444
-0.06153827352784813
4.190926699672302
4.347593653647874
-0.07863708506534706
4.34570951008785
-0.06822288578733549
4.333669225544065
-0.05401634706592812
-0.04807364875546366
4.319228065469253
4.365123014596542
-0.007520895783269921
4.316504687505883
-0.00596231843659864
4.273321925301266
-0.003544706122704827
4.244427614984013
-0.002875287031435914
0.04262208093842601
4.228790030392069
-0.0173781643329948
0.05772064927307441
4.30875920694856
0.03444811635728728
4.199789568811536
4.101707218664806
0.04038460201616068
4.249806162194975
-0.145457210826276
0.04757003345208527
4.301670742459391
0.03365315767387034
4.20610667325835
4.102709598808923
0.07798630275335344
3.985882026303935
-0.1401682960161954
0.04620157393474389
4.308930581145871
0.028071459889774
4.211355337396972
4.097910144160157
0.1744393701089836
3.683138790865389
-0.042375823126233
0.06561547789023464
4.316475177877929
0.02799962794385957
4.226317322701784
4.100460843455043
0.07036685603274229
3.979625982460693
0.1236722808081023
4.132223641888549
0.08042578458860028
4.217642255662602
3.561612972290299
0.1473949955302825
0.06633988999701412
3.876733500701916
0.0894483581927405
4.042539815410247
0.008737995720790259
4.09517332921117
3.435340272119225
0.1118026128793592
0.0529081538313787
3.784866653844055
0.01878369195901919
3.955410155223103
-0.06997600358118983
3.935142615339156
3.333492148236593
0.05846645941948281
0.02168968068780996
3.705350255703673
-0.08808064625027978
3.861155078488704
-0.1185188704539343
3.7457954092594
3.239563163542152
0.02714583555532069
0.140222733295021
3.155344599700752
0.002342777381762695
0.1877920169452696
3.584341042542031
0.03370331893174283
3.734293590456301
3.642014000828104
0.148565288412901
3.077917016055491
-0.006620598485839069
0.2558249543902047
3.47292139177264
0.1024730337810232
3.584913858701836
3.59193696828733
0.1405344659372799
2.995555167305454
0.002426490468823483
0.2945441708679792
3.346122506718665
0.1905316266493557
3.449925829843157
3.557033496895403
0.1100896819502442
2.890731057873903
0.01568872484582251
0.2666913763386788
3.221265661126666
0.250657534151334
3.304630131315642
3.51504392847689
-0.2198877504366685
3.464029317420118
-0.1874415311740757
3.230008806954467
-0.04688754074913803
3.107129386535251
2.789393646181892
0.04415924675196858
-0.1620766971573622
3.402033569027215
-0.1271275350021296
3.139664680467716
0.001587853350132118
3.005039215408399
2.707145503168874
0.06646559476535052
-0.1025428643586809
3.328481067047376
-0.05281922279428752
3.057146171981672
0.06928976988143709
2.911759837353054
2.641209850077949
0.1219945331148156
-0.03606416247780764
3.223825225710799
0.03384343982528759
2.966839448498714
0.1557286308458405
2.819980167255967
2.569316814790265
0.2296641328489399
-0.3468992472299799
3.454265208341179
-0.5765001418316595
3.185556276272627
-0.7153287543741542
3.000170347833965
2.633174465372634
-0.7690606542370614
-0.3003284936722355
3.659061876429044
-0.5257725081581769
3.407012826872463
-0.6287148293569179
3.176873916148696
2.28142947277725
-0.2632374476196836
-0.2737473717815959
3.844005821389915
-0.4821477956161532
3.621118802717683
-0.5140620119540096
3.331474450937025
1.802635890303847
-0.02969024724545477
-0.2405868162106893
4.010537282441151
-0.4395264879374476
3.82749690752402
-0.3628232109675174
3.439491800881084
1.419183564479377
-0.01229891806127687
0.1579921453659548
1.462259641081421
-0.01046433418575088
0.2076185727240165
3.530512725031078
0.1042359733433629
3.937911436086312
4.06239619445311
0.1656937760885751
1.440296461408705
-0.00796418849551303
0.1877703433018317
3.626291020573855
0.09475519324868115
4.050675813045105
4.107439362229153
0.1503961135284523
1.343416956324374
-0.003388141326051801
0.1686568900592179
3.723837863234543
0.08929595716872768
4.160005913828959
4.149307597796003
0.1199035526234311
1.254128570706626
0.002216113548172274
0.1500776701182501
3.817141684212128
0.08907329125090391
4.257481417040039
4.196058111097622
-0.2360980297821231
1.570671515784192
-0.01566068422022152
-0.1844994062119339
3.985619185525929
-0.04686279811713345
4.19765723032594
4.097473427274433
-0.2650578907227457
1.928891517213135
0.006037535759988624
-0.1779554502484118
4.068994676973304
-0.03203360713209236
4.113014886533799
4.060021575018689
-0.2624288108646156
2.246291003657655
0.03366943903228649
-0.1342837073958142
4.102112987356097
-0.02058031107289682
4.067296766006634
4.056529107659758
-0.2320802419035534
0.0879362885221187
2.498960042608625
-0.1112270131301871
4.099291602804285
-0.01644613533833028
4.039779652299671
4.056699089770637
0.3370797775177487
-0.4390166054373819
-0.01288060134732351
5.60529400672749e-12
0.8931897642649304
-0.4127151490840144
-2.966515921798418e-13
1.634078550500929
-0.4647627599410487
7.442935157087049e-13
-0.5171318526390847
-1.282041139916146e-11
0.3341406068352772
-0.8924962196106943
-0.01278928804903379
0.9071080095096046
-0.8649894277424024
1.634987258875048
-0.9425703700563917
-1.035821311559834
0.3307494290079975
-1.351845234767247
-0.01561712021562287
0.9268833890911637
-1.342818716949634
1.639052631776917
-1.451624290460475
-1.556787050425469
0.3241793272530658
-0.0160898562442514
-1.70380486169144
0.9570253002872391
-1.850815823924872
1.647689620293647
-1.98387209520362
-2.082326303893488
-0.2320802419024098
-2.246291003658242
0.08793628852212025
2.498960042606518
-0.1112270131288396
-4.102112987361178
4.09929160280292
-0.01644613533393446
-4.067296766005144
4.039779652296511
-4.056529107660716
4.056699089766346
-0.2624288108638583
-1.928891517217374
0.03366943903253714
-0.1342837073970647
-4.068994676981109
-0.02058031107539904
-4.113014886536682
-4.060021575022628
-0.26505789072367
-1.570671515789666
0.006037535760227725
-0.1779554502527025
-3.985619185533562
-0.03203360713673753
-4.19765723032727
-4.097473427277519
-0.2360980297828409
-1.254128570709836
-0.01566068422002596
-0.1844994062160281
-3.817141684222451
-0.04686279812123817
-4.257481417039111
-4.196058111087732
-0.1042359733385051
4.062396194469701
-4.010537282466324
-0.2076185727121307
3.937911436108206
-3.827496907553981
-0.1579921453594277
3.530512725008002
-3.43949180085128
1.462259641059743
-1.419183564456691
-0.01046433418598357
-0.09475519324272963
4.107439362233059
-0.1877703432880946
4.050675813061146
-0.1656937760834376
3.626291020561422
1.440296461398765
-0.007964188495657443
-0.08929595716305699
4.149307597790498
-0.1686568900422733
4.160005913836543
-0.1503961135231615
3.723837863232081
1.343416956320666
-0.003388141325894638
-0.08907329124417684
-0.150077670101756
-0.119903552618526
0.00221611354818289
0.3628232109712722
-1.80263589029071
-0.01229891806126159
0.4395264879527205
-3.331474450923152
0.2405868162255574
-3.621118802745346
-3.844005821409834
0.5140620119581129
-2.281429472765149
-0.02969024724470179
0.4821477956308801
-3.176873916144108
0.2737473717928998
-3.407012826893706
-3.659061876443668
0.628714829364196
-2.633174465368122
-0.2632374476185833
0.5257725081727918
-3.000170347832137
0.3003284936826057
-3.185556276285325
-3.454265208347238
0.7153287543811312
-2.56931681479008
-0.769060654238902
0.5765001418434957
-2.819980167257437
0.3468992472345377
-2.966839448504307
-3.223825225710261
-0.219887750436607
3.464029317431634
-3.515043928492896
-0.1874415311668022
3.230008806969108
-3.304630131338858
-0.04688754074475254
3.107129386523922
-3.221265661109742
2.789393646171279
-2.890731057861806
0.04415924675207838
-0.1620766971510279
3.402033569034346
-0.1271275349937822
3.139664680476655
0.001587853354730884
3.005039215399411
2.707145503162746
0.06646559476683445
-0.1025428643563245
3.328481067049807
-0.05281922278599283
3.057146171988273
0.06928976988551949
2.911759837348027
2.641209850074582
0.1219945331153045
-0.03606416247379607
0.03384343983421112
0.1557286308494357
0.2296641328491686
0.1100896819530257
-2.995555167295941
0.01568872484620054
0.2666913763454073
-3.346122506708875
0.2506575341536638
-3.44992582985741
-3.557033496907141
0.1405344659402085
-3.077917016048596
0.002426490468679599
0.294544170876134
-3.472921391768998
0.1905316266530452
-3.58491385871041
-3.591936968293959
0.1485652884164148
-3.155344599695949
-0.006620598486586693
0.2558249543975605
-3.584341042543879
0.1024730337818222
-3.734293590459187
-3.642014000830589
0.1402227332971853
-3.239563163541464
0.002342777381340144
0.187792016952696
-3.745795409266499
0.03370331893510248
-3.861155078489507
-3.705350255701194
0.07036685603416903
3.979625982461911
-4.100460843452371
0.1236722808085997
4.132223641889825
-4.226317322699833
0.08042578458901117
4.217642255666054
-4.316475177880119
3.561612972294082
-3.683138790869135
0.1473949955302314
0.06633988999888629
3.876733500703665
0.08944835819459696
4.042539815412405
0.008737995721176284
4.095173329213591
3.435340272120649
0.1118026128783555
0.05290815383321534
3.784866653845432
0.01878369196346097
3.955410155227395
-0.06997600358042366
3.935142615347524
3.333492148237371
0.05846645942057116
0.02168968069086086
-0.08808064624798551
-0.1185188704525292
0.02714583555576289
-4.097910144159566
-0.027999627943048
-4.102709598810252
-0.02807145988896187
-4.101707218666141
-0.03365315767207033
-0.03444811635736422
-4.096854683880229
-4.211355337398127
-0.0656154778927161
-4.206106673256954
-0.04620157393527585
-4.199789568805552
-0.04757003345249217
-0.05772064927302251
-4.190926699667387
-4.308930581148674
-0.1744393701083289
-4.301670742459843
-0.07798630275254065
-4.308759206947767
-0.04038460201673683
-0.04262208093831837
-4.319228065470435
-3.985882026309417
-0.04237582312634025
-4.249806162195778
-0.1401682960168948
-4.228790030390925
-0.1454572108245549
-4.244427614984723
-0.01737816433271749
-0.032086866847995
-4.087592059333295
-0.06153827352714203
-4.176950706948287
-0.04807364875449538
-4.333669225547769
-4.273321925302204
-0.002875287030676521
-0.02800492582645231
-4.077664254176848
-0.06319642278120408
-4.158770878563447
-0.0540163470639195
-4.345709510094085
-4.316504687503839
-0.003544706121777846
-0.02161286609434887
-4.069788257688304
-0.06001103483948456
-4.138804705072009
-0.06822288578629421
-4.347593653655963
-4.365123014595206
-0.005962318436814301
-0.01553706197581906
-4.064429827466046
-0.05367870308472961
-4.118398104315708
-0.07863708506494316
-4.33810239722893
-4.431612125503529
-0.007520895782947234
-0.001072275160056035
4.059562209238495
-4.05970852519129
-0.01359807816275277
4.068837602651829
-4.062543582999523
-0.1044027752107271
4.220047662135464
-4.14793352654578
4.67034811673435
-4.712885369360823
-0.06872356793034531
-0.002961252481798682
4.059935057028681
-0.0264971952214656
4.081303658650548
-0.1015165538952492
4.275115916404137
4.585724137430502
-0.01838085184644678
-0.005652791797679635
4.06125378789371
-0.03725444350093265
4.098828859819794
-0.09665173732074256
4.314295662979888
4.503730047324263
-0.008941168988769482
-0.009945547156446688
-0.04539463401356292
-0.08784974152748298
-0.006796949286767273
-0.05300258638490069
-4.680641474468991
0.007741361015732029
-0.06568327421851305
-4.152915988044185
-0.03478338646094492
-4.096343233424003
-4.094845572893315
-0.06157202970058195
-4.647494415514299
0.006629803815291324
-0.06750290991680991
-4.160192236020099
-0.03485884580041509
-4.130355939927631
-4.129861262029936
-0.07411709803356176
-4.602999811023302
0.005265715442898333
-0.06893752807403147
-4.17476222567003
-0.03500472325805037
-4.164990131947111
-4.164891509476718
-0.0824306483740529
-4.554396637623536
0.006230415183721361
-0.06971417684252113
-4.194530102358311
-0.03501636672059605
-4.199820837558721
-4.199906976893026
-0.6887259217796948
-3.912918257540191
0.01129282119590103
-1.207511759912917
-3.682704497675375
-1.723712858546933
-3.683647091141268
-3.683668091248632
-0.6872927260201165
-3.273907452074635
0.01812745854586162
-1.207475961899654
-3.166042664459013
-1.723711850962887
-3.16742159082983
-3.167429763819678
-0.6888428048897207
-2.650858091408676
0.04172948606621346
-1.207473281682579
-2.649583228904917
-1.723711779118877
-2.651189465080838
-2.651191214827043
-0.6899966150162766
-2.097346112673712
0.1168464538768224
-1.207473398879734
-2.133495063538195
-1.723711780189157
-2.134952230119624
-2.13495266152924
1.706212168246033
0.533738165442889
1.172474003768165
0.5337381584645446
0.6387445889785234
0.5335573844913917
0.5291694378951721
0.1057108735415201
1.706212168248593
1.067476330870366
1.172474005816249
1.067476302972471
0.6387502859443855
1.067106106254502
1.053469711976415
0.1085001334215857
1.706212168246491
1.601214496294372
1.172474013660217
1.601214387333412
0.6388068443771506
1.600474948347908
1.575036528852259
0.1089064682429957
1.706212168319994
1.172474043622985
0.6388941654931095
0.1052280574004128
0.1054759810475161
0.1054759810516965
0.1054647705541729
0.1079717306933239
0.1059218288803699
0.1078289324689623
0.1026817872308271
0.1077858799090799
0.1079717306907684
0.1054647705584705
0.1076778026524387
0.1076778026548267
0.1081683554573855
0.1066959873462393
0.09904199404268295
0.1111318840666444
0.1078289324699258
0.1059218288838399
0.10669598734695
0.1081683554599333
0.1063684735195679
0.1063684735199678
0.09589987912521544
0.1089250565439825
0.1026817872345459
0.1077858799108883
0.09904199404615745
0.1111318840688158
0.09589987912943018
0.108925056543648
0.0956801505532934
0.09568015055832678
-0.03916558925775537
0.1340448600473911
-0.06253534650751275
0.1313153959247944
-0.08852138844394858
0.1359932711422263
0.1348761947284281
-0.005684164259505908
0.1388644362319774
-0.01617717985286055
0.1408690673011347
-0.02706226294701092
0.1459003576742517
0.1484358489603
-0.0009923753579925143
0.1391910146990189
-0.007348239485009456
0.1465013249987971
-0.01314038098732717
0.1509083138652352
0.1525106169415772
-0.001218057964567199
0.1398083231419632
-0.006135054620411584
0.150778584540856
-0.009219674011574475
0.1533108458671084
0.1538246644326909
0.1533062341955945
0.006170095460057201
0.1533760067310141
0.004949263494792966
0.1526233554790832
0.007182137783298403
0.006669599876783006
0.1537779913658538
0.1535230088053358
0.00539166511684408
0.1538406840155205
0.004325589036255906
0.1539188790709782
0.006913419638446161
0.003199334871455128
0.1574347177497231
0.1528834500227173
0.00272535341925817
0.1538657597823005
0.003032216686410516
0.1547081655892384
0.00588394421247268
-0.009752296387405213
0.1676869646926733
0.1419819881054936
0.1446540139860014
0.150291835758755
0.140465593874949
0.1403032827648155
-0.05510018538362249
0.1310983312911187
-0.008869682985847199
0.1296750095247779
-0.006960235668297454
-0.006209816854369915
0.1296612713803673
0.1446525545901963
-0.04222881997251252
0.1388142553806813
-0.002739181942394392
0.1356471045473895
-0.003209197494485783
-0.003925637994193404
0.1339633790004925
0.1511988074513841
-0.02569889717172746
0.1456050585972452
0.00313091381078312
0.1416424240225962
0.001326027074130376
8.775951016801176e-05
0.1382234803813029
0.114758330941052
0.1181797212653514
0.1201086630521255
0.1208134062601015
0.1299256993284646
-0.00688372742107482
0.1308514400613577
-0.005826467643291616
0.1320208655826087
-0.003774297748921879
-0.003040806634401955
0.1331287588854439
0.1327208017366063
-0.004748621605821735
0.1322507508933425
-0.004285525610304403
0.1322757626954531
-0.002835689286293991
-0.002533110534210736
0.1327014911440565
0.1355183367555565
-0.001149517953841439
0.1336133927200763
-0.001296710101018672
0.1325544646187653
-0.0007912216770517566
-0.001117948580972777
0.1322005410259725
0.1205639920097372
0.1203346834620712
0.1204723806169243
0.120368315577214
0.1377927608837663
-0.02470280317612247
0.1349405070378807
-0.1503205107887741
0.1108449915858159
-0.1231636190530442
-0.01107996513947718
0.08056754405102926
0.1322289704865086
-0.0281928955563171
0.1024429829798896
-0.126921961962766
0.05618034052107991
-0.08161200623749937
-0.002643407596913006
0.04684081061461265
0.1239968856789213
-0.02432895016100931
0.05406898301292352
-0.06298322565003994
0.00261764966900703
-0.03531267861780923
-0.006653616363174908
0.004882020726057756
0.09106097241986646
0.02216004697491326
-0.01729824874700067
-0.026875448464155
0.104763209741301
0.1254672660333821
0.1177062331756992
0.1030364639312134
0.1246053304068576
0.0575872025297649
0.02673972535080127
0.1298580839642905
0.08617341113466689
0.08818392297548738
0.1121817014593394
0.08107260084425139
0.1233724476241898
0.05044230722481391
0.02493223778682574
0.1296089946749464
0.05323022993520411
0.04166654455816909
0.09768406493584475
0.04055673904290225
0.1175501808064385
0.03379756237974907
0.02011280712744223
0.1261618710139945
0.01608410757365469
0.06051895326814735
0.09671447471766675
0.1200187687390513
0.1350930071776375
0.00311494338755991
0.140046739551191
-0.006435623016045611
0.1434921386357303
0.001346081774136532
0.0111103814974185
0.1477679810096387
0.1347991534804616
0.005080172688024076
0.1395940295023713
-0.00268158927461859
0.1424788488265454
0.00172651854593997
0.006779481543501165
0.1464981697914376
0.1320286297333047
0.006216864371643815
0.1377412210342716
0.0001267114586009921
0.1417315057904918
0.001438802063629785
0.003109477203793842
0.1452959071267369
0.1330919977561132
0.138854400603832
0.1430047790686413
0.1462882639730241
0.1586601071943996
0.03178282071154426
0.1726522913384652
0.05120710918013816
0.1922514887878896
0.10233552466262
0.180537357721183
0.2412424714389743
0.1566686538025932
0.01992866448709052
0.1704553053154174
0.03609865072417973
0.1915008325987204
0.08114260138260238
0.1229250863121856
0.2492149859210276
0.1538884317131544
0.009765239933718139
0.1672273307343568
0.02141053277858529
0.1942613581446689
0.05345304063385231
0.03430202575158819
0.283098876233574
0.1546644998576761
0.1746534451539166
0.2273600246510457
0.2615295031345787
0.1220059794079191
-0.6494814178349038
0.01214845541581014
-0.1526643916815714
-0.002606115529052323
-0.01386364346216596
-0.009780000825559678
-0.003872612446570277
0.08464225147912907
-0.4845167018010469
0.001804912160603521
-0.06913141728421807
-0.004318992717479379
-0.006811318023304443
-0.006326287937426256
-0.006755906264822147
0.04503324757198224
-0.2463265078977586
-0.002598283109670097
-0.02080885764391267
-0.005885625219848259
-0.002583356591021387
-0.003323543688567607
-0.008053146920207758
0.01518126447220746
-0.004927920599677227
-0.006664824505358696
-0.009089543478670987
-0.005370314063425584
-0.00790385829839391
-0.006844432502756838
-0.005031667669957603
-0.008524029807817734
-0.0007985551459643372
0.003548565101660038
-0.009127381684873493
-0.008199902256322099
-0.005613005522341834
-0.009149082198222578
-0.002752445600794427
-0.009657575564580474
0.0007220021842473494
0.003173468949287446
-0.008472454036154342
-0.009697148446879205
-0.00288086349772034
-0.009475643521295138
-0.001539332293945695
-0.008702915869979219
0.000938075766626037
0.002634646271716348
-0.007321782950868503
-0.01079946030532747
-0.0109546210852234
-0.009118687281772756
-0.005721118416903851
-0.008405838097043015
-0.01575069065080618
0.001985810922407405
-0.002800203794987979
0.02252390680662102
0.01469466751176575
0.07054402158895923
0.04247739524841124
-0.009487467386149591
-0.01394696957376512
-0.007015148794895541
-0.003646339992140042
0.00896451161359163
8.79637014867124e-05
0.0477745207485039
0.03393030619455006
-0.011749372474156
-0.008566645101831645
-0.01142698304279086
-0.002535069699102409
-0.003558713164859006
-0.00643678169251341
0.02561992252482471
0.02039263655326841
-0.0130798507772871
-0.01385983855995613
-0.01899043832537239
0.009063976500966645
0.04132391992864734
-0.006378461739979302
0.01066268203984411
0.04002916618427706
-0.007465257743193343
0.01128653554112544
0.03680915497092761
-0.01239307722293885
0.01706095739731668
-0.01699007598306262
0.02822763478227337
0.02548682237927818
0.032703582574954
-0.003804461144241711
0.03082132531815447
-0.004808657311161882
0.02752797149626376
-0.00875634979344047
-0.01084871584337049
0.02114527082891433
0.01854227416317565
-0.001726568040059016
0.01644586857234518
-0.002245147897562704
0.01259830326979249
-0.004458282588799465
-0.005024739353960944
0.006859112666592115
0.006592257995370582
0.004607143935386464
0.0002890151140370889
-0.004422078005957689
-0.0064244871346337
0.002587344613813877
-0.00606567827163592
0.0007793080095590474
-0.003639322737059456
-0.0008823100954507869
-0.001878682095757579
-6.224187831804784e-14
0.003510025041484621
0.0060211407141866
0.00103384681801505
0.003649871777630629
-3.881279876128546e-05
0.0009299730229051541
-0.0009157461527766163
-2.63955524104631e-14
0.01673496283396439
0.01019488571187008
0.01135287363299469
0.008948214654439311
0.005693564409746624
0.006676227998732489
0.005085703456006299
1.749989042565403e-14
0.02178657768818661
0.01433798747130563
0.00770613729277464
5.658667978636345e-14
-0.001878682095766877
0.003639322736947601
-0.0009157461527791767
3.88127987207415e-05
0.005085703456006965
-0.005693564409733405
-0.007706137292655103
0.01288060134731235
-0.0008823100954597624
0.006065678271551835
0.0009299730229019483
-0.001033846818063788
0.006676227998781686
-0.01135287363299867
-0.01433798747126576
0.01278928804913925
0.0007793080095514909
0.006424487134573865
0.003649871777630299
-0.003510025041519732
0.008948214654481979
-0.01673496283401578
-0.02178657768823092
0.01561712021571895
0.002587344613818585
0.004422078005938856
0.006021140714187426
-0.006859112666600949
0.01019488571188234
-0.02114527082893236
-0.0282276347823362
0.01608985624425247
-0.03680915497091225
-0.01699007598303936
0.02548682237927722
-0.0400291661842801
-0.01239307722297868
0.01706095739734688
-0.04132391992861365
-0.007465257743255231
0.01128653554116723
-0.006378461740063471
-0.0424773952484345
0.01066268203992534
-0.02752797149628069
-0.01084871584338501
-0.03082132531817632
-0.008756349793479952
-0.03270358257494277
-0.004808657311210218
-0.00380446114430507
-0.03393030619464388
-0.01259830326981311
-0.005024739353980647
-0.01644586857236666
-0.004458282588820115
-0.01854227416321531
-0.002245147897593943
-0.00172656804008036
-0.02039263655334605
-0.0002890151140482397
-0.004607143935425738
-0.006592257995444377
-0.00906397650105642
0.01899043832529878
-0.02561992252488844
0.01385983855992217
0.006436781692477439
0.01307985077727741
0.002535069699044802
0.00856664510177553
0.005721118416933379
0.003558713164750489
-0.04777452074855459
0.01142698304273215
-8.796370166457013e-05
0.0117493724741029
0.003646339992047005
0.01394696957368889
0.007321782950866719
-0.00896451161372834
-0.07054402158899241
0.007015148794790305
-0.01469466751202843
0.009487467386049539
0.002800203794874945
0.01575069065062971
0.008472454036137618
-0.02252390680674889
-0.001985810922548716
0.008405838096946439
0.009127381684854602
0.008524029807824927
0.003548565101659046
0.006844432502833515
-0.0007985551459117404
0.005370314063475787
-0.005031667670085227
-0.007903858298441925
0.003872612446528553
0.009657575564579714
0.003173468949280375
0.009149082198259143
0.0007220021842663411
0.008199902256333803
-0.002752445600885337
-0.005613005522390484
0.006755906264828207
0.008702915869991097
0.002634646271732148
0.009475643521315261
0.0009380757666371253
0.009697148446886747
-0.001539332293991873
-0.002880863497752333
0.008053146920206138
0.00911868728180942
0.01095462108526753
0.01079946030535214
0.009089543478672043
0.002606115529026292
-0.009780000825472831
-0.01214845541531158
-0.01386364346192152
-0.1220059794069417
-0.1526643916808912
-0.6494814178355308
-0.2412424714390328
0.00431899271752181
-0.006326287937352636
-0.001804912160424742
-0.006811318023200431
-0.08464225147849004
-0.0691314172839637
-0.4845167018010587
-0.2492149859207882
0.005885625219877156
-0.003323543688556229
0.00259828310974563
-0.002583356590977424
-0.04503324757169428
-0.0208088576438751
-0.2463265078977118
-0.2830988762332915
0.006664824505364267
0.00492792059970813
-0.01518126447213969
-0.2615295031344756
-0.1922514887878506
0.1805373577213614
-0.1726522913385457
0.1023355246629511
-0.1586601071942911
0.05120710918122329
0.03178282071170691
-0.147767981009761
-0.1915008325986441
0.1229250863123649
-0.1704553053152923
0.0811426013830796
-0.1566686538025135
0.03609865072481577
0.01992866448727992
-0.1464981697915081
-0.1942613581444645
0.03430202575159419
-0.1672273307341855
0.05345304063397188
-0.1538884317130419
0.02141053277916483
0.009765239933721692
-0.145295907126788
-0.2273600246508017
-0.1746534451538156
-0.1546644998575827
-0.1462882639730202
-0.1434921386357453
0.01111038149744747
-0.1400467395509129
0.001346081773850427
-0.1350930071772535
-0.006435623016380565
0.003114943387441116
-0.129858083964106
-0.142478848826553
0.006779481543103816
-0.1395940295020849
0.001726518545960176
-0.1347991534801216
-0.00268158927380846
0.005080172688329054
-0.1296089946747487
-0.1417315057904324
0.003109477203987465
-0.1377412210338323
0.001438802063787326
-0.1320286297329267
0.0001267114584625473
0.006216864371619502
-0.1261618710138908
-0.1430047790686212
-0.1388544006037357
-0.1330919977559195
-0.1200187687387809
-0.124605330406903
0.02673972535077629
-0.1177062331757823
0.05758720252934968
-0.1047632097413749
0.1030364639305118
0.1254672660337907
-0.08056754405129565
-0.1233724476244315
0.02493223778671516
-0.1121817014593773
0.05044230722377729
-0.08617341113485351
0.08107260084347978
0.08818392297580613
-0.04684081061483265
-0.117550180806538
0.02011280712758357
-0.09768406493582089
0.03379756237946008
-0.05323022993543507
0.04055673904249735
0.04166654455839292
-0.004882020726196395
-0.09671447471736595
-0.06051895326785425
-0.0160841075737953
0.02687544846412945
-0.1108449915862791
-0.0110799651394749
-0.1349405070383369
-0.1231636190536914
-0.1377927608839615
-0.1503205107877097
-0.02470280317578302
-0.1331287588857158
-0.05618034052143044
-0.002643407596857938
-0.1024429829805445
-0.08161200623791504
-0.1322289704867742
-0.1269219619623141
-0.02819289555603491
-0.1327014911442631
-0.00261764966922351
-0.006653616363141657
-0.05406898301353545
-0.03531267861785975
-0.1239968856791926
-0.06298322564995662
-0.02432895016084616
-0.1322005410261134
0.01729824874690192
-0.02216004697513632
-0.0910609724199951
-0.1203683155771778
-0.1320208655826909
-0.003040806633733378
-0.1308514400611688
-0.003774297748237593
-0.1299256993284715
-0.005826467643472416
-0.006883727421098856
-0.1296612713802052
-0.1322757626954739
-0.002533110533679911
-0.1322507508931829
-0.002835689285785925
-0.1327208017365053
-0.004285525610559449
-0.004748621605757314
-0.1339633790004704
-0.1325544646186397
-0.001117948580746486