/*--------------------------------*- C++ -*----------------------------------*\
  =========                 |
  \\      /  F ield         | OpenFOAM: The Open Source CFD Toolbox
   \\    /   O peration     | Website:  https://openfoam.org
    \\  /    A nd           | Version:  11
     \\/     M anipulation  |
\*---------------------------------------------------------------------------*/
FoamFile
{
    format      ascii;
    class       volScalarField;
    location    "0.0725";
    object      Ma;
}
// * * * * * * * * * * * * * * * * * * * * * * * * * * * * * * * * * * * * * //

dimensions      [0 0 0 0 0 0 0];

internalField   nonuniform List<scalar> 
880
(
1.443353270571932
1.443353270571932
1.443353270571932
1.443353263987907
1.443353270571932
1.443353270571932
1.443353270571934
1.443352361945473
1.443353270571932
1.443353270571933
1.443353270572465
1.44334720889936
1.443353270571932
1.443353270571932
1.44335327061117
1.443325185892601
1.443353270571932
1.443353270571932
1.443353270571933
1.443353270573901
1.443353270571932
1.443353270571932
1.443353270571935
1.443353270571932
1.443353274870471
1.443353235552695
1.443360678922758
1.443355150287676
1.439248410839841
1.425209368312144
1.41482755690571
1.412237973043463
1.443353263493425
1.443353256534913
1.443353251543805
1.44335326410169
1.443353088412462
1.443353048583804
1.443353035917635
1.443353034281027
1.443186946079583
1.443158774650652
1.443150672823227
1.443113560003384
1.410347468921566
1.409074763041772
1.410980816087667
1.403068357126991
1.420512893533134
1.439339083447319
1.450810972691217
1.451537522667127
1.442987291371419
1.442841288846811
1.442830178654656
1.443232441956434
1.443352570310637
1.443352406779405
1.44335231663569
1.443353063616681
1.443353221595842
1.443353199210593
1.443353200309595
1.443353226782599
1.44335325789513
1.443353269283264
1.443353270539961
1.443353270571938
1.443353346364954
1.443353288293549
1.443353271250005
1.443353270583136
1.443400873727242
1.443366355750425
1.443353955791269
1.443353276986269
1.447817797494587
1.444582319914758
1.443474724763955
1.443356046419991
1.443353270653349
1.443353270475222
1.443353270568875
1.443353270571932
1.443353276775419
1.44335327109422
1.44335327064031
1.443353270574215
1.44335136224442
1.44335301245436
1.443353253246453
1.443353268917461
1.439567433799045
1.443398414178604
1.44335581623937
1.443353277095
1.443353289356636
1.443353024317124
1.443214333749511
1.35297525161898
1.443353268386047
1.443351865623459
1.442370992554519
1.269166952625443
1.443353190071165
1.443350934678525
1.44159839499435
1.23702211181157
1.443353135315333
1.44335023728023
1.441148775795945
1.233889734510327
1.228501865396932
1.440712121968053
1.443349286703974
1.443353100308821
1.22481775397892
1.440297382512698
1.443348380383271
1.443353023223027
1.213276784652624
1.439606343280917
1.443346457216628
1.443352987698928
1.204805503012262
1.438832946120677
1.443344343961078
1.443352783061687
1.443352797744738
1.443344348078645
1.438196116833446
1.189548865597137
1.443352670056496
1.443340950127546
1.437139384249943
1.190312675779963
1.443352442618749
1.443338637924066
1.436813770888704
1.208437837639764
1.443352983355336
1.443338493538032
1.4384878257221
1.288992501933541
1.443351113558668
1.443379680766174
1.444071491291216
1.431556585809998
1.443354362379218
1.443367435133539
1.444424288038681
1.458826597069932
1.443353441645786
1.443339595092165
1.439241229874974
1.370232809482167
1.443353166052613
1.443267620455423
1.431929966652548
1.248169615361794
1.207401163931628
1.432409560417543
1.443304094672562
1.443353230893168
1.212718898860015
1.432678356133807
1.443299856559006
1.443353211992614
1.24450819961383
1.436366056753422
1.443331058128585
1.443353257376637
1.22302467396338
1.435136153308721
1.443323538211786
1.443353244879214
1.308725157976335
1.439631601801206
1.443342631846499
1.443353260402871
1.388472379377554
1.442408874759402
1.443351642137174
1.443353269276367
1.431043428731026
1.443247100356477
1.443353198658397
1.443353270626893
1.445999016008207
1.443427297102619
1.44335357945434
1.443353270812225
1.410262833255296
1.442477088024915
1.443346637586673
1.443353248188195
1.410471891232245
1.442485633908347
1.443346658110887
1.44335324817052
1.409931546565067
1.442494609808911
1.443346667954412
1.443353248016219
1.407215251484732
1.44248773335623
1.443346725617784
1.443353248102652
1.445999016013448
1.443427297106618
1.443353579460397
1.443353270806259
1.431043428736227
1.443247100361514
1.443353198670598
1.443353270625367
1.388472379376406
1.442408874756545
1.443351642136266
1.443353269275939
1.308725157970244
1.439631601789462
1.443342631845162
1.443353260406088
1.443353230884943
1.443304094653108
1.432409560414159
1.207401163928512
1.443353211984953
1.443299856558408
1.432678356128026
1.212718898855705
1.443353257383587
1.44333105812112
1.436366056752651
1.244508199603599
1.443353244878642
1.443323538208214
1.43513615329973
1.223024673967121
1.248169615369858
1.431929966660994
1.443267620468766
1.443353166058206
1.370232809488915
1.439241229882243
1.443339595103556
1.443353441659476
1.458826597070327
1.444424288047898
1.443367435133776
1.443354362385723
1.431556585807873
1.44407149129437
1.443379680769793
1.44335111354357
1.443352797749736
1.443344348068986
1.438196116829038
1.189548865590328
1.443352670055115
1.443340950121948
1.437139384247337
1.190312675779749
1.443352442610276
1.443338637923895
1.436813770895524
1.208437837640123
1.443352983341051
1.443338493538075
1.438487825726817
1.28899250193454
1.204805503002786
1.438832946128973
1.443344343948053
1.443352783062619
1.213276784644931
1.439606343257137
1.443346457216947
1.443352987696083
1.224817753980168
1.440297382504268
1.443348380367245
1.443353023226029
1.228501865386489
1.440712121988591
1.443349286708676
1.443353100311362
1.44335328934975
1.443353024309132
1.443214333751286
1.352975251626249
1.443353268392183
1.443351865633002
1.442370992547873
1.269166952630691
1.443353190075458
1.443350934679056
1.441598394994482
1.237022111802509
1.44335313532043
1.443350237275721
1.441148775792856
1.233889734517813
1.443353277096198
1.443353268914429
1.44335327057449
1.443353270571932
1.443355816248483
1.443353253247226
1.443353270633556
1.443353270570797
1.443398414176193
1.443353012450823
1.443353271098977
1.443353270477729
1.43956743379887
1.443351362243802
1.443353276774886
1.443353270652984
1.443353270572475
1.443353270583121
1.443353276983113
1.443356046416706
1.443353270541027
1.443353271252267
1.443353955774901
1.44347472476432
1.443353269280521
1.443353288293371
1.443366355760615
1.444582319914006
1.443353257892946
1.44335334636652
1.443400873716735
1.447817797499305
1.443353221605822
1.443352570318924
1.442987291374346
1.42051289353383
1.443353199218727
1.443352406778728
1.442841288848387
1.439339083453297
1.443353200313102
1.443352316626072
1.442830178657005
1.450810972693776
1.443353226785214
1.443353063609919
1.443232441958084
1.45153752267258
1.403068357124062
1.443113559984421
1.443353034286299
1.443353264106381
1.410980816089134
1.443150672802956
1.44335303591978
1.44335325154152
1.409074763031112
1.443158774646058
1.443353048582527
1.443353256537634
1.410347468924741
1.443186946121951
1.443353088414357
1.443353263490722
1.412237973040279
1.443355150274321
1.443353270571932
1.44335327057387
1.414827556907213
1.443360678936621
1.443353270571932
1.443353270571933
1.425209368307896
1.443353235555838
1.443353270571932
1.443353270571933
1.439248410841092
1.443353274870403
1.443353270571932
1.443353270571934
1.443353270571932
1.443353270571933
1.443353270571932
1.443353263970365
1.443353270571931
1.443353270571932
1.443353270571932
1.443352361955215
1.443353270571932
1.443353270571932
1.443353270572035
1.443347208912626
1.443353270571932
1.443353270571932
1.443353270612904
1.443325185903001
1.443353406956384
1.443353316597126
1.443355371134422
1.442948982528324
1.443353316489103
1.443357000533021
1.443381297202435
1.43799435974663
1.443355371398997
1.443381297319135
1.441557609335174
1.402746391928993
1.442948982494984
1.437994359759805
1.402746391964065
1.236642363945504
1.067682626369053
1.162145924714555
1.314128462259612
1.392100051376158
1.121034260189433
1.145560363537357
1.211345915352894
1.279879320957058
1.178422716681243
1.206703804252477
1.242276655729266
1.278551682154151
1.205677806368301
1.260655965211003
1.276729311214122
1.293575435887651
1.301621474740114
1.30734935851328
1.310271354367355
1.298535990661444
1.299224070471169
1.311829057521911
1.316216587380179
1.318072967933952
1.292238802573568
1.306077158823616
1.309094534813265
1.389717817268981
1.220614786014152
1.231606748088802
1.234128882747938
1.493934682144783
1.420101876512396
1.536957909224543
1.523502893522605
1.484518254838006
1.511145775407543
1.613147660530649
1.552931414438856
1.501536659131927
1.679455541234429
1.645806047756438
1.559099822960671
1.509567671287577
1.275351584686174
1.261940168987204
1.292905074142102
1.358272152178023
1.459744992058233
1.448121483839115
1.444122496875648
1.443393240929133
1.473612854795054
1.454216122574551
1.445393157408644
1.44347840576502
1.483816890834759
1.461231715083131
1.447362030061665
1.443641466181564
1.405958333118462
1.427942616911404
1.44018022495801
1.443097013713594
1.443353681861381
1.443353279771089
1.443354597516474
1.337746939009389
1.443354791436342
1.443353281618377
1.443353228109981
1.22198487975165
1.443357417378749
1.443353303531679
1.4433528724593
1.112421475455892
1.443356142161329
1.443353286572862
1.443352691412921
0.9326375121909637
0.8924356056371493
0.9443118821029453
0.9711714370723277
0.9928628285671527
0.753824413864941
0.8849068392485172
0.9599847124076978
0.9936730968452545
0.6433539224161861
0.8237425419032721
0.9377225408893395
0.9905837655161315
0.5344992304939936
0.7325045976047886
0.8235062885687064
0.8853224075516144
1.003150714909476
1.00675209651978
1.004634611946138
1.004162645358107
1.007858817494326
1.013255045527745
1.013459933436518
1.013905088786671
1.008513882296879
1.012695339662607
1.012849564299934
1.013304894208577
0.9190089373755953
0.9303108035569907
0.9320075416866046
0.9285328376616755
1.002330568524013
1.012792912816984
1.044305538629401
1.127953268689012
1.013555014381909
1.024438975012901
1.067345813529331
1.173806611495135
1.01236178294803
1.019528484722023
1.088365151565357
1.464062161781166
0.9383243211324229
0.9515880358605147
1.079051863300298
1.998159000616631
1.352326862486911
1.426162707949136
0.5457671517384587
0.2053172328014928
1.403179017423265
1.223339747673297
0.4721616530725979
0.1756538334063397
1.487265482247705
0.9016504482351362
0.3668586566295698
0.1087302531373188
1.122958952422893
0.3653712675402573
0.2656877650723797
0.1273172203320432
0.1246153752750364
0.1487036163588495
0.2059304000426963
0.2087318297221408
0.2028558672199714
0.1945222428594445
0.2295206689171331
0.3232603599486599
0.02313918630319704
0.1595332644012028
0.3152241415037665
0.4363617754299267
0.07556000191687694
0.156781995966952
0.3171598402392816
0.4815622867189879
1.158665042094923
1.368356315516648
1.465309501879913
1.47942930357197
0.803266222205971
1.155104229017156
1.369428093620422
1.458777517873143
0.237936344075061
0.662152021059048
1.059028268298801
1.488545645134055
0.09800551145621002
0.3368812315301192
0.8096693826434013
1.748517022914273
1.665247469775114
2.091075957415651
2.104356654697173
1.336755927338096
1.777582510897225
2.222410019423769
2.954716345046311
1.764482410988191
1.8743141947324
2.291248187249782
2.841275402294143
1.497779817002367
1.545322231336706
1.593004926816764
1.403676863298698
0.7484296789041123
0.574083489487983
0.5043545530206673
0.2907709387841454
0.2727183344443345
0.8069891536542295
0.6999158251482451
0.417093408800513
0.2466754495634731
0.9565658910944035
0.8714555456883565
0.6266103619346781
0.2565942439518538
0.9686559940399886
0.8443536853391556
0.6882932276113067
0.5046554634978915
0.2727183344442456
0.2466754495628187
0.2565942439507549
0.5046554634962561
0.2907709387843487
0.4170934088004433
0.6266103619316914
0.6882932276092537
0.5043545530213808
0.6999158251496447
0.8714555456911727
0.8443536853398068
0.5740834894875193
0.8069891536514957
0.9565658910977469
0.9686559940426955
1.336755927342077
2.104356654703485
2.091075957423286
1.665247469784739
1.764482410991139
2.954716345043208
2.222410019424689
1.777582510902638
1.49777981699974
2.841275402292433
2.291248187253435
1.874314194735948
0.7484296789025362
1.403676863299047
1.593004926817674
1.545322231338703
1.748517022916876
0.8096693826440134
0.3368812315306353
0.09800551145817188
1.488545645137708
1.0590282683014
0.6621520210590488
0.2379363440679901
1.458777517877199
1.36942809362592
1.155104229016536
0.8032662221957957
1.479429303576663
1.465309501884764
1.36835631551565
1.158665042090126
0.2087318297177053
0.2059304000348373
0.1487036163571294
0.1246153752765619
0.3232603599528591
0.2295206689127432
0.1945222428605282
0.2028558672168221
0.4363617754342156
0.3152241415011327
0.1595332644004885
0.02313918630253649
0.4815622867202288
0.317159840239118
0.1567819959664686
0.07556000191588232
0.2053172328052383
0.5457671517432079
1.426162707943122
1.352326862486445
0.175653833388358
0.4721616530749726
1.223339747672201
1.403179017429166
0.1087302531313143
0.3668586566258818
0.9016504482335027
1.487265482251791
0.1273172203259754
0.2656877650689737
0.3653712675411838
1.122958952427056
1.127953268689411
1.044305538627729
1.012792912815672
1.002330568518526
1.173806611496598
1.067345813527992
1.024438975011063
1.013555014378126
1.464062161784573
1.08836515156581
1.019528484720764
1.012361782946029
1.99815900062124
1.079051863305153
0.9515880358662355
0.9383243211387647
1.004162645349431
1.004634611942481
1.006752096521983
1.00315071490312
1.013905088782739
1.013459933433548
1.013255045527619
1.007858817491576
1.013304894207375
1.01284956429795
1.0126953396624
1.008513882296066
0.9285328376668569
0.9320075416885827
0.9303108035571339
0.9190089373807808
0.9928628285662234
0.9711714370691382
0.9443118821065445
0.8924356056385143
0.9936730968465587
0.9599847124047809
0.8849068392508594
0.7538244138656937
0.9905837655176034
0.9377225408873813
0.8237425419042761
0.6433539224165055
0.8853224075498379
0.8235062885694845
0.7325045976056459
0.5344992304918644
1.337746939010889
1.443354597519814
1.443353279771467
1.44335368186003
1.221984879753843
1.443353228111336
1.44335328161902
1.443354791435412
1.112421475457415
1.443352872460277
1.443353303531997
1.443357417377281
0.9326375121903189
1.443352691412273
1.443353286575153
1.443356142163395
1.443393240926757
1.444122496877399
1.448121483838749
1.459744992066263
1.443478405761574
1.445393157406283
1.454216122577905
1.473612854796702
1.443641466177598
1.447362030056921
1.46123171508858
1.483816890834196
1.443097013713122
1.440180224957402
1.427942616918019
1.405958333109401
1.484518254842798
1.523502893523559
1.536957909228214
1.420101876511568
1.501536659137352
1.552931414439064
1.613147660534524
1.511145775408796
1.509567671292797
1.559099822961111
1.645806047761832
1.679455541236116
1.358272152180503
1.292905074143204
1.261940168989946
1.275351584686868
1.298535990664261
1.310271354370975
1.307349358507033
1.301621474734738
1.318072967937143
1.316216587378577
1.311829057518878
1.299224070467821
1.389717817275289
1.309094534813054
1.306077158823806
1.292238802571689
1.493934682154576
1.234128882758037
1.231606748096287
1.220614786011913
1.293575435884165
1.278551682157145
1.279879320954459
1.392100051377646
1.276729311211558
1.242276655730018
1.211345915352715
1.314128462278575
1.260655965208824
1.206703804254081
1.14556036353967
1.16214592471231
1.205677806375125
1.178422716691361
1.121034260190795
1.06768262637314
1.442427204225457
1.443263508554903
1.443352677349283
1.443353268984942
1.437648106116103
1.443136391956359
1.443351777474413
1.443353265692312
1.419245780746896
1.442857080810667
1.443350012862368
1.443353259706052
1.399935994852246
1.442469568337295
1.443347297472432
1.443353250825875
1.44335324818335
1.443346637588506
1.442477088024878
1.410262833250043
1.443353248166644
1.44334665810545
1.442485633915509
1.410471891230082
1.443353248021214
1.44334666794747
1.442494609813827
1.409931546572884
1.443353248117264
1.443346725610204
1.442487733378141
1.40721525149131
1.443353250828543
1.44335325970911
1.443353265708874
1.443353269002241
1.443347297470717
1.443350012862652
1.443351777477824
1.443352677357887
1.442469568334005
1.442857080815085
1.443136391949202
1.44326350856184
1.399935994860477
1.419245780752381
1.437648106115403
1.442427204226436
)
;

boundaryField
{
    back
    {
        type            empty;
    }
    inlet
    {
        type            calculated;
        value           nonuniform List<scalar> 
16
(
1.443353270571932
1.443353270571932
1.443353270571932
1.443353270571932
1.443353270571932
1.443353270571932
1.443353270571932
1.443353270571426
1.443353270571417
1.443353270571932
1.443353270571932
1.443353270571933
1.443353270571932
1.443353270571932
1.443353270571932
1.443353270571932
)
;
    }
    front
    {
        type            empty;
    }
    top
    {
        type            calculated;
        value           uniform 0;
    }
    outlet
    {
        type            calculated;
        value           nonuniform List<scalar> 
16
(
1.443353239984122
1.443353239960533
1.443353239734308
1.443353239819656
1.443353268259193
1.44335326377765
1.443353255661334
1.443353243571365
1.443353239981051
1.443353239957978
1.443353239737292
1.443353239828997
1.443353243573023
1.44335325566293
1.443353263787934
1.443353268270333
)
;
    }
    bottom
    {
        type            calculated;
        value           uniform 0;
    }
    wall
    {
        type            calculated;
        value           uniform 0;
    }
}


// ************************************************************************* //
