/*--------------------------------*- C++ -*----------------------------------*\
  =========                 |
  \\      /  F ield         | OpenFOAM: The Open Source CFD Toolbox
   \\    /   O peration     | Website:  https://openfoam.org
    \\  /    A nd           | Version:  11
     \\/     M anipulation  |
\*---------------------------------------------------------------------------*/
FoamFile
{
    format      ascii;
    class       volScalarField;
    location    "4.95";
    object      p;
}
// * * * * * * * * * * * * * * * * * * * * * * * * * * * * * * * * * * * * * //

dimensions      [0 2 -2 0 0 0 0];

internalField   nonuniform List<scalar> 
4455
(
7298.5122
7305.2597
7321.4027
7348.9504
7388.0232
7444.1095
7511.3263
7617.8431
7682.5134
7356.1098
7357.6275
7368.7128
7392.4682
7431.3972
7487.3325
7558.6381
7663.981
7765.2657
7407.9368
7404.8705
7411.7881
7433.1925
7470.8193
7526.8484
7597.4894
7708.5255
7806.928
7453.3885
7446.9309
7450.7157
7470.2502
7506.9744
7562.909
7636.0867
7752.702
7858.47
7492.4224
7483.9291
7485.5701
7503.3794
7539.7981
7596.3479
7673.6156
7797.2008
7921.8322
7525.4158
7515.9955
7516.033
7532.8771
7569.4318
7626.863
7708.7563
7843.1758
7985.1632
7552.8593
7543.1742
7542.5622
7558.9783
7595.462
7653.8124
7741.5992
7888.0659
8053.2539
7575.3166
7565.982
7565.4261
7581.256
7617.5331
7677.8096
7771.7865
7930.7064
8126.2645
7593.4151
7584.9211
7584.5072
7600.006
7636.4833
7698.4341
7799.5533
7971.721
8207.7259
7607.8021
7619.0739
7627.8609
7634.6299
7639.7496
7643.5651
7646.4425
7648.7275
7650.755
7600.3838
7612.9535
7623.038
7630.8687
7636.7314
7640.9379
7643.7917
7645.3356
7645.4023
7600.5928
7613.843
7624.3236
7632.5013
7638.6601
7643.1571
7646.5816
7649.7095
7653.603
7616.2973
7629.8545
7640.6919
7649.1598
7655.5288
7660.1218
7662.6865
7662.7174
7660.4884
7653.459
7667.5201
7678.3932
7686.8379
7692.8827
7697.2039
7700.4324
7703.448
7707.5182
7718.1537
7735.3132
7749.0259
7759.6058
7766.2583
7769.0443
7768.012
7764.0914
7758.7309
7828.759
7856.0467
7879.0906
7897.6581
7910.0117
7916.6045
7919.2749
7919.4502
7917.9533
8017.8084
8062.3919
8097.2856
8120.3124
8129.8968
8129.0975
8119.3022
8104.6004
8086.3671
8324.2574
8454.3068
8536.2822
8556.8059
8541.165
8503.9694
8455.9554
8401.3559
8342.7862
7651.9188
7651.9707
7651.8907
7652.1029
7652.556
7653.2186
7653.9137
7654.7232
7655.3388
7644.4685
7644.5739
7645.3658
7646.6067
7648.0466
7649.4109
7650.5521
7651.1045
7650.9515
7657.0015
7660.2934
7663.4547
7665.9524
7668.0316
7669.7478
7671.1794
7672.6962
7674.0009
7657.0115
7658.6235
7662.5007
7667.5282
7673.295
7678.4849
7682.406
7685.1625
7687.5217
7711.4316
7718.2155
7726.2302
7733.8566
7740.4398
7746.0089
7750.699
7754.7122
7758.4959
7755.0233
7759.7723
7769.2264
7780.4426
7790.9916
7799.9844
7805.9739
7809.5518
7811.3614
7916.2212
7921.8807
7930.8345
7937.9352
7941.791
7943.2176
7943.8016
7944.8457
7946.8211
8069.8264
8057.5854
8048.1509
8039.5828
8028.2323
8010.6914
7990.2889
7970.8266
7952.9974
8288.6976
8238.4209
8188.1684
8140.7155
8094.4689
8047.8589
8007.1098
7971.1597
7934.179
7919.5743
7914.5615
7929.3422
7967.6443
8026.7196
8108.6807
8204.7815
8310.7409
8423.558
7941.2087
7933.9294
7929.8988
7933.1397
7944.837
7963.7376
7989.3223
8022.4852
8062.1483
7949.6782
7954.1503
7960.6996
7968.1985
7976.0942
7985.7954
7998.2407
8013.6937
8032.33
7812.4822
7814.1902
7816.2694
7818.8588
7821.464
7823.8937
7826.163
7828.3859
7830.6403
7762.0189
7765.4997
7768.5218
7770.4145
7771.0797
7771.0151
7770.6816
7770.0097
7769.2112
7688.0924
7687.7449
7688.2915
7688.946
7688.5554
7686.8045
7684.386
7680.0902
7674.4995
7675.1368
7675.504
7674.4517
7672.6496
7669.7634
7665.3588
7661.4174
7655.8486
7650.1198
7650.1373
7648.8616
7647.2181
7645.0444
7641.7688
7637.7196
7632.3491
7624.9463
7615.685
7655.5337
7654.6536
7653.0738
7650.5321
7647.7272
7644.8094
7641.5471
7637.4812
7632.0027
7624.2866
7614.4814
7602.2469
7587.865
7571.1663
7551.9158
7529.49
7503.6605
7473.7376
7606.1838
7594.5166
7579.2991
7563.3983
7544.6851
7522.5936
7497.8628
7469.948
7438.3002
7643.6671
7633.2914
7622.2792
7609.6305
7594.0589
7575.8772
7557.2118
7535.1805
7507.6127
7668.3328
7660.9257
7651.5509
7641.2696
7629.4699
7614.4673
7596.3333
7576.8525
7554.7302
7768.0062
7767.3525
7765.1586
7762.1956
7759.3574
7753.9742
7749.1459
7741.6164
7732.7337
7834.642
7838.9318
7844.4976
7850.657
7856.5937
7863.968
7870.5226
7875.23
7878.7622
8054.3767
8079.7075
8107.6059
8137.41
8168.9377
8200.8488
8233.3845
8265.5794
8297.7578
8107.9117
8159.8647
8216.378
8275.8477
8338.7235
8405.1977
8475.4719
8546.4073
8617.9365
8536.3475
8652.0277
8771.0501
8888.3819
9003.6713
9118.1633
9238.0631
9362.8089
9486.9894
9610.7168
8688.7104
8328.3542
7879.9776
7721.4929
7527.7899
7478.2031
7402.7948
7439.0171
9730.9734
8758.2716
8356.025
7879.3509
7705.3731
7497.7055
7445.5291
7362.8038
7399.6864
9850.1774
8825.6641
8380.276
7874.8635
7688.4733
7463.6647
7408.0111
7317.3747
7354.6389
9966.3179
8889.0663
8400.6076
7865.6585
7665.8867
7422.6896
7364.5771
7267.99
7303.8537
10079.649
8945.1497
8417.9502
7850.2295
7637.7257
7376.9101
7316.6391
7211.6593
7246.1567
10191.215
8992.665
8430.909
7827.8101
7605.9861
7324.9935
7262.4851
7149.8813
7182.0769
10292.246
9030.3834
8435.92
7798.0394
7566.0968
7265.4221
7202.5122
7080.992
7110.3996
10385.467
9057.8146
8431.3488
7758.0803
7520.3968
7199.5886
7133.4596
7004.8254
7031.7437
10458.628
9068.6022
8412.7007
7706.9879
7464.7341
7124.8605
7057.539
6921.6487
6945.5424
6855.3552
6830.7383
6970.2005
7042.4221
7394.3552
7643.5403
8373.5299
9057.1208
10515.002
6762.7081
6731.4671
6871.7644
6948.7774
7303.9125
7557.768
8294.4661
8982.9354
10411.265
6654.7806
6621.9461
6759.692
6842.1505
7192.7329
7449.642
8177.9771
8849.1662
10203.239
6521.2842
6501.6443
6635.6624
6725.9904
7065.4743
7320.5395
8033.8932
8688.023
9983.5522
6369.267
6368.0936
6499.7758
6592.3028
6925.2997
7175.2077
7871.6526
8511.2434
9758.1152
6203.7405
6223.503
6352.0524
6450.4415
6769.7845
7021.3416
7695.8412
8321.9072
9529.1253
6029.6121
6066.6567
6193.4799
6293.178
6603.8799
6852.4315
7506.7586
8116.7068
9291.8051
5843.9506
5899.0737
6024.1559
6127.1682
6427.9591
6669.2308
7305.8481
7896.489
9050.4222
5647.1663
5720.2468
5842.9928
5951.2348
6239.9771
6474.8771
7091.4509
7660.9547
8802.2424
8544.8056
7412.5773
6864.2523
6268.689
6043.6534
5761.2566
5649.7126
5531.2267
5435.8005
8278.5341
7149.5344
6624.5946
6048.8002
5835.0745
5561.468
5447.5848
5331.4989
5211.0539
8006.073
6871.7924
6372.157
5817.8939
5615.3143
5351.2087
5234.4204
5122.7302
4973.9095
7725.2892
6580.9045
6108.0666
5577.1337
5387.632
5135.2675
5008.6785
4903.0979
4726.4634
7434.9788
6277.3172
5832.875
5327.5477
5148.8104
4907.0188
4775.3541
4675.938
4469.9953
7129.9867
5959.6276
5549.1346
5070.3043
4902.9088
4667.5366
4533.8271
4439.8143
4204.2944
6810.1599
5628.2349
5258.2359
4807.8477
4649.1378
4424.8023
4286.0819
4195.7801
3932.4222
6470.9141
5285.333
4962.7209
4541.1416
4389.3008
4176.2004
4032.4932
3945.456
3655.7879
6113.6332
4933.5115
4666.2998
4273.8808
4126.7505
3922.0606
3776.3718
3689.1538
3381.4536
3119.0518
3426.6428
3513.6018
3658.1255
3851.8169
3992.7232
4355.4415
4549.7651
5693.0963
2859.2062
3158.1508
3247.0248
3388.2805
3566.4981
3697.9462
4032.9196
4129.3798
5170.4952
2580.3212
2886.5925
2978.4101
3114.8009
3278.7335
3404.014
3725.4994
3715.6679
4581.9059
2303.3119
2618.6948
2712.0294
2843.9655
2991.1798
3109.2276
3436.7182
3337.3484
3925.1758
2039.0225
2355.4798
2446.3615
2570.2993
2709.239
2812.6094
3163.0922
3019.6581
3172.1539
1792.3929
2101.6745
2185.6883
2301.881
2427.8599
2520.2083
2902.4987
2785.9017
2333.3294
1563.7614
1856.6537
1936.6141
2045.3615
2153.6944
2224.9
2655.4318
2652.3223
1436.3164
1357.2235
1624.2683
1698.9138
1796.9759
1888.3637
1919.141
2401.8899
2640.0969
560.72244
1148.2475
1408.9444
1476.7707
1570.8551
1639.3711
1617.1247
2132.3476
2797.3683
-67.585372
966.13612
1213.6261
1265.3486
1348.3653
1395.2136
1297.645
1712.4456
3014.254
-519.94486
828.7561
1039.723
1064.73
1122.6546
1157.0125
991.47154
1199.181
3286.1804
-1214.8494
732.26775
885.24062
879.88226
903.70045
923.70625
721.87145
674.51959
3389.3304
-1806.5826
653.71702
746.70188
711.35606
686.37508
679.4595
467.89413
249.17493
3266.3032
-932.90284
579.09457
621.26876
556.69145
459.94379
405.36755
207.57646
54.736573
2897.501
-347.85392
524.15258
502.2659
411.0754
231.36863
112.0363
-79.663277
-150.49235
2413.4625
-1013.3118
491.89921
392.31314
286.54749
12.360269
-188.55337
-407.09255
-380.93156
2102.6832
-1214.3599
485.9397
295.76341
172.43191
-195.26426
-489.27755
-765.09181
-534.48471
1846.1783
-1577.4991
496.98491
225.45373
72.691953
-388.24301
-784.44416
-1152.668
-565.65506
1363.5513
-1788.9129
-1940.8575
1116.6341
-466.50377
-1526.3441
-1045.1348
-543.60641
-9.5019128
183.48487
527.59191
-2018.3877
960.74965
-465.39624
-1882.7849
-1273.5512
-677.52658
-77.431675
164.10797
568.95658
-2112.8589
786.9579
-556.93883
-2254.1518
-1488.4015
-798.05904
-130.45831
163.63743
625.58881
-2212.9702
567.88329
-714.14703
-2617.0377
-1687.0658
-904.71011
-167.20981
183.40513
688.78946
-2341.6314
302.36758
-915.85419
-2956.5164
-1870.001
-993.42775
-187.67332
223.23621
765.41996
-2483.7225
16.027453
-1152.6035
-3269.143
-2039.2548
-1066.5375
-193.98113
280.85432
847.75933
-2607.3577
-256.98616
-1418.1451
-3561.6357
-2195.5827
-1125.6662
-186.4956
353.16896
935.25695
-2760.8882
-557.23271
-1701.3434
-3817.9174
-2340.7322
-1170.5191
-164.61238
439.12758
1023.8259
-2900.2459
-829.33331
-2003.024
-4077.4999
-2469.661
-1198.3981
-130.3341
538.21141
1122.0058
-2988.0895
-1096.5541
-2426.0421
-4372.3734
-2616.7066
-1188.2577
-36.292113
723.00298
1270.959
-2994.5699
-1355.7214
-3265.5069
-4904.7291
-2715.6675
-1079.0213
162.74585
987.51995
1393.5232
-3110.7682
-1577.3708
-3913.8879
-5325.4126
-2677.877
-868.28339
422.85712
1245.7008
1457.9674
-3166.6055
-1759.5869
-4569.1703
-5590.6403
-2510.7834
-554.68682
709.99464
1493.3469
1462.8381
-3138.7091
-1956.8497
-5157.7919
-5690.4222
-2227.4261
-225.89921
993.55114
1655.5459
1416.5091
-3174.8977
-2180.8347
-5694.1032
-5659.0087
-1858.1061
136.99548
1246.1751
1718.5231
1280.3253
-3317.9591
-2378.2723
-6108.4094
-5569.5381
-1408.7546
467.35289
1434.5909
1702.7402
1106.8279
-3482.9238
-2513.385
-6415.4934
-5474.3511
-879.13721
745.36271
1558.7635
1579.7203
890.74964
-3641.0411
-2609.4858
-6486.4217
-5346.6601
-314.94016
926.54164
1598.6376
1381.3365
666.61134
-8557.4926
-7644.9523
-4578
-5377.1098
-2436.7067
-1068.8998
18.828291
261.96718
129.20131
-8270.4804
-7465.8917
-4655.9607
-5924.4776
-2676.577
-1179.7394
101.04773
504.76689
370.40369
-7981.6821
-7268.601
-4721.3274
-6404.1695
-2858.072
-1252.2208
230.77825
688.13787
578.46989
-7694.8474
-7064.5078
-4770.623
-6805.6725
-2979.4088
-1281.2899
398.71979
791.89831
752.60941
-7408.3139
-6853.2439
-4800.752
-7129.5281
-3048.5614
-1262.5839
601.63845
817.07804
906.00345
-7123.4528
-6621.2066
-4811.595
-7380.8134
-3067.781
-1193.0939
831.08695
788.2887
1057.2054
-6830.8425
-6370.2549
-4804.948
-7562.9786
-3034.7596
-1070.1724
1070.4792
743.63139
1215.5869
-6538.1883
-6099.8866
-4771.9138
-7674.6986
-2956.0735
-895.37428
1300.755
729.26505
1359.7709
-6251.7453
-5806.1974
-4743.8133
-7695.3107
-2839.386
-661.48549
1489.7729
795.99557
1459.608
-12999.341
-9092.928
850.33495
3518.9797
4244.5802
4923.0045
4311.8146
2255.4902
1146.6015
-13310.99
-9498.9831
-151.38926
3391.8934
4511.7581
4994.3622
4683.4941
3086.8502
1603.6538
-13207.774
-9911.3464
-1195.8089
2901.982
4428.8274
5113.2388
5041.304
3844.7285
2185.029
-13257.786
-10376.586
-2201.7474
2317.8418
4223.2954
5041.6062
5237.4489
4501.2539
2884.1308
-13421.293
-10911.411
-3156.0239
1671.6591
3901.0076
4892.9674
5297.2186
4983.1913
3512.9739
-14014.714
-11559.03
-4047.2911
896.3702
3490.7428
4671.2662
5152.5899
5243.6755
4123.9357
-15024.1
-12377.84
-4889.1965
-0.81705337
2944.5997
4334.596
4910.3235
5303.4825
4547.8563
-16200.611
-13310.136
-5613.4494
-842.32194
2274.0202
3888.4464
4497.9118
5152.4906
4778.8633
-16780.739
-14245.589
-6202.1247
-1541.5347
1686.224
3417.9019
4107.0989
4884.8984
4828.4486
3713.0139
3011.425
2368.1391
1553.8526
-110.11691
-2765.4794
-6423.9695
-15002.042
-16884.856
3891.1994
3222.68
2531.3183
1728.905
9.2245862
-2734.9497
-6603.2073
-15219.192
-16977.44
4055.3001
3435.9119
2703.5673
1918.4479
162.06612
-2656.9369
-6693.1023
-15433.339
-17035.633
4211.5767
3649.8778
2882.0655
2116.5429
332.39942
-2561.6325
-6737.4985
-15552.624
-17075.898
4355.6971
3859.2171
3064.2245
2314.8769
513.68736
-2460.8895
-6759.5958
-15577.747
-17052.865
4483.8771
4062.0355
3246.1788
2509.5132
695.61286
-2355.7661
-6767.6077
-15535.159
-17030.669
4593.769
4256.5679
3427.3468
2703.36
879.08237
-2243.3735
-6755.3986
-15438.627
-16950.07
4683.6599
4442.7469
3608.1526
2894.262
1071.3906
-2113.5948
-6723.8291
-15269.885
-16901.089
4752.5935
4615.4825
3789.2258
3086.6293
1281.9806
-1948.412
-6660.8254
-15069.34
-16857.992
-16979.274
-14808.808
-6058.5764
-2727.7012
-200.63938
1391.6519
2205.0469
2800.4381
3513.4912
-16363.835
-14153.48
-5559.7001
-2601.7817
-267.15353
1231.3382
2044.9445
2591.3676
3311.786
-15098.24
-12879.996
-5080.8651
-2442.6579
-320.04741
1086.9158
1892.4726
2390.188
3113.3148
-13731.881
-11320.987
-4672.609
-2271.6087
-352.77222
952.63973
1748.1507
2198.4527
2910.6368
-14443.964
-9705.3939
-4273.2978
-2085.2917
-365.60574
838.24042
1614.0833
2017.9171
2708.828
-18252.694
-8246.5454
-3793.2233
-1879.3791
-348.97429
745.19438
1491.895
1850.613
2505.327
-18857.993
-6835.3347
-3250.5626
-1653.4675
-312.56672
678.43733
1382.47
1695.0517
2306.1661
-16380.839
-5323.0846
-2748.8922
-1469.3959
-283.65313
611.00644
1266.4388
1549.765
2117.5585
-14273.507
-4403.5213
-2526.5181
-1397.574
-325.74429
505.48521
1129.1548
1408.7337
1949.4605
947.71336
798.2845
522.63927
98.6597
-479.38334
-1190.25
-1978.393
-2290.4247
-552.25665
960.66925
774.93227
478.71071
19.491674
-614.64855
-1424.2883
-2402.2995
-3118.3836
-1501.5227
1002.3247
776.22558
467.02873
-23.807271
-706.40015
-1599.0832
-2757.818
-3949.8151
-2598.8193
1071.9116
801.80696
486.73818
-30.464827
-751.7336
-1706.2677
-3024.5574
-4724.7019
-3890.2947
1169.5011
853.47825
534.98075
-5.5062476
-755.48971
-1746.9382
-3184.7216
-5373.9909
-5440.7277
1289.9015
928.20281
612.19801
49.251618
-718.19948
-1726.3682
-3211.5371
-5808.9234
-7307.9591
1433.5783
1024.9512
712.75887
130.38497
-650.43718
-1658.7431
-3100.0105
-5958.7584
-9485.0225
1595.8436
1139.7414
837.16893
237.87629
-554.97201
-1559.7083
-2881.6629
-5769.2604
-11478.237
1772.6981
1269.312
975.85345
364.95647
-443.13279
-1460.0289
-2656.5175
-5132.7118
-12908.678
194.40327
-1540.426
-1520.5567
-914.67074
-305.81991
210.09379
595.42102
846.73033
963.07831
813.19783
-869.93932
-1066.2452
-620.36721
-109.20591
346.20191
692.90893
916.95289
1006.5285
1379.1353
-235.47037
-602.87652
-303.30968
110.89838
504.88751
812.4934
1010.2405
1080.0423
1911.9093
366.17749
-139.91663
29.210934
349.82601
681.41122
951.83511
1123.8861
1178.354
2414.6579
931.97722
322.58665
371.60232
605.02794
875.77951
1108.6077
1256.2846
1296.3248
2894.6863
1460.0868
770.12462
717.28437
869.18205
1081.5176
1280.1646
1404.0608
1433.6149
3351.8633
1955.6389
1207.2261
1062.6961
1140.952
1296.867
1461.5609
1562.6188
1587.293
3770.1624
2419.4332
1624.3763
1401.691
1413.7841
1517.9941
1653.4559
1732.3131
1754.2396
4152.3632
2856.5631
2021.4434
1733.0874
1686.7151
1743.2232
1850.1265
1909.9167
1931.6624
3601.2104
3512.6452
3562.3484
3578.1725
3751.8404
4052.6738
4636.221
5627.3243
7086.6567
3447.5725
3350.5718
3393.8091
3407.5645
3576.4487
3873.9451
4457.4096
5455.3042
6812.9378
3270.7368
3183.6563
3216.6072
3227.1385
3384.1207
3669.744
4232.1637
5213.0668
6490.137
3081.5547
3010.1501
3035.7439
3037.5304
3177.8725
3443.2938
3976.1041
4935.4662
6174.373
2887.2279
2830.6694
2845.2616
2835.055
2953.0227
3193.3389
3696.8104
4640.518
5862.7929
2693.759
2647.4835
2649.5929
2625.7251
2716.2718
2928.6923
3401.8135
4330.2085
5546.0268
2499.7462
2462.9746
2452.6127
2411.2019
2471.1629
2651.0899
3087.7239
4000.6224
5219.3615
2306.7983
2276.2584
2251.4405
2190.9459
2217.6835
2357.8119
2754.9169
3647.6987
4878.2168
2116.6887
2091.1977
2049.2571
1967.1619
1954.014
2051.5863
2397.9198
3266.1688
4521.4113
3758.5774
3918.0593
4073.4496
4223.2706
4367.4344
4504.8422
4636.2442
4760.9141
4880.0044
3668.8414
3819.9228
3965.3059
4105.0955
4240.5187
4368.7764
4492.1043
4610.828
4723.7972
3718.5809
3870.1438
4014.4686
4150.8506
4281.1063
4405.3302
4523.6232
4636.9525
4745.0202
3735.3394
3885.3158
4026.7419
4158.7874
4284.9138
4404.1371
4516.579
4623.4758
4725.2427
3909.4273
4051.737
4184.4023
4307.7257
4421.1635
4527.3771
4628.3099
4722.1432
4811.0416
4203.3036
4333.4602
4450.7752
4555.499
4651.8353
4739.0714
4819.2105
4894.0219
4964.1337
4766.5164
4871.0003
4957.1599
5029.0675
5090.4354
5142.2528
5187.4212
5227.4054
5262.022
5714.0794
5761.3368
5784.7189
5791.9594
5788.1958
5776.7569
5759.0876
5737.686
5714.8456
7126.6349
7112.469
7056.3513
6982.4169
6892.4204
6797.8308
6700.8167
6605.4393
6510.1447
4993.0288
4832.5507
4848.2557
4822.585
4895.4092
5030.565
5295.6836
5690.8666
6418.7914
5100.2855
4936.4957
4946.9179
4915.819
4975.9487
5093.8059
5326.0908
5668.5682
6330.2755
5201.841
5035.7863
5041.4078
5005.6397
5053.6596
5154.9381
5355.6555
5647.4155
6243.2317
5298.3359
5131.1236
5131.8275
5092.1417
5128.8233
5214.3667
5384.8939
5629.714
6160.565
5388.9295
5221.9784
5218.3601
5175.6802
5202.1512
5273.1972
5415.4596
5614.9941
6079.9778
5474.6712
5308.7848
5300.9043
5256.2526
5273.7247
5331.5293
5446.3739
5603.4342
6001.1501
5555.5397
5391.6717
5380.0026
5334.159
5343.9471
5389.8331
5478.6738
5597.4721
5927.9215
5631.522
5470.8171
5455.7585
5409.3904
5412.7571
5448.1148
5514.3518
5595.1754
5854.499
5702.6909
5546.0378
5528.0564
5482.0335
5480.1141
5506.3403
5551.8663
5598.5113
5784.7182
6155.0771
6061.0193
6032.0007
6014.7945
6007.9455
6025.6317
6024.0754
5937.7951
5617.1441
6116.0335
6017.7152
5987.6576
5966.4251
5956.7505
5969.7805
5964.116
5871.002
5549.7738
6076.2489
5970.4701
5940.5977
5915.1301
5903.1715
5912.6488
5904.0666
5810.0192
5501.8703
6034.787
5919.5376
5891.0707
5861.216
5847.6922
5855.1292
5845.2022
5756.3725
5485.43
5990.7576
5865.8339
5838.6628
5804.7429
5790.4841
5797.3665
5788.7052
5710.7394
5500.4758
5942.3593
5809.0275
5783.0362
5745.6422
5731.7763
5739.4312
5734.9892
5673.3651
5540.4525
5889.207
5748.9564
5724.3869
5683.7666
5671.4653
5681.2552
5684.1863
5644.2297
5594.6889
5831.5177
5685.0061
5662.3439
5619.1996
5609.5239
5623.0416
5636.8077
5623.0639
5653.3815
5769.4735
5617.3954
5596.8524
5551.9447
5545.7108
5564.7108
5592.8452
5608.5549
5717.6663
5690.3719
6011.1855
6086.2733
6081.2978
6057.7474
6060.8682
6073.947
6101.6125
6188.5537
5789.9541
6093.4406
6150.3232
6136.3711
6105.6454
6104.6678
6113.1145
6138.7743
6214.4646
5897.809
6179.0206
6212.0518
6188.7116
6150.2335
6145.4193
6149.2977
6172.3799
6236.9325
6008.0976
6265.3082
6270.2715
6237.516
6191.3673
6183.2321
6181.861
6202.8564
6256.2433
6119.9776
6351.4597
6324.6104
6282.9973
6229.0909
6218.0793
6211.511
6230.2489
6272.8581
6232.8458
6436.1753
6375.0943
6325.2368
6263.8124
6250.2046
6239.2819
6255.5012
6286.2536
6348.2656
6520.4355
6422.2936
6364.7829
6296.286
6279.9876
6264.8222
6277.3927
6297.3293
6465.0038
6604.7019
6468.1014
6402.8718
6328.0142
6307.8137
6288.08
6295.9714
6304.588
6581.8116
6686.217
6516.9666
6441.9602
6361.566
6335.0692
6310.0854
6310.2817
6308.3449
6714.2082
6771.9313
6581.6963
6492.627
6407.1588
6369.7356
6338.5409
6323.526
6310.9766
6870.4997
6863.0747
6660.0352
6553.7756
6464.5517
6416.9819
6379.3759
6348.1767
6323.0305
7035.1873
6951.794
6738.3503
6615.9257
6522.4715
6466.7332
6422.0271
6378.6183
6342.1635
7202.2294
7038.655
6815.8261
6679.9495
6581.8829
6519.1148
6467.521
6414.7299
6368.0358
7362.7052
7123.1277
6890.3429
6744.5725
6642.0863
6573.8437
6516.0356
6456.0873
6400.5387
7510.8664
7203.7016
6961.3878
6808.9528
6703.0222
6630.5358
6567.7791
6502.3041
6439.483
7640.9452
7277.6076
7027.6465
6872.4082
6764.5922
6689.0961
6622.564
6552.9759
6484.9279
7738.7746
7343.2928
7090.379
6935.4367
6826.87
6749.4618
6680.1016
6607.9135
6536.5377
7788.6096
7397.9016
7150.2895
6997.1463
6889.292
6811.044
6740.0714
6666.7452
6594.0479
7235.2221
7248.5292
7271.8116
7304.9583
7347.6412
7407.5953
7479.7009
7592.983
7660.4191
7167.0302
7187.9551
7219.219
7259.1471
7308.3865
7374.1787
7460.8452
7585.4319
7707.6798
7095.1041
7124.2628
7163.9117
7210.4658
7264.7853
7337.0545
7433.7778
7572.4215
7715.1653
7020.3522
7058.5422
7106.062
7158.5571
7217.878
7296.6187
7402.1945
7555.6284
7724.6835
6944.5178
6991.6869
7046.4465
7104.1724
7167.9538
7252.3232
7368.1539
7536.1867
7742.1273
6868.9345
6924.5915
6985.4735
7047.36
7115.4432
7205.7074
7331.5894
7515.2456
7756.6791
6795.0422
6857.7192
6923.5893
6988.9572
7060.9313
7156.8455
7291.8723
7491.852
7770.7005
6723.9317
6791.9457
6861.8088
6930.1829
7005.2111
7105.6903
7247.8573
7464.775
7780.1294
6656.6881
6728.2285
6800.7979
6871.328
6948.53
7053.2532
7201.58
7434.3092
7785.9889
7939.9492
7992.9966
8047.4632
8109.8176
8180.7308
8255.9302
8325.647
8379.7344
8410.5463
8013.8987
8062.6476
8119.1932
8184.1955
8256.4647
8330.8125
8398.1028
8448.8846
8475.2534
8087.8661
8141.3879
8201.8087
8268.8754
8341.5774
8414.3689
8478.47
8527.392
8550.0099
8178.5687
8235.1965
8298.1358
8366.2737
8437.8127
8508.5962
8570.4489
8616.8099
8635.6301
8284.0241
8343.7585
8408.7783
8477.5494
8547.2721
8615.6279
8674.9753
8718.6414
8732.4625
8404.4818
8467.6042
8533.7059
8602.9147
8671.9012
8738.9917
8797.2418
8838.6419
8844.4269
8546.1095
8610.2992
8678.159
8747.9603
8817.2337
8885.0003
8943.3522
8981.9834
8978.2692
8710.4706
8774.9162
8843.2745
8915.8337
8989.8037
9062.0302
9125.966
9160.1885
9159.6899
8895.8446
8958.4028
9029.3126
9109.5186
9197.2084
9280.8006
9356.0784
9363.9169
9355.4844
10933.804
10296.976
10067.538
9791.2122
9595.829
9435.0099
9311.742
9215.8761
9140.4289
9726.8788
9796.7375
9789.1955
9737.0622
9667.8265
9573.2276
9479.4356
9379.7614
9295.6474
9276.7523
9334.5057
9353.7382
9366.199
9366.067
9349.3323
9320.6318
9276.9433
9220.8415
9064.2135
9084.1466
9086.3424
9094.5715
9097.2493
9094.4148
9089.7266
9078.5198
9053.6696
8909.8127
8922.847
8919.5732
8921.3308
8918.7037
8914.637
8910.9618
8909.0112
8896.5419
8786.0165
8794.5897
8790.2577
8791.8191
8787.7009
8783.6966
8776.9089
8772.9213
8763.3446
8679.4848
8682.7078
8678.275
8678.3716
8673.9272
8670.4513
8664.0613
8659.0608
8650.3716
8573.8937
8573.1805
8567.1821
8565.3394
8560.0081
8555.6812
8549.2219
8543.8691
8535.4396
8464.7675
8460.4902
8452.2084
8449.1517
8441.9732
8437.9455
8432.0986
8429.2288
8420.9407
8311.4129
8193.2378
8055.186
7909.0258
7736.9678
7548.3537
7321.4007
7045.5083
6846.207
8319.3131
8202.2757
8063.1228
7913.023
7734.725
7537.9632
7303.674
7017.4748
6791.3469
8317.935
8198.1047
8057.9161
7904.9603
7722.4622
7516.581
7265.9352
6977.9531
6717.2352
8323.8325
8204.2708
8064.6557
7907.3351
7722.795
7502.7486
7244.1301
6932.7247
6617.1161
8326.0619
8204.3567
8063.8486
7905.988
7718.5863
7491.7954
7232.7514
6879.8606
6504.967
8334.1822
8211.8942
8071.9095
7910.5719
7721.2937
7490.8288
7226.0019
6832.5262
6377.4882
8336.6094
8215.4024
8073.6384
7915.3882
7722.0617
7500.2888
7211.6635
6801.9693
6257.0816
8344.7855
8222.4291
8081.0229
7919.9054
7731.4867
7502.0172
7215.2218
6779.1999
6198.5401
8352.2643
8232.1675
8091.7678
7932.9843
7747.9656
7523.5777
7233.1108
6795.0239
6221.5755
6888.7181
7089.8982
7389.0165
7673.1422
7899.1269
8045.1529
8219.3422
8396.9393
8547.419
6787.2963
7007.8104
7349.4816
7671.8635
7892.6561
8040.9842
8214.5497
8392.1056
8543.3015
6666.1564
6923.2648
7317.4268
7682.1149
7885.7016
8037.3068
8211.3099
8387.5549
8540.5811
6524.4887
6832.316
7297.1995
7686.7044
7877.6515
8030.4284
8208.0093
8386.0812
8540.0874
6350.3362
6726.7498
7287.5565
7689.2647
7870.312
8018.7039
8201.7121
8376.2069
8531.8317
6122.9625
6684.9322
7325.3681
7701.8294
7882.0842
8029.3135
8212.227
8382.9014
8534.3112
5718.0784
6471.0983
7293.4841
7665.4679
7858.8232
8014.7536
8199.5325
8370.2602
8524.7006
5482.0908
6605.5944
7364.9097
7709.3078
7884.1277
8033.7949
8213.9186
8376.2756
8524.278
4175.2814
6397.9281
7331.6537
7681.4877
7876.2561
8032.4917
8210.4452
8374.5376
8524.5728
8709.828
8856.7475
8983.8379
9088.8503
9199.6126
9349.3812
9525.1027
9700.5647
9858.8872
8706.6488
8862.3243
8992.3861
9094.7106
9199.9014
9350.2048
9530.7719
9711.2191
9873.3894
8707.8466
8871.8195
9003.0747
9100.5954
9200.3839
9351.446
9537.4951
9722.3912
9888.831
8710.5624
8882.8047
9015.7805
9107.4221
9203.4296
9355.3227
9545.8539
9734.746
9904.9866
8708.1533
8890.8814
9023.8326
9107.4907
9196.2046
9351.3493
9549.0636
9743.8208
9918.2707
8715.007
8907.4253
9042.4813
9117.6584
9198.2266
9352.8609
9555.1733
9754.5324
9934.7267
8712.5607
8911.1068
9044.7152
9113.6501
9189.9335
9349.6184
9557.6112
9761.1088
9940.0284
8717.3686
8928.7769
9065.7691
9122.6444
9188.665
9345.7196
9558.7654
9767.5954
9952.4809
8718.0832
8922.686
9062.3199
9125.6399
9193.3094
9349.6966
9559.65
9766.5389
9948.9957
10015.095
10169.381
10323.844
10476.475
10609.979
10750.318
10864.51
10988.873
10925.259
10032.562
10189.536
10349.621
10503.791
10639.823
10783.125
10902.043
11024.735
10929.636
10050.665
10210.591
10375.287
10530.665
10673.182
10812.579
10935.457
11054.512
10912.487
10070.186
10233.312
10401.602
10558.059
10704.005
10836.424
10964.676
11082.251
10880.809
10085.632
10250.383
10424.003
10581
10726.345
10852.58
10988.022
11105.106
10847.695
10103.954
10270.108
10448.933
10605.769
10751.218
10871.019
11011.042
11131.754
10789.276
10111.471
10281.289
10460.505
10615.587
10758.102
10871.316
11019.11
11145.971
10798.856
10122.575
10292.285
10475.672
10633.769
10775.042
10877.073
11023.056
11155.789
10737.82
10122.445
10293.151
10471.434
10627.55
10773.399
10880.336
11017.496
11157.947
10830.84
11573.51
11466.453
11245.894
10952.51
10621.797
10297.915
9988.6769
9690.4599
9393.2254
11627.56
11534.009
11322.582
11025.576
10686.918
10355.721
10040.164
9736.879
9438.044
11668.339
11590.947
11395.282
11091.96
10750.171
10411.974
10091.404
9783.0231
9483.9606
11691.844
11643.149
11468.538
11157.48
10814.921
10468.743
10143.463
9825.6706
9525.8375
11696.247
11689.41
11538.807
11218.846
10878.292
10528.657
10199.951
9879.4321
9574.1628
11682.141
11730.08
11604.251
11273.534
10933.879
10572.363
10240.506
9909.417
9607.57
11649.115
11760.573
11663.541
11334.856
11000.108
10638.816
10304.362
9971.4521
9665.3773
11631.039
11782.299
11707.157
11369.317
11033.863
10663.476
10328.365
9987.8827
9683.0382
11567.5
11786.368
11753.16
11437.717
11108.761
10739.28
10401.325
10058.682
9751.3484
9100.8322
8814.0117
8529.8855
8242.935
7949.9051
7649.3898
7339.1349
7020.728
6696.3307
9141.7837
8852.1166
8563.9793
8276.4688
7981.5848
7681.2621
7370.7408
7052.3736
6726.1594
9185.5698
8894.2163
8604.141
8316.4741
8021.8356
7722.6227
7413.4552
7097.2168
6773.0664
9222.1095
8932.5436
8637.0017
8352.6998
8053.6404
7759.2684
7446.2985
7135.4738
6807.4229
9270.5773
8976.6075
8682.4794
8394.2451
8097.714
7800.8404
7490.8587
7178.7626
6854.4606
9296.04
9006.1023
8704.797
8421.6382
8119.8842
7829.4772
7514.8113
7209.6844
6879.2476
9354.4277
9062.5517
8762.1666
8476.7287
8175.8946
7884.5221
7571.0003
7266.7655
6936.1423
9366.0972
9075.8819
8771.1027
8488.3109
8184.8339
7896.6291
7581.5416
7280.0954
6948.7002
9433.8951
9142.2557
8837.2531
8553.6868
8250.5495
7963.0111
7648.7615
7351.0808
7015.8035
6325.2208
5911.4048
5491.7089
5046.8619
4605.8253
4173.9742
3591.3896
2862.2422
1670.0133
6359.4741
5952.9661
5551.8801
5121.6157
4694.342
4289.8598
3736.9119
3067.5482
1912.3588
6410.4412
6010.5217
5614.2236
5191.3374
4746.9186
4325.8106
3775.9734
3148.0515
2132.0676
6456.1835
6061.0575
5674.6458
5258.9804
4814.0118
4393.2437
3873.4935
3290.0963
2397.8317
6504.5501
6117.4438
5739.0156
5333.1718
4896.8576
4470.8098
3999.1087
3459.954
2787.6429
6544.4461
6163.3663
5795.3311
5398.0668
4966.7679
4531.0145
4084.0401
3635.0867
3289.0366
6604.0093
6232.647
5879.9701
5491.7661
5078.9543
4629.0796
4209.7207
3669.9373
4270.1933
6626.4971
6263.1221
5910.8901
5539.6172
5124.2682
4680.3484
4177.8764
3822.3838
3724.0009
6703.3007
6354.4404
6026.1215
5670.2305
5296.9823
4876.9642
4458.5537
3332.5138
7014.3776
234.18224
-1550.8606
-2219.9836
-1956.5749
-2288.1857
-2120.0311
-1708.6637
-1425.3766
-1383.1434
284.60678
-1700.6973
-2211.2161
-1873.2762
-2078.9949
-1969.5485
-1670.6034
-1430.6031
-1359.7151
214.85149
-1938.8289
-2159.2125
-1943.1445
-2246.6972
-1923.5541
-1630.4913
-1424.9004
-1346.9783
-36.115813
-2255.7693
-2112.1112
-1945.9616
-2035.6845
-1862.9465
-1598.5013
-1406.7454
-1334.5887
-456.27805
-2557.1849
-1952.6439
-1967.904
-2119.2552
-1825.6295
-1567.0458
-1389.3584
-1318.1387
-564.31557
-2469.3196
-1891.9923
-2013.816
-1984.2181
-1755.1832
-1540.1645
-1370.4031
-1300.5647
-27.364062
-2033.2086
-1929.5082
-2000.5412
-1982.3584
-1704.9545
-1516.4851
-1350.2126
-1284.5743
-729.54328
-3376.4537
-1873.4076
-2045.4245
-1934.0315
-1662.7413
-1498.1694
-1333.3288
-1270.6402
-8971.6858
-1263.6668
-1920.8506
-2004.151
-1864.756
-1605.4456
-1470.4096
-1315.1723
-1262.4424
-1446.6269
-1586.3856
-1794.1932
-2117.2031
-2443.737
-2668.7683
-2771.0734
-2962.6577
-2871.4966
-1404.5833
-1549.4849
-1760.168
-2078.6955
-2405.8038
-2635.1238
-2760.4614
-2926.981
-2857.5058
-1396.0042
-1536.9786
-1764.9285
-2093.8369
-2420.9527
-2640.6392
-2775.2415
-2906.4401
-2800.9201
-1385.1318
-1532.467
-1770.1619
-2104.6442
-2432.6742
-2639.5923
-2766.2882
-2872.1955
-2674.0836
-1370.0009
-1519.6402
-1767.7137
-2109.9856
-2436.0328
-2644.0672
-2762.9544
-2815.743
-2509.4264
-1352.6132
-1505.4955
-1761.7404
-2108.8655
-2436.2663
-2638.4131
-2743.9767
-2702.042
-2309.6102
-1337.5044
-1494.8332
-1760.6233
-2120.7689
-2445.6502
-2640.2152
-2706.2658
-2536.4799
-2066.0829
-1326.1096
-1489.8242
-1762.0453
-2123.8854
-2443.9325
-2624.3273
-2653.2384
-2427.846
-1939.0563
-1320.7229
-1496.3039
-1785.1155
-2164.1678
-2479.0245
-2625.2633
-2577.0403