/*--------------------------------*- C++ -*----------------------------------*\
  =========                 |
  \\      /  F ield         | OpenFOAM: The Open Source CFD Toolbox
   \\    /   O peration     | Website:  https://openfoam.org
    \\  /    A nd           | Version:  11
     \\/     M anipulation  |
\*---------------------------------------------------------------------------*/
FoamFile
{
    format      ascii;
    class       volVectorField;
    location    "17.6";
    object      U;
}
// * * * * * * * * * * * * * * * * * * * * * * * * * * * * * * * * * * * * * //

dimensions      [0 1 -1 0 0 0 0];

internalField   nonuniform List<vector> 
5472
(
(10.631859 2.6528108 1.5558427e-18)
(10.830468 2.651354 -1.6200626e-18)
(11.051399 2.6048049 -1.6184771e-18)
(11.247983 2.5741943 -1.6351475e-18)
(11.458198 2.4930116 5.0612496e-18)
(11.666539 2.4140722 -4.2580395e-20)
(11.827882 2.3215859 -2.6471103e-18)
(12.025506 2.2013259 9.2558794e-19)
(12.206159 2.0773613 0)
(12.347972 1.9254266 0)
(12.535174 1.7750675 0)
(12.682478 1.5948243 -2.7658603e-18)
(12.788167 1.4237705 1.4169358e-18)
(12.937245 1.2273897 -2.9164977e-20)
(13.025342 1.02641 9.3702808e-19)
(13.088185 0.80499845 -4.8418651e-19)
(13.198253 0.60308989 -7.1665352e-19)
(13.20781 0.33298648 2.4838812e-19)
(13.256127 0.15283392 0)
(10.568096 2.4179889 -1.4277952e-18)
(10.781641 2.4165765 2.9389332e-18)
(10.957814 2.3865177 -1.5127157e-18)
(11.161487 2.351124 -1.504846e-18)
(11.374238 2.2724074 2.9562806e-20)
(11.521489 2.2238534 0)
(11.724807 2.1264365 1.5851977e-18)
(11.915252 2.0251365 -3.2151697e-18)
(12.062283 1.9209964 4.1419938e-18)
(12.253826 1.7723988 8.417621e-19)
(12.423866 1.635867 0)
(12.530405 1.4676583 1.7273665e-18)
(12.677787 1.3126378 0)
(12.800787 1.1183614 4.2844892e-19)
(12.863948 0.94528886 -4.4278225e-19)
(12.991662 0.73215073 0)
(13.041019 0.53495457 0)
(13.087728 0.30605915 -2.1766189e-19)
(13.145772 0.1202843 0)
(10.598139 2.2470648 0)
(10.746442 2.2466524 1.3448793e-18)
(10.924598 2.2308119 1.3714592e-18)
(11.12149 2.2028595 0)
(11.26471 2.166698 -2.4483775e-20)
(11.45666 2.1099756 -3.1921694e-20)
(11.644705 2.0353905 -1.4776552e-18)
(11.802306 1.9568852 0)
(11.984008 1.8473088 -1.4906576e-18)
(12.147108 1.7208384 -3.8025077e-18)
(12.285801 1.6023141 1.5744145e-20)
(12.411802 1.436272 -7.5528716e-19)
(12.576564 1.2975862 -7.7907917e-19)
(12.640279 1.1171045 1.5985699e-18)
(12.779487 0.93920136 1.196222e-18)
(12.85868 0.75039183 4.0204919e-19)
(12.907971 0.55003495 1.9915602e-19)
(12.989685 0.34780511 -3.0058615e-19)
(12.988037 0.14273152 9.9959248e-20)
(10.520425 2.060698 0)
(10.670534 2.0437842 -1.2138579e-18)
(10.847564 2.0411173 -1.236518e-18)
(10.989468 2.0206575 2.5067126e-18)
(11.167827 1.9769755 -1.3234913e-18)
(11.351003 1.9374503 0)
(11.519764 1.8734086 -1.3408658e-18)
(11.684348 1.7965356 1.3376415e-18)
(11.84669 1.7029311 -1.3853368e-18)
(11.991739 1.594046 -2.4746406e-20)
(12.1371 1.4733233 -1.4153879e-18)
(12.288028 1.331867 0)
(12.410861 1.1880468 0)
(12.528516 1.022096 -7.1167672e-19)
(12.643989 0.85139742 -7.1494515e-19)
(12.698156 0.6655372 0)
(12.793118 0.47602576 -1.8061492e-19)
(12.823893 0.27554641 9.178675e-20)
(12.861571 0.076618385 1.817352e-19)
(10.522158 1.8887379 0)
(10.656857 1.876887 0)
(10.806489 1.894213 0)
(10.96506 1.8741432 -2.279369e-18)
(11.136581 1.8587406 1.1873286e-18)
(11.298763 1.8259742 -3.5575002e-18)
(11.457585 1.7734574 4.8448474e-18)
(11.609499 1.7191515 -2.4572024e-18)
(11.757466 1.6352417 2.9443424e-21)
(11.900553 1.5339671 1.2495515e-18)
(12.053434 1.4240569 1.2624049e-18)
(12.180398 1.2951781 -2.5717715e-18)
(12.305491 1.1675361 1.9497248e-18)
(12.412881 1.0213554 -6.569293e-19)
(12.499765 0.85785951 0)
(12.581818 0.69861572 6.6204847e-19)
(12.642096 0.49931352 -3.3150131e-19)
(12.693075 0.32467923 1.6349264e-19)
(12.728765 0.11815966 -1.6213265e-19)
(10.466835 1.7138312 0)
(10.591369 1.7127532 -3.9994843e-18)
(10.745483 1.7344394 2.0616507e-18)
(10.885816 1.7147956 2.0939189e-18)
(11.031141 1.7137668 1.0561396e-18)
(11.170074 1.6718633 -1.0671012e-18)
(11.311331 1.643633 2.2157182e-18)
(11.456 1.5888798 1.103489e-18)
(11.603927 1.5105722 2.2349447e-18)
(11.752002 1.4224831 -2.2851979e-18)
(11.894222 1.311604 2.1308904e-20)
(12.023493 1.1993226 2.3278439e-18)
(12.143484 1.0726313 0)
(12.258952 0.93212306 -5.9409195e-19)
(12.354732 0.78193829 5.8762767e-19)
(12.444742 0.6098452 -1.4773931e-18)
(12.511061 0.43017377 5.9161768e-19)
(12.565075 0.24887094 -1.476219e-19)
(12.595522 0.054695219 5.7269701e-22)
(10.486758 1.5461598 3.5708428e-18)
(10.59631 1.576885 3.6232566e-18)
(10.728386 1.5802638 0)
(10.839354 1.5768319 -6.934677e-21)
(10.969827 1.5795335 -3.8412114e-18)
(11.103559 1.5526973 3.9340318e-18)
(11.250239 1.5350906 0)
(11.406877 1.4764852 -1.0132426e-18)
(11.540782 1.4266538 -4.0635165e-18)
(11.680922 1.3494188 2.0833802e-18)
(11.806391 1.2594464 1.0332018e-18)
(11.936629 1.1547688 -1.0602611e-18)
(12.054942 1.0314301 0)
(12.170173 0.91128275 5.2653595e-19)
(12.256154 0.76496524 0)
(12.351245 0.61693606 -5.3134509e-19)
(12.400052 0.44435458 8.0313782e-19)
(12.463209 0.27192455 1.2352824e-21)
(12.469121 0.085709466 -1.2530629e-21)
(10.442785 1.3951884 1.6025467e-18)
(10.528497 1.4446348 -3.2681509e-18)
(10.650113 1.4367515 -3.3136941e-18)
(10.754149 1.4508402 3.4080515e-18)
(10.885387 1.44827 -1.7455358e-18)
(11.012636 1.4240959 -1.7539698e-18)
(11.144878 1.4014437 0)
(11.267515 1.3568121 2.7046194e-18)
(11.392135 1.3187725 -1.6382499e-20)
(11.52284 1.2445132 -2.7820018e-18)
(11.645161 1.1652733 2.8401205e-18)
(11.783499 1.0607979 0)
(11.895601 0.9529723 0)
(12.015817 0.8307164 9.4979684e-19)
(12.100144 0.70116692 -4.8902436e-19)
(12.184326 0.55070399 -9.6100683e-19)
(12.233568 0.39959108 2.4360636e-19)
(12.290298 0.23370195 2.4512268e-19)
(12.303953 0.056228649 5.9042998e-20)
(10.437624 1.2645939 -1.438147e-18)
(10.513622 1.3150397 4.3935333e-18)
(10.619709 1.2988523 -4.5266187e-18)
(10.720401 1.3311692 3.0619579e-18)
(10.849812 1.3180187 0)
(10.954812 1.3204056 1.5749731e-18)
(11.0712 1.3059161 -1.6238357e-18)
(11.194112 1.2648058 0)
(11.327035 1.2288336 8.1992153e-19)
(11.456664 1.1621715 -1.6979434e-18)
(11.577572 1.0954075 -8.3828676e-19)
(11.696152 0.99899306 -1.2211955e-20)
(11.794144 0.90096894 -2.5721683e-18)
(11.90342 0.79292932 4.4436058e-19)
(11.988078 0.67486515 -4.2287266e-19)
(12.076138 0.53237758 8.6681195e-19)
(12.136479 0.38534271 -4.2898899e-19)
(12.19915 0.21604165 2.2107752e-19)
(12.219539 0.056508195 2.1444476e-19)
(10.377703 1.1574022 -2.5997901e-18)
(10.476049 1.1851277 0)
(10.567559 1.1721595 1.3458163e-18)
(10.65687 1.2054511 -4.1052613e-18)
(10.757268 1.1926062 1.4138229e-18)
(10.854344 1.2068689 -1.4294834e-18)
(10.979063 1.1769486 1.4367509e-18)
(11.088889 1.1579485 -1.4779586e-18)
(11.210999 1.1220613 0)
(11.326981 1.0774331 7.4595874e-19)
(11.453202 1.027486 0)
(11.571288 0.93355022 7.5690988e-19)
(11.683492 0.84391669 -4.073467e-22)
(11.788107 0.72883872 -3.8138287e-19)
(11.871857 0.62108574 3.822338e-19)
(11.952582 0.49030112 3.8383007e-19)
(12.006342 0.35808534 -3.3806809e-21)
(12.052616 0.20316085 -5.7719942e-19)
(12.071666 0.048649979 0)
(10.365981 1.0443381 0)
(10.46455 1.0621833 1.1867522e-18)
(10.525659 1.0811122 0)
(10.636859 1.0994122 1.2159697e-18)
(10.733314 1.0889859 -3.7682643e-18)
(10.830695 1.1116243 3.8389479e-18)
(10.935973 1.0803694 -1.2741087e-18)
(11.039465 1.0651792 3.9645564e-18)
(11.148644 1.0188091 0)
(11.257535 0.98282203 6.7508116e-19)
(11.374234 0.92772178 0)
(11.480684 0.86314975 -1.3539525e-18)
(11.587755 0.78285519 2.740609e-18)
(11.676557 0.68005544 -9.9166134e-21)
(11.760925 0.57917742 -3.46536e-19)
(11.831679 0.45509192 0)
(11.890081 0.3313578 0)
(11.933444 0.1817759 0)
(11.958513 0.036519285 -4.301413e-20)
(10.357272 0.93826298 4.1387196e-18)
(10.438595 0.93759786 -5.3182546e-18)
(10.484239 0.9731312 2.1536058e-18)
(10.577156 0.97377762 -1.1054849e-20)
(10.636051 0.99451907 0)
(10.747665 1.0032479 -2.2684167e-18)
(10.839076 0.99356963 1.1761417e-18)
(10.941753 0.98653895 -1.1686626e-18)
(11.043261 0.94485799 0)
(11.149444 0.92064714 -5.9647207e-19)
(11.261357 0.86036297 1.2007461e-18)
(11.363113 0.80970695 -1.6367152e-20)
(11.468166 0.72281028 -1.2301305e-18)
(11.56279 0.64011583 -2.4431976e-18)
(11.639959 0.54039707 2.1498514e-18)
(11.707407 0.42897986 -1.2283985e-18)
(11.768495 0.31072857 7.7064303e-19)
(11.806816 0.1762769 1.5412754e-19)
(11.841994 0.035751889 3.7752536e-20)
(10.317769 0.84601475 -6.4979993e-18)
(10.398769 0.86206716 3.8037706e-18)
(10.450727 0.88408705 0)
(10.552059 0.87895765 -4.9000013e-18)
(10.613086 0.89507439 4.0240404e-18)
(10.723784 0.88251431 1.020107e-18)
(10.786378 0.88630772 3.0893774e-18)
(10.896632 0.8722576 -2.1045169e-18)
(10.976128 0.85322427 -2.6346463e-18)
(11.080161 0.82488623 1.6137931e-18)
(11.170541 0.77542951 2.1393449e-18)
(11.272709 0.73030599 -3.2558534e-18)
(11.362517 0.65400613 2.1752241e-18)
(11.455412 0.58695426 -5.5534456e-19)
(11.523886 0.48759442 2.6860638e-19)
(11.5981 0.3906501 -5.1408032e-21)
(11.651045 0.27414728 -6.8320711e-19)
(11.688052 0.15163789 -1.3513078e-19)
(11.721432 0.020021488 -3.4048022e-20)
(10.342822 0.7316714 2.495029e-18)
(10.393443 0.76227845 3.3677149e-18)
(10.430641 0.79085549 -3.4558233e-18)
(10.514366 0.80231673 8.778775e-19)
(10.572833 0.81963245 -2.6569387e-18)
(10.662931 0.80900498 2.7366001e-18)
(10.720071 0.82313715 9.1187388e-19)
(10.823794 0.79713726 -4.6538607e-18)
(10.893358 0.79371028 3.2874708e-18)
(11.004414 0.75645144 -1.4374278e-18)
(11.08327 0.72672179 0)
(11.186878 0.67452033 -4.830281e-19)
(11.266682 0.61048399 -1.4451166e-18)
(11.355508 0.54590733 4.9710974e-19)
(11.422054 0.46023654 1.4585316e-18)
(11.491046 0.36855483 4.8247561e-19)
(11.540583 0.26203227 -9.6834612e-19)
(11.5822 0.14507835 2.4379496e-19)
(11.607951 0.016075229 2.705773e-19)
(10.306752 0.65528942 -3.6779956e-18)
(10.347981 0.68547917 3.0168775e-18)
(10.416645 0.68976391 0)
(10.465358 0.7114166 -7.7850764e-19)
(10.524656 0.7256347 3.1599314e-18)
(10.59833 0.72712752 -6.4365371e-18)
(10.662354 0.72907548 8.4808843e-19)
(10.752404 0.70756018 3.3277448e-18)
(10.809179 0.70824272 2.5100154e-18)
(10.909395 0.67557051 -4.2251738e-19)
(10.982179 0.65198634 0)
(11.086758 0.59945731 2.1193927e-18)
(11.159185 0.5517848 -8.6555319e-19)
(11.247524 0.48354499 8.5748659e-19)
(11.311793 0.41534283 -1.2915491e-18)
(11.375333 0.32679915 -2.1561457e-19)
(11.420211 0.23377276 0)
(11.457869 0.12606456 0)
(11.472894 0.0093475654 -2.6734383e-20)
(10.292553 0.58643359 6.2955861e-19)
(10.319316 0.61251526 -6.0232741e-18)
(10.383074 0.61703363 2.7100484e-18)
(10.423953 0.64468932 -3.4706611e-18)
(10.505822 0.64499772 -7.0189639e-19)
(10.556438 0.66267611 0)
(10.643235 0.65528194 -3.6003564e-18)
(10.704902 0.65101164 2.2097956e-18)
(10.779632 0.63951151 -7.4117126e-19)
(10.868476 0.61769829 -2.4989476e-21)
(10.936838 0.59595371 0)
(11.029523 0.55003555 0)
(11.092564 0.50805742 -3.7642734e-19)
(11.17828 0.44169443 -3.770697e-19)
(11.236167 0.38515927 1.8861316e-19)
(11.303408 0.30091281 1.1343801e-18)
(11.346632 0.2164378 -7.6021395e-19)
(11.386372 0.11444353 9.4969111e-20)
(11.398851 0.010180402 2.3355569e-20)
(10.265266 0.50897931 4.0643344e-18)
(10.30753 0.52315958 -4.161914e-18)
(10.349072 0.53718959 0)
(10.390388 0.56129891 6.1246953e-19)
(10.447485 0.56654802 0)
(10.492241 0.58589604 6.3250496e-19)
(10.566698 0.5732244 6.4085263e-19)
(10.615736 0.58164745 0)
(10.702412 0.56037611 3.2516513e-18)
(10.763197 0.55808385 -2.3177151e-18)
(10.847177 0.52778854 1.6506223e-18)
(10.915005 0.50091813 -1.3377384e-18)
(10.992002 0.45120617 1.3289162e-18)
(11.057904 0.3984038 -1.2650797e-20)
(11.121083 0.34343434 -1.3445703e-18)
(11.183054 0.26718645 -1.6635815e-19)
(11.223594 0.19750817 -1.6774811e-19)
(11.262299 0.10093287 -8.2885308e-20)
(11.269186 0.0071691144 0)
(10.232082 0.46296981 4.6539246e-18)
(10.279442 0.47488472 0)
(10.314459 0.48517358 0)
(10.371019 0.49933909 5.4310666e-19)
(10.418128 0.50655032 0)
(10.477719 0.51953115 -5.5695671e-19)
(10.538683 0.51266931 -5.6364646e-19)
(10.595381 0.51518436 -2.2742754e-18)
(10.673024 0.49949731 2.3141704e-18)
(10.729389 0.49545165 0)
(10.815292 0.46840706 -2.6155098e-18)
(10.872126 0.44805482 2.0624691e-18)
(10.955471 0.39742613 1.1708499e-18)
(11.003518 0.36091211 -2.3563021e-18)
(11.080538 0.29559296 2.3574028e-18)
(11.120801 0.24598817 -1.7692514e-18)
(11.171658 0.1702211 5.8879693e-19)
(11.195456 0.10101765 0)
(11.210515 0.015612775 0)
(10.225877 0.3865091 7.3092564e-18)
(10.261857 0.40037467 -3.724162e-18)
(10.288708 0.41500182 3.767522e-18)
(10.334538 0.42907319 -4.3224493e-18)
(10.372308 0.44281327 -3.8754172e-18)
(10.431368 0.44999214 3.9492639e-18)
(10.470838 0.45260935 1.9846457e-18)
(10.530822 0.45283575 -1.4854444e-20)
(10.587248 0.4430029 -2.0373603e-18)
(10.649466 0.43802698 0)
(10.717462 0.41760891 0)
(10.779398 0.39983897 2.5700967e-19)
(10.846913 0.35942979 0)
(10.89871 0.31910403 1.0312704e-18)
(10.964285 0.26429515 -1.0400648e-18)
(11.001328 0.21527965 -5.1573649e-19)
(11.058118 0.14486204 6.4702997e-19)
(11.076592 0.084327465 -3.2207051e-19)
(11.103314 0.0074849219 2.5712976e-19)
(10.182085 0.34156955 0)
(10.217515 0.35347328 0)
(10.258392 0.36116346 3.3257103e-18)
(10.308177 0.37453078 -3.3891839e-18)
(10.35192 0.38419617 3.8448839e-18)
(10.405822 0.39253637 -3.9113599e-18)
(10.448418 0.3951951 0)
(10.511148 0.39323684 4.4317237e-19)
(10.558624 0.38727732 1.7772943e-18)
(10.626331 0.38018368 -1.8028237e-18)
(10.67856 0.36465243 1.7974612e-18)
(10.74965 0.34747206 -1.5072509e-20)
(10.800231 0.31870827 -3.6315521e-18)
(10.861606 0.28342939 1.8251212e-18)
(10.906874 0.23697845 0)
(10.946446 0.19063906 -9.0510791e-19)
(10.985697 0.12885431 1.4184032e-18)
(11.007524 0.07472574 -6.2296744e-19)
(11.027535 0.0052166299 2.255294e-19)
(10.170358 0.2735004 1.1049349e-17)
(10.192091 0.28750607 -5.8010689e-18)
(10.225566 0.30020118 0)
(10.260408 0.31482345 -3.7258809e-19)
(10.300276 0.32646888 -3.7646861e-19)
(10.3458 0.33511862 3.8069411e-19)
(10.391699 0.34033564 0)
(10.441732 0.34120717 -3.8790797e-19)
(10.493413 0.33479419 3.1208102e-18)
(10.552309 0.33016072 -3.1625879e-18)
(10.606426 0.31244186 0)
(10.671113 0.29727295 0)
(10.724029 0.27415458 1.9935693e-19)
(10.786853 0.24270647 9.9762292e-20)
(10.82856 0.2096168 -9.9742305e-20)
(10.876162 0.16399324 0)
(10.900058 0.1185507 -4.4545982e-19)
(10.92874 0.066064002 3.9720416e-19)
(10.935888 0.010938908 0)
(10.1253 0.22554624 -1.0053787e-17)
(10.165991 0.23570749 1.052012e-17)
(10.196853 0.24651205 -1.907927e-20)
(10.238773 0.25846276 -4.9218961e-18)
(10.282095 0.26920284 0)
(10.323032 0.27945868 2.6714594e-18)
(10.368405 0.28747342 -5.5773348e-18)
(10.414759 0.28900956 2.7349096e-18)
(10.46753 0.28816061 0)
(10.51738 0.28232027 -2.7508155e-18)
(10.571573 0.26887054 2.7822836e-18)
(10.621836 0.25386202 1.3847073e-18)
(10.674354 0.2299235 -1.3965965e-18)
(10.727938 0.20674101 1.2133323e-18)
(10.775278 0.1747916 -1.3100276e-18)
(10.817744 0.13597644 0)
(10.850634 0.091092113 -4.348264e-20)
(10.871925 0.046371412 -1.2937056e-19)
(10.877649 -0.0030651101 1.8340567e-19)
(10.092598 0.16710177 2.7649863e-19)
(10.124208 0.17889475 -5.6099851e-19)
(10.147095 0.1960033 4.5390103e-18)
(10.191626 0.20544379 2.69601e-19)
(10.228879 0.21663149 -3.1188431e-19)
(10.278314 0.21988706 -4.7102526e-18)
(10.322835 0.22809113 1.4794489e-19)
(10.373928 0.23188242 2.5307191e-18)
(10.423298 0.2354416 -2.410841e-18)
(10.476358 0.23505778 -1.5119153e-19)
(10.529172 0.22581024 0)
(10.582012 0.21648357 2.5735266e-18)
(10.628066 0.19790518 -2.5937429e-18)
(10.674299 0.17826044 -1.1369333e-18)
(10.718625 0.15729414 8.418538e-20)
(10.751784 0.12744899 1.8238473e-18)
(10.786436 0.096798562 -5.7003834e-19)
(10.802808 0.059593652 -5.6592164e-20)
(10.819792 0.01776341 -9.3740159e-21)
(10.081843 0.11276563 0)
(10.100524 0.12582356 2.4630671e-19)
(10.13139 0.14177276 3.9860675e-18)
(10.163994 0.15493149 -4.4235836e-18)
(10.199803 0.16640264 4.1986537e-18)
(10.241397 0.17401868 -4.1273134e-18)
(10.281065 0.17771428 1.2992709e-19)
(10.33053 0.18012353 -1.3042259e-19)
(10.376428 0.17948484 1.9631252e-18)
(10.432606 0.17756021 -1.9854507e-18)
(10.483275 0.16933203 1.9759296e-18)
(10.536834 0.15817685 -2.1929975e-18)
(10.584478 0.14125547 0)
(10.630533 0.12148942 1.0560977e-18)
(10.671255 0.10067061 -1.1945716e-18)
(10.709278 0.07387132 5.2690407e-19)
(10.737872 0.049079662 -4.9571278e-19)
(10.756592 0.019907628 -2.298215e-19)
(10.769437 -0.011641498 2.6658012e-19)
(10.040782 0.06328189 -1.0915713e-20)
(10.058667 0.077161865 -6.9262345e-18)
(10.089146 0.089756351 1.0949735e-19)
(10.121701 0.10074761 -2.067669e-22)
(10.161805 0.11378272 1.1155708e-19)
(10.204918 0.12134063 0)
(10.246808 0.13214768 3.6237821e-18)
(10.293604 0.13651721 -3.7791045e-18)
(10.339141 0.14419654 1.1459217e-19)
(10.388848 0.14835064 -1.7808676e-18)
(10.441259 0.14769787 3.7555278e-18)
(10.491775 0.14767614 -3.7029325e-18)
(10.540937 0.13616678 1.8585091e-18)
(10.589031 0.12775439 0)
(10.627124 0.11004548 -8.9189496e-19)
(10.666452 0.091968857 9.2448495e-19)
(10.692735 0.069712259 -1.4270236e-20)
(10.714748 0.044249468 4.6690685e-23)
(10.72599 0.022267345 -3.5554143e-21)
(10.02253 0.026845779 6.0336087e-18)
(10.038032 0.035708869 -6.059399e-18)
(10.058833 0.043495487 6.0445467e-18)
(10.087676 0.051542581 9.6734144e-20)
(10.125605 0.056495463 0)
(10.166581 0.060015389 0)
(10.214413 0.060316955 -4.9320185e-20)
(10.263694 0.058342531 -3.1296288e-18)
(10.315336 0.056971172 3.2606327e-18)
(10.368644 0.053004401 3.1747198e-18)
(10.420815 0.049428494 -1.548694e-18)
(10.472881 0.045108223 -1.6896274e-18)
(10.52339 0.037954146 0)
(10.567013 0.032646765 2.5155305e-20)
(10.607249 0.024367086 2.5024503e-20)
(10.641898 0.017547381 7.8442377e-19)
(10.664869 0.007793868 -8.1171359e-19)
(10.68386 -0.0051951515 1.79807e-19)
(10.694332 -0.017388678 -1.9825667e-19)
(10.00965 0.0076684534 -4.0651925e-20)
(10.020083 0.011264321 5.248217e-18)
(10.036919 0.017089337 -7.3855703e-21)
(10.060385 0.024189924 -1.0816801e-20)
(10.090471 0.031837443 -5.4197323e-18)
(10.126961 0.039513358 0)
(10.169317 0.046970763 2.6964752e-18)
(10.21658 0.053656413 -2.7227023e-18)
(10.267969 0.059047301 -4.312125e-20)
(10.322624 0.063117398 -2.1607262e-20)
(10.379332 0.065203453 -2.1626601e-20)
(10.436947 0.065112288 2.1620567e-20)
(10.492994 0.062835406 0)
(10.544423 0.058767234 1.3588469e-18)
(10.590652 0.052822964 -1.3898687e-18)
(10.630083 0.047850892 -6.7862512e-19)
(10.660768 0.036412528 6.9331964e-19)
(10.682531 0.032476056 3.4956094e-19)
(10.697086 0.019500654 -3.4357198e-19)
(13.286997 -0.13214911 -1.1610743e-19)
(13.254644 -0.31991534 -4.6612216e-19)
(13.298965 -0.57030937 4.529873e-19)
(13.234391 -0.75285963 0)
(13.222475 -1.0021005 -8.4139625e-19)
(13.13909 -1.1531312 -1.6422038e-18)
(13.060392 -1.4094764 0)
(12.954787 -1.5390387 -2.9813129e-20)
(12.864973 -1.7659849 2.8139777e-18)
(12.722179 -1.9248799 1.3557775e-18)
(12.627911 -2.1109367 -1.2790799e-18)
(12.483162 -2.285156 2.4197447e-18)
(12.370128 -2.4420651 -2.2682689e-18)
(12.219195 -2.6317126 0)
(12.058779 -2.7856251 1.0442623e-18)
(11.885308 -2.9967562 -9.5522335e-19)
(11.732042 -3.1449085 -1.857265e-18)
(11.529929 -3.3834113 1.7431309e-18)
(11.370827 -3.5473356 -8.170346e-19)
(13.144364 -0.13156797 -1.0147936e-19)
(13.15655 -0.32632216 6.0675868e-19)
(13.132141 -0.57696077 -3.9804965e-19)
(13.069283 -0.79659833 0)
(13.053116 -1.0204131 -7.5676528e-19)
(12.927338 -1.21145 2.1766401e-18)
(12.892402 -1.4530447 0)
(12.724107 -1.5758362 0)
(12.680065 -1.8402711 0)
(12.457673 -1.9382971 0)
(12.402349 -2.1882828 2.2961677e-18)
(12.174509 -2.2654433 -3.3060982e-18)
(12.085167 -2.5129122 -3.1770723e-18)
(11.874384 -2.5808916 1.9782579e-18)
(11.728971 -2.8313518 -1.8947646e-18)
(11.524717 -2.8914237 1.837812e-18)
(11.323492 -3.1304029 -2.0115444e-20)
(11.138941 -3.2148453 -1.6289334e-18)
(10.88907 -3.4488875 1.592131e-18)
(13.029272 -0.087064888 0)
(13.005105 -0.30618545 -3.5887025e-19)
(12.96987 -0.55949504 -7.004933e-19)
(12.930185 -0.76415303 -4.0339728e-21)
(12.851678 -0.98680876 -9.9933295e-21)
(12.760819 -1.2026102 1.3122502e-18)
(12.66513 -1.3914963 -2.4887644e-18)
(12.540598 -1.5746505 1.1820315e-18)
(12.417001 -1.7729244 2.3690865e-20)
(12.256208 -1.9289078 0)
(12.12234 -2.1204128 3.1570279e-18)
(11.921414 -2.2408804 1.4362217e-20)
(11.785951 -2.4298092 1.9191177e-18)
(11.557203 -2.5197136 1.8626363e-18)
(11.413989 -2.7252293 2.6252455e-18)
(11.130567 -2.7832063 -3.3027911e-18)
(10.965891 -3.0005907 -2.6011324e-20)
(10.681236 -3.0399342 3.0355518e-18)
(10.467783 -3.2624685 1.5055338e-18)
(12.886056 -0.1433813 3.1305165e-19)
(12.855934 -0.37458215 -6.2567059e-19)
(12.846403 -0.60297625 9.2070362e-19)
(12.767979 -0.82107046 0)
(12.704717 -1.0386697 1.7584463e-18)
(12.595662 -1.2361921 -2.8462165e-18)
(12.473903 -1.4270435 2.2129621e-18)
(12.344602 -1.6089542 -6.8372483e-21)
(12.173156 -1.7833725 2.7668203e-20)
(12.036582 -1.9373687 -1.0048087e-18)
(11.822516 -2.0843598 0)
(11.669635 -2.2129213 -9.0020002e-19)
(11.436597 -2.3460433 9.1469093e-19)
(11.26605 -2.4576198 -1.653077e-18)
(11.045728 -2.5803951 0)
(10.825299 -2.6614116 0)
(10.592077 -2.7771748 -1.4529942e-18)
(10.341334 -2.8470811 0)
(10.085827 -2.9442038 1.354249e-18)
(12.7502 -0.095154486 2.7329648e-19)
(12.741437 -0.32921794 -2.7162588e-19)
(12.708949 -0.5697054 5.5393614e-21)
(12.63798 -0.7828296 -5.2651145e-19)
(12.555542 -1.0116057 5.0623906e-19)
(12.43682 -1.1881683 -3.9931289e-21)
(12.308899 -1.397116 -9.7502756e-19)
(12.156864 -1.545187 0)
(11.989414 -1.7228255 -1.8442914e-18)
(11.817771 -1.8561223 8.7927152e-19)
(11.621905 -1.9938064 0)
(11.433212 -2.1031486 0)
(11.19448 -2.2144707 -1.5705755e-18)
(10.978045 -2.3063852 -1.5517055e-18)
(10.725937 -2.385518 1.4912808e-18)
(10.492041 -2.4458767 2.8517557e-18)
(10.192257 -2.5138024 1.4186947e-18)
(9.9930966 -2.5421551 -1.2704375e-18)
(9.6610237 -2.5771295 -3.6611003e-20)
(12.618362 -0.13940385 0)
(12.593309 -0.39030083 2.3938305e-19)
(12.560781 -0.59345735 -1.1729924e-18)
(12.469312 -0.83016881 4.6425667e-19)
(12.37657 -1.0217971 1.3635516e-18)
(12.242893 -1.210107 -9.0463229e-19)
(12.104984 -1.4035592 -1.7540843e-18)
(11.938082 -1.5296577 1.6820746e-18)
(11.76752 -1.7132723 -8.4921343e-19)
(11.557844 -1.8011613 1.5845508e-18)
(11.376676 -1.9431985 0)
(11.145854 -2.0093156 0)
(10.946455 -2.0962325 -1.4602302e-18)
(10.701074 -2.1507496 4.1802518e-18)
(10.472101 -2.1782817 -5.3316942e-18)
(10.209755 -2.2148329 2.5642439e-18)
(9.9259179 -2.2106485 -4.9972637e-18)
(9.6797644 -2.1954528 1.1986211e-18)
(9.3371045 -2.1678444 2.308926e-18)
(12.513707 -0.12093085 5.2505172e-20)
(12.464703 -0.34841891 2.0972308e-19)
(12.447983 -0.57198229 -4.0927035e-19)
(12.334662 -0.79986066 0)
(12.262084 -0.98426286 -8.06014e-19)
(12.092891 -1.1813406 2.3579795e-18)
(11.969778 -1.3316367 -1.5274918e-18)
(11.759977 -1.4931462 7.605622e-19)
(11.59539 -1.6116531 -1.48159e-18)
(11.357537 -1.7212378 4.3002712e-18)
(11.166812 -1.8135276 -2.750882e-18)
(10.914359 -1.8650447 0)
(10.697714 -1.9221289 1.2866025e-18)
(10.417005 -1.9409359 2.5405058e-18)
(10.198416 -1.938036 -3.6166227e-18)
(9.8992438 -1.9320326 3.5569794e-18)
(9.6766554 -1.8618688 -3.4180845e-18)
(9.4109739 -1.8069999 -2.2372312e-18)
(9.1482893 -1.6914714 -1.0986958e-18)
(12.346918 -0.14267917 1.3653291e-19)
(12.291729 -0.37846595 1.812261e-19)
(12.285966 -0.58852455 -3.5763337e-19)
(12.145207 -0.80474669 0)
(12.081154 -0.98630577 1.4005784e-18)
(11.88026 -1.1640893 -6.9749013e-19)
(11.773666 -1.3137297 0)
(11.53745 -1.4459718 -1.3327261e-18)
(11.397809 -1.545273 6.5888052e-19)
(11.126692 -1.6426799 0)
(10.958775 -1.6834407 -1.2532836e-18)
(10.683204 -1.7323631 1.2185409e-18)
(10.497474 -1.7227621 1.1826094e-18)
(10.209844 -1.7213164 -2.2901362e-18)
(10.012017 -1.6582653 2.1821508e-18)
(9.688519 -1.6077389 -1.0531944e-18)
(9.4971632 -1.4795722 -1.0370247e-18)
(9.1889332 -1.3852712 -1.0015938e-18)
(8.9990035 -1.1799873 -9.6624487e-19)
(12.253401 -0.14564358 3.1601404e-19)
(12.208551 -0.34732538 -1.5621524e-19)
(12.172343 -0.57259838 0)
(12.044156 -0.77523145 0)
(11.951511 -0.95042064 -1.2279555e-18)
(11.746174 -1.1228433 1.2139294e-18)
(11.620918 -1.2476026 0)
(11.359289 -1.3772991 5.8333914e-19)
(11.215188 -1.4447261 -5.7242259e-19)
(10.92739 -1.5182922 0)
(10.75385 -1.5343717 1.0950882e-18)
(10.453592 -1.5525771 2.0371676e-20)
(10.274366 -1.5078229 1.9189776e-20)
(9.9848298 -1.4773209 0)
(9.8277212 -1.3533318 -3.9860536e-18)
(9.5504498 -1.2753979 3.807328e-18)
(9.3929661 -1.0804881 4.6553725e-18)
(9.143601 -0.94317614 -6.2865196e-18)
(9.036317 -0.67701349 4.3110292e-18)
(12.095183 -0.14535626 0)
(12.056041 -0.3506847 2.3237822e-21)
(12.011853 -0.58149849 0)
(11.893136 -0.74463808 0)
(11.787235 -0.9406821 5.3290214e-19)
(11.597561 -1.0697415 9.4940542e-21)
(11.457272 -1.202222 -5.3159267e-19)
(11.211589 -1.2860844 -1.5744763e-18)
(11.055472 -1.3444677 2.0287195e-18)
(10.765604 -1.3845028 0)
(10.610844 -1.3674642 -9.9151535e-19)
(10.316218 -1.3531366 -5.7969494e-18)
(10.15223 -1.2727199 2.7893646e-18)
(9.8596243 -1.1974896 0)
(9.715156 -1.0414762 -3.566847e-18)
(9.4529044 -0.91989705 4.2787864e-18)
(9.3585678 -0.67803984 -3.3456271e-18)
(9.1669506 -0.53281133 4.0112418e-18)
(9.1174194 -0.22408619 0)
(11.969215 -0.1499515 -2.3950159e-19)
(11.933693 -0.34639368 1.2046815e-19)
(11.860511 -0.55699542 0)
(11.747364 -0.72394804 -9.5205759e-19)
(11.611339 -0.90498183 1.4092035e-18)
(11.424544 -1.0071543 -4.6290751e-19)
(11.261734 -1.140958 -1.4094187e-18)
(11.026226 -1.1774692 3.2095494e-18)
(10.84587 -1.2434961 -1.7904729e-18)
(10.568382 -1.2206665 0)
(10.411753 -1.2115952 8.6451313e-19)
(10.130969 -1.1356915 5.1451322e-18)
(10.014017 -1.0389312 -3.3081851e-18)
(9.7555677 -0.90336093 0)
(9.6737496 -0.73834285 0)
(9.4527943 -0.56236158 -1.5316256e-18)
(9.4315106 -0.33871353 7.4440024e-19)
(9.266458 -0.14897065 -2.1537962e-18)
(9.3430753 0.1515416 0)
(11.843656 -0.13964758 -2.0822868e-19)
(11.818418 -0.32807532 6.2435963e-19)
(11.739648 -0.53023773 -6.2153504e-19)
(11.642646 -0.6929138 0)
(11.488172 -0.84722071 1.2483466e-18)
(11.321997 -0.9502651 -1.6228848e-18)
(11.126863 -1.0557855 0)
(10.92778 -1.0647593 8.101136e-19)
(10.732579 -1.1089545 8.00483e-19)
(10.490433 -1.045283 0)
(10.306118 -1.0302794 0)
(10.052248 -0.89018478 -7.4999602e-19)
(9.9367574 -0.80020631 -2.2304092e-18)
(9.7122321 -0.61185151 -3.3933917e-20)
(9.6771373 -0.45857184 2.0852017e-18)
(9.5061905 -0.23768128 1.3604569e-18)
(9.559178 -0.038204518 -6.5794271e-19)
(9.4517313 0.18458328 1.2736167e-18)
(9.6102543 0.43893022 0)
(11.717021 -0.13681298 0)
(11.687397 -0.33093558 -7.2428422e-19)
(11.588598 -0.51501827 1.4398483e-18)
(11.48639 -0.66812691 -1.0771791e-18)
(11.325245 -0.79738188 0)
(11.161458 -0.8919597 0)
(10.938447 -0.96125868 0)
(10.758904 -0.96916753 -7.0008882e-19)
(10.552145 -0.97069778 -6.9330315e-19)
(10.370714 -0.88684702 0)
(10.188636 -0.83486919 -6.8200557e-19)
(10.015398 -0.66804606 -6.6891606e-19)
(9.9038128 -0.57414464 -6.4872647e-19)
(9.7498648 -0.34356803 2.5579402e-18)
(9.7377792 -0.20412309 -2.4709123e-18)
(9.629936 0.048036618 -6.00723e-19)
(9.7307284 0.20660183 3.5154753e-18)
(9.6838269 0.44990346 -5.6431286e-18)
(9.9109345 0.67098734 3.2890298e-18)
(11.615885 -0.12252061 -3.9492118e-20)
(11.576619 -0.30494421 7.8907997e-20)
(11.482265 -0.4714733 7.8444581e-19)
(11.385399 -0.62169638 -1.8849975e-18)
(11.227435 -0.72517583 9.2698074e-19)
(11.068126 -0.8101092 0)
(10.851367 -0.84599352 0)
(10.670295 -0.84707598 6.2074046e-19)
(10.442582 -0.80614086 -2.4666912e-18)
(10.29069 -0.722416 -6.4343513e-19)
(10.108562 -0.63155765 5.6091545e-19)
(10.003964 -0.47016494 2.9107984e-18)
(9.8976667 -0.34140993 5.7545999e-19)
(9.8437132 -0.10538313 0)
(9.8427508 0.019414982 1.6390453e-18)
(9.8384199 0.28179457 0)
(9.9693101 0.38602127 -3.1035954e-18)
(10.022484 0.64717974 8.9912357e-18)
(10.338223 0.76413846 -7.7398753e-18)
(11.484393 -0.12585897 6.8070473e-20)
(11.439678 -0.29866091 -6.7603884e-20)
(11.352662 -0.45344914 0)
(11.236267 -0.59038082 -8.2388468e-19)
(11.083141 -0.67695612 2.5497066e-19)
(10.926705 -0.74446922 1.0781704e-18)
(10.741854 -0.73996617 0)
(10.573156 -0.72883496 -2.7090732e-18)
(10.37708 -0.65427512 1.5866404e-18)
(10.254535 -0.57491932 -4.7794732e-21)
(10.089651 -0.44721434 0)
(10.031936 -0.28969248 0)
(9.9439078 -0.12617145 -5.0211411e-19)
(9.9652824 0.070237467 0)
(9.9782404 0.19550964 1.9544067e-21)
(10.08998 0.41598906 9.3433251e-19)
(10.226486 0.46811127 -2.7287681e-18)
(10.406617 0.67799136 7.0379921e-18)
(10.727705 0.61452599 -3.4056431e-18)
(11.405398 -0.11236963 2.0685605e-19)
(11.366107 -0.26227117 -1.7662217e-19)
(11.280415 -0.40574319 0)
(11.146365 -0.52875666 0)
(10.991738 -0.60225499 0)
(10.818253 -0.64924309 0)
(10.644946 -0.62782404 -1.9013262e-18)
(10.481439 -0.60639523 1.8657063e-18)
(10.327013 -0.50714611 2.3444602e-18)
(10.219047 -0.42502183 -9.1296618e-19)
(10.101035 -0.26284991 0)
(10.08936 -0.12415952 3.6086081e-18)
(10.050753 0.043500582 -6.6077413e-18)
(10.133866 0.17862165 3.438774e-18)
(10.186886 0.2997937 -4.2128937e-18)
(10.383285 0.42389047 2.4530333e-18)
(10.509647 0.43153129 -7.9745339e-19)
(10.776181 0.49213854 -7.7123035e-19)
(10.936946 0.28805281 7.5098641e-19)
(11.271849 -0.11851395 2.0453819e-19)
(11.237845 -0.25444009 -6.650727e-19)
(11.158524 -0.38112258 4.0772146e-19)
(11.041029 -0.4823441 -8.2366382e-19)
(10.901174 -0.53873371 8.1505461e-19)
(10.731349 -0.55859653 0)
(10.583591 -0.52792797 -4.1183383e-19)
(10.430797 -0.48802868 1.6469655e-18)
(10.31438 -0.3770686 -1.6155269e-18)
(10.209119 -0.2847864 -4.0156818e-19)
(10.146872 -0.11691903 -3.1984038e-18)
(10.156358 -0.008023794 3.122437e-18)
(10.174536 0.1427768 -3.8430493e-19)
(10.287546 0.22054347 2.2658868e-18)
(10.384455 0.3117256 -2.2025534e-18)
(10.596372 0.32006873 0)
(10.692979 0.27205015 -5.5768371e-18)
(10.918753 0.17927125 6.0869735e-18)
(10.913955 -0.077099363 0)
(11.197095 -0.096467567 -3.5399949e-19)
(11.149776 -0.2206851 3.5372214e-19)
(11.055022 -0.34424488 -7.1123275e-19)