/*--------------------------------*- C++ -*----------------------------------*\
  =========                 |
  \\      /  F ield         | OpenFOAM: The Open Source CFD Toolbox
   \\    /   O peration     | Website:  https://openfoam.org
    \\  /    A nd           | Version:  11
     \\/     M anipulation  |
\*---------------------------------------------------------------------------*/
FoamFile
{
    format      ascii;
    class       volScalarField;
    location    "3.425";
    object      p;
}
// * * * * * * * * * * * * * * * * * * * * * * * * * * * * * * * * * * * * * //

dimensions      [0 2 -2 0 0 0 0];

internalField   nonuniform List<scalar> 
4455
(
6738.7803
6746.2483
6762.297
6790.7503
6831.4501
6888.246
6964.7962
7066.9885
7228.1011
6804.6348
6806.2108
6817.8506
6842.6516
6883.4368
6942.4902
7023.2051
7136.1032
7309.4123
6863.8883
6860.9956
6868.2178
6890.8169
6931.184
6991.4679
7072.7545
7187.9691
7350.0825
6915.9997
6909.726
6913.6047
6934.7158
6975.1734
7037.2367
7122.0584
7243.2708
7413.3637
6960.7475
6952.2049
6954.1459
6974.195
7015.5276
7080.1245
7170.42
7300.7441
7477.7541
6998.2294
6988.907
6989.6159
7009.3848
7051.4829
7119.5518
7215.765
7360.3106
7543.3926
7029.0336
7020.0231
7020.0814
7039.8156
7083.2234
7155.3021
7256.0462
7422.2744
7613.9367
7053.9236
7045.7996
7045.5218
7066.0073
7110.702
7186.5619
7290.9697
7486.9878
7691.788
7073.4523
7066.6278
7066.711
7088.1458
7133.481
7213.2633
7321.5847
7553.0036
7781.0657
7088.4702
7099.7699
7108.0687
7114.0376
7118.246
7121.1624
7123.1324
7124.5044
7125.6733
7083.1617
7095.9475
7105.5344
7112.5701
7117.5415
7120.7811
7122.6366
7123.3611
7122.8673
7084.3096
7098.362
7109.1168
7117.1531
7122.8429
7126.5715
7128.9725
7130.4461
7131.4067
7106.8613
7121.6953
7133.1917
7141.4326
7146.7444
7149.7948
7150.8692
7150.0985
7147.4513
7153.3896
7170.1376
7183.0856
7192.4886
7198.7546
7202.1408
7203.0081
7201.9934
7200.5558
7238.1158
7259.5
7275.7848
7287.0213
7293.75
7295.9497
7294.4462
7290.2515
7284.8801
7353.2551
7385.8403
7416.6429
7443.763
7464.0702
7476.4122
7480.8726
7478.7657
7472.5679
7628.4173
7699.6186
7753.6023
7790.6987
7808.8798
7812.6684
7805.5285
7791.6865
7773.7568
7921.1693
8128.747
8279.507
8321.594
8309.0422
8273.7062
8223.3615
8160.7581
8091.5124
7126.6084
7126.5661
7126.2314
7126.1759
7126.2555
7126.405
7126.4181
7126.0768
7125.5242
7121.5206
7121.7196
7122.5929
7123.4352
7124.2346
7124.7871
7124.9332
7124.496
7123.3837
7132.2334
7134.5509
7137.5815
7140.1761
7141.9321
7142.9956
7143.5316
7143.6757
7142.8103
7144.1095
7145.4109
7149.8598
7155.4856
7160.5537
7164.5731
7167.505
7169.4182
7170.3054
7200.0951
7206.5354
7215.8013
7224.9313
7232.5168
7238.2302
7242.2733
7244.8861
7246.5227
7281.5165
7289.4949
7302.1355
7314.3033
7324.3103
7331.8402
7337.0566
7339.9704
7340.8823
7467.4329
7474.7695
7486.6019
7497.1409
7503.9477
7506.8436
7505.2231
7500.2278
7494.8649
7755.7745
7744.7044
7735.7405
7723.0244
7705.6401
7682.7898
7655.9211
7627.7457
7600.3367
8028.8408
7969.8224
7908.2493
7844.9332
7780.2183
7718.0023
7660.476
7608.4797
7565.6147
7542.1046
7522.9818
7518.8648
7542.2332
7594.2355
7663.681
7743.9135
7829.4792
7916.9504
7577.3302
7561.9558
7553.5485
7550.9196
7553.5702
7562.3499
7576.6494
7595.7092
7621.4207
7489.968
7486.944
7485.2642
7482.9035
7480.1097
7479.1366
7481.0194
7484.9372
7490.2238
7339.8115
7339.1292
7338.7397
7337.7714
7337.3279
7336.1607
7333.4183
7329.9062
7326.1564
7247.0434
7247.247
7246.8641
7245.3791
7242.654
7238.2643
7232.4099
7226.0602
7219.0475
7169.9799
7168.7168
7166.4689
7163.5929
7159.7725
7154.9528
7149.1218
7140.5953
7130.4526
7141.8216
7140.1451
7136.3634
7132.0315
7126.7323
7119.5762
7110.4742
7100.7372
7089.9801
7121.3526
7118.5351
7114.991
7110.3283
7104.1717
7096.8176
7088.0516
7077.2362
7064.7272
7124.6451
7122.7782
7120.102
7116.3172
7111.3941
7105.1018
7098.0577
7090.097
7080.3441
7068.7178
7054.6989
7038.095
7017.9888
6995.4124
6969.8905
6941.6208
6909.2583
6873.0582
7049.5027
7031.8164
7013.1082
6991.1268
6965.9337
6938.044
6907.6374
6873.0458
6834.9925
7076.5236
7062.0285
7045.4108
7026.4586
7004.5209
6980.674
6953.6938
6924.4526
6891.0877
7118.8613
7104.2815
7088.9965
7072.0008
7052.1801
7029.8495
7004.9604
6976.1672
6945.6419
7210.3199
7200.3827
7190.6902
7179.4462
7166.0496
7150.8777
7134.0764
7114.6855
7094.1493
7321.9735
7317.2483
7312.5805
7307.9655
7302.725
7296.2788
7288.3023
7278.2566
7265.5
7496.9734
7505.9644
7517.8482
7531.6524
7546.2505
7560.6031
7573.9022
7585.7867
7596.0237
7654.3211
7690.9219
7729.7152
7769.8875
7810.7089
7852.6171
7889.9306
7919.7421
7947.3403
8006.017
8096.4292
8188.5848
8282.6915
8375.2484
8455.0746
8526.2887
8590.5935
8648.5359
8717.9569
7977.5343
7603.7484
7249.7668
7069.9354
6909.659
6854.8997
6793.8223
6832.2431
8811.0561
8007.0747
7609.245
7230.8058
7041.8087
6869.9296
6813.6164
6746.9138
6786.5928
8906.6886
8034.6282
7612.4381
7207.6438
7011.4927
6829.6953
6768.4928
6696.1822
6735.5048
8999.8347
8067.2837
7613.2596
7180.2913
6975.5475
6780.3589
6719.6745
6640.4974
6678.8844
9086.3264
8098.63
7610.217
7147.4955
6933.9567
6724.2506
6665.0604
6579.8866
6616.5194
9168.128
8122.1085
7602.1533
7108.52
6889.0561
6663.6892
6604.801
6513.0612
6547.6985
9244.0267
8138.8626
7587.1632
7062.1933
6836.5478
6598.2147
6538.9602
6440.7849
6472.7336
9320.2295
8149.3746
7563.6186
7007.222
6777.6368
6524.1395
6466.3448
6362.0194
6391.8753
9398.5245
8149.943
7528.4245
6942.3978
6710.1316
6442.568
6387.5204
6277.8917
6305.4775
6218.1061
6187.7738
6298.7618
6355.6528
6629.3772
6864.9524
7475.4937
8136.2988
9502.3891
6130.7996
6090.5792
6199.2189
6256.2232
6533.4921
6767.7149
7385.6209
8060.4141
9437.8111
6027.7867
5985.2828
6089.5108
6148.9138
6419.3147
6648.076
7260.1513
7928.9092
9254.7368
5900.6024
5871.79
5969.7135
6028.8415
6289.3807
6509.2776
7108.0455
7767.2368
9040.7009
5756.8637
5747.2141
5841.3091
5900.6406
6149.7538
6355.7504
6935.7815
7584.1082
8812.4277
5606.2028
5614.1891
5703.766
5762.3908
5996.266
6191.3874
6748.5469
7384.052
8579.083
5449.0539
5471.2204
5556.1074
5612.501
5833.1828
6015.6296
6546.5248
7165.2796
8333.6532
5285.8265
5321.5163
5401.9581
5459.3524
5664.0166
5829.0625
6331.1004
6928.3795
8080.8022
5112.1292
5163.8267
5240.2772
5294.6582
5484.5021
5631.6864
6102.3806
6672.6914
7814.2166
7539.7335
6398.4644
5860.523
5425.4598
5297.8179
5121.4507
5069.0656
4999.3201
4929.3228
7253.4479
6107.4376
5607.411
5209.2125
5105.5407
4944.3856
4893.4146
4827.8948
4736.4787
6958.7616
5799.1343
5343.6692
4986.3878
4907.1755
4761.019
4711.7971
4650.4201
4536.7357
6655.055
5477.4173
5069.9618
4758.4125
4703.9042
4573.3183
4520.3223
4466.4463
4328.4907
6329.0029
5136.0396
4787.0923
4529.4013
4497.4454
4382.2815
4326.882
4278.8361
4114.4569
5996.5533
4781.9559
4504.1448
4300.0395
4289.0615
4187.8197
4128.9797
4084.9084
3894.1683
5633.5967
4410.4493
4221.9757
4073.4721
4079.549
3992.4841
3926.7404
3886.9235
3669.3033
5251.4926
4028.797
3941.0101
3852.1429
3872.4024
3798.2465
3726.2673
3685.17
3439.5393
4837.7888
3635.6789
3670.2984
3638.084
3670.3612
3603.7897
3521.7351
3479.4156
3210.4074
2991.1481
3268.8401
3315.1811
3406.1014
3468.0151
3429.3946
3404.0582
3214.9044
4345.9306
2779.5146
3053.444
3108.7013
3205.8902
3265.7188
3225.1431
3153.1427
2767.5203
3719.5752
2548.7565
2833.7844
2897.6565
3006.986
3072.9377
3037.9205
2939.2338
2357.8705
2996.7912
2307.6863
2613.8669
2691.3686
2807.7707
2882.6992
2865.9394
2775.0138
2021.6669
2134.3051
2066.1705
2389.0581
2480.6326
2610.8963
2695.623
2704.4698
2662.9035
1799.4137
1134.32
1834.1726
2166.3499
2270.1077
2408.8861
2511.29
2548.7346
2597.3723
1720.1718
-14.79346
1607.5353
1941.3025
2061.9831
2209.7272
2325.1979
2389.8191
2555.6834
1822.7682
-1203.6723
1392.367
1719.6018
1850.7211
2013.6704
2135.918
2218.3477
2521.5673
2164.9547
-2232.1537
1133.3283
1502.6812
1647.1008
1822.1314
1947.6132
2031.2502
2462.6147
2756.4255
-2814.8595
881.3392
1291.6686
1442.8478
1631.7906
1758.3683
1806.8764
2306.844
3307.9442
-3244.6563
669.72189
1092.3058
1244.8031
1449.1204
1574.5305
1589.2138
2131.3404
3311.0774
-4315.8804
495.22455
902.74616
1052.9983
1271.5383
1401.3901
1411.55
1986.5133
3131.2033
-5789.4827
343.79419
719.1748
866.31984
1093.6724
1232.9396
1262.0709
1883.2308
2820.6849
-5501.1695
205.84646
541.72252
684.0943
915.49797
1064.3604
1120.4673
1830.0107
2389.0735
-3865.114
78.124623
369.32028
501.54984
730.19629
889.33499
959.27926
1830.5066
1820.4043
-4151.8306
-42.881084
206.96151
321.04672
535.51609
704.19766
783.76074
1861.991
1294.3539
-4828.7534
-146.94132
55.260682
145.65176
332.69633
509.59592
596.65496
1901.3279
1071.6431
-5076.9268
-222.24329
-89.305327
-22.676536
119.76411
305.72054
401.96912
1908.9234
912.89303
-5317.6928
-5206.97
646.84868
1929.739
251.12404
117.34579
-81.356923
-174.31545
-225.06029
-286.70241
-5166.5473
560.99866
1942.5535
83.081548
-61.583984
-270.44741
-312.3493
-347.04788
-342.17639
-5007.1849
458.64623
1901.1437
-112.35697
-254.24345
-459.85758
-443.40607
-453.69106
-374.73017
-4919.4816
270.63671
1805.1002
-302.19166
-454.14427
-649.7154
-567.901
-543.14507
-389.19929
-4785.6632
99.638735
1637.6027
-467.43297
-657.17395
-835.36598
-681.76742
-612.76489
-386.38913
-4803.061
-69.109257
1437.9829
-597.52922
-863.89462
-1012.5052
-781.59301
-665.82375
-370.89372
-4706.1049
-321.50982
1195.7612
-718.81228
-1075.4022
-1182.7067
-868.4753
-702.99448
-343.55391
-4744.8545
-512.19646
974.4124
-846.93429
-1291.9272
-1343.7943
-944.26897
-722.10195
-305.08146
-4653.6828
-871.88037
768.62058
-1021.6312
-1521.4328
-1492.4078
-1007.9971
-721.19406
-234.88443
-4671.9194
-1048.6309
512.23416
-1309.385
-1892.5591
-1703.2337
-1084.5971
-686.90965
-94.711218
-4802.1929
-1002.3874
213.82474
-1952.6136
-2416.4721
-1892.3948
-1121.2928
-567.64767
76.839956
-4900.2971
-1152.7072
-95.126255
-2624.4354
-2848.006
-2012.9819
-1078.7485
-362.98742
244.89118
-5020.2364
-1262.8019
-382.43721
-3288.4583
-3172.5522
-2006.7264
-922.2421
-124.76365
399.71131
-5147.8544
-1411.7258
-670.37377
-3892.6711
-3357.806
-1924.5022
-727.35458
110.42839
522.67297
-5201.471
-1565.6207
-944.79619
-4488.5074
-3432.0987
-1745.7978
-504.01808
344.27828
605.48989
-5172.4503
-1731.0311
-1152.6036
-5031.9732
-3394.9911
-1518.7874
-251.86839
526.06184
645.40609
-5434.5706
-1887.3581
-1357.2395
-5549.3837
-3276.8061
-1254.4719
2.0643014
641.78646
677.30563
-5377.0015
-1999.292
-1362.3698
-5985.419
-3072.9099
-988.76632
202.79734
682.41128
661.45241
-9270.7414
-8900.4442
-6495.0703
-4159.4945
-4376.6388
-2539.6951
-1236.4828
99.476954
239.90065
-9115.5934
-8645.796
-6460.0843
-4424.8257
-4950.3109
-2795.3461
-1391.9263
165.32757
177.5661
-8958.4316
-8378.2801
-6383.9015
-4628.1345
-5451.0965
-3003.1641
-1495.9317
228.2184
141.86998
-8798.0408
-8087.8962
-6254.3866
-4775.7837
-5858.0338
-3161.6391
-1532.2447
287.10239
137.37828
-8634.0475
-7770.4872
-6072.1733
-4899.5689
-6145.4337
-3273.8161
-1503.5583
348.15479
157.49442
-8465.8407
-7419.8874
-5828.6224
-5033.5259
-6310.2137
-3343.0623
-1414.9388
405.38919
190.45727
-8290.8817
-7027.6842
-5528.2883
-5213.2824
-6359.7
-3366.3818
-1265.3654
454.83972
227.93764
-8114.8342
-6606.1018
-5185.5596
-5440.9742
-6312.1886
-3341.2346
-1062.3226
492.06736
273.87202
-7921.3237
-6178.507
-4805.8114
-5715.0575
-6202.3088
-3277.7972
-824.97679
512.29983
324.12227
-12088.914
-12008.37
-2582.1893
1081.0944
3021.7058
3431.1369
4524.8679
4279.017
2565.4553
-12510.34
-12093.174
-3502.2402
714.60583
2850.8941
3396.6494
4401.0472
4524.5613
3280.5879
-11983.053
-12201.608
-4400.1028
295.20104
2463.3918
3333.0455
4227.7837
4766.2012
3789.4495
-12314.747
-12375.949
-5240.7775
-333.79015
2103.4119
3131.1525
3925.0801
4712.5732
4245.7777
-12741.605
-12634.221
-6007.3363
-1089.3614
1716.9296
2900.274
3648.9972
4569.5872
4442.2062
-13406.145
-12962.214
-6665.0241
-1802.6423
1236.439
2631.8851
3292.6314
4256.2882
4501.2303
-14443.641
-13359.292
-7230.9615
-2583.5347
695.4965
2278.2589
2937.3556
3956.1066
4358.5658
-15649.462
-13810.166
-7678.4977
-3301.0795
95.537781
1853.8728
2584.2419
3509.2764
4119.066
-16260.362
-14358.804
-8026.6069
-3833.0097
-448.38932
1426.8175
2260.4421
3112.5962
3827.4545
2269.7136
1359.6762
885.20009
-143.39037
-1778.7887
-4419.5581
-7805.9034
-15626.933
-16689.49
2456.6945
1537.8734
1015.5102
-6.8978817
-1716.0642
-4469.6062
-8000.9594
-15609.138
-16669.211
2631.8942
1719.6317
1151.7129
148.81235
-1616.3896
-4476.8328
-8119.047
-15576.075
-16592.219
2797.7142
1903.7904
1291.545
315.13262
-1495.491
-4452.9231
-8204.611
-15499.276
-16490.724
2963.0838
2089.4078
1433.3378
485.04669
-1363.5787
-4414.6884
-8273.0968
-15419.013
-16379.938
3130.0582
2273.8765
1577.2309
647.83407
-1228.9298
-4374.2726
-8328.1308
-15306.663
-16277.907
3289.0632
2457.0375
1719.9653
812.55219
-1088.262
-4324.9749
-8364.2654
-15188.202
-16215.02
3440.0225
2635.994
1862.9385
971.62515
-943.03946
-4255.3857
-8384.9833
-15056.427
-16302.802
3586.5488
2812.9808
2007.6346
1136.5771
-783.58954
-4151.723
-8381.6354
-14964.778
-16326.672
-16798.995
-15703.051
-7421.9175
-4309.1394
-1810.7801
-267.22
758.24103
1183.1142
2068.6365
-16567.758
-15532.848
-6805.8713
-4114.9583
-1817.0736
-379.72426
630.04556
1013.4666
1873.2684
-15215.377
-14455.503
-6220.8394
-3899.3581
-1807.1831
-473.36083
507.5397
853.95686
1690.4792
-13923.346
-12958.018
-5742.2001
-3668.0394
-1786.8896
-553.7155
390.3422
702.10527
1505.8459
-14243.271
-11363.067
-5299.6162
-3425.8648
-1739.28
-613.89662
284.24447
563.56218
1321.8587
-16301.409
-9842.9188
-4817.1845
-3160.5564
-1675.4919
-652.65217
192.94228
439.1722
1137.639
-16958.329
-8367.0956
-4233.1948
-2886.8442
-1583.6939
-671.47838
112.84687
329.63201
958.71129
-15298.731
-6826.7335
-3616.2097
-2665.0433
-1520.8763
-696.56403
26.802357
228.80294
796.49561
-13517.045
-5874.7339
-3332.7592
-2532.5195
-1520.2399
-755.04499
-87.565377
131.46527
665.24382
-11.03044
-114.28589
-341.64045
-691.33083
-1157.5208
-1714.7672
-2248.0148
-2292.6063
-315.56766
-42.239041
-176.88689
-430.65007
-819.19451
-1347.2378
-2001.1675
-2721.2686
-3115.805
-1206.1494
-44.147911
-215.65442
-488.4534
-915.47704
-1495.8031
-2238.9044
-3141.8635
-3965.0739
-2221.2905
-12.853602
-229.77756
-513.76668
-975.42181
-1601.8094
-2418.3337
-3486.4259
-4782.4059
-3384.5116
46.645388
-220.02025
-507.70019
-1005.6181
-1665.1141
-2533.1799
-3737.602
-5534.1115
-4735.7664
132.20047
-186.63681
-471.56674
-1002.9977
-1691.419
-2586.8645
-3869.6557
-6120.0119
-6368.1201
242.21507
-130.72669
-409.02563
-974.22781
-1681.7406
-2589.5037
-3862.0983
-6474.7829
-8351.3166
373.49993
-55.401197
-322.02098
-917.61985
-1644.2946
-2555.7439
-3715.9432
-6531.7395
-10388.798
520.63025
33.905489
-214.34512
-842.53218
-1583.8043
-2519.8386
-3493.9155
-6230.83
-12070.381
378.78689
-1558.5965
-1759.0311
-1397.3507
-939.77775
-534.49845
-225.58655
-26.858844
46.152769
950.43696
-907.62928
-1286.8845
-1068.9845
-704.01765
-359.02426
-87.995387
84.740036
127.67496
1478.3432
-292.09512
-809.90256
-724.4516
-449.42537
-164.88381
69.826878
217.27216
242.57983
1965.3541
286.51719
-341.51526
-370.53362
-179.97769
45.342678
243.38315
366.95862
379.02676
2420.1207
827.53419
119.29574
-11.755323
98.977358
268.20058
433.18362
531.47618
533.88361
2852.3825
1331.8871
560.34241
344.53418
385.25125
499.06923
631.65893
708.99851
705.14553
3252.6287
1806.705
988.56352
696.50492
673.591
736.36554
839.7594
895.13316
890.1941
3630.3105
2249.5322
1395.8539
1038.8191
959.26723
976.08568
1053.2444
1089.0549
1085.3755
3998.292
2665.2568
1784.4558
1370.6781
1240.9756
1214.5953
1268.9302
1288.2144
1288.2601
3056.2751
2973.2512
3047.5361
3077.6645
3300.7653
3628.4835
4281.1292
5292.2015
6859.2899
2901.2751
2810.5569
2878.8464
2912.1611
3132.2226
3462.0328
4118.5371
5136.7866
6592.7282
2727.7689
2640.6426
2701.7711
2734.0075
2945.0715
3266.0962
3907.6462
4906.5276
6271.0882
2532.4239
2463.031
2517.5688
2546.1339
2742.4422
3046.8336
3665.0451
4642.7051
5959.6381
2328.7578
2277.6255
2323.3491
2344.0948
2521.7475
2806.1663
3398.1657
4361.7988
5655.6214
2122.2678
2086.0515
2120.0143
2132.5996
2286.8785
2550.585
3114.9382
4066.851
5348.6965
1914.4617
1889.917
1913.6874
1912.5583
2040.3127
2278.6167
2814.2432
3751.9344
5030.3595
1704.7226
1689.4153
1701.1948
1685.3992
1784.6765
1992.3046
2492.9012
3415.4782
4702.651
1495.396
1488.3733
1484.5675
1451.3546
1516.3977
1687.7662
2148.2137
3053.1161
4357.5221
3216.0758
3376.4102
3530.7382
3678.8074
3819.7401
3954.1905
4081.3825
4202.5006
4316.9234
3129.6095
3280.1549
3424.118
3561.8734
3693.4713
3819.1031
3938.4958
4053.2146
4162.1984
3202.4179
3349.971
3490.1948
3620.8023
3747.011
3866.127
3978.3456
4086.8381
4188.9886
3230.6157
3374.3979
3509.7046
3635.038
3754.5915
3865.9314
3971.0536
4071.2795
4165.6389
3450.3307
3581.8063
3703.5665
3815.1415
3917.9737
4014.3169
4103.6213
4186.331
4265.549
3766.11
3883.0505
3986.493
4078.6767
4160.8699
4235.0792
4302.3468
4364.2036
4421.0167
4394.856
4481.6458
4550.0715
4605.1419
4648.8682
4683.5377
4711.4901
4733.1277
4751.6907
5361.3401
5391.2481
5397.2315
5387.2593
5365.1673
5334.3289
5297.1629
5256.3473
5213.542
6880.5844
6850.3639
6774.4902
6681.867
6572.3759
6459.3259
6342.2299
6225.4101
6110.0586
4425.2849
4266.134
4286.6795
4256.3097
4340.131
4474.5374
4767.414
5170.0201
5997.5112
4528.1737
4365.4636
4380.2437
4342.9082
4410.1634
4525.0383
4781.3322
5126.9997
5886.6667
4624.8889
4460.9695
4469.263
4425.9969
4479.226
4574.0699
4795.3987
5085.5473
5777.6787
4716.4
4551.7771
4554.2329
4506.3691
4545.5311
4622.0159
4809.14
5046.9438
5671.2159
4802.9011
4637.223
4635.5798
4583.8486
4609.7806
4669.7741
4823.9091
5011.7418
5567.9772
4884.6126
4720.1487
4713.3657
4658.6724
4673.656
4717.6465
4840.3256
4980.376
5467.6032
4961.2689
4799.3705
4788.0397
4731.2263
4735.9492
4766.2523
4858.1932
4953.0297
5370.0531
5033.6393
4874.2751
4859.354
4801.5992
4797.2424
4815.0874
4879.6361
4931.1685
5274.8625
5101.3875
4945.9648
4927.5343
4869.8089
4857.5291
4864.511
4905.2663
4914.4338
5181.7289
5536.5101
5442.7085
5411.4731
5382.8495
5357.8948
5337.6503
5299.1436
5115.1036
4805.915
5497.8102
5399.8595
5368.4623
5335.3509
5307.4453
5284.4501
5243.4283
5061.9171
4758.471
5458.4153
5353.9223
5322.2346
5285.0976
5254.9185
5230.1395
5188.6011
5013.2668
4731.4673
5418.1073
5304.9499
5273.4029
5232.4676
5200.8676
5175.4361
5136.4087
4972.0193
4736.7747
5375.9509
5253.0461
5222.5782
5177.6099
5145.7055
5120.8287
5087.577
4939.6127
4773.9671
5330.0184
5198.0332
5169.5857
5120.4456
5089.7364
5067.2995
5043.2239
4915.605
4838.1297
5279.9218
5140.0215
5113.8014
5061.003
5032.9664
5015.1352
5002.8083
4902.2755
4917.1818
5224.9647
5078.9645
5054.8977
4999.4455
4975.4184
4964.288
4966.3643
4898.8094
5002.3417
5165.3514
5014.4577
4992.6821
4935.7263
4916.9348
4914.1978
4933.8052
4903.2519
5090.4798
4859.1197
5173.1445
5357.4043
5390.9915
5407.212
5428.2906
5452.0306
5481.8352
5568.8641
4940.3386
5239.6568
5418.6185
5444.3844
5454.9829
5471.8184
5490.504
5517.5714
5594.2394
5037.5547
5309.7044
5478.9651
5495.7239
5499.8552
5512.6906
5526.138
5550.7082
5615.7352
5142.2713
5382.479
5537.571
5544.9248
5541.8017
5550.877
5558.8432
5581.0009
5635.0089
5247.8651
5459.358
5593.5691
5591.7808
5581.0424
5586.3694
5588.5261
5608.2779
5650.6252
5352.8854
5539.4432
5647.6368
5636.344
5617.8836
5619.5524
5615.7222
5633.5635
5664.2614
5460.6339
5620.9777
5700.5229
5679.1885
5652.9552
5650.8106
5641.1166
5655.2399
5674.5322
5579.5437
5700.35
5753.9841
5721.0182
5687.1886
5680.225
5664.9209
5672.2485
5681.9968
5708.4931
5774.2246
5808.8366
5763.429
5721.961
5707.7434
5687.4184
5685.9085
5685.2836
5859.5074
5854.553
5872.6767
5815.2187
5765.7009
5740.8451
5715.0093
5700.2232
5687.769
6031.9766
5944.3855
5947.1988
5877.3763
5822.0211
5787.6097
5754.9349
5724.8632
5699.9061
6195.8427
6035.5587
6021.8294
5939.7724
5878.863
5836.7454
5797.1263
5755.262
5719.183
6367.436
6129.408
6098.9279
6004.4243
5937.6913
5888.6694
5842.3133
5791.6434
5745.0932
6550.5979
6224.5557
6177.3094
6070.9016
5998.2785
5943.3541
5890.9528
5833.3415
5777.697
6752.4613
6319.9714
6255.8405
6139.0961
6060.5053
6000.7673
5943.2057
5880.0835
5816.9731
6996.3962
6417.0474
6333.7991
6208.0968
6124.4646
6060.8222
5998.9935
5931.8514
5862.8903
7229.0723
6518.0031
6410.2905
6277.8185
6189.9923
6123.3409
6058.3137
5988.1144
5915.3937
7331.755
6619.1415
6483.4475
6347.7764
6256.6197
6187.7374
6120.6324
6048.7695
5974.2903
6667.0892
6681.3939
6704.9234
6739.7141
6783.6459
6843.2796
6925.7354
7033.5633
7200.755
6590.5086
6612.4078
6644.5456
6685.6931
6735.2454
6801.5341
6893.7554
7018.3509
7241.3493
6510.1451
6541.0751
6581.2975
6628.7351
6683.4769
6754.4545
6854.6361
6991.8467
7258.4846
6427.5484
6468.1271
6516.1122
6569.3931
6627.3308
6703.787
6810.8195
6960.2243
7269.2045
6344.762
6394.6462
6449.6686
6507.5352
6568.4045
6649.4253
6763.193
6924.5002
7283.2312
6263.173
6321.5684
6382.5952
6444.0081
6507.9749
6592.6035
6712.5256
6880.587
7300.5275
6184.2698
6249.7263
6315.6672
6379.669
6445.6565
6533.4894
6659.2183
6828.9748
7314.777
6109.2688
6179.8664
6249.4158
6315.1651
6382.9768
6472.9055
6603.3992
6767.7904
7324.9666
6039.0774
6112.7981
6184.3697
6251.6575
6320.6935
6412.1707
6546.3516
6699.8223
7333.0414
7450.9511
7483.7976
7513.7768
7542.0472
7572.756
7591.5146
7585.369
7539.689
7407.9988
7513.2905
7539.2787
7566.1373
7595.367
7624.6781
7641.4553
7629.3813
7573.5763
7432.0721
7571.1786
7601.4712
7628.9753
7660.4289
7689.4465
7704.4922
7686.4731
7617.2506
7457.934
7644.0325
7678.9102
7710.6068
7743.7751
7772.6845
7783.3218
7763.3
7672.4151
7496.6858
7732.5463
7771.1892
7809.1648
7844.7342
7876.9828
7884.0493
7862.2048
7752.159
7536.1534
7843.4502
7887.9764
7933.8937
7975.9068
8011.1852
8021.6154
7989.3308
7886.5945
7684.0946
7993.502
8044.5785
8099.6003
8151.4717
8192.5726
8204.002
8147.0107
7974.1214
7628.7395
8205.6566
8263.2377
8330.877
8397.3656
8452.3911
8488.8952
8494.9564
8456.1374
8395.8097
8502.2588
8563.9093
8644.9558
8731.8565
8806.086
8860.3903
8854.8977
8731.0015
8371.6196
11497.491
10975.727
10575.211
10143.623
9799.3215
9509.7804
9287.598
9124.8526
9020.5069
9944.5879
10099.093
10060.388
10009.622
9910.1368
9787.941
9650.3916
9508.1784
9392.7384
9714.5944
9716.5301
9690.5302
9661.9115
9617.0468
9562.5196
9495.8617
9416.2114
9332.1299
9379.7107
9412.177
9392.3679
9380.6274
9353.8394
9325.5336
9293.9328
9255.0282
9201.858
9113.2318
9138.3005
9130.3635
9130.5531
9116.8808
9101.8059
9085.2199
9066.9373
9034.1837
8905.5365
8917.9335
8909.2168
8911.1935
8901.446
8890.5809
8877.32
8866.9712
8844.2068
8726.6095
8728.5748
8721.2922
8718.4141
8710.0956
8700.6864
8690.6252
8682.4489
8666.8592
8567.6043
8566.1829
8555.2312
8553.0063
8543.5862
8536.2942
8525.0669
8518.8516
8505.8896
8429.0584
8419.9703
8410.8257
8401.8343
8391.8901
8381.904
8371.736
8362.9934
8351.8736
8217.5402
8086.1635
7945.5093
7787.2037
7610.8618
7391.0982
7130.9369
6813.2732
6574.4842
8226.4298
8094.4071
7951.4697
7791.4382
7607.1857
7385.3361
7112.5932
6804.28
6512.3752
8232.6512
8100.311
7954.2988
7790.8748
7598.6087
7371.6946
7086.2623
6769.0398
6431.8917
8243.059
8106.9963
7960.7715
7792.3781
7596.4252
7360.8514
7064.4741
6719.1737
6335.5807
8250.2507
8114.0119
7965.33
7796.0032
7596.4034
7355.1814
7044.9266
6670.7884
6232.4472
8260.9996
8121.8389
7973.4134
7801.4779
7599.2225
7353.0386
7033.126
6622.094
6130.069
8267.2203
8130.2089
7980.0591
7810.6677
7604.3965
7360.3221
7027.6684
6592.1374
6047.9891
8278.5426
8136.6969
7988.4772
7814.7124
7612.3681
7360.2641
7030.4334
6561.9724
6029.9175
8289.9774
8151.1232
8002.1066
7833.5835
7628.6693
7387.931
7050.8291
6590.2849
5933.614
6596.8647
6786.0414
7080.6579
7323.7125
7490.6271
7621.3563
7755.873
7906.3431
8070.3936
6501.4627
6704.3204
7045.5662
7308.2118
7478.0293
7614.3259
7755.2725
7910.9134
8078.7445
6384.6089
6621.344
7020.8894
7299.1983
7468.0288
7606.9475
7751.5477
7913.6717
8086.5886
6245.0778
6533.9928
6994.4809
7287.8589
7458.8564
7606.8893
7759.932
7923.3255
8096.3218
6072.1131
6446.8422
6961.0125
7260.2996
7431.9817
7586.5236
7746.0083
7917.9272
8098.2853
5818.217
6407.2732
6981.1627
7272.9897
7443.4525
7601.2057
7763.5378
7933.7479
8110.5719
5436.8484
6236.4445
6921.6344
7221.9227
7403.8223
7574.5861
7745.0152
7921.303
8104.6397
5120.5702
6308.2704
6980.2381
7244.8637
7424.2825
7592.4594
7761.4404
7936.9182
8118.5629
4080.0883
6137.306
6945.4958
7208.3435
7401.7139
7579.2707
7751.983
7928.736
8112.0773
8241.8381
8413.2344
8569.9255
8722.5202
8842.1186
8873.2773
8800.1942
8736.692
8768.1355
8251.5032
8422.1691
8584.608
8745.7034
8871.5615
8913.4596
8826.3664
8747.0838
8762.8283
8261.7697
8433.7009
8601.5706
8772.3365
8901.9061
8960.2248
8842.277
8750.3561
8753.2372
8272.3301
8446.0343
8620.6293
8802.9172
8930.691
9016.4817
8860.5354
8743.229
8738.7816
8279.1371
8455.5716
8637.2389
8831.0831
8965.6509
9080.4958
8898.0007
8718.7611
8717.0189
8290.4165
8468.3405
8656.0684
8851.0061
9034.96
9143.787
8946.7663
8687.5291
8692.3812
8287.1572
8466.9056
8664.3624
8849.732
9102.9655
9210.0508
8979.4789
8671.4422
8664.983
8300.5219
8477.8953
8678.1892
8882.2153
9155.6396
9312.6618
9057.0899
8709.5202
8680.6347
8295.0926
8476.4331
8682.1336
8900.565
9175.1638
9367.2769
9112.9221
8728.9573
8697.6507
8883.9641
9038.4434
9227.0905
9363.754
9405.9845
9381.3378
9390.3445
9514.2843
9254.7321
8879.1319
9040.7726
9248.4096
9391.5048
9431.3058
9391.6802
9399.7785
9527.9942
9215.2566
8872.8367
9046.276
9274.6645
9422.5586
9454.034
9394.724
9408.4699
9538.9041
9180.3693
8861.751
9049.3922
9300.5709
9453.7384
9473.4167
9390.6879
9417.3015
9558.9109
9026.8248
8841.4344
9045.4147
9323.8653
9483.3841
9489.0454
9379.9169
9418.6363
9576.1872
9042.1016
8826.6336
9044.5439
9348.9304
9516.8484
9505.8383
9376.4784
9411.5832
9583.9518
8945.2371
8797.5579
9035.9615
9355.2281
9526.0612
9518.0367
9378.725
9420.183
9616.7674
9034.3797
8782.6222
9019.0622
9359.5864
9527.1114
9513.1627
9384.0802
9403.1918
9568.2594
8971.7445
8800.0559
9024.545
9346.8725
9519.6527
9508.0921
9395.5275
9420.9267
9597.0364
9284.5846
10373.953
10620.825
10484.385
10142.417
9791.7568
9454.68
9118.4339
8791.2744
8464.491
10380.716
10672.491
10568.99
10224.406
9866.0391
9520.8786
9176.3254
8843.7182
8513.6475
10364.074
10707.032
10643.863
10296.806
9938.8868
9585.7093
9234.4181
8895.8534
8563.8028
10328.457
10751.314
10723.827
10370.969
10013.905
9651.4348
9294.3225
8946.5393
8610.2856
10268.486
10769.921
10796.494
10439.677
10085.941
9717.3178
9356.298
9005.1423
8663.1601
10217.908
10782.027
10863.375
10504.843
10155.449
9771.8016
9404.2987
9041.6278
8700.5161
10172.292
10772.568
10916.242
10567.645
10228.978
9844.8132
9474.564
9112.3243
8764.9136
10124.019
10759.77
10953.326
10608.849
10270.084
9874.4649
9502.6997
9130.7594
8784.1881
9996.7022
10711.723
10973.306
10674.214
10348.207
9956.8145
9582.7898
9209.3731
8859.7618
8149.055
7834.1496
7523.3965
7210.3701
6886.7486
6557.5149
6212.9103
5859.724
5496.9996
8195.1002
7874.5506
7562.995
7243.8774
6923.7059
6590.3585
6247.71
5893.0243
5529.7145
8243.3592
7919.2865
7607.2353
7286.3317
6967.8502
6635.4359
6294.3249
5942.6154
5581.0729
8285.7088
7959.236
7647.922
7320.4423
7008.3924
6669.1635
6334.9572
5979.1264
5623.803
8337.4424
8006.9188
7694.8346
7368.0634
7052.8843
6718.9111
6380.5198
6030.474
5671.4459
8368.2129
8036.2604
7724.865
7391.5068
7083.8358
6742.0844
6412.3214
6057.5769
5705.6301
8434.2009
8098.9135
7787.153
7453.3991
7143.6557
6805.4932
6472.3384
6123.2166
5765.9866
8447.2023
8111.2068
7798.8178
7461.6047
7156.3251
6814.0134
6486.2251
6134.0551
5782.7479
8522.3083
8184.4267
7871.3036
7534.4189
7227.7281
6888.7239
6559.829
6212.7232
5857.2163
5082.1684
4638.3488
4183.28
3762.3944
3307.9871
2860.2696
2076.1426
863.12189
-1085.1461
5115.9355
4692.7976
4249.0522
3848.2665
3408.5223
3003.0474
2279.6817
1173.4221
-781.96221
5174.58
4756.8222
4314.6572
3902.2882
3442.4678
2985.8701
2302.2973
1314.4602
-403.99819
5219.6814
4816.3475
4375.5748
3967.3982
3504.8046
3044.3945
2411.6332
1494.4239
47.820742
5275.5285
4877.1221
4448.223
4044.19
3587.6309
3115.3722
2554.9409
1728.7727
621.0989
5314.2343
4928.5461
4508.8464
4105.3341
3659.815
3178.6207
2651.2964
1944.3089
1327.763
5383.7187
5001.1156
4605.1474
4200.0214
3774.8957
3282.5007
2807.5207
2044.1983
2327.7298
5405.1435
5030.6959
4640.782
4245.2993
3823.1016
3345.0943
2782.9588
2265.7989
1965.9693
5491.9252
5127.5287
4765.8707
4384.6648
4000.4644
3555.2929
3103.1781
1802.5052
5725.4483
-2826.7598
-4943.3057
-6138.9722
-5426.7615
-5607.5269
-5695.5462
-5834.3886
-4584.6575
-2943.7888
-2775.1304
-5149.8081
-6109.6871
-5320.5976
-5512.626
-5520.4911
-5583.0478
-4464.3958
-2965.8703
-2847.5084
-5418.6019
-5987.8803
-5318.8939
-5573.5181
-5621.3551
-5458.7043
-4326.241
-2975.9588
-3080.2768
-5726.8105
-5839.2694
-5287.6474
-5541.426
-5503.2831
-5319.4275
-4211.0459
-2948.1291
-3451.5605
-5999.2697
-5518.5148
-5283.3019
-5559.1082
-5495.9014
-5174.3786
-4088.9032
-2894.5331
-3482.6318
-5926.1457
-5394.7546
-5373.1602
-5532.334
-5416.0789
-5044.4409
-3957.2692
-2834.3852
-2862.2182
-5562.6479
-5395.2397
-5340.4894
-5501.611
-5336.0931
-4868.8038
-3822.8136
-2773.7318
-3640.8661
-6668.1333
-5287.5581
-5446.2633
-5492.7678
-5304.4811
-4768.0157
-3714.1513
-2725.6127
-13111.146
-4458.0327
-5423.2246
-5399.6891
-5417.6681
-5178.4274
-4585.2638
-3591.0136
-2687.8624
-2499.9481
-2358.1765
-2307.1478
-2365.5605
-2476.3802
-2628.707
-2673.9673
-2505.0182
-2125.8704
-2437.3213
-2280.2894
-2224.2818
-2292.1867
-2416.5057
-2557.1309
-2615.4878
-2412.5758
-2027.0585
-2434.3045
-2285.3403
-2231.9386
-2300.2638
-2427.8452
-2540.3786
-2531.1658
-2305.044
-1923.8874
-2409.2776
-2260.8132
-2213.1087
-2276.0984
-2403.826
-2474.23
-2442.6934
-2204.435
-1811.1101
-2374.4362
-2224.2173
-2175.2946
-2247.2447
-2370.9034
-2418.8866
-2371.5416
-2082.7718
-1699.8877
-2342.0955
-2190.6436
-2143.9851
-2226.1851
-2338.4419
-2363.7364
-2293.6117
-1956.6212
-1581.5025
-2319.1943
-2161.31
-2121.9821
-2212.1543
-2313.395
-2320.2405
-2201.3888
-1828.5013
-1446.5715
-2306.6067
-2138.5391
-2105.1967
-2202.21
-2289.1551
-2306.8278
-2138.5048
-1761.7217