/*--------------------------------*- C++ -*----------------------------------*\
  =========                 |
  \\      /  F ield         | OpenFOAM: The Open Source CFD Toolbox
   \\    /   O peration     | Website:  https://openfoam.org
    \\  /    A nd           | Version:  11
     \\/     M anipulation  |
\*---------------------------------------------------------------------------*/
FoamFile
{
    format      ascii;
    class       volVectorField;
    location    "3.425";
    object      U;
}
// * * * * * * * * * * * * * * * * * * * * * * * * * * * * * * * * * * * * * //

dimensions      [0 1 -1 0 0 0 0];

internalField   nonuniform List<vector> 
4455
(
(99.94373 -0.4700017 0)
(99.932103 -1.3336869 -1.7458734e-18)
(99.626748 -2.20175 5.9969102e-18)
(99.428238 -3.1662123 2.3987584e-20)
(98.872699 -3.9246759 5.7008084e-18)
(98.434448 -4.9251177 -2.1405755e-17)
(97.366288 -5.6487455 9.5051281e-18)
(96.577074 -6.5934355 0)
(94.664261 -7.8613758 -5.8941731e-17)
(99.946909 -0.43090912 -1.1553907e-17)
(99.851608 -1.2379748 1.1269008e-17)
(99.581997 -2.0882143 -1.3843494e-17)
(99.354245 -3.0632281 2.3040251e-17)
(98.740747 -3.8534906 -4.4138174e-17)
(98.18083 -4.9025239 4.8238703e-17)
(97.10272 -5.7381829 -4.6170396e-18)
(95.903506 -7.0117756 6.7398499e-18)
(93.975483 -9.2385987 2.5709495e-16)
(99.917146 -0.3948482 -1.2310896e-17)
(99.830912 -1.111541 1.5510162e-17)
(99.550765 -1.9811515 1.3531584e-17)
(99.29319 -2.858762 -1.3452423e-17)
(98.638074 -3.6482774 5.9326988e-17)
(97.938352 -4.6559274 -3.3378506e-17)
(96.953689 -5.4281097 4.307211e-18)
(95.703402 -6.8585555 -9.6145483e-17)
(93.889607 -8.249102 -1.8163797e-16)
(99.891011 -0.34662811 -1.6888034e-19)
(99.828806 -1.0102325 -1.5090265e-18)
(99.527634 -1.7898887 3.2607922e-17)
(99.247791 -2.7121782 4.4417516e-18)
(98.505326 -3.352304 2.9379411e-19)
(97.868551 -4.4770264 -6.4667103e-18)
(96.638994 -5.0710891 7.2127721e-17)
(95.38168 -6.7261258 1.9288486e-16)
(93.331242 -8.1501059 1.5248439e-16)
(99.878768 -0.30746181 2.3795545e-17)
(99.830685 -0.87564158 -2.657737e-17)
(99.496701 -1.6426733 3.4168233e-17)
(99.227571 -2.47335 1.9340671e-20)
(98.437724 -3.1421613 -4.1026934e-17)
(97.694741 -4.1940141 -1.2639582e-17)
(96.367151 -4.7802364 -5.6836952e-17)
(95.127353 -6.6702706 -9.1000007e-17)
(92.904124 -8.0533572 -4.5149073e-16)
(99.885109 -0.27003464 0)
(99.805004 -0.74288326 0)
(99.518317 -1.4686158 -5.9238781e-17)
(99.174111 -2.295296 -6.8454177e-17)
(98.37791 -2.8415636 0)
(97.664167 -3.9447789 -9.2303258e-17)
(96.036165 -4.3818609 -7.8053183e-18)
(94.696769 -6.5242026 -5.5056439e-18)
(92.14465 -7.6712887 5.5989253e-16)
(99.886213 -0.22074831 0)
(99.810416 -0.63907841 -1.6233732e-18)
(99.504208 -1.29343 1.8271823e-18)
(99.209272 -2.0669433 6.6907138e-17)
(98.307088 -2.5922833 -4.9493141e-18)
(97.584043 -3.6390422 1.9712186e-16)
(95.8926 -4.0383602 0)
(94.43 -6.3954482 0)
(91.536136 -7.3588202 2.6082249e-16)
(99.894393 -0.18175449 4.6195611e-17)
(99.81382 -0.5274071 0)
(99.532132 -1.1422671 0)
(99.183002 -1.8512089 0)
(98.308652 -2.3209849 0)
(97.5024 -3.347589 -9.8714676e-17)
(95.651843 -3.5735779 -1.0650066e-16)
(93.998179 -6.183231 1.547433e-16)
(90.389774 -6.7513182 5.2203201e-18)
(99.903702 -0.14260072 -4.5489422e-17)
(99.825117 -0.43642779 -1.5785289e-18)
(99.555567 -0.9776584 -1.7746101e-18)
(99.207776 -1.6364101 4.0307634e-18)
(98.309623 -2.0617374 1.5562923e-16)
(97.469802 -3.0500864 1.7585256e-16)
(95.595083 -3.2077348 3.4029694e-16)
(93.648713 -5.8929555 -1.5187574e-16)
(89.563443 -6.2372084 -4.4943165e-16)
(99.916731 -0.10983141 0)
(99.930163 -0.08186931 8.5574177e-17)
(99.944969 -0.060175125 -8.4877849e-17)
(99.956849 -0.041336006 8.1764545e-17)
(99.968813 -0.028946585 -7.9919552e-17)
(99.976481 -0.017004712 1.6016571e-16)
(99.984182 -0.01169881 -1.5547311e-16)
(99.985748 -0.0077405187 0)
(99.993098 -0.0060277395 0)
(99.833727 -0.35816785 0)
(99.846593 -0.28918003 1.4772884e-18)
(99.857825 -0.22772397 0)
(99.873591 -0.17911494 4.2194031e-18)
(99.886066 -0.13453123 8.6498755e-17)
(99.90353 -0.10401649 -2.5870609e-16)
(99.920445 -0.070065087 1.6756025e-16)
(99.939441 -0.059851231 -2.5601137e-18)
(99.968748 -0.030254663 1.6226259e-16)
(99.581971 -0.83535255 1.064853e-16)
(99.6118 -0.71208486 -2.1024405e-16)
(99.650268 -0.60025258 2.0150042e-16)
(99.681073 -0.5087806 -6.0419535e-18)
(99.723316 -0.42052781 -9.5545731e-17)
(99.755531 -0.3609538 -2.9158669e-18)
(99.802342 -0.28469161 0)
(99.808798 -0.24032639 5.53911e-18)
(99.851837 -0.19075894 -2.701402e-18)
(99.218605 -1.432623 1.1098097e-16)
(99.251445 -1.2168777 -2.2590092e-16)
(99.287806 -1.024471 2.1576935e-16)
(99.323649 -0.84862578 -1.0473672e-16)
(99.371749 -0.67454051 -6.5936365e-18)
(99.40706 -0.5170841 3.1880972e-18)
(99.472444 -0.38821684 0)
(99.502034 -0.25111744 -3.0173316e-18)
(99.607471 -0.1739043 1.8226536e-16)
(98.342338 -1.761376 -1.2496993e-16)
(98.369655 -1.5061356 0)
(98.434222 -1.2581213 -1.1714454e-16)
(98.498956 -1.0309026 1.2076356e-16)
(98.599125 -0.86672996 -1.0979962e-16)
(98.68613 -0.68951181 1.1344242e-16)
(98.818294 -0.60753141 0)
(98.876334 -0.43862851 0)
(98.978265 -0.36277849 6.4506306e-18)
(97.424527 -2.7212734 -1.5337432e-16)
(97.411421 -2.2979599 -1.4808561e-16)
(97.390806 -1.9828356 1.4234896e-16)
(97.46079 -1.5199917 1.3747679e-16)
(97.513249 -1.2412718 -1.3254255e-16)
(97.642939 -0.78578881 0)
(97.760589 -0.52159683 2.4739703e-16)
(97.935414 -0.10484789 -1.5691275e-19)
(98.062605 0.061552376 -4.6296482e-16)
(95.369573 -2.7068798 -1.8056124e-16)
(95.349727 -2.0644534 0)
(95.210518 -1.6153435 0)
(95.354872 -1.0727577 5.118263e-18)
(95.407251 -0.73304142 0)
(95.625337 -0.21905637 0)
(95.722831 0.095494801 0)
(96.016958 0.55274113 0)
(96.190779 0.78176505 0)
(93.096725 -5.5301074 7.1205419e-18)
(92.513471 -4.5032949 0)
(92.031159 -3.6548523 6.5875732e-18)
(91.742333 -2.2506951 -1.2242762e-17)
(91.704699 -1.4301509 -1.8591655e-16)
(91.856305 -0.096794217 -1.7749004e-16)
(92.188712 0.54851063 3.3973833e-16)
(92.590091 1.7141258 3.2983954e-16)
(93.067489 2.0851116 -3.1207535e-16)
(87.518404 -5.1310637 8.677845e-16)
(85.423168 -2.3614588 -5.3159117e-16)
(84.081558 -0.7125398 5.210556e-16)
(83.980585 2.4178602 -4.869342e-16)
(84.491729 4.3239249 -7.0111895e-16)
(85.328099 6.9371365 1.3224603e-15)
(86.222935 7.9794183 -8.3589903e-16)
(87.375672 9.9089164 -3.9813747e-16)
(88.251876 10.466596 3.7464385e-16)
(99.984472 -0.014700294 -2.1451383e-19)
(99.984398 -0.035782631 2.1983759e-16)
(99.984901 -0.040149712 -6.0434665e-21)
(99.983501 -0.051400312 -2.227711e-16)
(99.979296 -0.066412912 2.1836369e-19)
(99.971388 -0.070876028 2.2451204e-16)
(99.96982 -0.091898405 -2.2457107e-16)
(99.97167 -0.10013523 -2.1890703e-19)
(99.975818 -0.10772573 -1.127404e-16)
(99.974738 -0.025183792 -2.3162327e-16)
(99.970456 -0.026510454 2.3368257e-16)
(99.96579 -0.022547259 -2.3453428e-16)
(99.95117 -0.012768966 0)
(99.951787 0.0051394418 2.3762483e-16)
(99.932643 0.033944695 4.7784703e-19)
(99.947611 0.058618085 6.9706451e-19)
(99.938932 0.1078157 -2.3954754e-16)
(99.978097 0.13633225 1.208318e-16)
(99.840995 -0.15639743 2.4934117e-16)
(99.800685 -0.14501825 -2.4968457e-16)
(99.776946 -0.12966516 -2.5209418e-16)
(99.720824 -0.099486976 2.5270418e-16)
(99.726807 -0.053427263 -2.5547049e-16)
(99.683462 0.0089884488 2.5460583e-16)
(99.714371 0.065979398 -2.5788337e-16)
(99.689417 0.13892121 -4.892974e-19)
(99.714615 0.23177361 2.5868318e-16)
(99.607847 -0.060413311 -2.6630635e-16)
(99.639084 0.048429545 -1.0483578e-18)
(99.575855 0.11339485 1.0596466e-18)
(99.555247 0.20915798 0)
(99.505921 0.28148871 -6.7936764e-21)
(99.527068 0.40916313 -2.7333634e-16)
(99.498434 0.51151713 2.7788614e-16)
(99.557998 0.67973812 1.0884612e-18)
(99.54493 0.80624399 1.0938009e-18)
(99.030105 -0.18223423 -1.1251203e-18)
(98.907851 -0.057806431 -2.9147596e-16)
(98.901778 0.089296518 -1.5138563e-18)
(98.736047 0.23506175 2.9485896e-16)
(98.785568 0.40614892 2.981572e-16)
(98.64999 0.61787848 -2.9964285e-16)
(98.76977 0.81584664 -1.1670142e-18)
(98.654493 1.0835033 -1.173507e-18)
(98.824656 1.2914117 -1.1799026e-18)
(98.265671 0.39965334 3.1681332e-16)
(98.136598 0.73612563 0)
(98.210831 0.96079006 0)
(98.053818 1.2736584 3.2253164e-16)
(98.18386 1.5085201 -3.2686114e-16)
(98.06715 1.8794773 -3.2934822e-16)
(98.274112 2.1333173 6.5984469e-16)
(98.181702 2.5615615 8.6460004e-20)
(98.465346 2.8081583 -6.6773243e-16)
(96.455799 1.1962387 -1.4093978e-18)
(96.344458 1.6818957 0)
(96.466544 1.9671769 1.4267276e-18)
(96.308462 2.4031553 3.6338287e-16)
(96.484565 2.7168914 -3.6564777e-16)
(96.381395 3.2164867 3.6805051e-16)
(96.636851 3.5381389 -3.6886071e-16)
(96.656977 4.0670216 -1.4610464e-18)
(96.921548 4.4061739 3.7283113e-16)
(93.538995 2.8875513 -4.0222848e-16)
(93.884851 3.7872753 4.0759418e-16)
(94.246437 4.2353559 -4.1071085e-16)
(94.610227 5.0586058 4.0859375e-16)
(95.022028 5.5075253 -4.0786284e-16)
(95.559921 6.1680536 -2.8066622e-19)
(96.075648 6.6137306 4.1357576e-16)
(96.59043 7.2283057 3.2324116e-18)
(97.17155 7.5094273 2.0666226e-16)
(89.520844 11.617089 0)
(90.062823 12.488048 -4.6305126e-16)
(91.168045 13.451092 3.6267729e-18)
(91.684652 13.986521 5.5662601e-18)
(92.906893 14.635745 9.240419e-16)
(93.483366 14.730338 -4.6169398e-16)
(94.746846 14.788897 -4.5990157e-16)
(95.314744 14.295393 4.6167812e-16)
(96.630473 13.584666 2.3140089e-16)
(97.106201 12.386178 -2.7038892e-16)
(97.645336 11.454529 0)
(97.870793 10.647772 2.6938142e-16)
(98.042836 10.103344 -2.693856e-16)
(97.720504 9.3177639 0)
(97.349746 8.9285498 0)
(96.506398 8.4972275 0)
(95.733114 8.4752825 -2.8169065e-16)
(94.79547 8.5184991 2.8168643e-16)
(97.601156 7.9879866 -2.3540018e-16)
(97.979578 8.5157273 0)
(98.233536 8.7556007 0)
(98.600317 9.0133691 0)
(98.751129 9.1088247 0)
(98.949502 9.3728962 0)
(98.880254 9.5924414 0)
(99.002474 10.028598 2.3558373e-16)
(98.737746 10.349375 -4.7271496e-16)
(96.900893 4.8841275 -2.1058612e-19)
(97.190193 5.3042286 -4.0978911e-16)
(97.148266 5.6984311 0)
(97.440014 6.1036955 -2.0469463e-16)
(97.443009 6.5010741 2.0468148e-16)
(97.789066 6.8267831 0)
(97.754952 7.1706887 0)
(98.070761 7.4783695 0)
(97.9851 7.8699109 0)
(98.394893 3.282981 3.5930941e-16)
(98.7293 3.5977067 0)
(98.62692 4.0704904 1.796033e-16)
(98.99947 4.4236076 -3.591598e-16)
(98.873107 4.9294863 1.7955046e-16)
(99.256885 5.2885932 0)
(99.139195 5.8309975 0)
(99.564337 6.228222 0)
(99.430303 6.8152585 1.7923584e-16)
(98.716541 1.6111317 0)
(98.928855 1.8506434 3.2092587e-16)
(98.831168 2.2099901 -4.8136803e-16)
(99.084314 2.4453894 1.604421e-16)
(99.023644 2.8568055 1.6031669e-16)
(99.332257 3.084697 -1.1342909e-19)
(99.321682 3.5408801 -3.2032265e-16)
(99.68591 3.7809196 3.2003246e-16)
(99.673988 4.2597119 -1.5985653e-16)
(99.648172 1.0132973 0)
(99.649331 1.1773896 1.4491075e-16)
(99.806974 1.4258127 -1.4491075e-16)
(99.786335 1.6460618 0)
(99.987271 1.9118868 -2.8946495e-16)
(99.956281 2.231243 2.8946818e-16)
(100.23405 2.4504783 1.4440087e-16)
(100.19883 2.8823322 -2.886412e-16)
(100.54203 3.1433201 1.4430648e-16)
(99.764406 0.29285551 0)
(99.748677 0.42485092 0)
(99.865249 0.50997512 0)
(99.862748 0.68899461 -1.3253694e-16)
(100.01923 0.77029033 2.648706e-16)
(100.04706 0.99711942 -2.6464279e-16)
(100.27674 1.0992526 1.3228674e-16)
(100.31934 1.3860335 -1.3191215e-16)
(100.59782 1.4857994 2.635899e-16)
(99.981832 0.20742394 -2.4508614e-16)
(100.04928 0.23999949 5.4744567e-20)
(100.06476 0.33474577 1.2246144e-16)
(100.16775 0.3733277 -1.2228158e-16)
(100.20013 0.51038766 1.2232745e-16)
(100.34197 0.55210373 0)
(100.40067 0.72941555 1.2192436e-16)
(100.58856 0.76471061 -2.4366323e-16)
(100.71058 0.99510082 1.2176363e-16)
(99.981297 -0.10936631 2.1863048e-20)
(99.998498 -0.11701542 1.1390135e-16)
(100.02053 -0.10153399 1.1390279e-16)
(100.06334 -0.11333189 -1.1402321e-16)
(100.10346 -0.079122585 0)
(100.18626 -0.084620371 0)
(100.2487 -0.028357997 -1.1374009e-16)
(100.36411 -0.045780775 2.2733835e-16)
(100.44614 0.01818121 -1.1361674e-16)
(100.62435 0.025641985 0)
(100.74154 0.091744217 -1.1298566e-16)
(101.0035 0.11588625 2.9431489e-19)
(101.17589 0.19637237 3.4230335e-19)
(101.51975 0.25641042 3.8573573e-19)
(101.77021 0.3387641 1.1199815e-16)
(102.18087 0.41197376 1.1108049e-16)
(102.52044 0.51271728 -1.110805e-16)
(103.02809 0.60881627 0)
(100.90059 1.0324409 0)
(101.17755 1.2482915 0)
(101.33531 1.3829263 -1.2059388e-16)
(101.72288 1.5419649 4.0623139e-19)
(101.92484 1.7583749 4.5719351e-19)
(102.41656 1.877154 1.1975275e-16)
(102.6651 2.1788136 1.1867934e-16)
(103.2585 2.2598477 -1.1867933e-16)
(103.58659 2.6648514 0)
(100.67619 1.8235192 -1.3170644e-16)
(101.02319 1.9297951 0)
(101.13055 2.3275453 0)
(101.55805 2.440465 -1.3044295e-16)
(101.70313 2.9112758 2.6049798e-16)
(102.21493 3.034818 -4.7259395e-19)
(102.40366 3.5953795 -5.22725e-19)
(103.0142 3.7173994 -1.2904346e-16)
(103.2364 4.3426897 0)
(100.58828 3.4617753 -1.4380934e-16)
(100.9302 3.9294401 1.438093e-16)
(101.0775 4.1964628 0)
(101.39846 4.7326829 0)
(101.65115 4.9999558 1.4237334e-16)
(101.99538 5.6431261 -1.4237332e-16)
(102.3412 5.9108448 1.4136094e-16)
(102.71034 6.6281558 -7.0980337e-17)
(103.21323 6.9021855 -7.0368798e-17)
(100.12186 4.535719 -1.5945638e-16)
(100.10044 5.0809318 1.5951227e-16)
(100.57518 5.3811575 0)
(100.56134 5.9876741 0)
(101.11627 6.3362887 0)
(101.09669 7.0358164 0)
(101.69052 7.397468 0)
(101.7248 8.1943064 0)
(102.35205 8.5996036 0)
(99.884622 7.2386745 -1.7924465e-16)
(99.744952 7.8656952 1.7903916e-16)
(100.22849 8.3219931 -1.7905078e-16)
(100.07554 8.9834454 1.7880056e-16)
(100.58785 9.4746262 -1.7878764e-16)
(100.42136 10.19944 0)
(100.98049 10.729063 0)
(100.80912 11.522109 0)
(101.43713 12.105981 0)
(98.315301 8.2557092 0)
(98.178795 8.7003558 -2.0549491e-16)
(98.510608 9.134249 2.054933e-16)
(98.311143 9.6356252 0)
(98.665503 10.137329 2.0657272e-16)
(98.425111 10.69386 -2.0655769e-16)
(98.80977 11.29809 0)
(98.480945 11.913647 1.0379989e-16)
(98.862053 12.610795 -2.0763761e-16)
(98.702272 10.984171 2.3680973e-16)
(98.323252 11.445597 2.3905419e-16)
(98.371591 12.076283 -2.3905202e-16)
(98.000073 12.592874 2.4152974e-16)
(97.996552 13.348436 -4.8433684e-16)
(97.500512 13.81311 4.8684331e-16)
(97.426677 14.388826 -4.8902546e-16)
(96.890951 14.747468 2.4503086e-16)
(96.803345 15.319953 0)
(94.038338 8.9274878 -2.880506e-16)
(93.151231 9.3257639 2.8804754e-16)
(92.358296 10.009457 0)
(91.461752 10.070273 0)
(90.807799 9.7726047 0)
(90.364681 9.3307678 0)
(90.426066 9.0185582 0)
(90.206592 8.6557433 -1.5367332e-16)
(90.054997 8.7204322 1.5279795e-16)
(89.279224 8.749728 1.5526333e-16)
(96.067122 15.783572 0)
(98.426575 13.316012 1.0388579e-16)
(101.24851 12.989987 0)
(102.38049 9.4814517 0)
(103.51138 7.7434048 0)
(103.9689 4.5145131 6.3562534e-17)
(104.29096 2.6749235 5.8302967e-17)
(103.48314 0.72837418 5.4609776e-17)
(88.893332 9.7258517 -1.5598383e-16)
(95.906842 16.492222 0)
(98.83113 14.08239 0)
(101.94753 13.634569 8.8325918e-17)
(103.12264 9.936996 0)
(104.27586 8.028173 -6.9242693e-17)
(104.22259 5.1657191 -1.267502e-16)
(104.67507 3.1331866 -1.1619998e-16)
(104.08651 0.83443507 -1.0883165e-16)
(87.264297 10.656478 0)
(94.98276 17.581093 0)
(98.334628 14.912134 1.0408806e-16)
(101.74594 14.63267 -8.8322894e-17)
(103.15362 10.926142 0)
(104.48508 8.9472277 6.9202749e-17)
(105.1022 5.4951981 6.3174147e-17)
(105.54785 3.2165413 5.7889752e-17)
(104.68024 0.96957538 5.4221864e-17)
(86.521439 12.711986 1.6175781e-16)
(94.957267 18.670773 0)
(98.803344 15.75795 -2.081888e-16)
(102.54086 15.341534 0)
(103.94715 11.377383 0)
(105.4332 9.2083724 -6.8216394e-17)
(105.42584 6.0459894 -6.2249825e-17)
(105.98917 3.6644233 0)
(105.40567 1.0945689 -5.3312854e-17)
(84.892937 13.323007 -1.6174895e-16)
(93.9324 20.099261 -1.257432e-16)
(98.30594 16.909294 1.0408675e-16)
(102.3346 16.501273 0)
(104.11139 12.518055 0)
(105.73984 10.256585 6.8255723e-17)
(106.40853 6.5346072 6.2249798e-17)
(107.01789 3.8213513 0)
(106.13589 1.2523445 5.3312847e-17)
(84.302806 14.839795 0)
(93.996294 21.207955 1.2574832e-16)
(98.841582 17.858992 -1.0386645e-16)
(103.25099 17.259828 0)
(104.93999 12.990762 0)
(106.74847 10.488458 -6.7035768e-17)
(106.84873 7.0088927 -6.1131814e-17)
(107.54262 4.2367901 0)
(106.99829 1.3863138 -5.2210244e-17)
(82.717125 15.053201 0)
(93.103449 22.845869 0)
(98.363592 19.320094 1.0386634e-16)
(103.10407 18.634462 -4.3038936e-17)
(105.1722 14.244144 -3.7685324e-17)
(107.23936 11.648448 1.002009e-16)
(107.92855 7.6766767 9.1375704e-17)
(108.74238 4.4652494 0)
(107.87542 1.5573695 7.8002948e-17)
(81.94375 16.925802 0)
(93.170323 24.057324 -6.3149809e-17)
(99.007419 20.363031 0)
(104.13819 19.405867 4.3026774e-17)
(106.173 14.750035 3.7665086e-17)
(108.21346 11.86409 -3.9333135e-19)
(108.50433 8.0621591 -6.0131947e-17)
(109.35006 4.9270381 0)
(108.86782 1.6942808 -2.5792707e-17)
(79.72572 16.82342 -8.4022184e-17)
(92.279388 26.195221 6.3134517e-17)
(98.583721 22.30164 0)
(104.15228 21.113577 0)
(106.47622 16.274811 0)
(109.07118 13.133794 -6.5108245e-17)
(109.71922 8.803423 3.8863882e-19)
(110.69997 5.1601627 0)
(109.88843 1.8735077 0)
(111.26743 2.0324426 0)
(111.41176 5.617679 0)
(110.39113 9.1998177 -1.391335e-18)
(109.92515 13.356445 3.3940157e-17)
(107.67533 16.587056 0)
(105.33102 21.749308 -5.3399191e-18)
(99.521954 23.225833 -5.2418608e-19)
(92.501716 27.800632 -5.2488745e-17)
(79.51469 19.113017 1.5789557e-16)
(112.54461 2.1368673 -1.2259219e-17)
(112.92395 5.7578375 -1.6712107e-18)
(111.87121 9.7882338 1.4841927e-17)
(111.0455 14.44802 -5.3382925e-20)
(108.22864 18.061722 -1.5639401e-17)
(105.64252 23.463779 2.0283828e-17)
(99.544591 25.350325 -6.4753822e-18)
(91.730404 30.68509 6.8154017e-17)
(77.966268 24.235948 -8.101343e-17)
(113.86393 2.2244129 2.4519845e-17)
(113.74221 6.1249591 0)
(112.69656 10.121931 2.8840769e-17)
(112.11904 14.597796 -1.5618395e-17)
(109.69417 18.233576 1.5823803e-17)
(107.18339 23.959208 -3.8322794e-17)
(101.20691 26.094559 -3.0997649e-17)
(93.424527 32.094739 1.5547138e-17)
(80.102338 27.476875 2.0138512e-18)
(115.29616 2.3180018 -1.2281256e-17)
(115.46257 6.326972 -1.648018e-18)
(114.37395 10.818375 -1.2689394e-17)
(113.29389 15.845229 1.783504e-17)
(110.62246 19.851609 6.640444e-18)
(107.82691 25.80852 2.0554062e-17)
(101.74744 28.391044 2.496768e-17)
(93.622421 34.909362 8.2424296e-18)
(80.176227 32.105005 -9.4373345e-18)
(116.84227 2.4191222 2.9598046e-18)
(116.4098 6.5654628 -3.1995347e-18)
(115.40283 10.932345 -1.7831909e-18)
(114.71408 15.797626 5.7779144e-18)
(112.23002 19.880851 -6.7081436e-18)
(109.63845 26.112413 -7.4666956e-18)
(103.79372 28.883443 -6.432455e-18)
(95.828551 35.933174 7.2641097e-18)
(82.784657 33.681752 -1.1205496e-17)
(118.47604 2.5217711 -2.9948698e-18)
(118.36155 6.8954584 3.2379994e-18)
(117.20426 11.807969 -1.7639076e-18)
(115.88777 17.182378 -1.6084923e-20)
(113.41318 21.522518 -2.1510743e-18)
(110.52315 27.990916 5.0680986e-18)
(104.67416 31.207553 -6.3803595e-18)
(96.400365 38.605303 7.2228148e-18)
(83.280499 37.319893 0)
(120.18719 2.6170611 -2.8622891e-18)
(119.43128 7.0371767 -1.5907659e-18)
(118.42205 11.715696 -1.6967948e-18)
(117.61355 16.912914 -1.940389e-18)
(115.24879 21.365616 -2.1444274e-18)
(112.44166 28.098091 5.1663476e-18)
(106.85128 31.460898 -1.2090759e-17)
(98.763601 39.333844 1.5262207e-17)
(85.97989 38.330597 -9.3642305e-18)
(121.97361 2.7010703 8.5051626e-18)
(121.5768 7.4288277 6.1240542e-18)
(120.38935 12.629756 8.4684035e-18)
(118.91535 18.364155 9.2620427e-18)
(116.56743 23.027257 6.5077132e-18)
(113.58226 29.954998 -2.4037217e-18)
(108.0552 33.755249 -6.2230216e-18)
(99.69155 41.97395 -9.415953e-19)
(86.940306 41.824309 -1.0364755e-17)
(123.84426 2.7707588 -1.6637458e-17)
(122.74383 7.4923013 -6.200558e-18)
(121.69362 12.448515 -2.1700712e-17)
(120.70957 17.91692 -5.6656772e-18)
(118.50918 22.656544 1.440641e-17)
(115.57957 29.830249 7.3655788e-18)
(110.29722 33.752777 -3.462048e-17)
(102.26662 42.393905 6.9776172e-18)
(89.648845 42.679084 2.0201334e-17)
(91.289413 46.340759 -1.9733129e-17)
(103.51596 44.958161 7.8015824e-18)
(111.85001 35.957353 5.1262949e-17)
(116.99448 31.618426 -7.2203778e-18)
(120.04658 24.269597 3.5308636e-18)
(122.29084 19.336679 1.0608579e-17)
(123.84785 13.313786 1.5035061e-17)
(125.0584 7.8722471 -7.432764e-19)
(125.79571 2.8256061 2.2455542e-17)
(93.684395 46.911434 7.6353217e-17)
(106.41133 45.230101 6.7091592e-18)
(114.14502 35.640425 -7.236875e-17)
(119.03669 31.226558 -2.277599e-18)
(121.99054 23.70067 -1.4447471e-17)
(124.10372 18.761378 -1.2707194e-17)
(125.29303 12.932856 -2.6897208e-17)
(126.33095 7.9078739 0)
(127.82682 2.8647754 -1.0805618e-17)
(96.09916 49.940662 -9.7787351e-17)
(107.97587 47.658 6.6937272e-17)
(116.05184 37.67927 3.8918462e-17)
(120.7218 32.885636 -2.2260332e-18)
(123.73489 25.193458 3.1033669e-17)
(125.86692 20.108297 3.5970936e-20)
(127.51514 13.887798 4.1379431e-18)
(128.71822 8.2795523 2.0966598e-17)
(129.92794 2.8880964 2.0060256e-17)
(97.895804 50.559346 -1.8894697e-17)
(111.06094 47.744435 1.0472963e-17)
(118.38488 37.002156 -5.4941298e-18)
(122.75591 32.214422 0)
(125.69061 24.407736 -3.1525781e-17)
(127.73369 19.369401 0)
(129.08239 13.28908 2.3471891e-17)
(130.19128 8.2794688 -4.3073797e-17)
(132.09599 2.8933554 -9.6721482e-19)
(101.12809 52.649131 -8.4405829e-18)
(112.98232 49.862327 -5.1408251e-17)
(120.52996 38.734388 5.2850202e-18)
(124.65916 33.676418 0)
(127.60626 25.767252 -3.1180053e-17)
(129.62091 20.66113 2.5856199e-17)
(131.46951 14.18304 1.4951124e-18)
(132.58187 8.5732034 4.3163813e-17)
(134.31769 2.8853281 -1.9572289e-17)
(102.78997 53.592244 -8.0341581e-17)
(116.19995 49.633856 -4.068622e-17)
(123.06611 37.880075 -2.6372458e-19)
(126.61352 32.738738 -4.203082e-18)
(129.53592 24.785362 -3.8057913e-19)
(131.50652 19.765794 -5.1259796e-17)
(133.02558 13.495279 1.4489068e-18)
(134.18334 8.5853201 -2.1384977e-17)
(136.58746 2.8533836 0)
(106.44172 55.229617 5.5207854e-17)
(118.4064 51.241221 6.0033535e-17)
(125.1047 38.98726 -1.8860064e-19)
(128.64783 33.963355 -4.0406717e-18)
(131.57176 25.996484 2.7205417e-17)
(133.50821 20.970496 2.7029998e-17)
(135.51725 14.219195 1.3815013e-18)
(136.6598 8.8247031 -1.2658795e-18)
(138.89457 2.8010559 0)
(108.49474 55.754007 0)
(121.81118 50.661944 -5.3346898e-18)
(127.80545 37.952347 4.5480613e-18)
(130.50471 32.79986 -5.7647052e-17)
(133.47362 24.848682 -1.701346e-18)
(135.38323 19.953505 4.5348154e-17)
(137.19074 13.496889 -4.0271756e-17)
(138.30591 8.8087268 3.7652418e-17)
(141.22761 2.7253133 3.1983859e-17)
(112.54504 57.335328 1.163839e-16)
(124.18184 51.623884 8.6592042e-17)
(129.77179 38.546723 -4.2681592e-18)
(132.57216 33.828673 6.0811121e-17)
(135.51517 25.937822 -1.6323124e-18)
(137.45776 21.100115 -4.6160689e-17)
(139.52029 14.086977 4.3534069e-17)
(140.85192 9.0236807 -3.9345662e-17)
(143.56531 2.6485164 -2.180565e-18)
(146.10173 2.524317 -2.9945803e-17)
(142.55785 8.9031507 3.3237021e-17)
(141.54161 13.329702 0)
(139.33262 19.898553 -2.7109551e-18)
(137.41862 24.633482 4.9700699e-17)
(134.37026 32.413594 5.1288047e-17)
(132.45573 37.124169 0)
(128.02624 50.57883 -8.887234e-18)
(115.33899 57.484098 -1.1388701e-16)
(148.37269 2.3372699 0)
(145.18207 8.9891544 -3.4381395e-17)
(143.63657 13.694113 0)
(141.58223 20.940342 -2.6082144e-18)
(139.56545 25.540529 -9.0031541e-17)
(136.45245 33.236953 -5.5840194e-17)
(134.41776 37.061508 5.800263e-17)
(130.88857 50.594472 -6.1339438e-17)
(121.28919 58.565212 7.3875657e-17)
(150.62998 2.0797453 0)
(146.97414 8.7570258 0)
(145.90707 12.810337 -3.3646091e-17)
(143.49703 19.568667 0)
(141.55385 24.147678 4.6157663e-17)
(138.39486 31.766169 -4.8025739e-17)
(136.95331 35.318186 -5.308977e-17)
(134.88995 48.62943 -3.5084822e-18)
(125.32485 57.88013 -2.6355067e-17)
(152.87975 1.7824749 0)
(149.59804 8.7437145 0)
(147.97287 13.242862 3.4344509e-17)
(145.79932 20.545653 3.4118219e-17)
(143.54114 24.916436 4.1619511e-17)
(140.12287 32.470914 5.238592e-17)
(138.38694 34.862332 0)
(137.16935 47.425318 4.2090837e-17)
(132.89767 57.935351 -7.3128497e-17)
(155.04841 1.4694091 3.6508476e-19)
(151.39772 8.4054757 -4.0106071e-19)
(150.03839 11.931853 0)
(147.72 19.016989 -2.7519541e-18)
(145.75794 23.60217 -8.5186977e-17)
(142.15916 31.240147 2.9055057e-18)
(140.32686 33.362647 5.1681358e-17)
(140.07117 44.429654 -4.5800071e-17)
(137.87415 56.161312 2.3146029e-17)
(157.11282 1.1412038 -3.337974e-19)
(153.98379 8.375444 3.6732379e-19)
(152.43127 12.626748 0)
(149.95165 19.872003 -3.7628033e-17)
(147.60715 24.190143 4.5842238e-17)
(143.68614 31.975373 -2.8043388e-18)
(141.17605 33.039859 -5.344819e-17)
(141.05152 42.105521 0)
(146.809 54.75682 -2.074444e-17)
(159.05907 0.79582389 3.0161092e-19)
(155.76945 7.9206274 2.1586245e-17)
(154.18987 11.00754 -8.7537088e-19)
(152.13599 18.34169 2.9472117e-17)
(150.00807 22.964806 3.8318814e-17)
(145.92577 31.054876 0)
(142.6617 32.304486 0)
(142.02512 37.925714 -4.9468144e-17)
(151.04227 52.36425 0)
(161.02277 0.34148381 0)
(158.22535 7.7467121 -2.2370982e-17)
(156.65344 11.645881 0)
(154.09981 18.86497 -3.3224674e-17)
(151.83447 23.272434 -3.4851697e-17)
(147.55543 31.855519 4.0041173e-17)
(143.34523 32.467867 0)
(141.25539 35.99614 5.1302099e-17)
(158.21793 48.826492 7.9761863e-17)
(162.06758 0.11233365 0)
(159.89006 7.1539724 0)
(158.38068 9.8829286 -7.4389147e-19)
(156.57249 17.231832 -9.6722574e-19)
(154.68175 21.825557 2.0116098e-18)
(150.3523 30.962259 -4.1334904e-17)
(145.60845 33.285882 0)
(139.7927 31.902732 0)
(156.73099 40.460627 -8.4009694e-17)
(164.05143 -0.44880888 -3.8523282e-19)
(162.11752 7.0960665 -1.06369e-19)
(160.54311 10.531179 1.8318914e-17)
(157.92792 17.662707 0)
(155.89635 22.090986 0)
(151.92442 31.665221 -2.2686126e-18)
(145.25765 34.34794 -4.3033727e-17)
(136.93993 34.762712 1.9451835e-18)
(164.47487 40.290749 0)
(165.54392 -0.65950583 -3.0277786e-19)
(163.60964 7.0896397 -1.0529549e-19)
(162.14279 9.8233858 -1.6648189e-17)
(160.21928 17.628588 0)
(158.0046 23.288933 0)
(153.77321 32.833709 1.9553615e-18)
(145.94862 35.50225 1.1800737e-16)
(138.36506 34.706347 -1.7699067e-18)
(162.20687 36.275278 -2.4047657e-16)
(167.06597 -0.55013837 0)
(165.5046 6.7620135 1.8502029e-17)
(163.96667 10.289503 0)
(161.57835 18.277907 1.1131878e-18)
(159.17383 23.593223 -1.2149628e-18)
(154.87394 33.812714 -1.7051237e-18)
(146.24078 36.451675 -1.4072881e-16)
(137.49461 32.911001 1.5844299e-18)
(149.72834 31.928336 2.2761152e-16)
(168.24485 -0.61202076 5.5085063e-18)
(166.75875 6.7544538 -1.7736307e-17)
(165.75682 9.6270821 1.8415827e-17)
(163.7836 17.959152 2.5794976e-17)
(161.23761 24.82787 -3.3170706e-17)
(156.37739 35.385669 3.6182251e-17)
(145.16314 37.018881 6.8053424e-17)
(133.55221 32.578716 9.720219e-17)
(132.31461 35.57311 0)
(168.9137 -1.122089 -8.3729312e-18)
(168.47386 6.185746 9.7636199e-18)
(167.18351 9.8418933 -1.7814947e-17)
(165.13323 18.560962 -4.4999252e-18)
(162.37556 25.129278 3.1773972e-17)
(156.61233 36.238543 -5.443278e-18)
(144.08038 37.306181 0)
(127.37825 28.310372 -9.3902649e-17)
(103.81812 48.522775 0)
(169.66244 -1.1765191 3.0552151e-18)
(169.52982 5.829346 -9.4020713e-18)
(169.04828 9.124804 9.5867336e-18)
(167.42199 18.171418 -2.0156038e-17)
(164.42618 26.364165 -7.4748106e-19)
(158.04605 37.876601 -2.8493923e-17)
(142.01357 39.483832 5.6047458e-17)
(119.27611 29.165704 5.4419112e-17)
(77.234267 50.392292 1.7223186e-16)
(170.51019 -1.2473798 -3.6432908e-19)
(171.06985 5.1108458 1.0974466e-19)
(170.38493 9.110513 -8.9663679e-18)
(168.86133 18.487983 4.4887198e-19)
(165.61509 26.478213 -4.8416236e-19)
(158.19321 38.571937 -1.8701011e-17)
(138.11325 39.277172 -1.1035939e-16)
(107.35375 22.896306 -5.0961983e-17)
(31.798471 11.680168 -1.6337323e-16)
(170.78859 -1.8080487 1.2906613e-20)
(171.70932 4.5781419 -1.3744029e-20)
(172.00423 8.1197774 1.2947915e-18)
(171.20322 17.899121 5.0792968e-18)
(167.69198 27.565709 -9.8373179e-18)
(159.29159 40.467008 3.0919154e-17)
(132.74517 41.036497 1.0757565e-16)
(86.293657 14.649438 3.0993469e-17)
(-22.363916 -30.881173 1.7986951e-16)
(170.75149 -2.1147285 -4.5351636e-18)
(173.0211 3.6139865 1.6601591e-20)
(173.36928 8.107162 -3.3337469e-18)
(172.73449 17.818872 -4.9254039e-18)
(169.02418 27.585901 9.2619497e-18)
(158.50654 41.126033 -1.3174497e-17)
(122.47278 39.782432 -5.1675291e-17)
(54.391354 5.8117348 -2.9051024e-17)
(-24.964713 -25.670778 -1.714432e-16)
(-27.047616 -21.866343 -2.8540529e-16)
(29.553002 -12.325629 -8.2151499e-19)
(115.26455 41.823977 -6.3254589e-19)
(158.71388 42.368581 5.3988559e-19)
(170.75263 28.38924 0)
(174.88134 16.955819 4.7640642e-20)
(174.48181 6.7576674 7.3162057e-18)
(173.50856 2.769045 5.6941639e-18)
(170.55539 -2.4556648 9.9925398e-18)
(-26.578362 -20.773254 2.7531189e-16)
(6.1726894 -28.309981 0)
(105.24021 40.240581 0)
(158.31052 43.284441 8.6326928e-19)
(172.30737 27.690574 0)
(176.22028 16.124337 -1.7095925e-17)
(175.53568 6.3460738 -2.1388902e-17)
(174.31002 1.4934178 -5.41395e-18)
(170.13957 -2.7658491 7.0002533e-18)
(-26.158133 -20.536642 9.4757059e-19)
(-12.871335 -37.946344 -7.633478e-19)
(92.67461 39.334932 0)
(157.34748 43.654157 -8.4143381e-19)
(173.79389 28.062831 0)
(178.23495 15.094418 1.6907608e-17)
(176.4459 4.8701624 1.5630637e-17)
(174.60419 0.57358383 1.9482385e-19)
(169.48218 -3.0272168 -1.2363315e-17)
(-23.845334 -18.970916 4.7780765e-16)
(-16.508014 -34.932903 1.5430563e-17)
(79.854318 36.246752 -5.3343636e-19)
(155.95852 43.687197 0)
(175.16561 26.928664 -2.8345732e-17)
(179.35885 13.988214 0)
(177.19748 4.2235686 -1.7858206e-19)
(174.86833 -0.76765891 2.3121854e-19)
(168.60611 -3.2553602 -6.1880182e-20)
(-21.077075 -17.769134 -4.603067e-16)
(-11.621625 -23.177743 -1.3386848e-17)
(65.280928 33.328818 -1.0165025e-16)
(153.83382 44.30447 2.7028526e-19)
(176.43732 27.032385 -1.0263032e-17)
(181.2832 12.666278 0)
(177.95928 2.5577307 -2.9639643e-17)
(174.90757 -1.715752 0)
(167.53218 -3.4556514 0)
(-19.699478 -15.766641 9.0161506e-19)
(-4.6328445 -11.966231 -1.9225582e-18)
(55.0857 30.613214 1.8288448e-16)
(151.19521 44.006145 3.6602384e-17)
(177.55005 25.768998 3.7388231e-17)
(182.01974 11.32056 4.8667491e-17)