/*--------------------------------*- C++ -*----------------------------------*\
  =========                 |
  \\      /  F ield         | OpenFOAM: The Open Source CFD Toolbox
   \\    /   O peration     | Website:  https://openfoam.org
    \\  /    A nd           | Version:  11
     \\/     M anipulation  |
\*---------------------------------------------------------------------------*/
FoamFile
{
    format      ascii;
    class       surfaceScalarField;
    location    "5.1";
    object      phi;
}
// * * * * * * * * * * * * * * * * * * * * * * * * * * * * * * * * * * * * * //

dimensions      [0 3 -1 0 0 0 0];

internalField   nonuniform List<scalar> 
10792
(
0.07136375
-0.044020519
-0.071942041
0.04459881
0.070754046
-0.041977461
0.042587165
0.070040641
-0.039912372
0.040625776
0.069279467
-0.037649397
0.038410571
0.068434704
-0.035502342
0.036347105
0.067541588
-0.033074174
0.033967289
0.066756174
-0.031006285
0.031791699
0.065821604
-0.028532653
0.029467223
0.065054985
-0.026202215
0.026968834
0.064265159
-0.023844723
0.024634549
0.063454466
-0.021249003
0.022059696
0.062839012
-0.018882902
0.019498356
0.062176497
-0.016380997
0.017043512
0.061665224
-0.013837093
0.014348366
0.061234513
-0.011373119
0.01180383
0.060827868
-0.0088833194
0.0092899636
0.060590256
-0.0062428534
0.0064804651
0.060400538
-0.0038660804
0.0040557981
-0.0012750857
0.060519259
0.0011563641
0.075351226
-0.043398956
-0.07597279
0.07470491
-0.041331145
0.073974362
-0.039181824
0.073195055
-0.036870091
0.072327572
-0.03463486
0.07158881
-0.032335412
0.07076268
-0.030180155
0.069929675
-0.027699648
0.069195382
-0.025467922
0.068312882
-0.022962223
0.067627362
-0.020563483
0.066971496
-0.018227036
0.066315114
-0.015724615
0.065867692
-0.013389672
0.065396359
-0.010901786
0.065040191
-0.0085271515
0.064858796
-0.0060614593
0.0647077
-0.0037149848
-0.0012766941
0.064709308
0.080021015
-0.042784224
-0.080635747
0.079420524
-0.040730654
0.078655145
-0.038416445
0.077899921
-0.036114867
0.077158073
-0.033893012
0.076412142
-0.031589481
0.075539791
-0.029307805
0.074731596
-0.026891453
0.073869111
-0.024605437
0.073031491
-0.022124604
0.072342184
-0.019874177
0.071610922
-0.017495774
0.070988373
-0.015102066
0.070451943
-0.012853243
0.069909569
-0.010359412
0.069573238
-0.0081908205
0.069293652
-0.005781874
0.069107496
-0.0035288281
-0.0012396749
0.069070476
0.084471115
-0.042200584
-0.085054755
0.08376676
-0.040026299
0.083010862
-0.037660547
0.082345242
-0.035449247
0.081582194
-0.033129965
0.080769975
-0.030777262
0.079930425
-0.028468255
0.079132027
-0.026093056
0.078340067
-0.023813478
0.077627911
-0.021412448
0.076904266
-0.019150531
0.076194125
-0.016785634
0.075599696
-0.014507637
0.075012908
-0.012266455
0.074596547
-0.0099430506
0.074239825
-0.0078340995
0.07399029
-0.0055323388
0.073856921
-0.0033954596
-0.0012308207
0.073848067
0.089760758
-0.041676652
-0.09028469
0.089095884
-0.039361426
0.088486149
-0.037050812
0.087829396
-0.034792493
0.086999685
-0.032300255
0.086205021
-0.029982598
0.085357807
-0.027621041
0.084586895
-0.025322145
0.083788621
-0.023015203
0.082999718
-0.020623545
0.082190531
-0.018341345
0.081440974
-0.016036077
0.080799447
-0.013866111
0.080219453
-0.011686461
0.079801796
-0.0095253934
0.079417522
-0.0074498264
0.079185464
-0.0053002806
0.079045862
-0.0032558582
-0.0011911937
0.079006235
0.095143885
-0.04121953
-0.095601007
0.094403006
-0.038620547
0.093694871
-0.036342678
0.092840013
-0.033937635
0.09198508
-0.031445322
0.091191392
-0.029188911
0.090364987
-0.026794636
0.089611759
-0.024568917
0.088772129
-0.022175573
0.088042316
-0.019893733
0.087302865
-0.017601894
0.086645612
-0.015378823
0.086054518
-0.013275018
0.085522269
-0.011154212
0.085120478
-0.0091236025
0.084753313
-0.0070826612
0.084514214
-0.0050611818
0.084342404
-0.0030840488
-0.0011377336
0.084288944
0.10110497
-0.040548073
-0.10177642
0.1002797
-0.037795284
0.099630232
-0.035693207
0.098831628
-0.03313903
0.098188989
-0.030802683
0.09738398
-0.028383902
0.096549086
-0.025959742
0.095717236
-0.023737067
0.094902524
-0.021360861
0.094198646
-0.019189855
0.093466128
-0.016869376
0.092822329
-0.014735024
0.09214312
-0.012595809
0.09158368
-0.010594773
0.091082966
-0.0086228891
0.090695108
-0.0066948025
0.090446161
-0.0048122356
0.090322659
-0.002960547
-0.0011149962
0.090299922
0.10709557
-0.039636339
-0.1080073
0.10630089
-0.037000605
0.10558683
-0.03497915
0.1047235
-0.032275698
0.10401932
-0.030098511
0.10311907
-0.027483653
0.10234127
-0.025181938
0.1015112
-0.022906996
0.10078562
-0.02063528
0.10009224
-0.018496478
0.099376946
-0.016154083
0.098702382
-0.01406046
0.098008625
-0.011902053
0.097442855
-0.010029003
0.096952272
-0.0081323062
0.096616332
-0.0063588624
0.096374226
-0.0045701302
0.09625951
-0.0028458306
-0.0010396692
0.096184183
0.11402555
-0.03865026
-0.11501163
0.11336023
-0.036335282
0.11250743
-0.034126348
0.11163427
-0.031402544
0.11082335
-0.029287589
0.10993771
-0.026598016
0.10921607
-0.024460297
0.10830986
-0.022000785
0.10752644
-0.019851856
0.10672843
-0.017698475
0.1060677
-0.015493351
0.10544287
-0.013435624
0.10485052
-0.011309707
0.10435376
-0.0095322397
0.10390999
-0.0076885373
0.10358796
-0.0060368331
0.10331543
-0.0042976075
0.10317406
-0.0027044584
-0.00099002378
0.10312442
0.12112969
-0.037550729
-0.12222922
0.1203212
-0.0355268
0.11925737
-0.033062511
0.11848753
-0.03063271
0.1176511
-0.028451157
0.11690211
-0.025849026
0.11618396
-0.02374215
0.11535038
-0.021167197
0.11463798
-0.019139455
0.11380231
-0.016862808
0.11316835
-0.01485939
0.11250451
-0.01277179
0.11193012
-0.010735318
0.11133678
-0.0089388926
0.11083568
-0.0071874398
0.11046032
-0.0056614761
0.1102069
-0.004044184
0.1100927
-0.0025902649
-0.00095923036
0.11006191
0.12944126
-0.036568538
-0.13042345
0.12848892
-0.034574466
0.12743425
-0.032007836
0.12658808
-0.029786539
0.12546597
-0.027329053
0.12468485
-0.025067906
0.12383069
-0.022887987
0.1230842
-0.020420705
0.12231986
-0.018375121
0.12151294
-0.016055889
0.12081433
-0.014160774
0.12007566
-0.01203312
0.11954412
-0.010203786
0.11894556
-0.0083403335
0.11850526
-0.0067471333
0.11807801
-0.0052342262
0.11781845
-0.0037846292
0.11763031
-0.0024021276
-0.00090358102
0.11757466
0.13778442
-0.035446869
-0.13890609
0.13664871
-0.033438752
0.13562349
-0.030982617
0.13477109
-0.028934141
0.13377954
-0.026337497
0.13295152
-0.024239894
0.13191744
-0.021853901
0.1312219
-0.019725165
0.13038685
-0.01754007
0.12968151
-0.015350552
0.12893152
-0.01341078
0.12824327
-0.01134488
0.12765169
-0.0096122035
0.12706095
-0.0077495934
0.12666745
-0.0063536316
0.12625831
-0.0048250855
0.12603981
-0.0035661303
0.12584507
-0.0022073923
-0.00088994356
0.12583144
0.14711211
-0.034250441
-0.14830854
0.14581071
-0.032137353
0.14473069
-0.029902598
0.14365035
-0.0278538
0.14267505
-0.025362193
0.14173147
-0.023296314
0.14072734
-0.020849771
0.13990653
-0.018904357
0.13896083
-0.016594375
0.13831908
-0.014708798
0.13752119
-0.012612889
0.13693271
-0.010756405
0.13626119
-0.0089406844
0.1357739
-0.0072623013
0.13532425
-0.0059039838
0.13493675
-0.0044375853
0.13467333
-0.0033027035
0.13445889
-0.0019929527
-0.00079340903
0.13436235
0.15745394
-0.032951528
-0.15875285
0.15596467
-0.030648088
0.15482691
-0.028764837
0.15349397
-0.026520865
0.15245127
-0.024319487
0.15138152
-0.022226566
0.15045538
-0.019923635
0.14953495
-0.017983924
0.1486117
-0.015671128
0.14785363
-0.013950723
0.14702477
-0.011784035
0.1464171
-0.010148734
0.14572393
-0.0082475143
0.14525148
-0.0067898458
0.14473211
-0.0053846183
0.14443704
-0.0041425172
0.14414795
-0.0030136161
0.14401141
-0.0018564107
-0.00068397736
0.14390198
0.16806348
-0.031475177
-0.16953983
0.16661413
-0.029198735
0.16519739
-0.0273481
0.16370683
-0.025030301
0.16254692
-0.023159584
0.16128775
-0.02096739
0.16033679
-0.018972681
0.15925163
-0.01689876
0.1584559
-0.014875398
0.15760928
-0.013104108
0.15690873
-0.01108348
0.15623974
-0.0094797419
0.15561977
-0.007627552
0.15510369
-0.0062737631
0.15455095
-0.0048318742
0.1542204
-0.003811971
0.15386849
-0.0026617075
0.15375054
-0.0017384641
-0.00060710415
0.15367367
0.17977098
-0.029692594
-0.18155356
0.17834208
-0.027769835
0.17685668
-0.025862697
0.17553178
-0.023705402
0.17425161
-0.021879414
0.17296852
-0.019684307
0.17191489
-0.017919043
0.17078037
-0.015764246
0.16993006
-0.014025089
0.16887999
-0.012054038
0.16819095
-0.010394437
0.16741644
-0.0087052382
0.1669046
-0.0071157037
0.16632317
-0.0056923354
0.16588311
-0.0043918208
0.1654967
-0.0034255575
0.1651847
-0.0023497075
0.16501859
-0.0015723534
-0.00049919826
0.16491068
0.19221196
-0.027817423
-0.19408713
0.19048918
-0.026047065
0.18876899
-0.024142501
0.18727689
-0.022213308
0.18577629
-0.020378808
0.18449181
-0.018399833
0.18328665
-0.016713881
0.18219474
-0.014672337
0.18120304
-0.013033385
0.18020343
-0.011054431
0.17943288
-0.0096238823
0.17863563
-0.0079079884
0.17812751
-0.0066075927
0.17753703
-0.0051018557
0.17718433
-0.0040391143
0.17667213
-0.0029133583
0.17642049
-0.0020980705
0.1761575
-0.0013093595
-0.00051463367
0.17617293
0.20605493
-0.02589789
-0.20797446
0.20418244
-0.024174577
0.20244644
-0.022406504
0.20084971
-0.020616575
0.19929811
-0.018827206
0.19796028
-0.017062002
0.19662357
-0.01537717
0.19552828
-0.013577048
0.19442118
-0.01192629
0.19349957
-0.010132816
0.19260423
-0.0087285394
0.19185929
-0.0071630492
0.19125127
-0.0059995762
0.19072135
-0.0045719407
0.19028004
-0.0035978004
0.18980585
-0.0024391695
0.18949744
-0.0017896623
0.18908076
-0.0008926801
-0.00038906669
0.18895519
0.22056687
-0.023673458
-0.2227913
0.21846466
-0.022072368
0.2165467
-0.020488552
0.21474077
-0.018810645
0.21304927
-0.017135698
0.21149187
-0.01550461
0.21002233
-0.013907622
0.20878354
-0.012338264
0.20760745
-0.010750201
0.2066323
-0.0091576624
0.20565934
-0.0077555804
0.20486755
-0.0063712569
0.20415301
-0.0052850389
0.20368332
-0.0041022505
0.20324093
-0.0031554165
0.20297919
-0.0021774224
0.20270404
-0.0015145189
0.20252978
-0.00071841678
-0.00029117837
0.20243189
0.23638125
-0.021412286
-0.23864242
0.23429819
-0.019989308
0.23232267
-0.018513033
0.23042034
-0.016908314
0.22865689
-0.015372247
0.22700101
-0.013848724
0.22548433
-0.012390945
0.22411015
-0.010964082
0.2228908
-0.0095308503
0.22184464
-0.0081115033
0.22090056
-0.0068114974
0.22004382
-0.0055145242
0.21923398
-0.0044751922
0.21860177
-0.0034700423
0.21805636
-0.0026100109
0.21775731
-0.0018783667
0.21745583
-0.0012130454
0.21734706
-0.00060964806
-0.00015053397
0.21720642
0.25298657
-0.018865408
-0.25553345
0.2506587
-0.017661438
0.24844556
-0.016299898
0.24640953
-0.014872284
0.2445302
-0.013492913
0.24278702
-0.012105545
0.24116336
-0.010767288
0.23969945
-0.0095001695
0.2384076
-0.0082390044
0.23732068
-0.0070245775
0.23642554
-0.0059163655
0.23563795
-0.0047269307
0.23492208
-0.0037593221
0.23428138
-0.0028293454
0.23377071
-0.0020993416
0.23339079
-0.0014984403
0.23308878
-0.00091104436
0.23296897
-0.00048983169
-0.00010350308
0.23292194
0.27122883
-0.016394402
-0.27369984
0.26882292
-0.015255527
0.26651973
-0.013996705
0.26444203
-0.012794583
0.26245373
-0.011504611
0.26063487
-0.010286686
0.25890827
-0.0090406931
0.25733139
-0.0079232909
0.25588024
-0.0067878464
0.25464953
-0.005793869
0.25359847
-0.0048653117
0.25278026
-0.003908721
0.25212117
-0.0031002311
0.25153886
-0.0022470325
0.25107605
-0.0016365382
0.2506915
-0.0011138815
0.25041369
-0.00063323717
0.25022071
-0.00029685417
7.5011938e-06
0.25010971
0.29013112
-0.013747728
-0.29277779
0.28758065
-0.012705059
0.2851836
-0.011599651
0.2829872
-0.010598184
0.28098914
-0.0095065488
0.27922664
-0.0085241861
0.27758715
-0.00740121
0.27604946
-0.0063855974
0.27464708
-0.0053854713
0.27338196
-0.0045287409
0.27226944
-0.0037527945
0.27133408
-0.0029733627
0.2705802
-0.0023463513
0.27000586
-0.0016726954
0.26952236
-0.0011530304
0.26916874
-0.00076026675
0.26888446
-0.00034895346
0.26875098
-0.00016337519
7.1999261e-05
0.26868648
0.31115437
-0.010895952
-0.31400614
0.30842007
-0.0099707583
0.30585004
-0.0090296212
0.30337281
-0.0081209586
0.30110503
-0.007238769
0.29905328
-0.0064724352
0.29728929
-0.0056372239
0.29575534
-0.0048516457
0.29439288
-0.0040230156
0.29317414
-0.0033099935
0.29208102
-0.0026596769
0.29116256
-0.002054903
0.29043652
-0.0016203098
0.28986665
-0.0011028325
0.28950865
-0.00079502233
0.2892408
-0.00049242288
0.28911643
-0.00022458244
0.28903761
-8.4553344e-05
9.0876749e-05
0.28901873
0.3330373
-0.0078849039
-0.33604835
0.3302122
-0.0071456584
0.32759378
-0.0064112042
0.32516427
-0.0056914493
0.32292849
-0.0050029862
0.32084383
-0.004387774
0.31898203
-0.0037754211
0.31737998
-0.0032496039
0.31599655
-0.0026395809
0.31484702
-0.0021604641
0.31385295
-0.0016656079
0.31303877
-0.0012407228
0.31237128
-0.00095282362
0.3118338
-0.00056534519
0.31143217
-0.00039339259
0.31109042
-0.00015067164
0.31094058
-7.4746363e-05
0.31086968
-1.3648809e-05
0.00012545771
0.31083509
0.35722634
-0.0042221808
-0.36088906
0.35394543
-0.0038647544
0.35098102
-0.0034467943
0.34830483
-0.0030152595
0.34591727
-0.0026154265
0.34376088
-0.0022313796
0.34189174
-0.001906282
0.34023311
-0.0015909804
0.33887184
-0.0012783111
0.33772595
-0.0010145741
0.3368076
-0.00074725295
0.33611107
-0.0005441961
0.33554715
-0.00038890359
0.33520787
-0.00022606614
0.33496318
-0.00014870083
0.33480135
1.1159997e-05
0.33479022
-6.3619784e-05
0.33475241
2.4157326e-05
-7.6765809e-05
0.33495464
0.38442614
-0.38864832
0.38056138
0.37711459
0.37409933
0.3714839
0.36925252
0.36734624
0.36575526
0.36447695
0.36346238
0.36271512
0.36217093
0.36178202
0.36155596
0.36140725
0.36141842
0.3613548
0.36137895
0.36130219
0.060768635
0.0010929095
-0.0013422853
0.061168189
0.0037071579
-0.0041067123
0.06186529
0.0058200176
-0.0065171187
0.06285591
0.0085448244
-0.0095354441
0.064056746
0.010669258
-0.011870094
0.065535466
0.013120118
-0.014598839
0.067193904
0.0153606
-0.017019038
0.06925342
0.017633502
-0.019693017
0.071304426
0.019933957
-0.021984963
0.073828349
0.022211248
-0.024735171
0.076323273
0.024105711
-0.026600635
0.079155539
0.026425306
-0.029257572
0.082136026
0.027954931
-0.030935418
0.085254803
0.029988143
-0.03310692
0.088771888
0.031495062
-0.035012146
0.092336544
0.033285281
-0.036849937
0.096504854
0.034428646
-0.038596955
0.10054764
0.036105338
-0.040148121
0.036718529
0.10539431
-0.041565201
0.064827058
0.00097515928
0.065383167
0.0031510491
0.06607262
0.0051305644
0.067163334
0.0074541101
0.068539194
0.0092933973
0.070077332
0.01158198
0.071910904
0.013527027
0.073971306
0.0155731
0.076174616
0.017730647
0.078785782
0.019600081
0.081300798
0.021590695
0.084243628
0.023482476
0.087038855
0.025159704
0.090117968
0.02690903
0.093222134
0.028390895
0.096549328
0.029958087
0.099847813
0.031130161
0.10344987
0.03250328
0.033047407
0.10712099
0.069186489
0.00085914609
0.069756399
0.0025811396
0.070455652
0.0044313114
0.071614596
0.0062951663
0.072927629
0.0079803641
0.074562145
0.0099474644
0.076436261
0.011652912
0.078431989
0.013577372
0.080742656
0.01541998
0.083111838
0.017230899
0.085688898
0.019013634
0.088367294
0.02080408
0.091121001
0.022405997
0.09388578
0.02414425
0.096746952
0.025529724
0.09958393
0.027121109
0.10231791
0.028396186
0.10522424
0.029596948
0.030401262
0.10787038
0.074062389
0.00064482354
0.074627773
0.0020157552
0.075398079
0.0036610057
0.076580093
0.0051131517
0.077880142
0.0066803148
0.079570196
0.0082574109
0.081375209
0.0098478989
0.0833392
0.01161338
0.085590813
0.013168367
0.087823294
0.014998417
0.090344841
0.016492086
0.092764641
0.01838428
0.095273703
0.019896935
0.097655187
0.021762766
0.099997995
0.023186916
0.10222534
0.024893761
0.10422558
0.026395947
0.10600473
0.0278178
0.028811452
0.10759454
0.079194193
0.00045686621
0.07970891
0.0015010378
0.080501122
0.0028687945
0.081664027
0.0039502462
0.082958136
0.0053862068
0.084641729
0.0065738181
0.086396383
0.0080932447
0.08840761
0.0096021531
0.090489278
0.011086699
0.092525857
0.012961837
0.094644312
0.01437363
0.096620788
0.016407804
0.098614264
0.017903459
0.10046419
0.019912845
0.10209252
0.021558583
0.10356865
0.023417624
0.10454579
0.025418811
0.10531513
0.027048461
0.028783271
0.10534331
0.084522176
0.00022363421
0.085010295
0.0010129182
0.085884234
0.0019948552
0.087038543
0.0027959368
0.088396889
0.0040278611
0.090056016
0.0049146913
0.091714486
0.0064347737
0.093694197
0.0076224422
0.095482973
0.0092979227
0.097554411
0.010890397
0.09923393
0.012694111
0.10101338
0.014628356
0.10238686
0.016529981
0.1035788
0.018720905
0.10429041
0.020846967
0.10460941
0.023098628
0.10427818
0.025750044
0.10359658
0.027730058
0.030617613
0.10176224
0.09048452
3.9035713e-05
0.091014573
0.00048286548
0.091852623
0.0011568055
0.092911279
0.0017372819
0.094231892
0.0027072479
0.095725636
0.0034209477
0.097319915
0.0048404946
0.099017004
0.0059253525
0.10057644
0.0077384867
0.10222107
0.0092457642
0.10339681
0.011518371
0.10472926
0.013295906
0.10532715
0.015932095
0.10591668
0.018131373
0.10564093
0.021122717
0.10504505
0.02369451
0.10349801
0.027297081
0.10127173
0.029956344
0.034212496
0.097676843
0.096463061
-0.00023984226
0.096915052
3.0873738e-05
0.097822397
0.0002494604
0.098873696
0.00068598264
0.1002538
0.0013271441
0.10168249
0.0019922555
0.10319039
0.0033325946
0.10468049
0.0044352505
0.10601539
0.0064035904
0.10725667
0.0080044821
0.10813334
0.010641696
0.10870302
0.012726231
0.10861872
0.016016396
0.10814158
0.01860851
0.10674356
0.022520734
0.10496382
0.025474249
0.10200412
0.030256791
0.098400258
0.033560201
0.039028429
0.093584325
0.10331089
-0.00042631303
0.10374946
-0.00040770297
0.10457927
-0.00058034489
0.10542804
-0.00016279054
0.1067683
-1.3116839e-05
0.10786912
0.00089144385
0.10926999
0.0019317219
0.11031455
0.0033906876
0.11135721
0.0053609334
0.11202398
0.0073377081
0.11239705
0.010268627
0.11232651
0.012796766
0.11167128
0.016671624
0.11034519
0.019934604
0.10823851
0.024627418
0.10529831
0.028414445
0.1014624
0.034092699
0.097012456
0.03801015
0.044505804
0.091535082
0.11027796
-0.00064235982
0.11077739
-0.00090713316
0.1115508
-0.0013537591
0.11254805
-0.0011600403
0.11372795
-0.0011930171
0.1146957
-7.631047e-05
0.11592133
0.00070609415
0.11656589
0.002746129
0.11741607
0.0045107531
0.11738906
0.0073647145
0.11733732
0.010320364
0.1162266
0.013907483
0.11479619
0.018102038
0.11243429
0.022296503
0.10960274
0.027458972
0.10581901
0.032198176
0.10172448
0.038187224
0.096756648
0.042977987
0.050055315
0.091207137
0.11768189
-0.00074958767
0.11810003
-0.0013252694
0.1187846
-0.0020383261
0.11966012
-0.0020355647
0.12054956
-0.0020824595
0.12148478
-0.0010115296
0.12223555
-4.4675167e-05
0.12264686
0.0023348167
0.12299572
0.0041618946
0.12256131
0.0077991216
0.12202342
0.010858247
0.12023204
0.015698868
0.11844789
0.019886189
0.11532564
0.02541875
0.11217301
0.030611605
0.1078614
0.036509789
0.10363818
0.042410445
0.09842785
0.048188313
0.055235978
0.093247187
0.1259459
-0.00086404798
0.12646729
-0.0018466637
0.12705781
-0.0026288418
0.1278312
-0.0028089582
0.12855499
-0.0028062527
0.12933367
-0.0017902076
0.12970844
-0.0004194512
0.1298602
0.002183059
0.12941185
0.004610237
0.12847827
0.0087327063
0.12706194
0.012274572
0.12489662
0.017864185
0.12253282
0.022249992
0.11901946
0.028932107
0.11568439
0.033946681
0.11119266
0.041001517
0.10724388
0.046359224
0.10220804
0.053224162
0.05986065
0.097583365
0.13440032
-0.00090202157
0.13482794
-0.0022742749
0.13525269
-0.0030535959
0.13590333
-0.0034596021
0.13635044
-0.0032533569
0.1368884
-0.0023281685
0.13700443
-0.00053548167
0.13698038
0.0022071006
0.13610862
0.0054819935
0.13501766
0.0098236743
0.13306727
0.014224957
0.13074619
0.020185262
0.12768361
0.025312578
0.1242345
0.032381218
0.12086525
0.03731593
0.11685431
0.045012456
0.11375901
0.049454523
0.10988524
0.057097934
0.061603547
0.10814234
0.14394097
-0.00094100844
0.14428339
-0.0026166996
0.14474039
-0.0035105987
0.145227
-0.0039462091
0.14545085
-0.0034772131
0.14556885
-0.0024461696
0.14513763
-0.00010426627
0.14464138
0.0027033518
0.14340099
0.006722381
0.14208049
0.011144172
0.13974904
0.016556412
0.13734354
0.022590755
0.13422179
0.028434334
0.13157385
0.035029158
0.12875058
0.040139199
0.12650292
0.047260119
0.12542379
0.050533656
0.12540305
0.057118673
0.057505039
0.12950156
0.15374444
-0.0010117799
0.15391579
-0.0027880537
0.15429593
-0.0038907327
0.15471417
-0.0043644477
0.1549236
-0.003686643
0.15480312
-0.0023256912
0.1542284
0.0004704543
0.15348354
0.0034482073
0.15198888
0.0082170371
0.15030261
0.012830443
0.14770237
0.019156652
0.14547721
0.024815911
0.14299093
0.030920617
0.14158274
0.036437346
0.14030346
0.041418479
0.14118883
0.04637475
0.14355094
0.048171551
0.14935885
0.05131076
0.047772867
0.15909103
0.16494799
-0.0010490847
0.16487031
-0.0027103816
0.16500425
-0.004024666
0.1650402
-0.0044004012
0.16494471
-0.0035911533
0.16454608
-0.0019270659
0.16391437
0.0011021647
0.16283045
0.0045321208
0.16123241
0.0098150785
0.15943414
0.01462871
0.15736502
0.021225776
0.15607096
0.026109974
0.1549786
0.032012971
0.15539378
0.036022176
0.15675685
0.040055409
0.16130057
0.041831029
0.16746928
0.042002835
0.17752514
0.041254903
0.035833803
0.18946421
0.17628026
-0.001156412
0.17637774
-0.0028078632
0.17653694
-0.0041838616
0.17639036
-0.0042538224
0.17612772
-0.003328516
0.17559364
-0.0013929863
0.17481189
0.0018839121
0.17342347
0.0059205424
0.17188108
0.01135747
0.17026179
0.016248002
0.16915516
0.0223324
0.16893659
0.026328548
0.16956169
0.031387867
0.17213129
0.033452585
0.17646658
0.035720117
0.18387293
0.034424681
0.19239299
0.033482773
0.2036349
0.030012991
0.025556639
0.21391207
0.18865818
-0.00085940193
0.18874426
-0.0028939434
0.18866096
-0.0041005547
0.18840162
-0.0039944864
0.18804539
-0.0029722837
0.18737262
-0.00072022127
0.18650606
0.0027504758
0.18520945
0.0072171504
0.18420206
0.012364864
0.18331827
0.017131793
0.18359177
0.022058896
0.18480714
0.025113185
0.18764174
0.028553262
0.19250041
0.02859392
0.19920272
0.029017804
0.20770109
0.025926317
0.21622917
0.024954695
0.22548736
0.020754798
0.019636694
0.2314073
0.20230801
-0.00073552225
0.20232241
-0.0029083413
0.20195486
-0.003733008
0.20172432
-0.0037639395
0.20128013
-0.002528098
0.20055961
2.9580709e-07
0.19955947
0.0037506221
0.19845918
0.0083174363
0.19802649
0.012797557
0.19807009
0.017088193
0.19966275
0.020466243
0.20220849
0.022567444
0.20680877
0.023952979
0.21274434
0.022658349
0.22000259
0.021759559
0.22738106
0.018547844
0.23394864
0.018387116
0.23947544
0.015228003
0.018042646
0.24106949
0.21713456
-0.0006636639
0.21688396
-0.002657746
0.21657751
-0.0034265542
0.21629358
-0.003480012
0.21566721
-0.0019017217
0.21493961
0.00072789166
0.21428452
0.0044057154
0.2139618
0.0086401601
0.2143518
0.012407559
0.21575105
0.015688941
0.21855954
0.017657755
0.22226554
0.018861443
0.22801653
0.018201996
0.23377593
0.016898951
0.24011298
0.015422506
0.24504625
0.013614575
0.24865694
0.014776427
0.24962371
0.014261236
0.020725601
0.24694075
0.23294536
-0.00068708952
0.23252637
-0.0022387555
0.23231742
-0.0032176036
0.23168161
-0.0028441931
0.23105722
-0.0012773389
0.23047419
0.0013109233
0.22998014
0.004899774
0.23017519
0.0084451136
0.23131339
0.011269361
0.23373223
0.013270102
0.23700948
0.014380503
0.241491
0.01437993
0.24681456
0.012878436
0.25127302
0.012440493
0.25576152
0.010934009
0.25743663
0.01193946
0.25759919
0.01461387
0.25410701
0.017753412
0.026576247
0.24825637
0.24992887
-0.00050625231
0.24983632
-0.0021462079
0.24964026
-0.003021543
0.2491837
-0.0023876274
0.24886006
-0.00095369364
0.24839814
0.0017728369
0.24855968
0.0047382405
0.24960372
0.0074010774
0.25161486
0.0092582203
0.25456299
0.010321976
0.25810104
0.010842457
0.26253245
0.0099485215
0.26620112
0.0092097676
0.26941585
0.0092257679
0.27073487
0.0096149914
0.26895129
0.013723037
0.26615614
0.017409021
0.26054921
0.02336034
0.031164824
0.25596064
0.26854059
-0.00036036428
0.26825059
-0.0018562069
0.26749816
-0.0022691034
0.26695887
-0.0018483395
0.26666118
-0.00065600534
0.26664115
0.0017928757
0.26735186
0.0040275315
0.26868619
0.0060667538
0.27091818
0.00702623
0.27378694
0.0074532132
0.27713439
0.0074950126
0.28051713
0.0065657856
0.28262414
0.007102756
0.28391797
0.0079319429
0.28217342
0.011359543
0.28013285
0.015763604
0.27768725
0.019854624
0.27505181
0.025995778
0.029354303
0.27686233
0.28911236
-0.00045399622
0.28894582
-0.0016896603
0.28867377
-0.0019970547
0.28845847
-0.0016330368
0.28816607
-0.00036359665
0.28865471
0.0013042367
0.28967886
0.003003382
0.29140213
0.0043434836
0.29363942
0.0047889493
0.29621333
0.0048793012
0.29898248
0.0047258646
0.30068897
0.0048592983
0.30134569
0.006446039
0.30031349
0.0089641439
0.29863891
0.01303413
0.29838997
0.01601254
0.2984534
0.019791199
0.30254777
0.021901408
0.021092277
0.31080979
0.31078808
-0.00040697727
0.31020697
-0.0011085508
0.30940148
-0.0011915673
0.30887715
-0.0011087009
0.3089487
-0.00043514296
0.30942086
0.00083208429
0.3104081
0.0020161371
0.3120895
0.002662095
0.31389321
0.0029852421
0.31577365
0.0029988621
0.31748856
0.0030109562
0.3185
0.0038478602
0.31918377
0.0057622712
0.31975756
0.0083903564
0.32189622
0.010895471
0.32527474
0.012634015
0.33079983
0.014266117
0.33955861
0.013142622
0.012671102
0.34797979
0.3351625
-0.0006148359
0.33501362
-0.00095966964
0.33482545
-0.0010033985
0.33481063
-0.0010938767
0.335085
-0.00070950273
0.33582364
9.3447943e-05
0.33706278
0.00077700186
0.3384303
0.0012945785
0.33987597
0.001539574
0.34121913
0.0016557066
0.34199874
0.0022313496
0.34273704
0.0031095632
0.34389471
0.004604598
0.3465689
0.0057161681
0.35046013
0.0070042372
0.35576808
0.007326068
0.36286123
0.0071729657
0.37011671
0.005887148
0.0058556165
0.37693219
0.36068735
0.35972768
0.35872429
0.35763041
0.35692091
0.35701436
0.35779136
0.35908594
0.36062552
0.36228122
0.36451258
0.36762214
0.37222674
0.37794291
0.38494715
0.39227321
0.39944618
0.40533333
0.41118894
0.10342177
0.044630254
-0.042657716
0.10207122
0.045247747
-0.043897195
0.10067436
0.046023586
-0.04462673
0.099658067
0.045957641
-0.044941345
0.098878307
0.046048203
-0.045268444
0.09848238
0.04577033
-0.045374402
0.098462528
0.044168921
-0.04414907
0.098628536
0.043673909
-0.043839917
0.09969861
0.042342604
-0.043412678
0.10108387
0.039610735
-0.040995992
0.10265911
0.037906347
-0.039481586
0.10531738
0.036322898
-0.038981173
0.10911772
0.033336066
-0.037136401
0.11307682
0.030283127
-0.034242228
0.11697665
0.028416851
-0.032316681
0.12125921
0.026996471
-0.031279031
0.12540296
0.026231109
-0.030374861
0.128953
0.026461381
-0.030011425
0.028107801
0.13219226
-0.031347062
0.1048174
0.046933842
0.10251027
0.047554879
0.10071784
0.047816021
0.099158216
0.047517264
0.097725886
0.047480533
0.097117749
0.046378467
0.096142409
0.045144262
0.096182148
0.04363417
0.097213672
0.041311081
0.097894985
0.038929422
0.099478726
0.036322607
0.10253047
0.033271152
0.10619484
0.029671702
0.10948591
0.026992053
0.11377327
0.024129487
0.11952118
0.021248563
0.12740103
0.018351265
0.13686523
0.016997175
0.018910416
0.14606262
0.10495689
0.049847336
0.10204731
0.050464462
0.099702474
0.050160853
0.097094488
0.05012525
0.095465075
0.049109947
0.093460094
0.048383448
0.092107458
0.046496898
0.091636436
0.044105191
0.091075926
0.041871591
0.091896336
0.038109011
0.093990281
0.034228663
0.096141558
0.031119875
0.09955375
0.02625951
0.10547844
0.021067359
0.11407563
0.015532301
0.12372666
0.011597536
0.1332152
0.0088627264
0.14145787
0.0087545044
0.012087105
0.14828118
0.10353939
0.053902491
0.10009798
0.053905873
0.096390852
0.053867978
0.093409805
0.053106297
0.090294459
0.052225292
0.087698575
0.050979332
0.085638179
0.048557295
0.083386165
0.046357205
0.083160268
0.042097488
0.083404861
0.037864418
0.083546743
0.034086781
0.087435141
0.027231477
0.093721639
0.019973012
0.10002475
0.01476425
0.10444329
0.011113763
0.10605177
0.0099890521
0.10440578
0.010508713
0.10058206
0.012578229
0.017217177
0.095451987
0.10064134
0.058604457
0.096047212
0.058500006
0.0914881
0.058427089
0.087313345
0.057281052
0.082798788
0.056739849
0.07927877
0.05449935
0.075066965
0.052769101
0.072828013
0.048596157
0.070328091
0.044597411
0.067289896
0.040902614
0.068543845
0.032832831
0.072025422
0.023749901
0.07157903
0.020419403
0.066134349
0.020208931
0.056526184
0.020721928
0.043841232
0.022674005
0.029259501
0.025090443
0.01375438
0.02808335
0.033303213
-0.0023316558
0.096158106
0.064208589
0.090137636
0.064520476
0.084524175
0.064040551
0.078512371
0.063292856
0.072694133
0.062558087
0.066522415
0.060671068
0.060910356
0.05838116
0.055352896
0.054153617
0.047929132
0.052021175
0.043871757
0.044959989
0.041005162
0.035699426
0.034703225
0.030051838
0.023828966
0.031293663
0.0090877274
0.03495017
-0.0076538937
0.037463549
-0.025618657
0.040638768
-0.044668245
0.044140031
-0.064945524
0.048360629
0.053729088
-0.085371399
0.090798618
0.071086815
0.083613637
0.071705456
0.076329383
0.071324805
0.068333225
0.071289014
0.060405955
0.070485358
0.051421947
0.069655076
0.04243842
0.067364687
0.031299171
0.065292866
0.022451576
0.060868771
0.015651083
0.051760481
0.0032651003
0.04808541
-0.011799898
0.045116836
-0.028057653
0.047551418
-0.045068395
0.051960911
-0.0632611
0.055656255
-0.081844036
0.059221704
-0.10019359
0.062489586
-0.11852634
0.066693377
0.071513391
-0.13631064
0.085594328
0.079076813
0.077412021
0.079887763
0.068682314
0.080054512
0.059407436
0.080563892
0.049536367
0.080356427
0.038443956
0.080747487
0.02598062
0.079828024
0.012681646
0.078591839
0.0042393934
0.069311024
-0.0066046733
0.062604547
-0.023736456
0.065217193
-0.043999944
0.065380324
-0.06481517
0.068366645
-0.083895959
0.0710417
-0.1020222
0.073782501
-0.11918179
0.076381291
-0.13566481
0.078972603
-0.15064308
0.08167165
0.084414975
-0.16354467
0.082496756
0.088115139
0.073456097
0.088928422
0.063858777
0.089651833
0.054109756
0.090312913
0.04376991
0.090696273
0.033198667
0.09131873
0.02097862
0.09204807
0.0089848751
0.090585585
-0.0012430506
0.07953895
-0.017113468
0.078474965
-0.036218863
0.084322588
-0.058299397
0.087460857
-0.080935045
0.091002293