/*--------------------------------*- C++ -*----------------------------------*\
  =========                 |
  \\      /  F ield         | OpenFOAM: The Open Source CFD Toolbox
   \\    /   O peration     | Website:  https://openfoam.org
    \\  /    A nd           | Version:  11
     \\/     M anipulation  |
\*---------------------------------------------------------------------------*/
FoamFile
{
    format      ascii;
    class       volVectorField;
    location    "0.08";
    object      U;
}
// * * * * * * * * * * * * * * * * * * * * * * * * * * * * * * * * * * * * * //

dimensions      [0 1 -1 0 0 0 0];

internalField   nonuniform List<vector> 
880
(
(25 -2.089053422240475e-15 0)
(25 -2.274314797488598e-14 0)
(24.999999907948 -1.600077113221864e-07 0)
(24.99999304735192 4.739709137798634e-06 0)
(25 3.515345643913243e-16 0)
(25 -6.683135385713311e-13 0)
(24.99999951689358 -1.065901077531715e-06 0)
(24.99995813795917 -0.0006545987054220866 0)
(25 3.75438519961989e-15 0)
(25.00000000001361 1.462380467061731e-11 0)
(25.00000079076138 2.027047053702683e-06 0)
(24.99882492520369 -0.006833103247620566 0)
(25.00000000000002 -2.237806747662207e-15 0)
(24.99999999965674 -1.50765016435518e-11 0)
(24.99993643860124 -4.16068226585051e-05 0)
(24.95712118679548 -0.03010119571694039 0)
(25 -3.162028482078684e-14 0)
(24.99999999999988 2.393449674806207e-12 0)
(25.00000000002256 -2.988923646951869e-11 0)
(24.9999999829442 -3.649183808111581e-08 0)
(25.0000000022851 -1.232821317160796e-10 0)
(24.99999998668007 4.102822283576528e-09 0)
(25.00000005863039 -2.742451734097677e-08 0)
(24.99999917834371 6.512062718209958e-08 0)
(24.99955716354922 0.0001149237746825136 0)
(24.99896869414988 0.0005085720441256091 0)
(24.99984976195886 0.004342198528119589 0)
(24.99696749743686 -0.007524284987895402 0)
(24.73137046724689 0.1205943561635022 0)
(24.48200649318261 0.4571898758986981 0)
(24.40377482935627 0.7975806079308515 0)
(24.40525260457087 0.9966704672116491 0)
(24.99999965316205 -7.45173978391039e-07 0)
(24.99999820303275 -2.3408487931522e-06 0)
(24.99999699463998 -3.200592295810077e-06 0)
(24.99999844340013 -2.080787860483386e-06 0)
(24.99998111902052 1.476527603557259e-05 0)
(24.99997689753741 6.59042737654049e-05 0)
(24.99998930737532 0.0001003161079172255 0)
(24.99997617839047 6.069978868530953e-05 0)
(24.99056962511081 0.01079191918423205 0)
(24.99134245100441 0.02205007309868659 0)
(24.99358912179542 0.02843216503330494 0)
(24.99103017831321 0.02599788752370728 0)
(24.42473805892678 1.206886777147472 0)
(24.45197235346437 1.442647101721634 0)
(24.5381215483054 1.526353758096105 0)
(24.54064645972478 1.706742617731424 0)
(25.02703743437775 1.729067496890068 0)
(25.33795199524539 1.388435391453325 0)
(25.47529969172514 0.8963049201989198 0)
(25.43979964010461 0.5512725000823229 0)
(24.98744138142713 0.04743334025846412 0)
(24.98300323526301 0.08096828378759272 0)
(25.00310092741931 0.07863774730262618 0)
(25.01422706749218 0.05647516481559348 0)
(24.99993874131335 0.0002078538267003889 0)
(24.99988533922149 0.0004870462875852643 0)
(24.99999000387144 0.0005239024338499164 0)
(25.0000750060407 0.0004015381321970667 0)
(24.99999426088804 -6.774381515220517e-06 0)
(24.99998792243521 -1.258595319981828e-05 0)
(24.99998634825334 -1.247357339655191e-05 0)
(24.99998875036326 -8.58870704935043e-06 0)
(24.99999423848781 -3.546317411782016e-06 0)
(24.99999852812826 -7.80408374944683e-07 0)
(24.99999985422713 -6.969076211635301e-08 0)
(24.99999999589296 -1.827990384269158e-09 0)
(25.00008058823278 0.0001887371007826806 0)
(25.00003039756734 4.838357468254212e-05 0)
(25.00000406139403 5.229446118579541e-06 0)
(25.00000015239224 1.795269911415755e-07 0)
(25.01479462564706 0.02755083440186095 0)
(25.00711684806288 0.009095347479515521 0)
(25.00154506182164 0.001583566217723948 0)
(25.00011161540343 0.0001003722403438921 0)
(25.32883883275261 0.3208107835140739 0)
(25.19018058380767 0.1518080683453619 0)
(25.0694842202144 0.04702235923229459 0)
(25.01159244237812 0.006961077269358351 0)
(25.00059583394621 0.0003483974746666981 0)
(25.00000201364317 1.816017956162005e-06 0)
(25.00000000184874 3.991766564903031e-09 0)
(24.99999999995447 -3.974278475149236e-11 0)
(25.00000559060923 1.488969449974207e-06 0)
(25.00000005440313 -1.613242867315885e-07 0)
(25.00000000556357 -9.626970264656731e-09 0)
(25.00000000001405 -3.507240772208474e-11 0)
(24.99736281190038 0.004648622466324472 0)
(24.99999099550522 4.384629804807665e-06 0)
(24.9999999789783 3.963013289339987e-08 0)
(24.99999999727309 2.345014965585592e-10 0)
(24.55179930010279 0.3609587005367573 0)
(24.99761994062784 0.003504605869741968 0)
(25.00001653863052 -5.236338211384262e-06 0)
(25.0000019199747 -2.506754985560247e-06 0)
(24.99999929779523 -1.2500070456308e-06 0)
(24.9999460440617 6.389356504247561e-06 0)
(24.96907208130903 0.0124013814048321 0)
(21.9990787694204 1.131293053319098 0)
(24.99999747435436 -6.050970480670775e-06 0)
(24.99981324990441 0.0001492940290657033 0)
(24.93580042489312 0.04469007464261872 0)
(21.50653859009886 2.459963486094825 0)
(24.99998927826476 -1.722799866190998e-05 0)
(24.99969019611629 0.0004614283134870052 0)
(24.90479024787923 0.101442861645294 0)
(21.06297392684341 3.846592925758884 0)
(24.99997647636703 -3.039539209592025e-05 0)
(24.99967562811268 0.0008590668229217044 0)
(24.89292659735891 0.1616846835708514 0)
(21.11576464958594 4.812611516322644 0)
(21.10617607955606 5.528614702861987 0)
(24.86972529594289 0.2139116977568511 0)
(24.99949440791531 0.001148133260729633 0)
(24.99997182737615 -4.141198643842465e-05 0)
(21.18887712543346 5.8830805831759 0)
(24.85985602456577 0.2630801283876084 0)
(24.99951497120845 0.001658699095979546 0)
(24.99995126916805 -5.89026225148541e-05 0)
(20.95946270328551 6.252641743883731 0)
(24.81619991344925 0.3147740779086236 0)
(24.99906895876611 0.002035174062889284 0)
(24.99994943476318 -7.520046491401896e-05 0)
(20.79994419264704 6.546006124795874 0)
(24.78726019760231 0.3901325008184111 0)
(24.99907057405582 0.003186057372684181 0)
(24.99990386795568 -0.0001165158971202778 0)
(24.9998986641681 -0.0001429027121928138 0)
(24.99844020721051 0.003650390825813316 0)
(24.7109910451109 0.4834233391112644 0)
(20.38989412765795 7.113339536931734 0)
(24.99983690333912 -0.0002133560854719343 0)
(24.99809212419808 0.005683406889436562 0)
(24.69440773741773 0.6061715920944394 0)
(20.77801824329256 7.241373993864594 0)
(24.99983156023452 -0.0002867528439887139 0)
(24.99834421563635 0.006118736146674586 0)
(24.77204176036646 0.5475687074247091 0)
(22.12978774057435 6.381658574059019 0)
(24.99981168911263 -9.724509890941979e-05 0)
(24.99900574566777 0.002659356449535441 0)
(24.94701838537841 0.3304224587647394 0)
(24.13629825416745 4.340497950426212 0)
(24.99972837711855 -0.0003171958409089609 0)
(24.99779494612982 0.01318869216536279 0)
(25.19911859502232 0.2535201645566418 0)
(27.06858869524237 2.262764880035693 0)
(24.99996795043455 -0.0001046636131964551 0)
(25.00574712654299 -0.001438399038780837 0)
(25.17389141738017 -0.01519620700002715 0)
(26.56493799848939 -0.6298371141640109 0)
(24.99998537206261 -6.361562004893297e-05 0)
(24.99846714975103 -0.004352420083008582 0)
(24.96051748421283 -0.2259451427453959 0)
(23.72746568916824 -3.113107281329402 0)
(24.99998241841056 -3.350551209750733e-05 0)
(24.99374587881893 -0.00711499222393941 0)
(24.6549692742145 -0.315009324041021 0)
(20.46575644894258 -3.227064109054643 0)
(19.04252163471495 -2.446548454882325 0)
(24.57869166194839 -0.2774652203137986 0)
(24.99536970029177 -0.005118061971841997 0)
(24.99999043853983 -2.004818896807611e-05 0)
(18.43116334095108 -1.432137054224461 0)
(24.52657784793597 -0.2198200093036957 0)
(24.99449254071142 -0.00434950122388717 0)
(24.99998588467441 -1.710839350635528e-05 0)
(18.52528574709433 -0.3085302159447815 0)
(24.6189068233331 -0.1441859591665501 0)
(24.99722765682734 -0.002328550272040881 0)
(24.99999599445054 -7.147455718167521e-06 0)
(18.01662001825276 0.2508095573744855 0)
(24.58459419906036 -0.1108312309662867 0)
(24.9968993975516 -0.002179198456067181 0)
(24.9999942639195 -7.376692270651992e-06 0)
(20.22102405943285 0.5619635377602304 0)
(24.78024224829388 -0.06976777191689003 0)
(24.99872389035554 -0.0009175949957564551 0)
(24.9999978412566 -2.91507875618171e-06 0)
(22.37997757595309 0.742684735209021 0)
(24.91352909192712 -0.03054730694686647 0)
(24.99966580963817 -0.0002442585206902369 0)
(24.99999946960473 -6.369567743682123e-07 0)
(23.82165049222029 0.3175504418743968 0)
(24.97596951576012 -0.0182002984874193 0)
(24.99993908303975 -9.939886549683658e-05 0)
(24.99999993158299 -2.493328644178326e-07 0)
(24.61367465895109 -0.1841906270264893 0)
(24.9986347390054 -0.01496858903903917 0)
(25.00000900761721 -8.001648350895312e-05 0)
(24.99999999866598 -2.044939343693559e-07 0)
(23.83067670989238 -0.04791801195250548 0)
(24.95085554609073 -0.0008313300053422204 0)
(24.99939701282629 -3.653143237387079e-06 0)
(24.99999700371212 -6.301411015853036e-09 0)
(23.85394044757609 -0.1588446446405677 0)
(24.95233820991136 -0.00225047971177413 0)
(24.99940920771466 -9.871901461727665e-06 0)
(24.99999703685632 -1.829122849136243e-08 0)
(23.84449419776864 -0.3377140745225474 0)
(24.95324799313644 -0.00439244028659477 0)
(24.99941963026652 -1.837098337669604e-05 0)
(24.99999707407583 -3.521135589458023e-08 0)
(23.83844202204386 -0.4168248988712839 0)
(24.95565632830587 -0.006353700728701543 0)
(24.99944842279514 -3.420220253930489e-05 0)
(24.99999722058643 -1.005763362716966e-07 0)
(24.61367465894772 0.1841906270195727 0)
(24.99863473903435 0.01496858902652745 0)
(25.00000900765658 8.001646315816896e-05 0)
(24.99999999870117 2.044950863312584e-07 0)
(23.82165049222523 -0.3175504418961968 0)
(24.97596951580045 0.01820029848396911 0)
(24.99993908307583 9.939887185458142e-05 0)
(24.99999993159459 2.493366133913159e-07 0)
(22.37997757596334 -0.7426847352017405 0)
(24.91352909195666 0.03054730696016627 0)
(24.99966580963966 0.0002442585397453893 0)
(24.99999946961449 6.369581409824832e-07 0)
(20.22102405940931 -0.5619635377648257 0)
(24.78024224831828 0.06976777192989109 0)
(24.99872389034189 0.0009175949948070929 0)
(24.99999784125314 2.9150808455573e-06 0)
(24.99999043849602 2.00482080421208e-05 0)
(24.99536970029459 0.005118061954670441 0)
(24.57869166195662 0.2774652202632325 0)
(19.04252163467435 2.446548454923114 0)
(24.99998588468275 1.710839075791901e-05 0)
(24.99449254070221 0.004349501243472932 0)
(24.52657784790777 0.2198200092847452 0)
(18.43116334091329 1.432137054244325 0)
(24.99999599444261 7.147455447375694e-06 0)
(24.99722765682976 0.002328550270935943 0)
(24.61890682332919 0.1441859591910108 0)
(18.52528574707144 0.308530215937903 0)
(24.99999426391385 7.376692663549675e-06 0)
(24.99689939753213 0.002179198442166953 0)
(24.58459419905556 0.1108312309808742 0)
(18.01662001822657 -0.2508095574059943 0)
(20.46575644888265 3.227064109085199 0)
(24.65496927419452 0.3150093240938319 0)
(24.99374587882637 0.007114992230296701 0)
(24.9999824184252 3.350548955257101e-05 0)
(23.72746568913741 3.113107281338755 0)
(24.96051748421159 0.2259451427461547 0)
(24.99846714974402 0.004352420077167054 0)
(24.99998537206691 6.361561765475299e-05 0)
(26.56493799847978 0.6298371141809286 0)
(25.17389141737649 0.01519620698652691 0)
(25.00574712655575 0.001438399037667983 0)
(24.9999679504076 0.0001046636312494688 0)
(27.06858869524397 -2.262764880029333 0)
(25.19911859503813 -0.2535201645510715 0)
(24.99779494614964 -0.01318869214557405 0)
(24.9997283771 0.0003171958349409429 0)
(24.99989866417902 0.0001429027150343524 0)
(24.99844020712087 -0.003650390830055493 0)
(24.71099104507543 -0.4834233391244071 0)
(20.38989412766264 -7.113339536965334 0)
(24.9998369033267 0.0002133560876522379 0)
(24.99809212424223 -0.005683406880754477 0)
(24.69440773739724 -0.60617159210313 0)
(20.7780182432707 -7.241373993875777 0)
(24.99983156024421 0.000286752860494514 0)
(24.99834421562744 -0.006118736159945798 0)
(24.7720417603661 -0.5475687074208361 0)
(22.1297877405837 -6.381658574056562 0)
(24.99981168912088 9.724507603632313e-05 0)
(24.99900574567281 -0.002659356442076405 0)
(24.94701838538471 -0.3304224587618992 0)
(24.13629825416991 -4.340497950421936 0)
(20.79994419263706 -6.546006124822593 0)
(24.78726019761761 -0.3901325008147654 0)
(24.99907057408834 -0.003186057359492402 0)
(24.99990386790432 0.0001165158969264137 0)
(20.95946270327048 -6.252641743897491 0)
(24.81619991342783 -0.3147740779029275 0)
(24.99906895875178 -0.002035174076458772 0)
(24.99994943476473 7.520046392001595e-05 0)
(21.18887712542426 -5.883080583182077 0)
(24.85985602458433 -0.263080128374864 0)
(24.9995149712093 -0.001658699088619975 0)
(24.99995126916403 5.890262255220372e-05 0)
(21.10617607956371 -5.528614702870973 0)
(24.8697252958289 -0.213911697794554 0)
(24.99949440789058 -0.001148133262778256 0)
(24.99997182736848 4.141198632289569e-05 0)
(24.99999929778836 1.250008208000461e-06 0)
(24.9999460440526 -6.389352497136847e-06 0)
(24.96907208129509 -0.01240138141213641 0)
(21.99907876941258 -1.131293053325076 0)
(24.99999747432409 6.050971374205334e-06 0)
(24.99981324990262 -0.0001492940227357412 0)
(24.93580042497414 -0.04469007459787107 0)
(21.50653859013809 -2.459963486078101 0)
(24.99998927822773 1.72279990824111e-05 0)
(24.99969019605937 -0.0004614283167383594 0)
(24.9047902477857 -0.1014428617161337 0)
(21.06297392681973 -3.84659292581549 0)
(24.99997647636682 3.039539217199061e-05 0)
(24.99967562814898 -0.0008590668203608871 0)
(24.89292659749937 -0.1616846835139577 0)
(21.11576464962783 -4.812611516278287 0)
(25.00000191997323 2.506757083357689e-06 0)
(24.99999999727706 -2.349948418309889e-10 0)
(25.00000000000847 3.56393831637009e-11 0)
(24.99999999995462 3.993252392418377e-11 0)
(25.0000165386662 5.236339915955474e-06 0)
(24.99999997899316 -3.962929162480545e-08 0)
(25.00000000557621 9.628412932860965e-09 0)
(25.00000000185589 -3.992257366385734e-09 0)
(24.99761994064668 -0.003504605876219442 0)
(24.99999099549862 -4.384629498173077e-06 0)
(25.00000005441508 1.613228162438125e-07 0)
(25.00000201365165 -1.816018804596296e-06 0)
(24.55179930011412 -0.3609587005369059 0)
(24.99736281189531 -0.004648622463343655 0)
(25.00000559060121 -1.488968466891882e-06 0)
(25.00059583394635 -0.0003483974790458579 0)
(24.99999999588735 1.827862372301244e-09 0)
(25.00000015238315 -1.795294652403779e-07 0)
(25.00011161539204 -0.0001003722441444858 0)
(25.01159244237172 -0.006961077265257628 0)
(24.99999985423086 6.969079730655817e-08 0)
(25.00000406137639 -5.229449405811684e-06 0)
(25.00154506182066 -0.001583566209569913 0)
(25.06948422021374 -0.04702235922265424 0)
(24.99999852812919 7.804095485576795e-07 0)
(25.00003039756062 -4.838357225959633e-05 0)
(25.00711684808471 -0.009095347476195158 0)
(25.19018058383359 -0.1518080683438719 0)
(24.99999423850011 3.546318669423271e-06 0)
(25.00008058824006 -0.0001887370990846971 0)
(25.01479462563151 -0.02755083441464109 0)
(25.32883883275726 -0.3208107835118548 0)
(24.99999426088095 6.774377001985882e-06 0)
(24.99993874134075 -0.000207853816644621 0)
(24.98744138142646 -0.04743334026481263 0)
(25.02703743436398 -1.72906749687595 0)
(24.99998792245598 1.258594257188394e-05 0)
(24.99988533921119 -0.0004870462746505201 0)
(24.98300323525319 -0.08096828378704551 0)
(25.33795199524201 -1.388435391443356 0)
(24.99998634824357 1.247358084570345e-05 0)
(24.99999000388794 -0.0005239024413200366 0)
(25.00310092742959 -0.07863774731540132 0)
(25.47529969173195 -0.8963049202173021 0)
(24.99998875036742 8.588705878880759e-06 0)
(25.00007500605048 -0.0004015381274472457 0)
(25.01422706748968 -0.05647516480448932 0)
(25.43979964012699 -0.5512725000750397 0)
(24.54064645973709 -1.706742617727215 0)
(24.99103017831203 -0.02599788754228207 0)
(24.99997617841099 -6.069977455272186e-05 0)
(24.99999844338831 2.080789939355615e-06 0)
(24.53812154831486 -1.526353758104217 0)
(24.99358912176941 -0.0284321650433293 0)
(24.99998930741067 -0.000100316099631347 0)
(24.99999699464431 3.200594672920077e-06 0)
(24.45197235346007 -1.442647101709937 0)
(24.99134245097912 -0.02205007308021427 0)
(24.99997689758131 -6.59042842339881e-05 0)
(24.99999820303647 2.340917051717571e-06 0)
(24.42473805894624 -1.206886777143523 0)
(24.99056962516253 -0.01079191916304552 0)
(24.999981119028 -1.476527503894135e-05 0)
(24.99999965313592 7.450973700057613e-07 0)
(24.4052526045799 -0.9966704672193456 0)
(24.99696749739098 0.007524284945818967 0)
(24.99999917834474 -6.511204686202114e-08 0)
(24.99999998293214 3.649674256520943e-08 0)
(24.40377482936702 -0.797580607929725 0)
(24.9998497619831 -0.004342198498810262 0)
(25.00000005865003 2.741132109898237e-08 0)
(25.00000000002204 2.986863555298811e-11 0)
(24.48200649319582 -0.4571898758991707 0)
(24.9989686941597 -0.0005085720411807634 0)
(24.99999998669081 -4.099033111741189e-09 0)
(24.99999999999999 -2.466607591285243e-12 0)
(24.73137046726312 -0.1205943561618865 0)
(24.9995571635626 -0.000114923775418506 0)
(25.00000000228585 1.239968377652236e-10 0)
(25 5.987117973584893e-14 0)
(25.00000000000001 1.240138557856747e-15 0)
(25 7.417484768166847e-15 0)
(24.99999990793674 1.600108033510013e-07 0)
(24.99999304734848 -4.739692022858801e-06 0)
(25 -1.584190429802166e-15 0)
(25 1.702594147998734e-13 0)
(24.99999951689243 1.065898036136137e-06 0)
(24.99995813795701 0.0006545986838810781 0)
(25 -4.276776898397543e-16 0)
(25.00000000002437 -1.687274474902976e-11 0)
(25.00000079075852 -2.027050761788648e-06 0)
(24.99882492520149 0.006833103241524549 0)
(25 7.06768087878416e-16 0)
(24.99999999967229 1.559141606260743e-11 0)
(24.99993643861231 4.160681994483274e-05 0)
(24.95712118680862 0.03010119570031602 0)
(25.00003154190652 -2.68057765626382e-11 0)
(24.99962407697668 0.001586458676847168 0)
(24.98550784397691 0.007855139664720566 0)
(24.7979383513916 -0.02599181469651646 0)
(24.99962407710711 -0.001586458496307222 0)
(24.99161932422021 1.924430711735462e-10 0)
(24.88892910209553 -0.01620215369953272 0)
(24.19557611006354 -0.2624556008506292 0)
(24.98550784406482 -0.007855139792753735 0)
(24.88892910222169 0.01620215375353275 0)
(24.31551948093846 -1.833042373951778e-10 0)
(22.50632754889274 -0.4456739918635197 0)
(24.79793835135258 0.02599181471806736 0)
(24.19557611003311 0.2624556008905006 0)
(22.5063275489033 0.4456739917557586 0)
(20.02012471187156 -6.394773410769506e-12 0)
(19.17626365481271 2.690091075533594 0)
(19.93134902459206 3.162764791694999 0)
(21.85826806633081 2.624579702184071 0)
(23.35140878610876 1.578702217982843 0)
(20.2704329388099 4.587034556601842 0)
(20.45833921205491 4.53951271298529 0)
(21.28524219807449 4.38806252727961 0)
(22.43323715259743 3.903500125776738 0)
(21.02107277493142 5.518773165971312 0)
(21.3153288784516 4.986070499543567 0)
(21.9735525357301 5.062628263947156 0)
(22.76970945208186 4.872973951104369 0)
(21.41277653170855 6.017592862698962 0)
(22.12214321930663 5.305727882802292 0)
(22.68146754666594 5.370411848320299 0)
(23.13814574287161 5.136062915862174 0)
(23.25871433188356 5.317613898323987 0)
(23.36509570443646 5.574103777406851 0)
(23.50170160503229 5.643987266520053 0)
(23.52811282606695 5.807774505345909 0)
(23.13652174806457 5.491268026933388 0)
(23.36400617140864 5.677847041783597 0)
(23.49888048629841 5.725439792547039 0)
(23.96570865907561 6.084312259905727 0)
(22.90113885425822 5.587774983122756 0)
(23.31138926046011 5.745887952633399 0)
(23.45658944216835 5.756573945301896 0)
(25.3256559012458 6.341821853023493 0)
(21.56286485388371 5.756235121681719 0)
(21.9182700243962 5.615623239317867 0)
(22.19249344826963 5.612292701679308 0)
(26.83146036793796 7.468972931593282 0)
(26.64811175333437 3.365894916919224 0)
(27.3895587777468 0.9578018101128697 0)
(26.44639160699539 0.3310695036817259 0)
(26.04588887634481 0.1598302213534532 0)
(28.63114819337265 2.40254105629231 0)
(28.47031747409688 0.3800512471583186 0)
(27.27285715038142 0.08636231794931283 0)
(26.56285613864683 0.03114544539294234 0)
(31.53600259198288 1.965165138903818 0)
(29.32253970385133 0.1469166045150219 0)
(27.7178702614662 -0.08340307836192516 0)
(26.91769228624944 -0.1276712366867827 0)
(25.01908975934038 1.656448559863259 0)
(23.22193352874462 0.4593729628052474 0)
(23.17358858754773 -0.2260476634215564 0)
(23.87762968443952 -0.7031031501546818 0)
(25.7223450217892 0.1158397713136643 0)
(25.43283048892147 0.1022214142272121 0)
(25.18700119822094 0.06162247575944772 0)
(25.04585602262643 0.0174956717807222 0)
(26.06959644027604 0.04316969293257371 0)
(25.64128436696586 0.04931999701740847 0)
(25.28244967799316 0.03900267073697498 0)
(25.0724711933422 0.01513226557393808 0)
(26.34090076139104 -0.07690551749185739 0)
(25.82739403782157 -0.0457849221566516 0)
(25.37760481160641 -0.02590298873457325 0)
(25.100247608925 -0.009134619381274096 0)
(24.48239137453822 -0.6604065006096413 0)
(24.77015535723757 -0.4357479847948734 0)
(24.93227612503748 -0.1992118947087179 0)
(24.9921395449558 -0.04590892826665989 0)
(25.00477538101678 0.001784591462590381 0)
(25.00012400658071 2.421149821919158e-05 0)
(24.93296579393899 0.1788947696900169 0)
(21.08110471035385 3.64343912850552 0)
(25.00797030637686 0.001923114765153595 0)
(25.00019229354937 5.67217420320401e-05 0)
(24.82033833694157 0.4026520241167954 0)
(18.14187475639687 3.627471861915941 0)
(25.01139799012825 -0.001267506131589252 0)
(25.00033068076855 5.065177258944243e-05 0)
(24.46144550198728 0.6057048258231629 0)
(15.78608813386831 2.03927295127499 0)
(24.99972443809332 -0.004012756266265623 0)
(25.00058610434473 -0.0001924838353211875 0)
(23.40329735130832 0.2554786732899875 0)
(10.80452348893827 1.002440198177259 0)
(15.26527806320048 7.522133106021005 0)
(16.27819340032303 8.475014107973768 0)
(16.53424831592034 9.715551264928109 0)
(16.79708579630839 10.58797999327468 0)
(13.36841028917594 7.627617749562388 0)
(15.45107963743528 8.658462514989459 0)
(16.18076318797365 9.949292906917716 0)
(16.54367467919862 10.65211143015352 0)
(10.9512367466972 6.647940677256992 0)
(13.76357469853766 8.431742634411028 0)
(15.46337883949052 9.846396457804916 0)
(16.30439562327748 10.53695934720741 0)
(7.520700321215835 3.111678588269851 0)
(10.80277385936029 5.123119001610014 0)
(12.57424314800902 7.932640662269732 0)
(13.99278788354837 9.881654345896358 0)
(16.89194316561749 11.17637325278519 0)
(17.0736959754222 11.39356052202454 0)
(17.04236918901881 11.57024509411373 0)
(17.05875439729516 11.54302676139106 0)
(16.7863618866321 11.13977303406934 0)
(17.05731619125193 11.37196294206417 0)
(17.13372887578764 11.5586983259707 0)
(17.18389425665025 11.51323098258006 0)
(16.68699936201904 11.01460981332928 0)
(16.99160662789988 11.26993820694718 0)
(17.12703543073685 11.45516032953062 0)
(17.18294558906437 11.45347079341403 0)
(15.0763543306336 10.53740932348528 0)
(15.67375110796471 10.76910760526805 0)
(15.98791228968596 10.8034270004893 0)
(15.98532633757037 10.76379522202549 0)
(17.08338453945369 11.58321984361887 0)
(17.78465939315167 11.41946517903137 0)
(19.50007967834629 10.66220509743152 0)
(22.48823354022252 8.728062266129964 0)
(17.25160632209495 11.49476015670113 0)
(17.91834605368675 11.3447113380535 0)
(19.71087148125593 10.92033585026439 0)
(23.19986422105955 10.96315380570497 0)
(17.25782616403783 11.47890422051502 0)
(17.76691265541082 11.42301647659348 0)
(20.10192672577272 11.6167276216583 0)
(28.43389650910245 16.70964632745923 0)
(16.23017702100635 10.88773392400851 0)
(17.09608617968269 10.68410367611474 0)
(20.45303278201638 12.06925353151234 0)
(38.73778401804315 22.46256472236523 0)
(27.2649007277216 3.964541021663381 0)
(24.11973553156274 -5.269710648377106 0)
(6.433928049796353 -5.763427525262689 0)
(3.010645970398766 -2.07872655465227 0)
(28.50343577937911 3.562692511617982 0)
(19.9160641493074 -4.118985226253703 0)
(1.672126779414492 -6.488522677002812 0)
(0.5046562085752651 -1.781638419304857 0)
(29.81894207017879 1.655794181748714 0)
(12.02044670295705 -5.862969424513103 0)
(0.3357530029361944 -3.660168775904793 0)
(0.111042054953081 -1.404654094129407 0)
(19.33327581535246 -8.776623635678556 0)
(2.801009085578995 -4.4660075588593 0)
(-1.228554756821818 -1.365747241462103 0)
(-0.2186051697494888 -1.435345014092907 0)
(1.515455823896152 -0.6184726548102329 0)
(1.081336418360841 0.09934383839810355 0)
(0.8941593831088027 0.1172988522488825 0)
(0.2526244618861131 0.8571399848597477 0)
(-0.1393059567146146 0.2459463144540457 0)
(-0.3203337765138101 1.066729349020551 0)
(-0.116458091291112 1.137019738568387 0)
(0.4476798082295186 2.50909986674962 0)
(-0.06190808009235593 0.2058595129289433 0)
(-0.1462736134893419 1.35472765510169 0)
(0.3852488037375996 2.336813991846173 0)
(0.3844499108626749 4.378383054527783 0)
(-0.0205726261179611 -0.006698399807195447 0)
(0.2116232006202696 1.307211561597268 0)
(0.3236987279610714 3.144519976610555 0)
(-0.8816215755930568 4.713856114246125 0)
(12.08618429347253 -5.284937008582743 0)
(19.46639331601645 -5.467915342409704 0)
(22.84893505420816 -5.206405127332234 0)
(24.32037820690754 -5.47866128144841 0)
(6.600526488346844 -2.159554293171185 0)
(15.20318394320527 -4.023199278202678 0)
(20.30945437871805 -5.407723101863017 0)
(23.5999114522684 -5.459364896005201 0)
(0.07649191894241505 -1.195607138646358 0)
(7.222263124385123 -2.745068749194528 0)
(15.03929766028562 -4.450258158836715 0)
(23.37026686232853 -3.881197898842427 0)
(-1.899835295601407 1.707019769940415 0)
(2.502711861159405 1.455507798870802 0)
(11.30536655815097 1.346470151165583 0)
(26.46975474009662 -2.359603991988981 0)
(25.43660865625591 -10.44640475105054 0)
(27.77646848482827 -17.09544550588554 0)
(25.22369342925301 -21.26156179834071 0)
(16.43207420507598 -15.41648623542601 0)
(25.77708581187839 -11.20180204870472 0)
(28.59221717437264 -22.6296637108879 0)
(28.68878375810985 -22.68452133636305 0)
(17.66523137290352 -13.24506290496435 0)
(26.05807493845588 -12.44260175490967 0)
(29.4439316311035 -22.21110477162456 0)
(17.40904433443728 -19.18366755657287 0)
(11.08487224710112 -3.34940980051389 0)
(18.75510771314374 -15.26983509605128 0)
(11.63037994195679 -21.59011987918148 0)
(4.314140063725935 -3.489110198425993 0)
(1.457658792278627 5.368217311314027 0)
(-0.8440536761040232 8.448154531451362 0)
(-1.928405647490178 7.417219669020634 0)
(-2.57337338603339 4.597349186836641 0)
(-2.803448138530876 1.375468947984945 0)
(1.91348781762271 3.570714199690014 0)
(-1.68546179474435 4.514824682056399 0)
(-2.942809926923567 2.815788905398927 0)
(-2.854958773304067 0.7560829580453763 0)
(5.138151650221967 -7.147855664193848 0)
(-0.2327217166072832 -3.519240188628271 0)
(-0.3053810306138234 -1.835392661726703 0)
(1.005524500129664 -0.9145673692474567 0)
(10.08907692151739 -11.56951221310358 0)
(7.549840381630627 -6.815515943731667 0)
(7.056503018070564 -3.151699290167538 0)
(8.270704400831846 -1.079614407134263 0)
(-2.803448138530046 -1.375468947980506 0)
(-2.854958773303746 -0.7560829580401978 0)
(1.005524500129791 0.9145673692495992 0)
(8.270704400827801 1.079614407132964 0)
(-2.573373386032314 -4.597349186830952 0)
(-2.942809926922132 -2.815788905392698 0)
(-0.3053810306118404 1.83539266172918 0)
(7.05650301807041 3.151699290162047 0)
(-1.928405647488226 -7.417219669014202 0)
(-1.685461794741592 -4.514824682053305 0)
(-0.23272171660306 3.519240188628808 0)
(7.549840381637611 6.815515943726884 0)
(-0.8440536761004638 -8.448154531445063 0)
(1.913487817624935 -3.570714199687684 0)
(5.13815165022068 7.147855664198715 0)
(10.08907692151142 11.56951221310611 0)
(16.43207420505699 15.41648623542179 0)
(25.2236934292285 21.26156179831403 0)
(27.77646848482397 17.09544550587733 0)
(25.43660865625422 10.44640475104881 0)
(17.66523137289165 13.245062904955 0)
(28.68878375809992 22.68452133634576 0)
(28.59221717437191 22.62966371088877 0)
(25.77708581187755 11.20180204870615 0)
(11.08487224710004 3.349409800513704 0)
(17.40904433443586 19.18366755656623 0)
(29.44393163109221 22.21110477162272 0)
(26.05807493845532 12.44260175490392 0)
(1.457658792280628 -5.368217311307536 0)
(4.314140063727412 3.489110198428904 0)
(11.63037994195073 21.59011987917115 0)
(18.75510771314137 15.26983509604999 0)
(26.46975474009451 2.35960399198813 0)
(11.30536655815415 -1.346470151163189 0)
(2.502711861166126 -1.455507798863189 0)
(-1.899835295601257 -1.707019769932156 0)
(23.37026686232746 3.88119789884146 0)
(15.03929766028832 4.450258158837775 0)
(7.222263124394535 2.745068749209034 0)
(0.07649191894256076 1.195607138657205 0)
(23.59991145226654 5.459364896003611 0)
(20.30945437871365 5.407723101860933 0)
(15.20318394320673 4.023199278214022 0)
(6.600526488335014 2.159554293197254 0)
(24.32037820690435 5.478661281446986 0)
(22.84893505419601 5.206405127326535 0)
(19.46639331601211 5.467915342418685 0)
(12.08618429344144 5.284937008604351 0)
(0.2526244618621361 -0.8571399848772542 0)
(0.8941593830918481 -0.1172988522660117 0)
(1.08133641835659 -0.09934383839382178 0)
(1.515455823866038 0.6184726548387878 0)
(0.4476798082212263 -2.509099866740528 0)
(-0.1164580912930624 -1.137019738582559 0)
(-0.3203337764887841 -1.066729349017505 0)
(-0.1393059567058095 -0.2459463144378594 0)
(0.3844499108542925 -4.378383054529075 0)
(0.3852488037395756 -2.336813991861679 0)
(-0.1462736134722197 -1.354727655095448 0)
(-0.06190808008384131 -0.2058595129095382 0)
(-0.8816215755995552 -4.713856114250269 0)
(0.3236987279581687 -3.144519976628004 0)
(0.2116232006343644 -1.307211561592039 0)
(-0.0205726261145757 0.006698399820313197 0)
(3.010645970346717 2.078726554665749 0)
(6.433928049740278 5.763427525228243 0)
(24.11973553141873 5.269710648423062 0)
(27.26490072770823 -3.964541021657153 0)
(0.504656208564803 1.781638419316319 0)
(1.67212677939028 6.488522676964419 0)
(19.91606414919144 4.118985226257347 0)
(28.503435779386 -3.562692511608978 0)
(0.1110420549455947 1.404654094139475 0)
(0.3357530029233146 3.660168775879975 0)
(12.0204467028844 5.862969424488374 0)
(29.81894207017715 -1.655794181756734 0)
(-0.218605169749819 1.435345014103188 0)