/*--------------------------------*- C++ -*----------------------------------*\
  =========                 |
  \\      /  F ield         | OpenFOAM: The Open Source CFD Toolbox
   \\    /   O peration     | Website:  https://openfoam.org
    \\  /    A nd           | Version:  11
     \\/     M anipulation  |
\*---------------------------------------------------------------------------*/
FoamFile
{
    format      ascii;
    class       volScalarField;
    location    "0.0715";
    object      Ma;
}
// * * * * * * * * * * * * * * * * * * * * * * * * * * * * * * * * * * * * * //

dimensions      [0 0 0 0 0 0 0];

internalField   nonuniform List<scalar> 
880
(
1.443353270571932
1.443353270571932
1.443353270571932
1.443353267444915
1.443353270571932
1.443353270571932
1.443353270571934
1.443352497241398
1.443353270571932
1.443353270571933
1.443353270571919
1.443347530807271
1.443353270571932
1.443353270571932
1.443353270605352
1.443325069215067
1.443353270571932
1.443353270571932
1.443353270571933
1.443353270573934
1.443353270571932
1.443353270571932
1.443353270571935
1.443353270571932
1.4433532743268
1.443353239606273
1.443360303099977
1.443354297999832
1.439381006167524
1.425680247470962
1.415467803622509
1.412964844872667
1.443353264073454
1.443353257851787
1.443353253500373
1.443353264851291
1.443353103104692
1.443353068037078
1.443353056408463
1.443353053225007
1.443197414360187
1.443171116277422
1.443163678798239
1.443127809593149
1.411096376875916
1.409905841818853
1.411705473187046
1.403871943194797
1.421133156360043
1.439570909039861
1.450665287795597
1.451193901976741
1.443011292413994
1.442896843166134
1.442873957469613
1.443258638103957
1.443352632630012
1.443352520571845
1.443352468389117
1.443353117444494
1.443353225899063
1.443353207226227
1.443353209437725
1.443353233554201
1.443353260312047
1.443353269593606
1.443353270550156
1.443353270571938
1.443353335848208
1.443353284392113
1.443353271055061
1.443353270581883
1.443396221191702
1.443363917152587
1.443353773514565
1.443353274717355
1.447478496786904
1.444417242308438
1.443448153843042
1.443355141869519
1.443353267003772
1.44335327047275
1.443353270568567
1.443353270571932
1.443353275592464
1.443353271091448
1.443353270634781
1.44335327057402
1.443350998786238
1.443353010059769
1.443353253647262
1.443353269027001
1.439897495479408
1.44339964465409
1.443355702760736
1.443353276010249
1.443353289168816
1.443353002572366
1.443221344281996
1.355069494782836
1.443353268210219
1.443351964711528
1.442419624331282
1.272017159843269
1.443353197188684
1.443351133330717
1.441696440709181
1.240539852407106
1.443353149463958
1.443350499043784
1.441279911680212
1.237524573702502
1.231981290543082
1.440874678364298
1.443349643837911
1.44335311790213
1.228074374909022
1.440482660692145
1.443348806680101
1.443353050267739
1.216623268537435
1.439838666660964
1.443347078114141
1.443353017089229
1.208196138079335
1.439111948806246
1.44334515379564
1.443352836385418
1.44335285093534
1.443345209314624
1.438536861647494
1.193229189940163
1.443352740136941
1.443342202684571
1.437565664241982
1.193621995840716
1.443352542827219
1.443340131491413
1.437257744210122
1.211205965655222
1.44335299056999
1.443340237544485
1.438825914266391
1.291023426429579
1.443351420558513
1.443378165652138
1.444092366977541
1.431987569884681
1.443354345543344
1.443363082415183
1.444250105377138
1.456629320925226
1.44335339181903
1.443340720702961
1.439250150459393
1.368350182070009
1.443353174071998
1.443270893084441
1.432124384019041
1.248476628844364
1.210208496450159
1.43281941698823
1.443307668491199
1.443353234432179
1.216973932279147
1.433180303674136
1.443304378155806
1.443353218293673
1.249069465223818
1.436739891822932
1.44333294455651
1.443353258623761
1.227853265494175
1.435534306416153
1.443325856060342
1.443353247254756
1.312377514692364
1.439849201209823
1.443343555996841
1.443353261451095
1.390736634095454
1.442487466918825
1.443351823016223
1.443353269443336
1.431990267102853
1.443261887115749
1.443353214027022
1.443353270624685
1.44610464677263
1.443423452880865
1.443353554561905
1.443353270789706
1.4111495266196
1.442521853541668
1.443347143039677
1.443353250364123
1.411341685539449
1.442530087968503
1.443347159765458
1.443353250344811
1.410851166431132
1.44253885258726
1.44334716660477
1.443353250192795
1.408261041907715
1.442531969632516
1.443347213099975
1.443353250238422
1.4461046467778
1.443423452884832
1.443353554567889
1.443353270783943
1.431990267108034
1.443261887120752
1.443353214039073
1.443353270623208
1.390736634094363
1.442487466916059
1.443351823015322
1.443353269442956
1.31237751468628
1.439849201198216
1.443343555995506
1.443353261454267
1.443353234424051
1.443307668472129
1.432819416984901
1.210208496446959
1.443353218286189
1.443304378155189
1.433180303668383
1.216973932274974
1.443353258630622
1.443332944549142
1.436739891822185
1.249069465213559
1.443353247254191
1.443325856056833
1.435534306407286
1.227853265497953
1.24847662885238
1.432124384027323
1.443270893097448
1.443353174077411
1.36835018207668
1.439250150466569
1.443340720714279
1.443353391832573
1.456629320925625
1.444250105386262
1.443363082415379
1.443354345549853
1.431987569882556
1.444092366980632
1.443378165655676
1.443351420543525
1.443352850940237
1.443345209305144
1.438536861643134
1.193229189933383
1.443352740135564
1.443342202679117
1.437565664239505
1.193621995840515
1.443352542818888
1.443340131491284
1.437257744216883
1.21120596565559
1.443352990555934
1.443340237544507
1.438825914271052
1.291023426430541
1.2081961380698
1.439111948814482
1.443345153782824
1.443352836386377
1.216623268529803
1.439838666637682
1.443347078114361
1.443353017086436
1.228074374910585
1.440482660683442
1.443348806664517
1.44335305027065
1.231981290532527
1.440874678384518
1.443349643842333
1.443353117904639
1.443353289162015
1.44335300256443
1.443221344283728
1.355069494790114
1.443353268216274
1.443351964720946
1.44241962432479
1.272017159848321
1.443353197192883
1.443351133331179
1.441696440709237
1.240539852398233
1.44335314946893
1.443350499039538
1.4412799116774
1.237524573709819
1.443353276011484
1.44335326902403
1.443353270574262
1.443353270571932
1.443355702769805
1.443353253648053
1.443353270628257
1.443353270570459
1.44339964465177
1.443353010056115
1.44335327109607
1.44335327047519
1.439897495479234
1.443350998785653
1.443353275591942
1.443353267003377
1.443353270572439
1.443353270581843
1.443353274714296
1.443355141866303
1.44335327055127
1.443353271057238
1.443353773498576
1.443448153843366
1.44335326959103
1.443353284391949
1.443363917162585
1.444417242307655
1.443353260309929
1.443353335849757
1.443396221181349
1.447478496791545
1.443353225908897
1.443352632638154
1.443011292417106
1.421133156360747
1.443353207234235
1.443352520571121
1.442896843167634
1.43957090904581
1.443353209441125
1.443352468379655
1.442873957471904
1.450665287798094
1.443353233556775
1.443353117437836
1.443258638105525
1.451193901982206
1.403871943191934
1.443127809574475
1.443353053230209
1.443353264855904
1.411705473188603
1.44316367877829
1.44335305641055
1.443353253498139
1.409905841808198
1.4431711162727
1.443353068035815
1.443353257854475
1.411096376879073
1.443197414401607
1.443353103106563
1.443353264070791
1.412964844869509
1.443354297987086
1.443353270571932
1.443353270573909
1.415467803624021
1.443360303113453
1.443353270571932
1.443353270571933
1.425680247466747
1.443353239609415
1.443353270571932
1.443353270571933
1.439381006168871
1.443353274326668
1.443353270571932
1.443353270571934
1.443353270571932
1.443353270571933
1.443353270571932
1.443353267421488
1.443353270571931
1.443353270571932
1.443353270571932
1.443352497250108
1.443353270571932
1.443353270571932
1.443353270571761
1.443347530821298
1.443353270571932
1.443353270571932
1.443353270606872
1.443325069225265
1.443353427856704
1.443353434472267
1.443355689446029
1.442977137593758
1.443353434358838
1.443357235195663
1.443381855125011
1.438098615002407
1.44335568970564
1.443381855228447
1.441607081104176
1.403266178404684
1.442977137562384
1.438098615012656
1.403266178435885
1.237642055619348
1.068887205154568
1.163505930418555
1.315326396420611
1.392796146326954
1.122321896314351
1.146857786258382
1.212871648499209
1.281158735189454
1.179659163414875
1.208540799787128
1.243328285078006
1.27895124172133
1.20724311010488
1.262122711938187
1.277590850680431
1.293966596744349
1.302118784911603
1.307815887995993
1.310576628201524
1.298905246671609
1.300211019827794
1.312606403670888
1.316757090396323
1.318124111110095
1.293362160223927
1.306897191146503
1.309796949137944
1.388955751971944
1.221761437551988
1.23205433439714
1.234315438754893
1.49243814565852
1.420488324168468
1.536733464641164
1.522954300030287
1.483263527281761
1.511564560542301
1.614095698268934
1.552423882962954
1.500353389061543
1.678253846766513
1.642335390883192
1.558225947217448
1.508659018701203
1.275428034016777
1.262569722669463
1.295004869600894
1.360895580022365
1.458709891406706
1.447618213101134
1.443981116823506
1.443381817662185
1.472307287783403
1.453220505752243
1.445048627554512
1.443444194381003
1.482611291553225
1.459934440569881
1.446759489235264
1.443567594857461
1.407020181814637
1.429099390558197
1.440621440799222
1.443162330850716
1.443353506553132
1.443353279174437
1.443354417727324
1.340727646022646
1.443354179360097
1.443353280581952
1.443353177139951
1.22612007039914
1.443355804545661
1.443353294811824
1.443352865381921
1.116787061069251
1.443355981212838
1.443353288672676
1.443352660499463
0.9392548166064454
0.8935433166032466
0.9461142398755253
0.9735634361216788
0.9948195199676317
0.7546136426947578
0.8868757340793795
0.9624560910672598
0.9958202343806948
0.6450296745569933
0.8263187367474191
0.9401147805975195
0.9924534056662063
0.5383911662377827
0.735589360493535
0.826695871760002
0.8872397468111232
1.004598473206402
1.00784351832688
1.005668058850127
1.005273680046851
1.009440130705762
1.01436538699954
1.014447149523042
1.014933541284905
1.009622866018576
1.013363787524213
1.013453806652997
1.01397344642453
0.9198694355071036
0.9303917764179719
0.9318117977535569
0.9283288112667092
1.003417542660801
1.013409193954943
1.044368652856239
1.127299440535119
1.014504862379141
1.025269166782909
1.067628245273867
1.172701517316157
1.012852863720077
1.019868254088555
1.088176521867366
1.461543961933368
0.9381009920938109
0.9511163347840195
1.078026714010696
1.993961514041269
1.352003224263722
1.418467120515928
0.5410880405921922
0.2020220440347821
1.399316468790033
1.215388335832206
0.4673442398436859
0.18624866933373
1.486252272071648
0.8982151863444998
0.3701302758078658
0.1091346960908233
1.117262214982439
0.3627470072111683
0.2691135958866377
0.1294321747224812
0.1237445030277456
0.1498433634289664
0.2095412099809044
0.2137536761186383
0.2124130589620698
0.2003814982100076
0.2315978009744686
0.3293755979445798
0.0279798494205205
0.1571815926844208
0.3178524784111187
0.4410956253765226
0.08118485910169973
0.1579699453823448
0.320632151546472
0.4893561816752872
1.166529568402714
1.370855139546146
1.4643736186076
1.479418660564608
0.8139421149535834
1.158846938648335
1.370108183078218
1.461451602101599
0.2480782785465604
0.6705001573752504
1.066052802821318
1.495124942408744
0.1021812208859317
0.3459919110147155
0.8194321441957509
1.760410296172538
1.663104990514373
2.092464007560351
2.048111577376158
1.312469207938864
1.783614536673611
2.236267402858442
2.920513931460779
1.725257315142949
1.882098745572299
2.30395052515326
2.817377368798773
1.474896915755415
1.553831728406902
1.582842364737303
1.406369155971766
0.763441561263481
0.5919795776052592
0.5239958196644837
0.3273584473554615
0.2735336721223769
0.8111607934772318
0.7251132539843943
0.4662550619315489
0.2469145578842527
0.9597152428732036
0.8843789994895502
0.6697162824768127
0.2774773308481859
0.9667877149586221
0.8478094081396936
0.7030680320939623
0.5068163227475724
0.2735336721222784
0.2469145578835824
0.2774773308470286
0.5068163227459037
0.327358447355788
0.4662550619317538
0.6697162824740398
0.7030680320919864
0.5239958196651288
0.7251132539856869
0.8843789994923144
0.8478094081402615
0.5919795776046654
0.8111607934745395
0.959715242876316
0.9667877149612668
1.3124692079426
2.048111577382141
2.092464007567825
1.66310499052398
1.725257315146277
2.920513931457428
2.236267402859369
1.783614536679021
1.474896915752949
2.817377368796872
2.303950525156836
1.882098745575749
0.7634415612618165
1.406369155972111
1.582842364738129
1.553831728408903
1.760410296175082
0.8194321441963901
0.3459919110152321
0.1021812208872237
1.495124942412368
1.066052802823977
0.6705001573754282
0.2480782785396305
1.461451602105617
1.370108183083739
1.158846938647867
0.8139421149437099
1.479418660569232
1.46437361861243
1.370855139545068
1.166529568398004
0.2137536761143475
0.2095412099731538
0.1498433634273349
0.1237445030292554
0.3293755979485957
0.2315978009701093
0.2003814982110416
0.2124130589589382
0.4410956253806063
0.3178524784085722
0.1571815926838013
0.02797984941943631
0.4893561816764374
0.3206321515464491
0.157969945381835
0.08118485910062628
0.2020220440386968
0.5410880405966755
1.418467120509671
1.352003224263296
0.1862486693159574
0.4673442398460192
1.215388335830899
1.399316468795812
0.1091346960846352
0.3701302758040029
0.8982151863427581
1.486252272075731
0.129432174716414
0.2691135958832299
0.3627470072118861
1.117262214986527
1.127299440535496
1.044368652854647
1.013409193953699
1.003417542655328
1.172701517317612
1.067628245272537
1.025269166781091
1.014504862375354
1.461543961936719
1.08817652186773
1.019868254087235
1.012852863718139
1.99396151404589
1.07802671401544
0.951116334789661
0.9381009921001421
1.005273680038175
1.005668058846556
1.00784351832916
1.004598473199884
1.014933541281005
1.014447149520124
1.014365386999486
1.009440130702782
1.013973446423376
1.013453806651015
1.013363787524071
1.009622866017698
0.9283288112719359
0.9318117977555269
0.9303917764180873
0.9198694355122148
0.9948195199669464
0.9735634361184834
0.9461142398790275
0.8935433166046426
0.9958202343819911
0.9624560910643951
0.8868757340816872
0.7546136426955207
0.9924534056676551
0.9401147805955657
0.826318736748427
0.6450296745573416
0.8872397468096607
0.826695871760771
0.7355893604943617
0.5383911662357752
1.340727646023833
1.44335441773071
1.443353279174909
1.44335350655184
1.226120070400859
1.443353177140481
1.443353280582623
1.443354179359258
1.1167870610707
1.443352865383399
1.443353294812165
1.443355804544387
0.9392548166058351
1.443352660498884
1.443353288674733
1.443355981214541
1.443381817659865
1.443981116824913
1.447618213100841
1.458709891414594
1.443444194377657
1.445048627551741
1.453220505755903
1.472307287784548
1.443567594853632
1.446759489230164
1.459934440575619
1.4826112915523
1.443162330850641
1.440621440798465
1.429099390564567
1.407020181806246
1.483263527286546
1.522954300031243
1.536733464645139
1.420488324167689
1.500353389067127
1.552423882963155
1.614095698272679
1.511564560543607
1.508659018706395
1.558225947217775
1.642335390888293
1.67825384676825
1.360895580024545
1.295004869602105
1.262569722672229
1.275428034017469
1.298905246674291
1.310576628204482
1.307815887990029
1.302118784906445
1.318124111113156
1.316757090394605
1.312606403667948
1.300211019824799
1.388955751978204
1.309796949137675
1.306897191146647
1.293362160222156
1.492438145668143
1.23431543876493
1.232054334404804
1.221761437549573
1.293966596740859
1.278951241724343
1.281158735186831
1.392796146328175
1.277590850677915
1.243328285078808
1.212871648499008
1.315326396437468
1.262122711936056
1.20854079978863
1.146857786260591
1.163505930416619
1.207243110111616
1.179659163424688
1.122321896315672
1.068887205158559
1.442486628313157
1.443268775057998
1.443352721447617
1.443353269124869
1.437708000511328
1.443146151446087
1.443351876346813
1.443353266111191
1.419607713902372
1.442879160731634
1.443350225030923
1.443353260629104
1.400855822685
1.442510454452866
1.443347705867305
1.443353252585891
1.443353250359345
1.443347143041515
1.442521853541618
1.411149526614735
1.443353250341022
1.443347159760108
1.442530087975544
1.411341685537124
1.443353250197705
1.443347166597909
1.442538852592081
1.410851166438806
1.44335325025282
1.443347213092474
1.44253196965422
1.408261041914082
1.443353252588471
1.443353260632067
1.443353266127481
1.443353269141897
1.443347705865636
1.443350225031192
1.443351876350192
1.443352721456121
1.442510454449447
1.442879160736176
1.443146151438979
1.44326877506488
1.40085582269321
1.419607713907791
1.437708000510552
1.44248662831413
)
;

boundaryField
{
    back
    {
        type            empty;
    }
    inlet
    {
        type            calculated;
        value           nonuniform List<scalar> 
16
(
1.443353270571932
1.443353270571932
1.443353270571932
1.443353270571932
1.443353270571932
1.443353270571932
1.443353270571932
1.443353270571534
1.443353270571527
1.443353270571932
1.443353270571932
1.443353270571933
1.443353270571932
1.443353270571932
1.443353270571932
1.443353270571932
)
;
    }
    front
    {
        type            empty;
    }
    top
    {
        type            calculated;
        value           uniform 0;
    }
    outlet
    {
        type            calculated;
        value           nonuniform List<scalar> 
16
(
1.443353242965651
1.443353242939969
1.443353242716445
1.443353242753073
1.443353268466369
1.443353264364508
1.443353256933738
1.443353245985432
1.443353242962619
1.443353242937464
1.443353242719402
1.443353242762276
1.443353245987043
1.443353256935291
1.443353264374638
1.443353268477342
)
;
    }
    bottom
    {
        type            calculated;
        value           uniform 0;
    }
    wall
    {
        type            calculated;
        value           uniform 0;
    }
}


// ************************************************************************* //
