/*--------------------------------*- C++ -*----------------------------------*\
  =========                 |
  \\      /  F ield         | OpenFOAM: The Open Source CFD Toolbox
   \\    /   O peration     | Website:  https://openfoam.org
    \\  /    A nd           | Version:  11
     \\/     M anipulation  |
\*---------------------------------------------------------------------------*/
FoamFile
{
    format      ascii;
    class       volVectorField;
    location    "0.3";
    object      U;
}
// * * * * * * * * * * * * * * * * * * * * * * * * * * * * * * * * * * * * * //

dimensions      [0 1 -1 0 0 0 0];

internalField   nonuniform List<vector> 
4455
(
(25.198943 -0.025288095 0)
(24.406597 -0.025743287 0)
(23.048153 0.044223363 0)
(21.84232 0.11990461 0)
(21.894172 0.10606132 0)
(24.010882 -0.12865889 0)
(25.993859 -0.45714416 0)
(24.09776 -0.67125007 0)
(16.874312 -0.40484268 0)
(25.256025 -0.040429048 0)
(24.370653 -0.018802531 0)
(22.948431 0.024288431 0)
(21.829945 -0.0050216261 0)
(22.294644 -0.024950233 0)
(24.901235 0.087564653 0)
(26.467719 0.34243034 0)
(22.780097 0.84900155 0)
(12.945861 1.2029735 0)
(25.273148 -0.03688699 0)
(24.37572 -0.00063934895 0)
(22.921896 0.053740874 0)
(21.815639 -0.06139785 0)
(22.189655 -0.47057585 0)
(24.43401 -0.77116246 0)
(25.646933 -0.61224668 0)
(21.849354 -0.41875059 0)
(12.998467 -0.40318209 0)
(25.333632 -0.0099906862 0)
(24.334966 -0.036101603 0)
(22.751919 -0.093366281 0)
(21.663019 0.040329607 0)
(22.664097 0.48874049 0)
(25.695055 0.7392993 0)
(26.764812 0.75614938 0)
(21.771017 1.0812559 0)
(11.131674 1.4143043 0)
(25.314996 -0.061387051 0)
(24.280204 0.10496557 0)
(22.931936 0.13944029 0)
(21.985894 -0.38576282 0)
(22.261361 -1.1941643 0)
(24.239115 -1.1683083 0)
(24.683866 -0.51868354 0)
(19.468315 -0.085865425 0)
(9.7534853 -0.51121801 0)
(25.468906 0.026989197 0)
(24.257241 -0.17706829 0)
(22.302696 -0.1731459 0)
(21.377571 0.28047961 0)
(23.170745 0.63681169 0)
(26.571953 0.58232824 0)
(26.886111 0.67544053 0)
(20.338746 1.1153983 0)
(8.9679645 0.98367014 0)
(25.280116 -0.080453521 0)
(24.245034 0.26425853 0)
(23.121103 0.10977815 0)
(22.239139 -0.51861252 0)
(22.665895 -0.77316932 0)
(24.635433 -0.25072708 0)
(24.268321 0.42900962 0)
(17.430243 0.55091039 0)
(6.7434168 -0.67980587 0)
(25.66185 0.038010514 0)
(24.091544 -0.20531793 0)
(21.831773 -0.10510684 0)
(21.060321 0.016707802 0)
(23.339974 0.0094491518 0)
(26.722372 0.16761054 0)
(25.923441 0.45955136 0)
(17.730198 0.58537269 0)
(6.2576751 0.016586734 0)
(25.215342 -0.099939568 0)
(24.071399 0.079230853 0)
(23.083394 0.077144473 0)
(22.576937 -0.14261422 0)
(23.332401 -0.43113405 0)
(25.247774 -0.0085625721 0)
(24.042527 0.67837761 0)
(15.448914 0.63310939 0)
(4.376266 -0.71149498 0)
(25.764229 0.093627853 0)
(25.350281 -0.12422306 0)
(25.589519 0.0099995458 0)
(25.614301 -0.032165419 0)
(25.641782 0.059271532 0)
(25.388428 -0.0090738587 0)
(25.739129 -0.14766219 0)
(25.48968 0.013153419 0)
(25.5207 0.24802562 0)
(24.246103 0.0012243694 0)
(23.645279 0.1303828 0)
(23.995646 -0.34024596 0)
(23.807684 0.3642173 0)
(23.612393 -0.075641291 0)
(23.323977 -0.14357202 0)
(23.777308 -0.10651496 0)
(23.000691 0.39381688 0)
(23.807101 0.002562093 0)
(21.804504 -0.21950203 0)
(22.580909 0.1983443 0)
(22.00279 -0.28644664 0)
(22.190645 0.27617026 0)
(21.930923 -0.44174992 0)
(22.258202 -0.2932587 0)
(21.929002 0.44235243 0)
(22.26553 0.093335496 0)
(22.125113 -1.0056488 0)
(21.024698 -0.044042421 0)
(22.374667 -0.47239328 0)
(22.037944 0.013080099 0)
(22.216551 0.18839929 0)
(22.445331 -0.72661072 0)
(22.887618 -0.34919375 0)
(22.661064 0.59950652 0)
(23.874323 -0.52064388 0)
(23.639616 -0.20760628 0)
(23.948887 0.40116714 0)
(23.562109 -0.83675689 0)
(25.191024 0.16100377 0)
(24.335184 0.33956189 0)
(25.779147 -0.29755195 0)
(25.136528 0.17599769 0)
(26.19773 0.42777238 0)
(26.486387 0.5002839 0)
(26.039032 0.61331476 0)
(27.16692 0.41940703 0)
(25.25175 0.025321619 0)
(27.382031 0.41559893 0)
(25.283426 0.97121477 0)
(26.775902 0.43870489 0)
(24.582692 0.94983774 0)
(25.628408 0.69636297 0)
(23.431875 1.2292779 0)
(23.91864 0.35645782 0)
(24.793477 0.465284 0)
(21.917493 1.0167626 0)
(22.330215 0.54624434 0)
(18.995117 1.1016232 0)
(18.831021 0.037286069 0)
(15.212085 0.56828578 0)
(15.025263 -0.29629748 0)
(11.163665 0.06006401 0)
(11.641949 -0.33526563 0)
(14.232479 0.24073797 0)
(10.680647 0.34128284 0)
(9.3583694 -0.59616592 0)
(6.3817512 -0.28590667 0)
(5.4881199 -0.99753757 0)
(3.4878683 -0.41686466 0)
(3.0862037 -0.86182168 0)
(1.7759486 -0.29959898 0)
(1.8424541 -0.57388328 0)
(3.5497235 -0.56542357 0)
(1.7705539 -0.5376011 0)
(1.3698269 -0.65310185 0)
(0.72106854 -0.28993642 0)
(0.55586779 -0.39378518 0)
(0.31378228 -0.13396671 0)
(0.25089537 -0.2075156 0)
(0.1412843 -0.052488747 0)
(0.13080691 -0.10627348 0)
(25.246032 -0.3666592 0)
(25.136276 -0.65811171 0)
(25.105974 0.26098121 0)
(24.786019 1.3827252 0)
(24.226942 1.1044761 0)
(24.089281 0.080458621 0)
(24.532126 -0.13119234 0)
(24.96893 0.47709682 0)
(24.734547 1.0346098 0)
(23.49547 -0.31607809 0)
(22.74167 -0.24509149 0)
(22.303514 0.47791189 0)
(23.223945 1.8956565 0)
(24.056389 2.253901 0)
(22.962093 0.3306922 0)
(21.737174 -1.8174468 0)
(24.251105 0.61222574 0)
(26.838335 4.2395961 0)
(21.814559 -1.0031719 0)
(22.989048 0.94489932 0)
(24.307765 2.3989285 0)
(23.032773 0.47918087 0)
(21.978974 -2.0924609 0)
(25.708219 0.29017772 0)
(28.195448 2.3793906 0)
(24.945756 0.098261932 0)
(22.302064 -0.30461213 0)
(24.636498 0.9489546 0)
(24.034904 -0.027487347 0)
(24.028195 -1.167515 0)
(27.097653 0.83358157 0)
(28.225636 1.3324341 0)
(24.941673 -0.84281906 0)
(24.105346 1.6014337 0)
(25.303596 5.8838195 0)
(20.913847 4.6783905 0)
(26.484204 0.45525196 0)
(27.151419 0.72014791 0)
(25.947711 0.20631195 0)
(23.332121 0.53680866 0)
(22.441258 3.7083875 0)
(19.311439 4.3131655 0)
(10.74454 0.16951838 0)
(1.3813881 -3.628461 0)
(0.048071366 -1.4637019 0)
(21.492361 0.44457019 0)
(18.550756 1.6098525 0)
(15.353306 2.4001514 0)
(9.8949727 0.44842077 0)
(3.9221012 -1.8113534 0)
(1.0119109 -1.5814001 0)
(0.61342148 -0.080312683 0)
(0.30205548 0.11049934 0)
(0.19583965 0.062233861 0)
(7.5525871 0.21358687 0)
(4.122313 -0.62895527 0)
(1.9611277 -0.60224553 0)
(0.8078379 -0.33110707 0)
(0.46791368 0.11402967 0)
(0.17791925 -0.020736473 0)
(0.094776227 0.01527282 0)
(0.00304719 -0.038343698 0)
(0.014771206 0.019046751 0)
(0.86041784 -0.14790553 0)
(0.37350583 -0.14814785 0)
(0.21535295 0.013010718 0)
(0.080077989 -0.049832702 0)
(0.048968698 0.0077921283 0)
(0.0098459734 -0.018422245 0)
(0.014017467 0.011985062 0)
(0.00061016481 -0.0070581532 0)
(0.0051214451 0.004268868 0)
(0.070346786 -0.0081573737 0)
(0.028969201 -0.025694385 0)
(0.019759062 0.004970197 0)
(0.0058792904 -0.0082256994 0)
(0.0060867972 0.0051557007 0)
(0.00056760453 -0.0037962722 0)
(0.0018940967 0.0025864225 0)
(-0.00052831892 -0.0018186717 0)
(0.00065535408 0.0013546363 0)
(-0.00044233848 -0.00059537555 0)
(0.00027315726 0.00085692195 0)
(-0.00025055532 -4.3058669e-05 0)
(0.00026918831 0.00062551337 0)
(2.2581898e-06 0.00015387056 0)
(0.00022246596 0.0003317026 0)
(5.9815604e-05 9.8617108e-05 0)
(0.0001089936 0.00011816629 0)
(3.1041675e-05 3.2662632e-05 0)
(-0.00039960276 -0.0044228045 0)
(0.0021587103 0.00018729736 0)
(-0.0010564246 -0.0038279765 0)
(-1.010082e-05 -0.0015864876 0)
(-0.0014129642 -0.002500223 0)
(-0.0006212697 -0.0010993933 0)
(-0.00080209482 -0.0009671842 0)
(-0.00032236251 -0.0003684177 0)
(-0.00026102833 -0.00024324398 0)
(-0.0073950023 -0.0016068176 0)
(0.0051102836 0.018853721 0)
(-0.0010205553 0.0091880784 0)
(0.0074563994 0.015657086 0)
(0.0042932127 0.0085711116 0)
(0.0054233167 0.0072231322 0)
(0.0026021786 0.0031863789 0)
(0.0019020461 0.0019117466 0)
(0.00073726196 0.00068961777 0)
(0.033537598 -0.079815418 0)
(0.027178526 -0.041802263 0)
(-0.020313719 -0.072735679 0)
(-0.018507963 -0.051747919 0)
(-0.030594962 -0.047713451 0)
(-0.018629609 -0.025421541 0)
(-0.013518214 -0.014920344 0)
(-0.0059771368 -0.0060134879 0)
(-0.0031097094 -0.0027246718 0)
(0.12600781 0.13484282 0)
(0.18466341 0.35945206 0)
(0.087399002 0.21237298 0)
(0.12550665 0.22489856 0)
(0.10378372 0.16251697 0)
(0.086288365 0.10691374 0)
(0.045775964 0.050101548 0)
(0.023715374 0.022452118 0)
(0.0091723293 0.0079344305 0)
(7.3919907 -2.3466561 0)
(-0.70906554 -3.9873939 0)
(-0.35850593 -1.3011523 0)
(-0.22487932 -0.54516903 0)
(-0.34725785 -0.5433221 0)
(-0.27946641 -0.3621477 0)
(-0.16838356 -0.18335409 0)
(-0.074251816 -0.071411054 0)
(-0.029671629 -0.025112983 0)
(25.571971 5.2667937 0)
(24.588685 6.89816 0)
(14.280717 2.1714786 0)
(2.1860099 -1.9357729 0)
(0.67678857 0.095054169 0)
(0.8140827 1.036848 0)
(0.54926434 0.62412435 0)
(0.25774963 0.24415657 0)
(0.091745502 0.076033941 0)
(24.805788 3.5110862 0)
(22.043374 0.34841385 0)
(26.898625 3.0740148 0)
(28.869063 5.6110174 0)
(20.172461 2.4714354 0)
(2.8275068 -3.9519912 0)
(-2.0684605 -3.3792499 0)
(-0.91384514 -1.1410493 0)
(-0.28842471 -0.28276749 0)
(23.930628 1.6239905 0)
(23.464688 3.14832 0)
(23.350108 4.6036114 0)
(23.1556 4.7412587 0)
(23.119066 5.356494 0)
(21.34244 6.6618516 0)
(15.679164 6.2360994 0)
(7.5095845 3.4559439 0)
(2.0243566 0.98766218 0)
(0.37421439 0.17851874 0)
(0.061147824 0.027598495 0)
(0.0096926896 0.0040947972 0)
(0.001516121 0.00059563335 0)
(0.00023425257 8.4762357e-05 0)
(3.5756745e-05 1.1836969e-05 0)
(5.3852344e-06 1.6065363e-06 0)
(7.9966128e-07 2.1350865e-07 0)
(1.1715133e-07 2.729465e-08 0)
(-0.077243248 -0.061450778 0)
(-0.018571507 -0.012595157 0)
(-0.0040966382 -0.0024593131 0)
(-0.0008601336 -0.00046413935 0)
(-0.00017032152 -8.387457e-05 0)
(-3.2895846e-05 -1.4774559e-05 0)
(-6.0110489e-06 -2.4846907e-06 0)
(-1.088067e-06 -4.1018198e-07 0)
(-1.8513287e-07 -6.4181494e-08 0)
(0.028448463 0.021015612 0)
(0.007757115 0.0052191879 0)
(0.0020147554 0.0012358563 0)
(0.0004746671 0.00026916372 0)
(0.00011045108 5.7537746e-05 0)
(2.3298921e-05 1.128395e-05 0)
(4.9842523e-06 2.2180711e-06 0)
(9.5536868e-07 3.9532997e-07 0)
(1.9042472e-07 7.202802e-08 0)
(-0.009806828 -0.0075477914 0)
(-0.0031621673 -0.0022000112 0)
(-0.00086978294 -0.00056016953 0)
(-0.00024422723 -0.00014392313 0)
(-5.8484511e-05 -3.2150295e-05 0)
(-1.4832427e-05 -7.4842565e-06 0)
(-3.1611418e-06 -1.4904832e-06 0)
(-7.3866441e-07 -3.1886208e-07 0)
(-1.4186657e-07 -5.7086849e-08 0)
(0.0036800891 0.0028527133 0)
(0.0011555101 0.00083183672 0)
(0.00039452442 0.00025829292 0)
(0.00010575162 6.4771277e-05 0)
(3.2143406e-05 1.8001547e-05 0)
(7.5479096e-06 3.9634753e-06 0)
(2.0942621e-06 1.0052054e-06 0)
(4.3750311e-07 1.9662112e-07 0)
(1.125542e-07 4.600759e-08 0)
(-0.0010988449 -0.00089386035 0)
(-0.00046947373 -0.00034197092 0)
(-0.00013946629 -9.5143769e-05 0)
(-5.2017183e-05 -3.2149436e-05 0)
(-1.3364081e-05 -7.7611917e-06 0)
(-4.4985546e-06 -2.3750963e-06 0)
(-1.0172362e-06 -5.0446522e-07 0)
(-3.1535882e-07 -1.4187905e-07 0)
(-6.353527e-08 -2.6757859e-08 0)
(0.00041323295 0.00033658981 0)
(0.00013400148 0.00010238768 0)
(6.3539483e-05 4.329367e-05 0)
(1.7686257e-05 1.1343724e-05 0)
(7.4440452e-06 4.2995135e-06 0)
(1.8098457e-06 9.8406129e-07 0)
(6.9510743e-07 3.4103246e-07 0)
(1.4948527e-07 6.8844643e-08 0)
(5.3314644e-08 2.2069959e-08 0)
(-9.0009619e-05 -7.9331013e-05 0)
(-5.7530344e-05 -4.3720882e-05 0)
(-1.7125006e-05 -1.2336437e-05 0)
(-9.403299e-06 -5.9720664e-06 0)
(-2.4454332e-06 -1.4747507e-06 0)
(-1.203442e-06 -6.4441339e-07 0)
(-2.7648388e-07 -1.4071117e-07 0)
(-1.2494533e-07 -5.6292963e-08 0)
(-2.5610942e-08 -1.0973119e-08 0)
(3.5218415e-05 3.0008453e-05 0)
(9.1019333e-06 7.2720771e-06 0)
(8.264772e-06 5.7665666e-06 0)
(1.8748948e-06 1.2032308e-06 0)
(1.4992617e-06 8.7507153e-07 0)
(2.9615708e-07 1.5607694e-07 0)
(2.1903019e-07 1.0796078e-07 0)
(3.7666924e-08 1.6397826e-08 0)
(2.6510347e-08 1.104484e-08 0)
(3.982273e-09 1.4249e-09 0)
(-1.0789588e-08 -4.03995e-09 0)
(1.0243004e-08 3.9566113e-09 0)
(-1.8384011e-08 -6.9738138e-09 0)
(2.1140846e-08 8.0538157e-09 0)
(-3.0917944e-08 -1.1307034e-08 0)
(3.3425663e-08 1.1707758e-08 0)
(-3.1658834e-08 -9.9268476e-09 0)
(1.6866021e-08 3.4074788e-09 0)
(2.7139436e-09 9.4919937e-10 0)
(-1.9911481e-09 -7.0971316e-10 0)
(3.4329576e-09 1.1802775e-09 0)
(-3.3312151e-09 -1.175215e-09 0)
(5.0961122e-09 1.7486355e-09 0)
(-5.3960721e-09 -1.8282809e-09 0)
(6.2581951e-09 1.9827883e-09 0)
(-5.0313582e-09 -1.4407591e-09 0)
(2.3998323e-09 4.0177153e-10 0)
(3.5824485e-10 1.0373811e-10 0)
(-7.8980521e-10 -2.3966152e-10 0)
(5.9422239e-10 1.8877708e-10 0)
(-9.0846055e-10 -2.8484858e-10 0)
(8.6775923e-10 2.7509634e-10 0)
(-1.1058429e-09 -3.3628829e-10 0)
(1.0112419e-09 2.9417889e-10 0)
(-8.1594036e-10 -2.0802085e-10 0)
(3.3366743e-10 4.5982094e-11 0)
(2.3877657e-10 6.908105e-11 0)
(-1.3231276e-10 -3.8331199e-11 0)
(1.8864829e-10 5.236191e-11 0)
(-1.4933336e-10 -4.3095503e-11 0)
(1.9726243e-10 5.5544725e-11 0)
(-1.762704e-10 -4.9072573e-11 0)
(1.7891237e-10 4.6265228e-11 0)
(-1.2110049e-10 -2.7821247e-11 0)
(4.6178778e-11 4.828254e-12 0)
(2.7720134e-11 6.2771931e-12 0)
(-4.9564149e-11 -1.1651301e-11 0)
(2.949837e-11 7.4703004e-12 0)
(-3.8542834e-11 -9.659651e-12 0)
(3.0586961e-11 7.8101165e-12 0)
(-3.4457552e-11 -8.4108698e-12 0)
(2.6570977e-11 6.2002751e-12 0)
(-1.8852829e-11 -3.8087394e-12 0)
(5.9678869e-12 4.6159117e-13 0)
(1.8273462e-11 4.283477e-12 0)
(-7.5283266e-12 -1.687854e-12 0)
(8.9262124e-12 1.8708764e-12 0)
(-5.8085248e-12 -1.316021e-12 0)
(6.5255969e-12 1.4784333e-12 0)
(-4.9566185e-12 -1.0657687e-12 0)
(4.301612e-12 8.5657597e-13 0)
(-2.505817e-12 -4.5285055e-13 0)
(8.0537252e-13 6.8504619e-14 0)
(1.8099079e-12 3.1037129e-13 0)
(-2.6918498e-12 -4.6722658e-13 0)
(1.1706944e-12 2.1717302e-13 0)
(-1.204407e-12 -2.5137027e-13 0)
(8.5841949e-13 1.6053293e-13 0)
(-8.7854247e-13 -1.544228e-13 0)
(4.4042515e-13 8.8791854e-14 0)
(-3.2949195e-13 -5.2392754e-14 0)
(5.5873654e-14 -9.4369281e-15 0)
(1.0254736e-12 2.7097203e-13 0)
(-2.6462937e-13 -4.5662856e-14 0)
(2.4568466e-13 3.5101025e-14 0)
(-1.3569728e-13 -1.2070262e-14 0)
(1.9081932e-13 3.2209265e-14 0)
(-5.7757395e-14 -1.0706087e-14 0)
(5.7178724e-14 2.4088145e-15 0)
(-1.6727878e-14 -5.2688091e-15 0)
(0 1.3189703e-14 0)
(6.1594353e-14 3.0193599e-14 0)
(-1.0805641e-13 -2.0447702e-14 0)
(2.1224225e-14 -7.0284606e-15 0)
(-5.0255258e-14 -2.7229433e-15 0)
(0 0 0)
(-6.6566333e-16 -4.1603958e-15 0)
(4.0827365e-17 7.6602343e-15 0)
(2.8333437e-14 9.3302821e-15 0)
(0 -1.3189702e-14 0)
(2.6480969e-14 0 0)
(-2.8301305e-14 -1.060827e-14 0)
(1.014465e-17 5.6987569e-15 0)
(-1.6444357e-14 4.1110892e-15 0)
(-1.7887098e-14 0 0)
(-5.1279748e-14 -1.0334706e-14 0)
(2.1751539e-14 9.4548329e-15 0)
(-9.8450939e-14 -4.5620349e-15 0)
(2.7533223e-14 -1.3793022e-14 0)
(2.6746915e-14 5.022853e-15 0)
(-1.4303402e-14 7.1445399e-15 0)
(2.053959e-17 -9.6202305e-15 0)
(4.9969169e-14 -6.2392029e-15 0)
(1.8147038e-14 1.8948533e-14 0)
(6.8658043e-15 -2.1563539e-15 0)
(3.3115852e-14 -5.5193086e-15 0)
(1.5762751e-14 -1.2152173e-15 0)
(-7.1834211e-14 -1.0725933e-13 0)
(-1.8036464e-17 6.7636742e-15 0)
(2.894837e-14 9.0445545e-15 0)
(-3.1194214e-17 -9.7416929e-15 0)
(5.0645001e-14 6.3390698e-15 0)
(-3.4854029e-13 -1.506779e-14 0)
(2.317966e-13 1.3809145e-14 0)
(1.1237294e-14 4.2158582e-15 0)
(1.5643743e-14 2.1436475e-14 0)
(2.072463e-14 5.1203722e-14 0)
(-4.0990022e-14 -2.7350993e-15 0)
(1.9545027e-17 1.1177923e-14 0)
(1.0529595e-17 -1.5777283e-14 0)
(-8.5432428e-14 6.5536003e-14 0)
(8.2162263e-14 -6.2908208e-15 0)
(5.1098493e-14 -8.1148865e-14 0)
(-1.7241105e-15 2.6842913e-14 0)
(2.0658757e-14 1.4914007e-14 0)
(5.5493189e-14 -6.9526345e-14 0)
(0 0 0)
(-1.4842759e-14 0 0)
(1.5975357e-14 0 0)
(-5.2018305e-14 -8.6677888e-15 0)
(3.0190598e-13 -1.2250265e-15 0)
(-1.3448257e-13 1.7046559e-15 0)
(-2.9219938e-14 1.3603591e-14 0)
(5.7912781e-16 1.8146005e-14 0)
(5.1060607e-14 -1.0084161e-13 0)
(1.3972418e-14 0 0)
(-1.5011208e-14 0 0)
(1.6204302e-14 -8.1021511e-15 0)
(1.7603445e-14 9.2826297e-30 0)
(-4.0550674e-14 -2.864365e-15 0)
(-3.0555005e-14 8.1175031e-15 0)
(-2.3725648e-14 5.9314119e-15 0)
(7.8700585e-15 -6.7137515e-15 0)
(1.6922777e-13 -3.414138e-14 0)
(3.2710613e-15 -3.8460894e-15 0)
(1.5193819e-14 1.1724564e-14 0)
(0 0 0)
(0 -8.9156482e-15 0)
(2.1604076e-14 4.2749913e-15 0)
(-3.4346008e-15 5.4044454e-15 0)
(2.4217995e-14 -9.0777117e-15 0)
(-3.5892252e-14 -4.5306181e-15 0)
(1.4686019e-13 -2.0615114e-14 0)
(-1.7601006e-14 0 0)
(-1.0253994e-17 -9.6067107e-16 0)
(-3.3261038e-14 1.0390609e-15 0)
(-1.8114149e-14 0 0)
(1.9907015e-14 -8.6960653e-15 0)
(-4.4057132e-14 5.5071415e-15 0)
(0 0 0)
(-2.4953811e-14 -2.2822808e-14 0)
(5.9706139e-14 3.1262745e-14 0)
(1.4467684e-14 -7.2290194e-15 0)
(1.555201e-14 5.8371947e-15 0)
(5.0536977e-14 6.3129069e-15 0)
(1.8380738e-14 -1.8362357e-14 0)
(-4.0377286e-14 4.4074272e-15 0)
(0 9.7769252e-15 0)
(2.5195346e-14 6.2988364e-15 0)
(6.1520871e-14 -1.5758734e-14 0)
(-1.0918111e-13 1.5071389e-14 0)
(1.124744e-13 3.8974006e-14 0)
(-2.9405825e-14 7.3612648e-15 0)
(-2.5696942e-14 -3.2121178e-15 0)
(4.5668232e-14 -5.708529e-15 0)
(6.1493413e-14 -1.026031e-14 0)
(0 1.8642942e-14 0)
(8.5377514e-14 -1.4242879e-18 0)
(1.5758951e-14 -1.3457923e-14 0)
(0 -5.7817268e-15 0)
(-1.1170161e-13 1.1533512e-13 0)
(1.8282238e-14 -5.0155613e-14 0)
(2.6237306e-14 3.2752874e-15 0)
(-2.3259499e-14 2.9051115e-14 0)
(-4.1685699e-14 5.2107124e-15 0)
(-1.8938279e-14 -9.4502013e-15 0)
(-6.9245028e-14 1.0826034e-14 0)
(-1.6024357e-14 -8.3355939e-15 0)
(2.9611909e-14 -5.5540844e-15 0)
(-6.5556295e-14 6.4919414e-14 0)
(6.6990856e-14 9.2385208e-15 0)
(5.306521e-14 -5.7615445e-15 0)
(1.1534452e-14 -1.046396e-14 0)
(-1.2715486e-13 2.6519495e-14 0)
(1.9229925e-14 -4.8074812e-15 0)
(-7.0207894e-14 1.7554902e-14 0)
(-1.6080991e-14 1.3605748e-14 0)
(-2.9967343e-14 7.4993301e-15 0)
(-1.2261905e-13 9.6725762e-14 0)
(-6.2398957e-14 -3.4207547e-14 0)
(-8.163704e-14 1.3548314e-14 0)
(-3.5917079e-14 -2.0173158e-14 0)
(2.1571101e-14 -5.4359752e-15 0)
(-3.9165584e-14 2.4410133e-14 0)
(3.5610909e-14 -8.7809349e-15 0)
(-3.2769812e-14 -2.1799191e-15 0)
(0 -8.6473352e-15 0)
(2.951449e-13 -1.6623518e-13 0)
(-4.8428182e-14 2.2145714e-14 0)
(5.6025862e-14 -1.9190586e-14 0)
(0 2.2501008e-15 0)
(8.7744423e-14 -2.3027782e-14 0)
(-1.9735153e-14 4.9999248e-15 0)
(1.8057245e-14 4.5263656e-15 0)
(4.9803047e-14 -4.1493313e-15 0)
(1.5357338e-14 1.5341981e-14 0)
(-2.3097154e-14 1.3417618e-13 0)
(1.5643675e-13 -9.6146894e-14 0)
(-5.7312055e-14 2.8636917e-14 0)
(5.0230347e-14 -1.7818537e-14 0)
(-2.2373895e-14 -1.3562309e-14 0)
(8.0618557e-14 -1.8696301e-14 0)
(-1.832254e-14 2.2793092e-14 0)
(1.6787351e-14 -1.6484371e-14 0)
(-3.1076369e-14 -2.116676e-14 0)
(5.9424659e-14 -3.980182e-14 0)
(-3.4407943e-14 1.6204405e-14 0)
(3.9118706e-17 -1.4659735e-14 0)
(-2.5613919e-14 1.2811234e-14 0)
(6.8300762e-14 3.7970181e-18 0)
(2.8484164e-14 -3.4358596e-15 0)
(-1.8620582e-14 -4.6489387e-15 0)
(1.0208916e-13 -2.5519445e-14 0)
(3.1457662e-14 -1.5734079e-14 0)
(-4.3907879e-13 2.9504806e-13 0)
(1.6279897e-14 -6.1067234e-14 0)
(7.0465378e-14 -2.3715465e-14 0)
(-1.7457327e-17 1.3075538e-14 0)
(-3.0940577e-17 5.8013582e-15 0)
(-5.9099352e-14 2.8264907e-15 0)
(7.578621e-14 9.3189062e-15 0)
(-3.4447311e-14 2.3825961e-14 0)
(-7.9834578e-15 -3.4309734e-14 0)
(1.0927203e-14 -1.6494086e-13 0)
(-3.7663296e-14 4.6511028e-14 0)
(-1.5413368e-14 7.6964219e-15 0)
(2.674683e-14 -1.3979677e-14 0)
(-4.7210862e-14 0 0)
(-1.4153303e-14 3.4323879e-14 0)
(3.8334772e-14 9.5900906e-15 0)
(-1.0369428e-13 1.525535e-14 0)
(8.0974733e-15 1.2108522e-14 0)
(-3.2645549e-14 0 0)
(1.6195098e-14 -3.9567835e-14 0)
(-1.9245188e-14 -9.4575627e-15 0)
(-6.2109308e-14 2.3299646e-14 0)
(1.1409033e-14 -5.7045163e-15 0)
(-2.5368868e-14 -1.0636647e-14 0)
(-2.8556958e-14 1.9037972e-17 0)
(8.7740767e-14 -5.9545371e-14 0)
(-1.9095748e-13 3.1308842e-13 0)
(1.6600809e-14 1.1067206e-17 0)
(2.68511e-14 -1.340765e-14 0)
(-3.8817139e-14 7.9129735e-14 0)
(2.3601884e-14 5.2708045e-15 0)
(3.507991e-14 -3.5040915e-14 0)
(0 0 0)
(4.3775463e-14 -2.1230707e-14 0)
(-4.4906234e-14 5.8107991e-14 0)
(-4.2871781e-13 6.5562975e-14 0)
(-1.6888443e-14 8.4498511e-15 0)
(-3.6471265e-14 -1.9451342e-16 0)
(-1.9789948e-14 2.0239119e-14 0)
(6.4946981e-14 -5.4134538e-14 0)
(-2.3972528e-14 7.6951815e-15 0)
(-2.6780938e-14 -1.7871812e-14 0)
(-3.0334636e-14 3.4955612e-14 0)
(-5.3722745e-14 4.3789633e-14 0)
(6.1840628e-14 1.5493364e-13 0)
(1.7186273e-14 0 0)
(6.4917879e-14 -3.7117169e-14 0)
(-1.3485117e-17 -1.009361e-14 0)
(-3.0919836e-15 1.5533889e-15 0)
(2.4577039e-14 -1.2288519e-14 0)
(0 1.3511749e-14 0)
(-1.792962e-14 -1.0008444e-14 0)
(1.7084307e-13 -6.6629765e-14 0)
(-5.6196052e-13 1.0310826e-13 0)
(3.4966194e-14 -5.2402638e-14 0)
(-3.8065994e-14 1.6841739e-14 0)
(-4.4920815e-14 4.4652282e-14 0)
(-1.9514022e-14 2.5221381e-14 0)
(-2.5683436e-14 2.283439e-14 0)
(2.833826e-14 0 0)
(6.4739655e-14 -5.2900191e-14 0)
(-9.7616718e-14 1.9961689e-13 0)
(4.6855433e-13 -2.3055317e-13 0)
(-1.7826402e-14 2.6721788e-14 0)
(-1.1545691e-13 6.8161308e-14 0)
(-1.7347203e-14 1.9640466e-14 0)
(6.968797e-14 -4.647673e-14 0)
(-2.5381967e-14 -2.0904319e-14 0)
(0 1.4593445e-14 0)
(1.1152906e-16 -4.5749219e-14 0)
(1.9621264e-13 -1.7087929e-13 0)
(7.4628651e-13 -5.4102786e-13 0)
(1.8158312e-14 2.7158835e-14 0)
(1.9737139e-14 -2.6281143e-17 0)
(4.311271e-14 -5.3847747e-14 0)
(0 -1.0043338e-14 0)
(2.65707e-14 2.2440631e-14 0)
(6.0135738e-14 -6.0135738e-14 0)
(6.3244602e-14 -5.4478595e-14 0)
(-6.0739428e-14 9.6867272e-14 0)
(-1.2446534e-13 3.1996376e-13 0)
(6.1634962e-17 2.7692588e-14 0)
(1.0007888e-13 -3.9967174e-14 0)
(0 1.1029467e-14 0)
(-4.8780892e-14 2.4398584e-14 0)
(1.3685307e-14 -2.7315945e-14 0)
(-2.0697596e-17 3.1046394e-17 0)
(-6.5623727e-14 7.1826846e-14 0)
(-1.3219055e-13 7.515993e-15 0)
(-1.5873615e-13 3.2178595e-13 0)
(0 -9.2229769e-15 0)
(-2.0240406e-14 -1.0380398e-14 0)
(0 0 0)
(0 -6.5360052e-15 0)
(1.3498961e-15 7.8462713e-15 0)
(-6.4071535e-14 6.0715102e-14 0)
(-2.7801115e-14 -4.1726539e-14 0)
(5.7321006e-14 -4.0115789e-15 0)
(1.2508297e-13 -3.0929071e-13 0)
(-6.2101874e-17 1.8642983e-14 0)
(-8.1903996e-14 5.9431562e-14 0)
(-2.1737958e-14 5.4344895e-15 0)
(0 0 0)
(-4.0368989e-14 0 0)
(0 1.4495532e-14 0)
(1.6331187e-14 -4.8852211e-14 0)
(-7.136266e-14 -1.8766565e-14 0)
(-1.2820294e-14 -1.1633982e-13 0)
(-3.6075753e-14 6.0563464e-14 0)
(1.6807078e-15 -1.189424e-14 0)
(2.0951526e-14 -4.1833214e-14 0)
(0 0 0)
(0 0 0)
(5.5162629e-14 -2.7590518e-14 0)
(2.3056785e-15 -4.3849064e-15 0)
(-1.2701665e-13 1.2790407e-13 0)
(-2.4667069e-13 2.4860639e-13 0)
(0 8.7463375e-15 0)
(5.6243253e-14 -5.633082e-14 0)
(4.5131056e-14 -1.7510526e-14 0)
(2.187657e-14 -2.1891184e-14 0)
(4.7818177e-14 -4.7818177e-14 0)
(1.7568392e-17 2.6335019e-14 0)
(-4.612454e-14 1.8821158e-14 0)
(-6.8485176e-14 2.9486061e-14 0)
(-9.2884653e-14 -6.3847955e-14 0)
(3.3947618e-14 -2.5469209e-14 0)
(3.6338883e-14 1.1293044e-14 0)
(-1.3936977e-14 -1.1852943e-15 0)
(6.3334623e-14 -3.7623414e-14 0)
(-2.2967924e-14 3.7861067e-14 0)
(-5.0377738e-14 2.5188869e-14 0)
(-2.7903906e-14 0 0)
(-1.685365e-14 1.9770227e-14 0)
(-8.9669296e-14 -8.026624e-14 0)
(2.7213698e-14 -8.4403179e-15 0)
(-1.7634197e-14 1.3043232e-33 0)
(-1.7514239e-13 1.1748401e-13 0)
(-4.0714777e-14 6.1078958e-14 0)
(-6.8660926e-14 6.8646189e-14 0)
(-2.4154328e-14 0 0)
(0 0 0)
(8.3670356e-14 -6.1295009e-14 0)
(1.6656473e-13 -1.149276e-13 0)
(-2.6459584e-14 2.6277694e-14 0)
(2.1366142e-14 6.2707461e-14 0)
(-2.7198048e-14 2.6343915e-14 0)
(-5.0577535e-14 -2.7480373e-14 0)
(2.2996622e-15 -3.3217343e-15 0)
(4.6374592e-14 0 0)
(5.0902542e-14 0 0)
(-6.1092502e-14 7.464981e-15 0)
(-1.7336072e-13 8.2906146e-14 0)
(-1.3794395e-14 1.0790861e-14 0)
(-3.3189745e-14 3.2492063e-14 0)
(1.620688e-13 -1.4724818e-13 0)
(-1.5382708e-14 1.5382708e-14 0)
(4.1062313e-14 -2.0524311e-14 0)
(2.222031e-14 -2.2250036e-14 0)
(-3.2506453e-17 -2.4347334e-14 0)
(-8.319635e-15 -1.3124941e-14 0)
(-4.7028882e-14 -1.8027821e-13 0)
(-8.0491847e-15 8.0491847e-15 0)
(-3.8971253e-15 -6.8361175e-15 0)
(6.1732178e-14 -3.1204646e-14 0)
(-2.6038362e-14 4.7124643e-14 0)
(-1.7108e-13 1.3150337e-13 0)
(4.2936324e-17 -2.1482474e-14 0)
(3.1661193e-15 -3.1661193e-15 0)
(-8.31023e-14 9.1155513e-15 0)
(4.6709357e-14 -4.8947643e-14 0)
(6.1046911e-15 8.6779468e-15 0)
(3.1389101e-14 -1.567884e-14 0)
(3.8183522e-14 -3.655632e-15 0)
(3.5655534e-14 2.9331857e-14 0)
(-1.0712519e-29 4.6665926e-15 0)
(-4.1346422e-14 -3.4059736e-14 0)
(-5.8570059e-14 7.4625481e-14 0)
(-3.72096e-14 4.9186235e-14 0)
(-3.4701342e-13 1.6884843e-14 0)
(1.4435248e-13 -5.3716786e-14 0)
(-5.7274644e-15 -8.9329193e-14 0)
(1.4095477e-14 -3.5448032e-14 0)
(5.1053658e-14 -2.5526829e-14 0)
(1.6982045e-13 -1.5546587e-13 0)
(1.9718595e-14 -1.9744922e-14 0)
(-3.5460679e-14 -1.9166976e-14 0)
(-1.6098522e-14 -3.217558e-14 0)
(1.9650246e-17 -7.3639297e-15 0)
(6.5768662e-14 -2.3590426e-13 0)
(-4.6054459e-14 -5.6402729e-15 0)
(7.274413e-14 -7.274413e-14 0)
(-1.6635374e-17 2.4953061e-14 0)
(4.9478631e-14 -5.2840268e-14 0)
(2.9073916e-14 -3.876091e-14 0)
(-5.2825863e-14 7.7731646e-14 0)
(1.163681e-16 1.575201e-14 0)
(-1.4447621e-15 -1.6532345e-15 0)
(9.9170303e-14 -2.1120056e-14 0)
(-8.220174e-14 3.7982717e-14 0)
(-1.4074741e-14 -1.1350597e-16 0)
(-7.1879097e-14 2.9187664e-14 0)
(6.1682943e-14 -9.9688884e-14 0)
(-1.8748797e-14 -8.3003149e-15 0)
(1.7736963e-14 -3.0695946e-14 0)
(-3.1372885e-14 -5.2357674e-15 0)
(-2.7267694e-14 3.0330405e-14 0)
(1.1180347e-13 -1.2255212e-13 0)
(-4.0891644e-14 9.8337278e-14 0)
(-4.0950338e-15 1.3982142e-14 0)
(-9.2015383e-15 4.567338e-14 0)
(-4.5169885e-14 1.0008504e-13 0)
(-1.2880053e-13 1.5712989e-13 0)
(1.0211375e-14 2.3638486e-14 0)
(-1.1354485e-14 2.6792059e-14 0)
(1.4173151e-14 -9.4487674e-18 0)
(1.5324149e-13 9.6360097e-14 0)
(-7.4105905e-15 -1.4574161e-13 0)
(8.0934616e-14 -2.70142e-14 0)
(0 0 0)
(-6.1810578e-14 3.4024676e-14 0)
(-2.4147668e-14 1.217829e-14 0)
(-4.3366199e-14 4.852302e-14 0)
(2.0084913e-15 1.3511669e-14 0)
(-1.3994461e-14 6.9972303e-15 0)
(-3.8997783e-14 1.1453789e-13 0)
(3.9618348e-14 -6.3008491e-14 0)
(-1.0928651e-14 1.8237845e-14 0)
(3.0525772e-17 0 0)
(4.0473769e-14 4.0473769e-14 0)
(1.4500937e-13 -1.2711891e-13 0)
(0 -1.5810905e-14 0)
(-5.9339745e-15 -3.6624531e-15 0)
(2.7640439e-14 2.7631225e-14 0)
(2.8833606e-14 1.0964747e-13 0)
(-2.7062664e-14 -1.2645352e-14 0)
(-2.2225582e-14 -1.7814791e-14 0)
(2.23868e-14 -4.4833418e-14 0)
(-1.9874568e-14 -3.9749136e-14 0)
(2.3787735e-17 -3.5681603e-14 0)
(-2.1579484e-17 -3.2326067e-14 0)
(1.4799929e-14 -2.9619605e-14 0)
(-2.7300529e-14 -2.7300529e-14 0)
(-2.3174317e-13 4.1541996e-13 0)
(-8.5153491e-14 5.8650839e-14 0)
(1.1070583e-15 2.2946298e-14 0)
(6.0494455e-14 -8.7861343e-14 0)
(5.8470701e-14 -7.7969612e-14 0)
(-1.7558539e-14 -1.758195e-14 0)
(3.1925235e-14 -2.126931e-17 0)
(1.4575805e-14 0 0)
(0 2.696885e-14 0)
(8.8888127e-14 9.8442766e-14 0)
(-3.4068456e-14 4.487717e-14 0)
(-7.5940467e-14 2.6734981e-14 0)
(-7.5518482e-14 7.4541082e-14 0)
(3.8323759e-14 -3.8298176e-14 0)
(0 3.4570317e-14 0)
(-2.0968047e-17 -3.1431103e-14 0)
(-2.8792094e-14 1.9233196e-17 0)
(1.5916058e-14 -4.6611314e-14 0)
(-2.8831025e-13 3.7608433e-13 0)
(0 1.0144354e-14 0)
(0 0 0)
(-2.1434352e-14 2.187375e-14 0)
(-3.5137341e-14 3.5125609e-14 0)
(0 1.5361471e-14 0)
(0 0 0)
(0 -2.4496416e-17 0)
(5.5606292e-15 2.7766075e-15 0)
(3.947516e-13 -4.0382889e-13 0)
(0 6.7115138e-14 0)
(0 -2.3172292e-16 0)
(4.0836551e-14 -1.202852e-14 0)
(0 -1.6765029e-14 0)
(0 -1.5361454e-14 0)
(0 2.7249538e-14 0)
(0 -6.1159412e-15 0)
(-1.5139734e-14 2.0692947e-14 0)
(2.5002095e-15 4.1509448e-13 0)
(1.5622704e-14 -6.1241002e-14 0)
(4.9621765e-14 -4.6990057e-14 0)
(-3.7238926e-14 4.1550512e-14 0)
(-1.7574537e-14 1.7562805e-14 0)
(-1.0660861e-14 1.5719905e-14 0)
(-1.3620226e-14 -2.2352072e-15 0)
(0 -4.1153961e-15 0)
(-1.5273189e-15 -4.0258939e-15 0)
(-5.9976937e-14 -1.4244522e-13 0)
(2.6933602e-14 -8.0196726e-15 0)
(-1.6551637e-17 1.2446831e-14 0)
(-2.7187711e-15 -1.6161584e-14 0)
(3.5055195e-14 -3.2955169e-14 0)
(-4.680123e-15 2.0891578e-15 0)
(-9.0862081e-18 9.0862081e-18 0)
(0 6.1159412e-15 0)
(1.6667059e-14 -5.553215e-15 0)
(-3.7812102e-13 7.4262785e-13 0)
(-4.5222522e-14 4.4160178e-15 0)
(-4.9605257e-14 2.5555728e-14 0)
(2.0569319e-14 1.3731187e-17 0)
(-2.2056174e-15 -1.8571768e-14 0)
(3.0681978e-14 -4.5982003e-14 0)
(0 0 0)
(0 -1.1007056e-14 0)
(7.4141664e-18 1.1110128e-14 0)
(-6.4331139e-14 -1.3962526e-13 0)
(2.6662749e-15 9.8902135e-14 0)
(0 0 0)
(-2.058302e-14 4.116604e-14 0)
(-3.2849581e-14 5.362694e-14 0)
(0 1.5340972e-14 0)
(1.9262752e-15 1.1684858e-14 0)
(0 2.3255264e-14 0)
(-9.6532522e-15 9.6532522e-15 0)
(2.8128804e-13 -1.5554346e-13 0)
(0 3.3953419e-15 0)
(0 0 0)
(-2.3068395e-14 2.3068395e-14 0)
(1.7574547e-14 -1.7562815e-14 0)
(0 -3.0681978e-14 0)
(-1.5537423e-14 2.9166742e-14 0)
(-1.2240048e-14 -1.2264544e-14 0)
(-1.2574436e-14 2.9252617e-14 0)
(-6.6466146e-14 4.3325196e-14 0)
(0 -1.4081264e-14 0)
(0 0 0)
(2.5539971e-15 3.8721892e-15 0)
(0 1.7562794e-14 0)
(0 -1.5289767e-14 0)
(0 -2.7258611e-14 0)
(1.2240037e-14 1.2256368e-14 0)
(0 5.5606248e-15 0)
(-2.5002058e-14 5.5060713e-14 0)
(6.2449157e-14 -8.5779063e-14 0)
(0 0 0)
(2.0514364e-14 -2.0514364e-14 0)
(-1.7574537e-14 1.7586269e-14 0)
(-2.5346427e-14 4.6709112e-14 0)
(-3.034795e-15 8.9408331e-15 0)
(0 -1.2248213e-14 0)
(0 -1.1121258e-14 0)
(2.2026844e-14 -1.4675722e-13 0)
(-1.2705973e-15 0 0)
(6.878932e-15 -4.1278183e-14 0)
(-6.4775672e-16 2.0853167e-14 0)
(-4.7463553e-15 -4.8931268e-14 0)
(1.749675e-15 0 0)
(1.8795535e-15 1.2017918e-14 0)
(1.3123859e-15 0 0)
(-4.6883087e-15 1.8728214e-14 0)
(-3.9312281e-14 7.7828938e-14 0)
(-5.7092173e-16 8.1236911e-14 0)
(8.5957958e-15 0 0)
(-1.2499579e-14 -2.0839284e-14 0)
(-6.6723826e-15 -1.216585e-15 0)
(1.3108566e-14 0 0)
(-4.8825298e-15 6.0049505e-15 0)
(-2.6317992e-15 0 0)
(1.5638121e-17 -6.5611299e-14 0)
(5.1843375e-14 -1.3583841e-13 0)
(-1.3763111e-14 1.4211716e-13 0)
(-3.4337278e-15 0 0)
(-2.6031749e-15 0 0)
(-5.2235016e-15 8.3620671e-14 0)
(1.747342e-15 0 0)
(-8.0273119e-16 0 0)
(-9.1849442e-15 0 0)
(9.4172764e-15 0 0)
(-7.9239071e-16 -1.6849137e-13 0)