/*--------------------------------*- C++ -*----------------------------------*\
  =========                 |
  \\      /  F ield         | OpenFOAM: The Open Source CFD Toolbox
   \\    /   O peration     | Website:  https://openfoam.org
    \\  /    A nd           | Version:  11
     \\/     M anipulation  |
\*---------------------------------------------------------------------------*/
FoamFile
{
    format      ascii;
    class       volVectorField;
    location    "6.5";
    object      U;
}
// * * * * * * * * * * * * * * * * * * * * * * * * * * * * * * * * * * * * * //

dimensions      [0 1 -1 0 0 0 0];

internalField   nonuniform List<vector> 
4455
(
(99.970115 -0.38076587 0)
(99.927149 -0.94969417 -1.8656328e-18)
(99.67464 -1.4542283 6.4071588e-18)
(99.411418 -1.5586733 2.3098711e-20)
(98.902258 -1.7521119 6.0697001e-18)
(98.460213 -1.7763905 -2.280955e-17)
(97.652639 -1.6905763 1.0129267e-17)
(96.705835 -1.5634227 0)
(95.107679 -0.55275371 -6.1794003e-17)
(99.955148 -0.34536497 -1.2300479e-17)
(99.894444 -0.88465407 1.199657e-17)
(99.678104 -1.2788302 -1.4738347e-17)
(99.34827 -1.4148593 2.4529582e-17)
(98.915537 -1.6338448 -4.6993476e-17)
(98.358985 -1.6561485 5.1309326e-17)
(97.456106 -1.6834156 -4.8966933e-18)
(96.463892 -1.5952755 7.1424578e-18)
(94.529809 -1.3206644 2.6885478e-16)
(99.944691 -0.3114401 -1.3048434e-17)
(99.878214 -0.78441794 1.6450015e-17)
(99.65889 -1.1337474 1.441086e-17)
(99.370458 -1.2378097 -1.4326563e-17)
(98.848436 -1.4792264 6.3017827e-17)
(98.32783 -1.3566381 -3.544676e-17)
(97.314422 -1.3737494 4.5752297e-18)
(96.309653 -1.3809813 -1.0143904e-16)
(94.462366 -0.73112125 -1.9041766e-16)
(99.934944 -0.27468773 -1.2778465e-19)
(99.87839 -0.67681852 -1.6568164e-18)
(99.656275 -1.0089426 3.4587504e-17)
(99.359543 -1.0448489 4.7111932e-18)
(98.815443 -1.2542983 2.1467385e-19)
(98.279473 -1.1079423 -6.8521067e-18)
(97.281824 -0.99091427 7.6126341e-17)
(96.008828 -0.99800014 2.0329384e-16)
(93.864199 0.11423907 1.5947645e-16)
(99.929546 -0.24093703 2.5226931e-17)
(99.883616 -0.5745252 -2.8184568e-17)
(99.656184 -0.86315769 3.6128732e-17)
(99.349726 -0.86077545 1.7429696e-20)
(98.811597 -1.0746295 -4.3461745e-17)
(98.230506 -0.84088639 -1.3350791e-17)
(97.230242 -0.74796484 -5.9992446e-17)
(95.974747 -0.67616765 -9.5768684e-17)
(93.52144 0.4575655 -4.7172179e-16)
(99.931087 -0.20722334 0)
(99.884316 -0.47981862 0)
(99.672285 -0.7121407 -6.2726617e-17)
(99.369875 -0.70482236 -7.2341108e-17)
(98.817913 -0.84844984 0)
(98.229203 -0.55269992 -9.7204803e-17)
(97.142504 -0.34505117 -8.2189067e-18)
(95.652618 -0.25673927 -5.7576321e-18)
(92.863465 1.199679 5.8441207e-16)
(99.936123 -0.17545728 0)
(99.88661 -0.38879712 -1.7151821e-18)
(99.681419 -0.57658194 1.9305173e-18)
(99.388063 -0.56248068 7.0698812e-17)
(98.814294 -0.6841162 -5.2123408e-18)
(98.273909 -0.30573676 2.0739244e-16)
(97.163751 -0.12422402 0)
(95.669921 0.17007572 0)
(92.450631 1.7180728 2.7116875e-16)
(99.942894 -0.1432337 4.8723102e-17)
(99.893339 -0.31081356 0)
(99.696687 -0.45600498 0)
(99.423529 -0.38873937 0)
(98.881747 -0.46068048 0)
(98.258099 -0.02594368 -1.0375751e-16)
(97.118092 0.2996857 -1.1157432e-16)
(95.413642 0.6672323 1.6056804e-16)
(91.724814 2.6532025 4.229599e-18)
(99.952544 -0.11426962 -4.7978276e-17)
(99.903485 -0.23866054 -1.664555e-18)
(99.722371 -0.35028864 -1.870051e-18)
(99.462655 -0.28343325 4.247908e-18)
(98.907122 -0.29551665 1.6360415e-16)
(98.374188 0.18923188 1.8428396e-16)
(97.191816 0.47610208 3.5619258e-16)
(95.418453 1.2256301 -1.5762508e-16)
(91.251186 3.2613835 -4.6702155e-16)
(99.960819 -0.091101351 0)
(99.969204 -0.069926226 9.0126687e-17)
(99.9747 -0.052906588 -8.9393384e-17)
(99.978911 -0.038353376 8.6087109e-17)
(99.982595 -0.026793421 -8.4144721e-17)
(99.98636 -0.018531845 1.6835225e-16)
(99.989022 -0.015644776 -1.6297503e-16)
(99.988337 -0.016566004 0)
(99.991006 -0.020554664 0)
(99.913995 -0.17258582 0)
(99.925574 -0.12155855 1.5552542e-18)
(99.938776 -0.077823754 0)
(99.951702 -0.046825178 4.4377463e-18)
(99.965567 -0.022970572 9.0954161e-17)
(99.981214 -0.0053881726 -2.7155672e-16)
(99.99213 0.0039233585 1.7593223e-16)
(100.00898 0.017071604 -2.6879325e-18)
(100.01987 0.025184589 1.704678e-16)
(99.74585 -0.24907675 1.1212322e-16)
(99.764899 -0.16297912 -2.2122894e-16)
(99.790187 -0.093000418 2.1187202e-16)
(99.81956 -0.032749868 -6.3738795e-18)
(99.846322 0.010983034 -1.0037817e-16)
(99.880554 0.050203616 -3.0609678e-18)
(99.900184 0.068661504 0)
(99.924057 0.079311682 5.7960154e-18)
(99.922068 0.063794394 -2.8291823e-18)
(99.50572 -0.1439722 1.1676189e-16)
(99.565893 -0.015067172 -2.3750691e-16)
(99.609305 0.081077628 2.2674207e-16)
(99.679311 0.17983749 -1.1001342e-16)
(99.720581 0.24996043 -6.9150725e-18)
(99.798426 0.32382372 3.3487682e-18)
(99.841068 0.37199103 0)
(99.950397 0.46231108 -3.1685462e-18)
(99.994206 0.4399662 1.9093838e-16)
(98.969728 -0.097503434 -1.3136813e-16)
(99.017314 0.14077683 0)
(99.1031 0.3153576 -1.2283345e-16)
(99.175999 0.48525924 1.266309e-16)
(99.248636 0.61721474 -1.1505357e-16)
(99.341636 0.74946878 1.1886249e-16)
(99.37453 0.82572796 0)
(99.482496 0.92505864 0)
(99.484646 0.87943997 6.7455914e-18)
(98.330268 0.49226986 -1.6073774e-16)
(98.523286 0.81073082 -1.5485824e-16)
(98.515482 1.1163289 1.4884635e-16)
(98.749671 1.4081486 1.4356483e-16)
(98.808569 1.6578722 -1.3839891e-16)
(99.090299 1.9616465 0)
(99.219109 2.1047473 2.5789353e-16)
(99.496148 2.4645328 -2.5252866e-19)
(99.607567 2.4441009 -4.8231215e-16)
(97.159412 0.89863809 -1.8892266e-16)
(97.251341 1.3463631 0)
(97.227388 1.7383046 0)
(97.347023 2.2045083 5.2611634e-18)
(97.405001 2.5407358 0)
(97.584621 3.0115777 0)
(97.680679 3.2681823 0)
(97.925226 3.7155731 0)
(98.012612 3.7602881 0)
(95.199391 1.7949723 7.3439293e-18)
(95.334095 2.979792 0)
(95.283392 3.6890321 6.6651956e-18)
(95.656088 4.9244918 -1.2457341e-17)
(95.941863 5.5074004 -1.8875759e-16)
(96.548519 6.5299691 -1.7987373e-16)
(97.181292 6.8113535 3.4450349e-16)
(97.734805 7.8356883 3.3437156e-16)
(98.335652 7.8066976 -3.1636121e-16)
(90.324107 4.2705189 8.8795151e-16)
(89.820655 6.445278 -5.484569e-16)
(89.477244 7.8288849 5.1949904e-16)
(90.074357 9.6854128 -4.884523e-16)
(90.65303 10.774371 -6.9876555e-16)
(91.721557 12.290193 1.3170011e-15)
(92.424107 13.196949 -8.3174208e-16)
(93.455019 14.935006 -3.9685639e-16)
(94.207353 15.59516 3.736593e-16)
(99.985038 -0.045282044 -2.2455789e-19)
(99.992138 -0.058011833 2.3067848e-16)
(100.00352 -0.068196106 -1.4631455e-20)
(100.01654 -0.078447043 -2.3244525e-16)
(100.03211 -0.087717762 2.2775247e-19)
(100.05273 -0.094645119 2.3425607e-16)
(100.07987 -0.099060643 -2.3540002e-16)
(100.11618 -0.10143823 -2.3045167e-19)
(100.16692 -0.099038601 -1.187426e-16)
(100.05511 0.040235015 -2.4489166e-16)
(100.06143 0.078530519 2.4702527e-16)
(100.10826 0.10303046 -2.4703699e-16)
(100.10681 0.15869214 0)
(100.15613 0.19000531 2.5000289e-16)
(100.16059 0.27048908 5.1015972e-19)
(100.23428 0.30298793 7.3611185e-19)
(100.26321 0.4182403 -2.5205007e-16)
(100.38492 0.44864836 1.2717681e-16)
(99.938557 0.093153821 2.6249494e-16)
(99.923583 0.1436771 -2.6258511e-16)
(99.966084 0.17871704 -2.6490269e-16)
(99.964879 0.27586383 2.6560906e-16)
(100.06242 0.32794702 -2.6858036e-16)
(100.07684 0.47379194 2.678123e-16)
(100.21617 0.5313168 -2.7118198e-16)
(100.24638 0.71217947 -5.4623294e-19)
(100.42032 0.76667007 2.720261e-16)
(100.12994 0.57337015 -2.7902384e-16)
(100.10812 0.78706422 -1.1020241e-18)
(100.21755 0.91428947 1.1125706e-18)
(100.19991 1.1494784 0)
(100.23366 1.2817176 -5.1085653e-21)
(100.35272 1.4965028 -2.8697949e-16)
(100.32552 1.7248832 2.9158262e-16)
(100.54192 1.9190594 1.1412623e-18)
(100.53735 2.1957102 1.1476065e-18)
(99.622476 1.0512151 -1.1827623e-18)
(99.561892 1.2939203 -3.060729e-16)
(99.734226 1.4428061 -1.4383483e-18)
(99.701911 1.7277569 3.0931805e-16)
(99.939479 1.8824843 3.1246333e-16)
(99.937542 2.2261875 -3.1412566e-16)
(100.24088 2.3932356 -1.2240208e-18)
(100.25667 2.78352 -1.2306965e-18)
(100.59397 2.9385156 -1.2372501e-18)
(99.897119 2.7858201 3.3020099e-16)
(99.86249 3.3092935 0)
(100.0792 3.5948621 0)
(99.977496 4.0488788 3.3542588e-16)
(100.20179 4.3214782 -3.3985422e-16)
(100.12598 4.8036806 -3.4229326e-16)
(100.44224 5.0785783 6.8592926e-16)
(100.42524 5.6120016 3.5678721e-20)
(100.79461 5.8797715 -6.9409022e-16)
(98.288951 4.1362513 -1.4469718e-18)
(98.444512 4.6420467 0)
(98.738644 4.9019085 1.4623386e-18)
(98.945522 5.4186904 3.759511e-16)
(99.335652 5.6914669 -3.7824751e-16)
(99.614658 6.1984376 3.8053235e-16)
(100.03138 6.436022 -3.8136671e-16)
(100.28962 6.8781319 -1.4980019e-18)
(100.72542 7.0503724 3.8634477e-16)
(98.881746 8.7863801 -4.0784077e-16)
(99.269913 9.6524545 4.1345992e-16)
(99.530632 10.319331 -4.1683661e-16)
(99.871973 10.952396 4.1470252e-16)
(100.27528 11.439122 -4.1410815e-16)
(100.70199 11.892881 -4.0805946e-19)
(101.09653 12.209937 4.2009137e-16)
(101.50785 12.521527 3.2836239e-18)
(101.86816 12.724767 2.1026167e-16)
(95.580838 16.487848 0)
(96.360183 16.469508 -4.61499e-16)
(97.808745 16.448726 4.0112994e-18)
(98.509442 16.002114 5.6715335e-18)
(99.63721 15.596042 9.199835e-16)
(100.35296 14.602569 -4.597359e-16)
(101.80344 13.906984 -4.582527e-16)
(102.76951 13.102389 4.5999881e-16)
(103.83482 12.589772 2.3223005e-16)
(104.34853 11.633187 -2.7140404e-16)
(105.0157 10.884992 0)
(105.28758 10.034972 2.7465043e-16)
(105.68648 9.495167 -2.7459449e-16)
(105.42422 8.7875175 0)
(105.34031 8.054796 0)
(104.59367 7.3958247 0)
(104.04464 6.9763795 -2.92181e-16)
(102.90046 7.0366094 2.9217906e-16)
(102.189 12.904593 -2.3949578e-16)
(102.53997 13.099611 0)
(102.7801 13.172262 0)
(103.01146 13.25488 0)
(103.21439 13.201038 0)
(103.30635 13.228347 0)
(103.27143 13.241041 0)
(103.1991 13.323609 2.4059283e-16)
(102.95798 13.383382 -4.8459483e-16)
(100.93537 7.4132121 2.1755254e-19)
(101.36019 7.7542441 -4.2502056e-16)
(101.49902 8.0641398 0)
(101.91717 8.3913429 -2.130667e-16)
(102.0409 8.6588219 2.1306644e-16)
(102.42848 8.9252553 0)
(102.48884 9.1866493 0)
(102.82446 9.4557035 0)
(102.78147 9.7461222 0)
(100.81678 6.4134411 3.7350049e-16)
(101.20936 6.7392284 0)
(101.24973 7.2708364 1.8673349e-16)
(101.62414 7.567855 -3.735057e-16)
(101.7083 8.1046443 1.8676838e-16)
(102.07815 8.3905422 0)
(102.18491 8.948772 0)
(102.56714 9.2440518 0)
(102.668 9.8109035 1.8701648e-16)
(100.61137 3.3594818 0)
(100.98332 3.5503409 3.3649833e-16)
(101.01864 4.0130683 -5.0477583e-16)
(101.44173 4.2097173 1.6828293e-16)
(101.49702 4.712703 1.6825242e-16)
(101.97338 4.9196976 -3.0337332e-20)
(102.03648 5.4550867 -3.3647912e-16)
(102.54203 5.6753605 3.3643537e-16)
(102.60164 6.2329753 -1.6819115e-16)
(100.81536 2.445922 0)
(100.86441 2.6875193 1.5215606e-16)
(101.10644 3.0706602 -1.5215605e-16)
(101.22683 3.2697473 0)
(101.49495 3.6636067 -3.0411266e-16)
(101.6472 3.8897509 3.0411531e-16)
(101.98378 4.3343845 1.5188639e-16)
(102.18345 4.5570646 -3.0365201e-16)
(102.55978 5.0401913 1.5176764e-16)
(100.46802 0.98296565 0)
(100.69159 1.0518256 0)
(100.7636 1.3189518 0)
(101.06192 1.3983622 -1.3967501e-16)
(101.15022 1.7091917 2.7939094e-16)
(101.51885 1.848672 -2.7925379e-16)
(101.62639 2.125431 1.3958219e-16)
(102.03868 2.37146 -1.3935971e-16)
(102.216 2.5851665 2.7857938e-16)
(100.43799 0.5970685 -2.5795078e-16)
(100.6066 0.62693498 4.5406688e-20)
(100.68426 0.81138143 1.2897198e-16)
(100.88785 0.83594488 -1.2886436e-16)
(101.0095 1.058052 1.2881761e-16)
(101.27592 1.0553764 0)
(101.42743 1.2998587 1.2856812e-16)
(101.78685 1.3390549 -2.5704054e-16)
(101.97573 1.5656315 1.2841027e-16)
(100.20335 -0.079276632 2.1249616e-20)
(100.2921 -0.098499974 1.2017517e-16)
(100.35879 -0.035863857 1.202186e-16)
(100.51888 -0.010586344 -1.2021861e-16)
(100.60696 0.045180644 0)
(100.80798 0.076377504 0)
(100.92144 0.14209824 -1.1998749e-16)
(101.17004 0.16788016 2.3988373e-16)
(101.32438 0.25675644 -1.1989662e-16)
(101.66525 0.3020807 0)
(101.87736 0.39273971 -1.1944466e-16)
(102.3193 0.47260194 2.2446692e-19)
(102.59649 0.57742726 2.599925e-19)
(103.11381 0.65115311 3.027129e-19)
(103.49521 0.78300799 1.1865748e-16)
(104.09791 0.871205 1.1790694e-16)
(104.57194 1.0108117 -1.1790694e-16)
(105.29733 1.1087632 0)
(102.40949 1.5891755 0)
(102.65754 1.8892183 0)
(103.18645 1.9144228 -1.2756165e-16)
(103.46921 2.1784525 3.2061494e-19)
(104.11715 2.2650192 3.7042449e-19)
(104.47741 2.6071074 1.2687644e-16)
(105.16249 2.605208 1.2599806e-16)
(105.6926 3.0265515 -1.2599803e-16)
(106.37776 3.0524443 0)
(102.61762 2.9799066 -1.3921565e-16)
(102.96207 3.1304291 0)
(103.25805 3.6403747 0)
(103.83493 3.7455591 -1.3831315e-16)
(104.05607 4.3394023 2.7620974e-16)
(104.754 4.4740543 -3.7249129e-19)
(105.01177 5.0417251 -4.2480805e-19)
(105.80908 5.2958643 -1.3725327e-16)
(106.10646 5.8568477 0)
(102.78185 5.288674 -1.5149023e-16)
(103.24396 5.7422151 1.5149019e-16)
(103.46671 6.0155683 0)
(103.98519 6.5139241 0)
(104.27404 6.7808439 1.5057784e-16)
(104.86232 7.3123393 -1.5057783e-16)
(105.13115 7.6969647 1.4986669e-16)
(105.88618 8.152182 -7.5150873e-17)
(106.13161 8.7187186 -7.4718232e-17)
(103.13312 6.4738455 -1.6814102e-16)
(103.19045 7.0723574 1.6813702e-16)
(103.76113 7.3418483 0)
(103.83511 8.0185996 0)
(104.38301 8.3022677 0)
(104.57385 9.102822 0)
(104.99336 9.4367214 0)
(105.34072 10.326134 0)
(105.72195 10.741963 0)
(103.03277 10.102049 -1.8701563e-16)
(103.13567 10.717638 1.8727677e-16)
(103.48121 11.017842 -1.8727493e-16)
(103.55959 11.679567 1.876442e-16)
(103.91242 12.037384 -1.8763012e-16)
(103.91687 12.773906 0)
(104.35265 13.204508 0)
(104.31075 14.026893 0)
(104.80332 14.520507 0)
(103.04035 10.069385 0)
(102.88967 10.411389 -2.1651218e-16)
(103.1176 10.811505 2.1647012e-16)
(102.87942 11.205164 0)
(103.10664 11.709105 2.1918345e-16)
(102.77626 12.172216 -2.191721e-16)
(103.00564 12.824004 0)
(102.52741 13.392447 1.1104387e-16)
(102.78229 14.188574 -2.2250626e-16)
(102.83336 13.636958 2.4368176e-16)
(102.42141 13.89902 2.471932e-16)
(102.29012 14.26416 -2.4720198e-16)
(101.77947 14.609773 2.5130264e-16)
(101.58165 15.000308 -5.0471619e-16)
(100.93028 15.43383 5.0924534e-16)
(100.63336 15.872389 -5.139137e-16)
(99.785139 16.394978 2.581449e-16)
(99.439709 16.920332 0)
(102.08707 7.2805874 -3.0108801e-16)
(100.86517 7.5754184 3.0108941e-16)
(100.24393 7.6191554 0)
(99.038007 7.6276849 0)
(98.234085 7.372078 0)
(96.96135 7.0800881 0)
(96.058238 6.7945997 0)
(94.811267 6.7723024 -1.6639582e-16)
(93.879404 7.0503726 1.6639261e-16)
(92.31265 7.7313419 1.7112824e-16)
(98.436212 17.604819 0)
(102.1625 14.919323 1.1151592e-16)
(104.74816 15.460755 0)
(106.10622 11.739775 0)
(107.0025 9.1812489 0)
(107.00909 6.1434674 6.7819457e-17)
(107.09082 3.4641837 6.2106392e-17)
(105.88767 1.2645399 5.8148205e-17)
(91.480066 8.7444015 -1.7112551e-16)
(98.099214 18.378041 0)
(102.49385 15.827008 0)
(105.24528 16.010229 9.4287468e-17)
(106.61697 12.195335 0)
(107.29884 9.7902582 -7.3859058e-17)
(107.36327 6.7479069 -1.3531811e-16)
(107.77879 3.5754033 -1.2383623e-16)
(106.72815 1.3796562 -1.159476e-16)
(89.439716 10.070967 0)
(96.878582 19.494804 0)
(101.82291 16.784191 1.1274713e-16)
(105.21616 17.106377 -9.4288984e-17)
(106.88745 13.334566 0)
(108.28417 10.420693 7.3859043e-17)
(108.38807 7.1081379 6.7487971e-17)
(108.7147 3.9404052 6.1729834e-17)
(107.46225 1.5411269 5.7799383e-17)
(88.661926 11.675515 1.7806919e-16)
(96.660554 20.580818 0)
(102.24181 17.790223 -2.2586233e-16)
(105.7787 17.735994 0)
(107.6403 13.821342 0)
(108.68736 10.970509 -7.3039044e-17)
(108.81158 7.7267803 -6.6670898e-17)
(109.41011 4.1440121 0)
(108.42445 1.6811852 -5.6956002e-17)
(86.485698 12.874056 -1.7806936e-16)
(95.397628 22.037125 -1.3714665e-16)
(101.55812 19.012839 1.1309261e-16)
(105.77886 19.029354 0)
(107.88558 15.077201 0)
(109.74605 11.812261 7.3039016e-17)
(109.98068 8.1388675 6.6670869e-17)
(110.54328 4.5160674 0)
(109.31299 1.8486443 5.6955994e-17)
(85.770028 14.610459 0)
(95.3405 23.246359 1.3712904e-16)
(102.05197 20.088898 -1.135169e-16)
(106.44105 19.729042 0)
(108.71201 15.560535 0)
(110.29631 12.322723 -7.1971946e-17)
(110.48493 8.7989399 -6.5637346e-17)
(111.28407 4.7899866 0)
(110.41872 1.9966533 -5.5894059e-17)
(83.4612 15.767903 0)
(94.149703 24.966062 0)
(101.39963 21.619533 1.1351677e-16)
(106.4952 21.218685 -4.6611412e-17)
(109.15866 16.948828 -4.084892e-17)
(111.4697 13.286496 1.0763859e-16)
(111.81193 9.2355643 9.8148619e-17)
(112.618 5.1201787 0)
(111.45566 2.1745824 8.3530457e-17)
(82.995173 18.034909 0)
(94.191859 26.27296 -6.939235e-17)
(102.01352 22.756192 0)
(107.34253 21.958997 4.6596527e-17)
(109.93952 17.465059 4.0834936e-17)
(112.10653 13.82888 -3.6019759e-19)
(112.41316 9.9908357 -6.4683246e-17)
(113.42793 5.508376 0)
(112.7082 2.3336478 -2.7636402e-17)
(80.431311 20.059549 -9.3178215e-17)
(93.126606 28.423715 6.9375301e-17)
(101.48033 24.793597 0)
(107.50347 23.704076 0)
(110.67564 19.019329 0)
(113.46059 14.891199 -7.0200452e-17)
(113.90791 10.366292 3.8898416e-19)
(114.94665 5.7894035 0)
(113.89641 2.5108832 0)
(115.49636 2.6794057 0)
(115.82416 6.2834381 0)
(114.67816 11.218649 -1.5293716e-18)
(114.16536 15.42008 3.6621734e-17)
(111.50263 19.437649 0)
(108.53078 24.321046 -5.8592313e-18)
(102.41348 25.761543 -6.0327128e-19)
(93.495709 29.972317 -5.7772786e-17)
(80.343848 22.719158 1.7413504e-16)
(117.00834 2.8011942 -1.3164438e-17)
(117.53721 6.3506546 -1.7988504e-18)
(116.39598 11.361436 1.5983974e-17)
(115.67055 16.329489 -7.1441774e-20)
(112.62049 20.826282 -1.7110739e-17)
(108.98162 26.032398 2.2226399e-17)
(102.43858 27.956036 -7.1447443e-18)
(92.885824 32.81183 7.5021569e-17)
(79.319267 27.674457 -8.888662e-17)
(118.55777 2.901914 2.6329895e-17)
(118.54214 6.8368998 0)
(117.31692 12.213864 3.1118035e-17)
(116.62181 16.672164 -1.69261e-17)
(113.80276 21.115975 1.7291115e-17)
(110.33343 26.531542 -4.2061059e-17)
(104.15292 28.728857 -3.438263e-17)
(94.709394 34.160921 1.7105022e-17)
(82.181219 29.738047 1.8098438e-18)
(120.21394 2.9985244 -1.3182624e-17)
(120.42895 6.896733 -1.7741636e-18)
(119.30428 12.362854 -1.3698462e-17)
(118.22225 17.807806 1.934179e-17)
(115.15622 22.66796 7.295492e-18)
(111.22253 28.395666 2.2589034e-17)
(104.67411 31.059541 2.7715749e-17)
(94.901857 36.916409 9.047456e-18)
(82.395016 33.97623 -1.0359604e-17)
(121.98868 3.0980357 3.1719323e-18)
(121.64698 7.3227687 -3.4307838e-18)
(120.35492 13.133691 -1.9296901e-18)
(119.5164 17.863715 6.2656192e-18)
(116.60589 22.772996 -7.3468654e-18)
(112.8138 28.767563 -8.2471162e-18)
(106.80989 31.62437 -7.1493381e-18)
(97.098865 37.938016 8.0754186e-18)
(85.127331 35.505342 -1.2018076e-17)
(123.86012 3.1957827 -3.2091721e-18)
(123.68833 7.4081959 3.4720346e-18)
(122.57831 13.295261 -1.9087458e-18)
(121.14725 19.184104 -9.8104282e-21)
(118.24575 24.348048 -2.3503194e-18)
(113.93393 30.700543 5.6062597e-18)
(107.60237 34.026205 -7.1205853e-18)
(97.587166 40.560967 8.0606661e-18)
(85.655339 39.502381 0)
(125.81232 3.2823016 -3.0532584e-18)
(125.08061 7.8043446 -1.7081301e-18)
(123.74124 13.90348 -1.8314469e-18)
(122.79428 19.008266 -2.1222817e-18)
(119.75722 24.368025 -2.3769369e-18)
(115.7993 30.916321 5.7828351e-18)
(109.9363 34.443758 -1.3545894e-17)
(99.966368 41.345822 1.7013838e-17)
(88.448215 40.755758 -1.0390084e-17)
(127.8375 3.3518129 9.0521075e-18)
(127.27987 7.8913251 6.5270417e-18)
(126.18616 14.184631 9.0950897e-18)
(124.4734 20.297779 1.003908e-17)
(121.71565 25.870318 7.1833346e-18)
(117.01061 32.917647 -2.665316e-18)
(110.98301 36.939428 -7.0191634e-18)
(100.78213 44.056118 -9.570043e-19)
(89.191462 44.445876 -1.1460031e-17)
(129.93974 3.3984177 -1.763681e-17)
(128.81494 8.2375454 -6.6084301e-18)
(127.46234 14.519585 -2.3283393e-17)
(126.32265 20.062532 -6.1563146e-18)
(123.32027 25.792261 1.5864254e-17)
(119.2072 32.860392 8.2772226e-18)
(113.40475 37.151936 -3.9439151e-17)
(103.34603 44.635561 7.9247362e-18)
(92.063213 45.191678 2.2425336e-17)
(93.157162 48.41114 -2.2018615e-17)
(104.53588 47.406735 8.8118952e-18)
(114.81859 39.644604 5.870316e-17)
(120.68925 34.904197 -8.1461528e-18)
(125.48277 27.266448 3.8891865e-18)
(128.30337 21.204532 1.1453614e-17)
(130.08192 14.816712 1.6118729e-17)
(131.13973 8.2396916 -7.8602578e-19)
(132.11338 3.4225612 2.37085e-17)
(96.125829 48.800743 8.6340795e-17)
(107.21385 47.694282 7.7421143e-18)
(117.35994 39.560774 -8.3634781e-17)
(122.98377 34.551763 -2.5376041e-18)
(127.2625 26.940629 -1.5895539e-17)
(130.00056 20.871057 -1.3750701e-17)
(131.47141 14.943442 -2.8589843e-17)
(132.78514 8.5771315 0)
(134.35178 3.4196548 -1.13757e-17)
(97.370829 51.79479 -1.1061409e-16)
(108.70317 50.333115 7.8380507e-17)
(119.1326 41.944634 4.5057773e-17)
(124.87195 36.515082 -2.4809696e-18)
(129.63745 28.365539 3.4122208e-17)
(132.53404 21.854459 7.4538904e-20)
(134.24703 15.182087 4.5467389e-18)
(135.21101 8.5399561 2.1888294e-17)
(136.64231 3.3885738 2.0818517e-17)
(100.28256 51.968101 -2.1613758e-17)
(111.45842 50.256612 1.3125718e-17)
(121.74812 41.532919 -6.4708206e-18)
(127.18414 35.903282 0)
(131.51482 27.783232 -3.4607459e-17)
(134.05459 21.486406 0)
(135.76451 15.187951 2.479757e-17)
(136.93848 8.7574465 -4.4809909e-17)
(138.97273 3.3310062 -1.1862646e-18)
(101.80515 54.929365 -9.9401015e-18)
(113.27628 52.714127 -6.138917e-17)
(123.85726 43.747829 6.3042709e-18)
(129.44882 37.703661 0)
(134.15075 29.050994 -3.3870331e-17)
(136.85501 22.11721 2.7349907e-17)
(138.60287 15.242013 1.5739357e-18)
(139.44185 8.6659801 4.4518039e-17)
(141.32089 3.2434287 -2.0118276e-17)
(104.84015 54.940123 -9.4724137e-17)
(116.11284 52.273344 -5.0570441e-17)
(126.51273 43.007086 -5.5210886e-19)
(131.75004 36.82814 -4.8787621e-18)
(136.06375 28.233177 -1.2547364e-19)
(138.4459 21.653912 -5.3829819e-17)
(140.18715 14.978511 1.5101142e-18)
(141.1919 8.7649707 -2.1946767e-17)
(143.66909 3.1179795 0)
(106.78443 58.037278 6.5170494e-17)
(118.2463 54.58247 7.4139882e-17)
(128.93783 45.032782 -5.3602915e-19)
(134.30914 38.427783 -4.6958454e-18)
(138.93808 29.288741 2.9365934e-17)
(141.34058 22.203595 2.8268844e-17)
(143.10797 15.006809 1.4019337e-18)
(143.76579 8.6368801 -1.2846016e-18)
(145.99606 2.952979 0)
(109.93208 57.799263 0)
(121.2959 53.809908 -6.6568826e-18)
(131.59111 43.96594 5.6752501e-18)
(136.58903 37.258113 -6.3755268e-17)
(140.83265 28.240165 -1.8481407e-18)
(143.00285 21.281818 4.6012793e-17)
(144.66517 14.442584 -4.0164224e-17)
(145.47196 8.5447362 3.7119532e-17)
(148.27958 2.7477082 3.1202019e-17)
(112.46932 60.910838 1.4745534e-16)
(123.56094 55.904338 1.1623681e-16)
(134.34067 45.803978 -5.4189297e-18)
(139.44101 38.647746 6.7225443e-17)
(143.91581 29.061065 -1.6706968e-18)
(145.88003 21.833163 -4.6824566e-17)
(147.54353 14.355627 4.3424258e-17)
(148.07954 8.3547773 -3.8786111e-17)
(150.4955 2.4994234 -2.6174154e-18)
(152.67463 2.1660791 -2.8713678e-17)
(149.693 8.0482174 3.1525873e-17)
(149.12427 13.554516 0)
(147.72668 20.544953 -2.7121708e-18)
(145.79012 27.62986 4.9825997e-17)
(141.6795 37.071951 5.4421185e-17)
(136.98269 44.241933 0)
(127.28052 54.955789 -8.4555602e-18)
(115.97043 60.172425 -1.441221e-16)
(154.56249 1.7944405 0)
(152.33638 7.6801835 -3.2614881e-17)
(151.93771 13.18547 0)
(150.50718 20.702711 -2.5361922e-18)
(149.14274 28.064115 -8.8833883e-17)
(145.0739 38.111114 -5.9422751e-17)
(140.48747 45.761873 6.7863419e-17)
(130.25192 56.743503 -8.6636211e-17)
(120.04699 63.525794 1.078666e-16)
(156.36988 1.3798626 0)
(153.82489 7.1139909 0)
(153.46324 12.169224 -3.0591258e-17)
(152.48 19.04206 0)
(151.155 26.211538 4.4724171e-17)
(147.38013 35.982148 -4.6840583e-17)
(143.12759 43.63867 -6.1870559e-17)
(134.57718 55.322604 -4.6336203e-18)
(124.26072 61.734128 -2.3075696e-17)
(158.00409 0.96133501 0)
(156.27988 6.656646 0)
(156.06618 11.624368 3.1226288e-17)
(155.05956 18.958153 2.9783717e-17)
(154.35399 26.308343 3.6788818e-17)
(150.91147 36.663101 5.0954706e-17)
(146.74217 44.726179 0)
(137.63451 56.342153 6.5463741e-17)
(129.46036 64.540321 -1.1931124e-16)
(159.42707 0.55169088 3.1666048e-19)
(157.50668 5.9686209 -3.4801745e-19)
(157.47345 10.29899 0)
(157.02238 17.014487 -3.6954355e-18)
(156.27877 24.134649 -7.3466809e-17)
(153.23213 34.234502 2.5385465e-18)
(149.47409 42.237384 5.0643315e-17)
(141.55521 54.401815 -7.2326282e-17)
(134.03358 61.733719 9.0949051e-17)
(160.62907 0.14978514 -2.8294709e-19)
(159.65631 5.4071835 3.1148008e-19)
(159.85825 9.7431099 0)
(159.22855 16.651989 -3.1453561e-17)
(159.3532 23.833879 3.8240681e-17)
(156.59667 34.507967 -2.2758175e-18)
(152.771 42.859622 -5.2378159e-17)
(144.35626 54.606761 0)
(140.20619 63.803807 -8.9104322e-17)
(161.59468 -0.23723797 2.5068122e-19)
(160.61305 4.5654935 1.763297e-17)
(160.89876 8.127363 -6.8910917e-19)
(160.96519 14.446294 2.2273667e-17)
(160.97987 21.2727 2.8080921e-17)
(159.04785 31.697864 0)
(155.6882 40.243694 0)
(147.43414 52.088728 -5.4516845e-17)
(145.48378 60.131526 0)
(162.34009 -0.64366555 0)
(162.34042 3.9044837 -1.827882e-17)
(163.0144 7.5483965 0)
(162.99704 13.917023 -2.502936e-17)
(163.80056 20.653512 -2.5463927e-17)
(162.08573 31.445035 2.4197106e-17)
(158.77297 40.607524 0)
(149.4422 51.617524 5.9025222e-17)
(151.55228 61.045626 -1.4641428e-17)
(162.72449 -0.80580105 0)
(162.88419 3.019277 0)
(163.60551 5.78135 -5.3134333e-19)
(164.14572 11.384539 -6.1427039e-19)
(165.23353 17.058258 1.3490648e-18)
(164.7556 27.789053 -2.4977015e-17)
(163.04443 37.047101 0)
(151.62615 48.177324 0)
(155.60377 56.691915 1.2495033e-17)
(163.11137 -1.2846258 -3.2867649e-19)
(164.16717 2.320507 -3.3729524e-20)
(165.3877 5.1848444 1.2807698e-17)
(165.86203 11.124869 0)
(167.05666 17.586938 0)
(166.92985 27.765136 -9.856871e-19)
(164.97139 39.277084 -1.2485926e-17)
(152.09373 50.829036 1.1364952e-18)
(159.79254 55.979848 0)
(163.03589 -1.4953563 -2.7507776e-19)
(164.47945 1.7954897 -1.6947996e-20)
(165.85842 4.4210109 -1.1595339e-17)
(167.11479 10.125361 0)
(168.68928 16.92257 0)
(169.12743 28.570866 4.3941547e-19)
(167.13063 41.321452 1.1999673e-17)
(151.91194 52.304069 -9.4396126e-19)
(154.61445 53.547035 -6.0994507e-17)
(162.79514 -1.7251146 0)
(165.30819 0.90868545 1.5680929e-17)
(167.29609 3.6266173 0)
(169.06473 9.9502981 5.0664294e-19)
(170.20189 17.227196 -5.531387e-19)
(170.92904 28.684903 4.5924065e-20)
(170.43637 43.115033 1.9932394e-17)
(148.70003 55.00795 7.2385163e-19)
(138.60164 51.157186 5.800021e-17)
(162.35364 -1.958908 1.1773093e-17)
(165.24181 0.21404352 -1.4970363e-17)
(167.475 2.7525076 1.1364485e-17)
(169.81549 8.2819367 7.8496054e-18)
(172.27992 16.297651 -5.5820961e-18)
(172.74403 29.099986 -4.3237929e-18)
(172.90343 44.509653 -1.9388271e-17)
(143.44298 54.336697 8.4589685e-17)
(118.34375 58.414121 0)
(161.6776 -2.188315 -2.2594454e-17)
(165.82671 -0.91490052 1.004931e-17)
(168.43827 1.6002669 -1.0993686e-17)
(172.09348 7.8656389 -5.4294375e-18)
(173.99102 16.153173 5.1315063e-18)
(174.52523 28.993251 -8.6253909e-18)
(174.42161 46.309965 0)
(137.82592 59.5556 -8.069183e-17)
(85.307923 68.982034 0)
(160.74294 -2.4132745 2.0970977e-17)
(165.51856 -1.735549 -9.6004521e-18)
(168.69268 0.91291254 5.5957282e-18)
(172.69198 5.9156612 -2.1744389e-18)
(176.11297 14.754647 3.4608064e-19)
(176.59502 29.250568 1.250237e-17)
(173.97679 49.318488 -4.9771164e-17)
(127.32768 58.703648 4.8678898e-17)
(35.136669 27.07901 3.3418158e-17)
(159.56836 -2.6352667 -1.0299933e-17)
(165.88739 -3.1397816 2.2023918e-19)
(168.95868 -0.64536356 -5.4212832e-18)
(174.58765 4.9744336 -2.7711966e-19)
(177.82916 14.452892 2.9894508e-19)
(178.27332 29.235667 3.1124654e-17)
(171.83813 49.847173 1.0430335e-16)
(103.75126 51.601529 -4.6368e-17)
(-6.284942 2.2240584 -3.1681674e-17)
(158.15321 -2.8431778 -1.1830328e-19)
(165.09272 -4.0296737 1.2748983e-19)
(169.1423 -1.5625302 1.4648229e-18)
(175.2794 2.8971944 -1.1204512e-17)
(179.84521 12.753184 2.340167e-17)
(179.8403 28.749869 -6.9831294e-17)
(167.47872 50.920672 -1.1489238e-16)
(75.564336 45.058554 2.1938421e-17)
(-7.1393353 8.7670045 5.0219702e-17)
(156.55651 -3.0482473 1.1190525e-17)
(165.00279 -5.3578037 -3.9560014e-20)
(169.00476 -3.1694778 -1.2768898e-18)
(176.42597 1.6298229 1.0865727e-17)
(181.2702 12.196999 -2.1610163e-17)
(180.61888 28.58799 3.8902043e-17)
(158.69619 50.985318 5.6674918e-17)
(45.20223 29.449984 -2.1422555e-17)
(-14.522256 12.148254 -4.7847236e-17)
(-16.956031 10.854875 -1.0008635e-16)
(23.679072 20.753995 -2.9728921e-19)
(151.21931 52.531942 1.190415e-18)
(180.79108 27.765795 -1.0181973e-18)
(182.82913 10.425579 0)
(176.70751 -0.4576848 1.4069646e-19)
(168.86189 -4.1696028 7.1384386e-19)
(163.73029 -6.1919104 -4.4659407e-18)
(154.76342 -3.2198737 -2.3182908e-17)
(-19.466006 10.551045 9.6594061e-17)
(10.619702 14.897477 0)
(143.71484 51.234671 0)
(181.91259 25.989593 1.5693985e-16)
(183.72254 8.4625216 0)
(177.33224 -2.3471693 -4.0798616e-17)
(168.30113 -6.0615716 -4.217683e-18)
(163.11048 -7.5375646 4.282619e-18)
(152.83223 -3.3361313 -1.4314197e-17)
(-21.004768 9.6943789 4.6762296e-19)
(1.1716916 15.771078 -3.7659212e-19)
(134.26085 51.092347 0)
(181.411 25.007236 -1.5348784e-16)
(184.75754 6.7034047 0)
(177.34541 -4.2640143 4.0260806e-17)
(167.63335 -7.1686414 3.1687108e-18)
(161.49681 -8.175511 -1.0138995e-19)
(150.83997 -3.3850862 2.6025111e-17)
(-21.606206 9.8826012 2.1883753e-16)
(-0.6132516 21.674763 -4.8222647e-17)
(127.14097 48.720684 7.3493615e-19)
(181.84458 22.711424 0)
(185.19593 4.6001702 -1.040419e-16)
(177.53924 -6.2726116 0)
(167.06719 -8.8338206 3.2362545e-20)
(160.32681 -9.523312 -1.1553001e-19)
(148.73788 -3.3752749 7.8127677e-20)
(-22.441198 10.905715 -2.1061325e-16)
(1.1868014 31.80876 -2.1486854e-17)
(118.1262 48.782253 1.7753317e-16)
(180.61751 21.681437 -1.3263366e-18)
(185.74415 2.626044 -7.3479615e-18)
(177.03311 -8.4252808 0)
(165.67182 -10.284651 -3.310879e-18)
(158.37054 -9.972386 0)
(146.50966 -3.3405829 0)
(-21.448217 12.281355 6.3079869e-19)
(1.7246477 38.847572 6.3671838e-17)
(112.42594 46.655515 -3.5715379e-16)
(180.24662 19.143798 2.1608555e-16)
(185.67894 0.3079544 1.0746271e-16)
(176.95011 -10.369032 4.8340523e-17)
(165.01222 -11.700193 3.1372587e-18)
(156.75486 -11.244586 -1.6027773e-19)