/*--------------------------------*- C++ -*----------------------------------*\
  =========                 |
  \\      /  F ield         | OpenFOAM: The Open Source CFD Toolbox
   \\    /   O peration     | Website:  https://openfoam.org
    \\  /    A nd           | Version:  11
     \\/     M anipulation  |
\*---------------------------------------------------------------------------*/
FoamFile
{
    format      ascii;
    class       volScalarField;
    location    "0.3075";
    object      Ma;
}
// * * * * * * * * * * * * * * * * * * * * * * * * * * * * * * * * * * * * * //

dimensions      [0 0 0 0 0 0 0];

internalField   nonuniform List<scalar> 
880
(
1.11801663592382
1.118016635561532
1.117973056020557
1.107224040071909
1.118016635924239
1.118016635168519
1.117944177172604
1.102909557129093
1.118016635919736
1.118016633676082
1.117858984556939
1.097147094741388
1.118016635893486
1.11801662576525
1.117628353500483
1.07948863487682
1.118016636190526
1.1180166354869
1.118016612385956
1.118016250483162
1.118016559408618
1.11801552029998
1.11801066700537
1.118021238191355
1.116953975298473
1.116121555231393
1.114981978532998
1.114852279946317
1.042972416075228
1.007463321638685
0.9875827459186509
0.9839719615105077
1.118013621850499
1.118006969582409
1.117998270052702
1.117932347257083
1.117939855730024
1.1176670507244
1.117243195914193
1.116511191431696
1.107568489850475
1.101848171551397
1.094509960874049
1.087880077022967
0.9742871721004612
0.9732256629735139
0.9706612589260193
0.9912055199896688
1.048109914613923
1.080453176228822
1.094008698945818
1.104762236419985
1.074439580801593
1.074053680256337
1.078703554706202
1.085753323153603
1.113472272452413
1.109777822138481
1.10615452266103
1.104043035457763
1.117618268806197
1.117062307815894
1.116247362971544
1.11529764946774
1.114439003825544
1.113814794391808
1.113336425834419
1.113054789086068
1.103971672730708
1.105980325555405
1.109591903884717
1.113890366687125
1.094216677421007
1.103362862404453
1.111040144321273
1.118352541575699
1.113469863465031
1.121540932503746
1.124392612628805
1.130677949632859
1.132148480883455
1.125278080633457
1.118529817238346
1.112948286859861
1.121430212040129
1.129707570816295
1.122953322852462
1.113141341629325
0.9693186264118644
1.127161793667685
1.125872889296055
1.113851803309661
0.6780284984384409
1.081653507187956
1.127082233337686
1.115229283228564
1.114217067149407
1.123446190228676
1.013319698369554
0.5677121751792785
1.114439587480979
1.115442647592541
0.9566460431713176
0.5931250985504536
1.114059728085966
1.099891644463601
0.8859446946823912
0.6080802098535232
1.112153757574087
1.075232703785124
0.8302685166566378
0.6344650204102913
0.6699363948255432
0.793520380484017
1.036543232451536
1.107624589202942
0.7104135941788275
0.7901217360825112
0.9925967226808928
1.098136713516163
0.7550565134496418
0.8141685280079977
0.957887912771063
1.083318872328543
0.8024480932023931
0.8610353594924866
0.9460602694857299
1.062859115230931
1.040552042715634
0.9881965567291472
0.9341059208831839
0.8646676872866992
1.048118812952098
1.042039953684839
1.022229711357099
0.9478618202133984
1.06602191851292
1.100625350447624
1.115927578436732
1.052528744701376
1.077121305257378
1.137609036930716
1.200634804950393
1.176916280473722
1.088225323591115
1.173441755327165
1.271922104813507
1.369309485352691
1.105353514992672
1.197765532185016
1.319485617696735
1.559501871413492
1.118088769042033
1.198291350353999
1.334638783369603
1.804806918082783
1.125111346342856
1.184588543202985
1.299481733037483
1.681066980804431
1.261329232633594
1.267109314130363
1.175007621096581
1.128796851497967
1.056990822802996
1.237845730588069
1.163032656817191
1.128423902772145
0.9562541277386607
1.210744094556205
1.153746135913349
1.125585653467101
0.8122085214870086
1.167751656473754
1.140800290817049
1.12257362640116
0.7306958379325771
1.107727449470099
1.122905270166829
1.119655854567485
0.7212136492865352
1.064942836379942
1.110164180554857
1.117956892794356
0.7264681178196162
1.0321674951926
1.106739293089593
1.117611303921179
0.7499759677305218
1.046269819765405
1.110365660482133
1.11777449132394
0.7363422239788002
0.9914417235618768
1.095493556571109
1.116614647688221
0.7503058133072674
0.9896757984585611
1.094610408485863
1.116526711014981
0.7657006403178976
0.986247405695635
1.093714566096408
1.116410338342887
0.7666074171296204
0.9885912845101931
1.094073494254998
1.116377645953742
0.7499759677312531
1.046269819767937
1.11036566048613
1.117774491329423
0.7264681178201514
1.032167495195331
1.106739293090686
1.117611303924004
0.7212136492880149
1.064942836382508
1.110164180556105
1.117956892796896
0.730695837932124
1.107727449473408
1.122905270167669
1.119655854568407
1.128796851496945
1.175007621095283
1.267109314129166
1.261329232636513
1.128423902771355
1.16303265681611
1.237845730587947
1.05699082280355
1.125585653465054
1.153746135912225
1.210744094560851
0.9562541277379817
1.122573626399992
1.140800290814584
1.167751656477128
0.8122085214861958
1.681066980807216
1.299481733036696
1.184588543204193
1.125111346343468
1.804806918084396
1.334638783370483
1.198291350353638
1.118088769043379
1.55950187141412
1.319485617697177
1.197765532186047
1.10535351499036
1.369309485352196
1.271922104815268
1.173441755329217
1.088225323585573
1.040552042712895
0.9881965567263201
0.9341059208801122
0.8646676872862266
1.048118812951775
1.042039953686468
1.022229711355346
0.9478618202123175
1.066021918517026
1.100625350447693
1.115927578435681
1.05252874470097
1.077121305253115
1.137609036931716
1.200634804950246
1.176916280472884
0.8024480932024152
0.8610353594921465
0.9460602694838841
1.062859115222907
0.7550565134499633
0.8141685280081915
0.9578879127715892
1.083318872327758
0.7104135941791822
0.7901217360830591
0.9925967226832255
1.098136713513863
0.669936394826102
0.7935203804829778
1.036543232447409
1.10762458920154
1.114217067149459
1.123446190229401
1.013319698370562
0.5677121751803822
1.114439587475504
1.115442647590526
0.9566460431724649
0.5931250985507446
1.11405972807878
1.099891644456786
0.8859446946825981
0.6080802098552022
1.112153757571304
1.075232703787195
0.8302685166575824
0.6344650204106115
1.115229283229028
1.113851803310397
1.113141341626636
1.112948286859328
1.127082233343195
1.125872889297254
1.122953322853935
1.118529817239253
1.081653507191751
1.127161793668657
1.129707570820021
1.125278080635569
0.6780284984410163
0.9693186264134994
1.1214302120393
1.132148480883403
1.113054789083876
1.11389036668473
1.11835254157405
1.130677949631232
1.113336425835599
1.10959190388209
1.111040144319613
1.124392612628466
1.113814794391867
1.10598032555423
1.103362862406511
1.121540932507582
1.114439003827899
1.103971672731116
1.094216677420784
1.113469863466087
1.117618268806819
1.113472272456768
1.074439580799482
1.048109914612636
1.117062307819509
1.109777822140825
1.074053680255058
1.080453176228353
1.116247362969279
1.106154522662634
1.07870355470827
1.094008698949926
1.115297649469413
1.104043035458986
1.085753323153008
1.104762236423251
0.9912055199906047
1.087880077022815
1.116511191436603
1.117932347254516
0.9706612589270576
1.09450996087311
1.117243195918098
1.117998270053343
0.9732256629728449
1.101848171551671
1.117667050731069
1.118006969584622
0.9742871721013615
1.107568489852546
1.11793985573353
1.118013621847016
0.9839719615115898
1.114852279946426
1.11802123819171
1.118016250481147
0.9875827459196307
1.114981978533848
1.118010667008634
1.118016612385347
1.007463321638577
1.116121555232597
1.118015520301826
1.118016635487859
1.042972416070025
1.116953975300197
1.118016559411334
1.118016636187664
1.11801663592382
1.118016635560182
1.117973056020413
1.107224040062561
1.118016635923802
1.118016635172089
1.117944177172712
1.102909557090975
1.118016635919124
1.11801663367851
1.11785898455731
1.097147094713196
1.118016635891526
1.11801662576788
1.117628353501413
1.079488634862153
1.099201715239977
1.091072211788043
1.073272698713888
1.026871766702369
1.091072211871784
1.078160240097882
1.045326750210881
0.9734221075741806
1.073272698813738
1.045326750274585
0.9817024397672542
0.8791932534991187
1.02687176673202
0.9734221076078733
0.8791932535145783
0.7689919179698779
0.7403766189672144
0.7796178209198417
0.8538152274964554
0.9257740638258961
0.7957743434442557
0.8011939019605822
0.8320013080595861
0.8785270720846937
0.7858430116445656
0.8230889007135407
0.8543686159440098
0.8774288199258184
0.8197322978280418
0.8608426205738814
0.8831293966031364
0.89516373766768
0.9107446395874057
0.9208466365306184
0.9393089790225062
0.9737329556217861
0.9074265156039175
0.9210779913461462
0.9431787310047848
0.9956033028321639
0.8950258164336453
0.9162794965811345
0.9433474051572374
1.058659798376289
0.8505100434413823
0.8740170499484007
0.9072843578352369
1.145185890008058
1.154751618394275
1.19351551111794
1.162832021136841
1.15425071960208
1.274296536478561
1.297049337719003
1.241709256258009
1.209225477160131
1.430140064145606
1.359137395800495
1.290165486963565
1.244853754830726
1.163203175808198
1.096382206903075
1.083147042314683
1.083285564551431
1.149703157993098
1.14990469781447
1.148284059630703
1.145918484856225
1.187207122395801
1.171035351718186
1.157289690408321
1.14407821040368
1.211366876953065
1.184009856202446
1.161697800296278
1.140632534955529
1.073708478366729
1.062766068575085
1.051762717980023
1.034658095363765
1.143690694499064
1.003620417519865
0.708233643155456
0.4462996333696282
1.135901489543156
0.8968344390888769
0.5197913903399857
0.2478757868971791
1.115946422408996
0.7534512759931332
0.3062295725763331
0.03980802726919372
0.9828803086052404
0.5231524914529242
0.1270451035937629
0.05368963378276659
0.3910633118997311
0.4671528365438221
0.5089685636337391
0.5666310379776129
0.3087790955488109
0.4481674195488612
0.5094332158566781
0.5647419725480958
0.1723459634261695
0.3771352807794108
0.4871699730889943
0.5514745028029118
0.04222263050893864
0.21312588945284
0.3600837669810985
0.4510933422209611
0.6241049398884415
0.6789969156519442
0.7470534802388102
0.8054097511776555
0.6243335644295644
0.6801636954094312
0.7422610475365597
0.8038868594192823
0.6171893501558205
0.6751307480444209
0.7349713091940145
0.800262184313857
0.5493451733539038
0.6519168202247152
0.7264867508345709
0.7973888332540231
0.8587679319002925
0.9301848653595497
1.017879540799582
1.122732108073863
0.8546594051794862
0.9166891204464008
0.9992560109598544
1.137753563818126
0.8523328505622483
0.9054015839339602
1.013783028567002
1.44579098471747
0.8491003151521056
0.8994429560857817
1.040759877506187
2.017398596896407
1.33968411901563
1.498202598454842
0.7689003684309877
1.648472817939178
1.430075440159074
1.272782047190306
1.109314760822508
1.742613978933564
1.472732926271028
0.8778454719186454
1.21752230095157
1.702026949251868
1.137166370283383
0.3853476187454191
1.384884979155932
1.636847995935209
0.9365054829624421
0.6502191215154607
0.5439868296840473
0.3899644887681719
1.169998560081725
0.8451322987471784
0.6221547250268462
0.3142280665887943
1.202539955596452
0.8960240943864655
0.5739427233142366
0.2239474607986467
1.159577792630953
0.8750186191869762
0.5335422863414472
0.1819095467233233
0.2138315488556891
0.07752395717491929
0.3115651876680869
0.5028169155015744
0.2562548400227102
0.1106387284054565
0.1606448932174396
0.4399296156879985
0.2332302820203304
0.2211925654690808
0.05141409924735668
0.3319071367695394
0.1925865349858481
0.2462169059149804
0.09560543463593603
0.2778497353521487
0.4552717071785671
0.4561863302154551
0.4630368421206308
0.4570949308811981
0.471874882199238
0.4587629901680836
0.465024828663669
0.452161290560595
0.4419468836185681
0.3678893131982894
0.3211430895844109
0.2609874031967251
0.4968703704244493
0.3525516360617341
0.2295270163401089
0.09878135273155861
0.05643995864874649
0.07786357837486201
0.08993530076308812
0.08869298691005105
0.1487520960249248
0.07674419595978775
0.07219098162592399
0.09613045095226755
0.3817464848316811
0.2886041754023592
0.1762478656576416
0.06392970529289338
0.4359350825947659
0.3848403049706244
0.3094821319808088
0.2458166333232469
0.08869298691035406
0.09613045095207537
0.0639297052905233
0.2458166333227118
0.08993530076359577
0.07219098162558318
0.1762478656555722
0.309482131980496
0.07786357837545591
0.07674419595842005
0.288604175400816
0.3848403049705179
0.05643995864933046
0.1487520960236826
0.3817464848306798
0.4359350825944512
0.4570949308809338
0.4630368421200797
0.4561863302143878
0.4552717071779484
0.4521612905598945
0.4650248286630477
0.4587629901672958
0.4718748821986871
0.2609874031958332
0.3211430895839102
0.3678893131978058
0.4419468836180944
0.09878135273125083
0.2295270163397769
0.3525516360614641
0.496870370424405
0.2778497353522913
0.09560543463440689
0.2462169059131221
0.1925865349843471
0.3319071367692304
0.05141409924814427
0.2211925654672943
0.2332302820181847
0.4399296156874494
0.1606448932176377
0.1106387284037371
0.2562548400202368
0.5028169155009823
0.31156518766816
0.07752395717658134
0.2138315488533638
0.3899644887642992
0.543986829684002
0.6502191215228365
0.936505482977157
0.3142280665862798
0.62215472502548
0.8451322987500738
1.169998560088261
0.2239474607972803
0.5739427233127372
0.8960240943861412
1.202539955598575
0.1819095467224175
0.5335422863400116
0.8750186191853659
1.15957779263181
1.648472817949935
0.7689003684345092
1.498202598450593
1.339684119014408
1.742613978939404
1.109314760831396
1.272782047187426
1.43007544015779
1.702026949255328
1.217522300959026
0.8778454719166259
1.472732926269718
1.636847995938954
1.384884979163493
0.3853476187466036
1.13716637028344
1.122732108073612
1.017879540799932
0.9301848653597179
0.8587679319011189
1.13775356381765
0.9992560109600367
0.9166891204465953
0.8546594051794889
1.445790984716219
1.013783028567114
0.9054015839338166
0.85233285056153
2.017398596894042
1.040759877506134
0.899442956085485
0.8491003151513157
0.8054097511773844
0.7470534802391058
0.6789969156523588
0.6241049398886375
0.8038868594179946
0.7422610475359223
0.6801636954098568
0.624333564429792
0.800262184311969
0.7349713091926374
0.6751307480451485
0.6171893501563029
0.7973888332518124
0.7264867508325394
0.6519168202241281
0.549345173355459
0.566631037977688
0.5089685636350516
0.4671528365425154
0.3910633119008007
0.5647419725480883
0.5094332158567381
0.4481674195472654
0.3087790955499848
0.5514745028031387
0.4871699730882199
0.3771352807780219
0.172345963427165
0.4510933422223158
0.3600837669796125
0.2131258894520147
0.04222263050937976
0.446299633371721
0.7082336431577548
1.003620417519694
1.143690694497497
0.2478757868991833
0.5197913903425951
0.8968344390898373
1.13590148954152
0.03980802727057021
0.3062295725786909
0.7534512759946749
1.115946422406803
0.05368963378174698
0.1270451035949493
0.5231524914529336
0.9828803086016225
1.145918484854971
1.148284059632335
1.149904697819626
1.149703157994213
1.144078210402159
1.157289690410358
1.171035351721969
1.187207122396821
1.140632534953741
1.161697800298186
1.184009856205959
1.21136687695381
1.034658095360224
1.051762717980411
1.062766068578185
1.073708478367928
1.154250719605901
1.162832021141822
1.193515511117342
1.154751618393414
1.209225477164829
1.241709256263459
1.297049337718542
1.274296536477997
1.24485375483619
1.290165486968999
1.359137395799806
1.430140064145681
1.0832855645535
1.083147042317643
1.096382206901203
1.163203175808722
0.9737329556226222
0.9393089790231745
0.920846636528648
0.9107446395861688
0.995603302832978
0.94317873100462
0.9210779913437493
0.9074265156020428
1.058659798377435
0.9433474051552327
0.9162794965776382
0.8950258164310378
1.145185890009926
0.9072843578354945
0.8740170499483643
0.850510043442931
0.8951637376684288
0.8774288199257977
0.8785270720839795
0.9257740638185469
0.8831293966030225
0.8543686159430222
0.832001308058005
0.8538152274864129
0.8608426205734522
0.823088900712015
0.8011939019578186
0.7796178209122849
0.8197322978311375
0.7858430116464685
0.7957743434413878
0.7403766189648725
0.7038972312859835
1.028892976559197
1.10661661595121
1.117521894175819
0.7239972633861969
1.011633269013399
1.102172896161155
1.117169985285084
0.7315875377331338
1.007595321071801
1.098869010214414
1.11678971406461
0.7380809733082113
0.9974591832751003
1.096005429228428
1.116513785316465
1.116614647686591
1.095493556570631
0.9914417235610871
0.7363422239772247
1.116526711014753
1.094610408484909
0.9896757984578043
0.7503058133079794
1.116410338343097
1.093714566098565
0.986247405695118
0.7657006403193231
1.116377645953662
1.094073494257465
0.9885912845098008
0.7666074171297512
1.116513785317372
1.116789714062995
1.117169985285168
1.117521894179733
1.096005429231048
1.098869010215168
1.102172896162029
1.10661661595311
0.9974591832759985
1.007595321072796
1.011633269014607
1.028892976560688
0.7380809733078908
0.7315875377326713
0.723997263385488
0.7038972312864812
)
;

boundaryField
{
    back
    {
        type            empty;
    }
    inlet
    {
        type            calculated;
        value           nonuniform List<scalar> 
16
(
1.11801663592382
1.118016635923836
1.118016635923765
1.11801663591721
1.118016635998701
1.118016635944993
1.118016632286289
1.118016440569007
1.118016440568212
1.118016632285952
1.118016635944896
1.118016635998629
1.11801663592382
1.118016635923803
1.118016635923514
1.118016635916697
)
;
    }
    front
    {
        type            empty;
    }
    top
    {
        type            calculated;
        value           uniform 0;
    }
    outlet
    {
        type            calculated;
        value           nonuniform List<scalar> 
16
(
1.116182507917644
1.116080328320807
1.115948553717818
1.11590279138265
1.117358147406011
1.116919210034549
1.116434086589523
1.116079502483817
1.116182507915908
1.116080328320356
1.115948553718067
1.11590279138278
1.116079502484625
1.116434086587581
1.116919210035082
1.117358147410033
)
;
    }
    bottom
    {
        type            calculated;
        value           uniform 0;
    }
    wall
    {
        type            calculated;
        value           uniform 0;
    }
}


// ************************************************************************* //
