/*--------------------------------*- C++ -*----------------------------------*\
  =========                 |
  \\      /  F ield         | OpenFOAM: The Open Source CFD Toolbox
   \\    /   O peration     | Website:  https://openfoam.org
    \\  /    A nd           | Version:  11
     \\/     M anipulation  |
\*---------------------------------------------------------------------------*/
FoamFile
{
    format      ascii;
    class       volScalarField;
    location    "1.85";
    object      p;
}
// * * * * * * * * * * * * * * * * * * * * * * * * * * * * * * * * * * * * * //

dimensions      [0 2 -2 0 0 0 0];

internalField   nonuniform List<scalar> 
4455
(
4850.1158
4863.4057
4885.4114
4917.5966
4961.0701
5020.4031
5096.645
5203.7614
5292.7539
4813.0093
4829.3691
4855.8049
4892.5203
4940.5078
5004.6601
5089.849
5208.6613
5343.1598
4771.3565
4791.8246
4823.2869
4864.2401
4916.1499
4984.6125
5075.8657
5205.4834
5359.6152
4725.6412
4751.8443
4788.2316
4832.9863
4888.0848
4960.8527
5057.877
5198.4782
5373.6122
4677.3622
4710.0337
4750.9231
4799.155
4856.8863
4933.3803
5037.0094
5190.234
5395.9611
4627.9867
4666.8578
4711.8768
4762.9917
4823.1385
4903.3711
5013.2563
5180.3823
5416.8512
4578.4919
4622.8679
4671.5364
4724.8944
4786.9464
4870.5751
4986.7787
5167.2627
5435.1035
4530.5764
4578.65
4630.3688
4685.4828
4749.1621
4835.658
4957.4762
5149.4054
5448.0421
4485.0327
4535.0925
4588.9001
4645.445
4710.322
4799.4166
4926.4154
5127.8092
5454.5834
4441.9764
4402.0752
4365.9233
4333.9785
4306.453
4283.4172
4264.9659
4251.2717
4242.6725
4492.7054
4451.7955
4413.1893
4377.2214
4344.3204
4314.8842
4289.2044
4267.492
4249.8045
4547.2121
4505.5273
4465.1678
4426.4014
4389.4256
4354.4909
4321.7579
4291.3853
4262.8362
4604.2082
4561.6391
4519.3496
4477.7739
4437.1083
4397.64
4359.5356
4323.0058
4287.6938
4669.2975
4625.6633
4581.7506
4537.8543
4494.2357
4451.1624
4408.9031
4367.9314
4327.1238
4760.2409
4716.5132
4671.6143
4625.6914
4578.6214
4531.1161
4483.605
4436.8595
4389.7287
4891.8214
4850.0624
4804.7487
4756.8385
4705.6195
4652.0814
4597.4234
4543.4123
4489.3331
5100.6467
5057.5866
5003.0176
4940.9728
4874.5253
4806.0875
4736.741
4666.3736
4594.1919
5455.1575
5403.9613
5319.8591
5208.3206
5085.9097
4964.9521
4848.1966
4731.992
4615.1912
4240.7603
4237.9204
4232.1194
4224.4815
4214.5507
4203.1517
4189.0175
4173.2278
4154.3197
4239.5862
4229.6769
4217.123
4202.0044
4184.3058
4164.2348
4141.7462
4116.9264
4089.6152
4243.0688
4227.3005
4210.6176
4192.5878
4172.8676
4151.2755
4127.6539
4101.9398
4074.0477
4261.9629
4242.4831
4222.9328
4202.3985
4180.2062
4156.007
4129.5901
4100.89
4069.8325
4295.4817
4272.0558
4249.5914
4226.6155
4202.0678
4175.4556
4146.5403
4115.2981
4081.7988
4350.4733
4321.6906
4295.1108
4268.3761
4240.0844
4209.681
4177.0494
4142.2118
4105.6557
4443.3999
4407.7072
4374.2855
4340.589
4305.0909
4267.2614
4227.4046
4186.0073
4143.9683
4528.656
4468.9953
4407.4478
4345.1557
4282.8295
4220.951
4160.4596
4102.4404
4048.0503
4507.0553
4406.522
4305.9375
4209.2501
4117.6271
4030.4409
3947.5753
3869.4159
3803.0365
3764.3976
3731.8355
3718.4171
3735.9403
3784.2287
3857.3086
3943.5574
4037.0961
4134.3443
4001.5555
3960.1947
3923.5277
3893.9344
3872.9523
3861.1377
3858.9314
3866.0193
3881.4662
4104.0343
4066.3951
4029.9781
3995.8365
3964.588
3936.7309
3912.5099
3892.0704
3875.3699
4068.9298
4032.67
3995.7693
3958.6039
3921.3935
3884.3955
3847.8404
3811.9205
3776.7631
4047.0971
4011.68
3974.8292
3936.7749
3897.6638
3857.6694
3816.8218
3775.2299
3732.8801
4037.0188
4002.5568
3965.9173
3927.1918
3886.4479
3843.7325
3799.0316
3752.3531
3703.6347
4044.2786
4012.6437
3978.7888
3942.7056
3904.3572
3863.6787
3820.5599
3774.9091
3726.5801
4059.9895
4027.8181
3993.0914
3955.7993
3916.04
3873.5982
3828.4614
3780.2977
3729.1036
4130.39
4102.2581
4072.6622
4041.3855
4008.22
3972.269
3933.2524
3890.5696
3844.216
3793.8658
3739.5671
3680.969
3618.1243
3550.5823
3478.3144
3400.7443
3317.5874
3228.4181
3674.5654
3616.7213
3555.2439
3490.07
3421.0324
3347.4243
3269.6875
3187.8431
3100.7531
3675.4944
3621.4833
3564.4844
3504.2801
3440.7843
3373.6749
3302.662
3227.0429
3147.6281
3652.8937
3600.0265
3545.0479
3487.7635
3428.1561
3365.8783
3300.8499
3232.5118
3160.6112
3689.8498
3646.0202
3601.4336
3555.8311
3509.2127
3461.1212
3411.4925
3359.6373
3305.4127
3742.4948
3709.0806
3676.603
3644.8509
3613.8439
3583.0014
3552.1335
3520.2701
3487.1508
3862.3437
3852.5839
3846.0917
3842.3883
3841.3896
3842.0633
3844.2391
3846.7558
3849.2583
3904.5997
3934.3509
3969.9558
4010.4855
4055.3348
4103.8833
4155.5372
4209.5002
4264.9629
4234.3651
4336.3715
4440.2009
4545.5025
4653.2074
4762.9114
4875.7218
4991.1727
5109.8916
5230.841
4320.9004
3850.3746
3451.5121
3247.902
3084.725
3063.7559
3007.6454
3132.9458
5353.938
4376.2244
3849.4877
3413.0066
3186.8832
3004.0976
2973.8247
2908.9442
3030.3698
5478.0179
4429.3832
3845.4826
3370.0901
3121.2166
2918.0328
2877.8708
2804.3592
2920.2358
5602.3323
4478.7875
3837.3695
3322.2031
3050.6363
2825.9644
2776.0889
2692.8477
2802.042
5723.2669
4522.1843
3823.522
3267.4424
2973.8238
2727.3175
2667.9267
2573.5383
2675.3887
5839.4244
4557.3834
3802.3493
3204.976
2890.4018
2621.0099
2551.7007
2446.4569
2539.5508
5940.2206
4581.0321
3771.5761
3133.1004
2798.795
2506.3289
2427.0463
2311.1693
2394.3318
6021.6481
4589.9654
3728.8827
3050.7641
2698.3261
2382.3917
2293.4534
2167.2374
2239.9204
6058.6059
4577.2199
3670.128
2956.2444
2586.8077
2249.1199
2150.3567
2014.0153
2076.529
1906.2732
1851.4269
1994.1401
2103.4351
2458.827
2844.0379
3586.88
4530.2234
6039.8499
1732.5068
1678.193
1822.8195
1944.4704
2307.5703
2704.9396
3456.5156
4403.2296
5796.8541
1540.3633
1493.4952
1636.652
1770.7996
2134.4851
2538.0228
3282.0762
4208.036
5503.495
1321.2516
1295.2306
1437.1151
1583.2505
1941.5908
2348.4661
3078.2732
3984.3496
5229.2231
1078.5455
1082.97
1223.7672
1379.7957
1731.9022
2141.3222
2856.3792
3749.0852
4963.3418
820.81655
855.94417
996.3503
1162.7038
1507.5448
1919.6652
2621.7747
3504.3272
4696.6538
550.97709
615.28768
754.37121
930.90503
1269.5511
1683.2995
2373.5406
3246.1515
4422.2272
268.42946
361.11772
499.27954
686.55383
1018.3119
1431.7251
2110.5
2972.8702
4139.8818
-29.56779
94.319984
230.88249
428.00809
753.76731
1164.0521
1831.079
2682.7215
3849.1317
3550.8933
2376.3675
1535.1125
881.38494
476.14462
157.54527
-50.624692
-184.90261
-343.34854
3246.1019
2054.0615
1222.8162
583.43088
184.45403
-126.40322
-346.35761
-476.08277
-672.53347
2935.6119
1715.6797
895.19929
270.6235
-120.12293
-421.39192
-654.02899
-778.30385
-1015.3664
2616.2263
1361.0521
552.40654
-55.241173
-437.58093
-727.60217
-974.27241
-1090.6914
-1370.9663
2286.5913
989.22448
195.39819
-393.26349
-765.373
-1043.192
-1303.7018
-1413.1099
-1737.9201
1942.0053
599.53973
-174.94768
-741.84519
-1103.4831
-1368.0734
-1643.4733
-1744.992
-2115.4943
1581.6439
191.56103
-557.39687
-1098.9671
-1448.2787
-1700.3967
-1988.8995
-2085.8548
-2501.7895
1201.0926
-234.46604
-950.39464
-1462.7925
-1798.1573
-2039.4514
-2340.2545
-2434.3683
-2894.6127
800.91454
-678.90647
-1351.4088
-1830.7126
-2150.8443
-2383.1698
-2692.9585
-2789.7855
-3288.2576
-3668.3888
-3153.5475
-3052.0612
-2737.4361
-2514.9634
-2214.4615
-1777.8201
-1172.6886
332.94474
-4044.3779
-3526.6795
-3414.8054
-3100.1036
-2888.3962
-2612.298
-2226.2197
-1729.0584
-238.20653
-4442.5992
-3903.1367
-3778.5568
-3463.4374
-3258.8711
-3007.3056
-2667.4097
-2300.4718
-871.02151
-4849.3269
-4281.7148
-4139.5601
-3823.6524
-3623.338
-3394.3877
-3093.0732
-2858.7942
-1564.1193
-5249.1095
-4660.1631
-4498.9653
-4180.2915
-3979.3766
-3770.1096
-3497.7158
-3390.0617
-2332.3653
-5637.1362
-5038.3665
-4852.9685
-4529.219
-4324.576
-4131.2969
-3874.2594
-3858.7727
-3201.3054
-6011.7611
-5413.7537
-5202.8371
-4870.4674
-4656.5546
-4475.4604
-4218.3835
-4244.276
-4201.947
-6370.8431
-5784.4798
-5546.2357
-5201.0051
-4972.6298
-4801.0709
-4534.4135
-4512.566
-5270.4527
-6763.8284
-6145.5295
-5884.1335
-5518.5512
-5269.0236
-5106.6758
-4839.2974
-4629.1774
-6254.2739
-7164.8045
-6493.7653
-6220.6882
-5827.5655
-5559.4022
-5402.193
-5183.5566
-4694.4846
-7016.0012
-7520.2896
-6819.3803
-6554.5593
-6129.9835
-5838.1566
-5685.0858
-5571.6407
-4885.4296
-7595.93
-7820.0523
-7132.8673
-6876.7739
-6424.1315
-6103.5494
-5943.7418
-5977.1346
-5223.0978
-7689.1696
-8085.5394
-7434.0438
-7186.048
-6719.7645
-6363.3962
-6182.8213
-6363.3947
-5600.7425
-6464.873
-8327.9996
-7728.6516
-7483.9753
-7018.9685
-6623.0577
-6413.442
-6712.9331
-6075.7889
-5904.7885
-8552.9648
-8011.1231
-7771.5966
-7327.195
-6885.103
-6651.7273
-7085.3993
-6640.353
-6791.4461
-8754.214
-8285.6254
-8049.7359
-7644.6937
-7150.4738
-6911.6449
-7447.669
-6961.6712
-6906.486
-8927.3517
-8550.3905
-8314.7604
-7974.1917
-7415.5894
-7178.0709
-7727.899
-7098.2493
-7014.6226
-9065.6045
-8809.1
-8563.7398
-8313.2249
-7677.5379
-7451.6227
-7945.3046
-7504.0937
-7115.8833
-7174.4398
-7771.7685
-8044.1355
-7643.666
-7921.3532
-8642.4663
-8786.0368
-9056.7496
-9164.4993
-7193.2129
-7957.1416
-8098.0007
-7807.4046
-8149.4099
-8951.836
-8982.1642
-9290.9383
-9220.6295
-7193.8331
-8096.635
-8126.8719
-7974.0919
-8384.3146
-9261.3675
-9163.8218
-9512.9445
-9235.5269
-7180.7532
-8137.7206
-8153.2683
-8142.9375
-8625.4799
-9567.4192
-9336.3955
-9718.0299
-9210.9046
-7156.0652
-8127.9699
-8194.3028
-8312.775
-8875.3092
-9870.2797
-9501.4619
-9898.5048
-9158.1056
-7137.3438
-8123.1403
-8255.5003
-8472.0474
-9133.642
-10166.005
-9661.5833
-10050.074
-9067.9363
-7141.2158
-8157.6141
-8345.9153
-8622.1041
-9401.4672
-10453.452
-9811.3304
-10167.387
-8940.3559
-7198.7845
-8218.3192
-8462.3113
-8763.1535
-9679.0081
-10728.495
-9951.7622
-10247.881
-8773.7191
-7227.064
-8289.4618
-8594.1757
-8906.5422
-9974.9438
-10994.649
-10078.998
-10282.912
-8560.7096
-7233.6429
-8400.0722
-8781.3713
-9123.6865
-10465.125
-11400.628
-10261.512
-10258.41
-8142.7139
-7284.6579
-8668.1166
-9064.7188
-9484.7896
-11250.446
-11884.09
-10381.669
-9994.9254
-7416.9387
-7271.2564
-8912.8196
-9248.7071
-9913.8512
-12108.027
-12265.569
-10355.604
-9512.9361
-6564.7719
-7177.7351
-9195.6665
-9453.4201
-10419.142
-13016.96
-12507.628
-10142.364
-8813.7297
-5630.1946
-7235.2174
-9483.7068
-9674.317
-11031.498
-13892.813
-12548.609
-9738.4538
-7919.6694
-4677.7583
-7420.009
-9649.9009
-9886.7432
-11757.846
-14723.793
-12379.256
-9133.3705
-6867.2399
-3787.6489
-7681.6638
-9966.702
-10209.222
-12519.553
-15417.666
-11981.791
-8353.8019
-5747.018
-2993.9755
-7960.5709
-10085.9
-10519.957
-13302.839
-15962.115
-11356.855
-7417.8766
-4608.0701
-2337.6159
-8189.1525
-10432.878
-11023.519
-14064.575
-16264.484
-10498.096
-6442.903
-3558.1601
-1833.1804
-6805.7317
-9900.6093
-15775.587
-17980.875
-18465
-11775.538
-5859.361
-2413.3175
1697.8316
-6888.5404
-9972.8974
-15126.761
-17047.54
-18996.473
-12787.846
-5885.8469
-2064.9787
1706.3088
-6966.3325
-10045.608
-14461.376
-16275.823
-19357.028
-13868.472
-6039.3873
-2048.9469
1523.7411
-7053.7903
-10125.317
-13783.751
-15823.842
-19805.523
-14656.45
-6392.3824
-2300.301
1296.5259
-7139.2281
-10171.208
-13132.422
-15722.388
-20295.799
-15285.168
-6656.5851
-2622.4539
1021.1743
-7231.9226
-10258.003
-12568.875
-15741.53
-20668.049
-15686.696
-6828.7532
-2987.9621
772.69186
-7319.0733
-10297.982
-12111.566
-15811.264
-20962.46
-15917.049
-6850.0442
-3306.3005
544.36851
-7408.266
-10349.927
-11795.909
-15899.644
-20955.14
-16233.946
-6812.5348
-3590.3218
349.58303
-7498.1931
-10372.463
-11529.128
-16063.372
-21107.316
-16686.204
-6731.8771
-3715.2373
162.52912
-5420.9812
-10269.546
-18835.92
-23394.024
-15019.002
-9076.4209
-6326.813
-3475.177
-1747.9958
-4988.8922
-9200.6868
-17366.218
-23014.98
-16145.034
-10155.767
-7142.2776
-4489.6968
-2239.4056
-4581.6144
-8101.7272
-15797.193
-22044.262
-16944.836
-11242.915
-8005.1403
-5582.0285
-2874.5434
-4273.542
-7086.3691
-14182.573
-20762.894
-17411.872
-12199.72
-8848.2664
-6686.2797
-3644.6798
-4022.8278
-6168.6271
-12546.482
-19180.828
-17485.16
-12970.866
-9649.1919
-7778.4556
-4525.2205
-3826.8058
-5344.6918
-10882.67
-17452.432
-17169.765
-13487.328
-10314.477
-8778.3719
-5493.4255
-3706.1813
-4631.3718
-9265.8861
-15566.149
-16452.148
-13721.148
-10809.491
-9641.1806
-6481.8404
-3664.0505
-4054.9544
-7890.0524
-13619.919
-15413.451
-13650.986
-11082.505
-10295.471
-7430.8051
-3660.7709
-3570.3109
-6402.0854
-11642.462
-14080.883
-13289.79
-11137.026
-10719.721
-8276.8454
-9627.6589
-9584.0593
-9407.6088
-9435.2563
-8674.4291
-7170.9299
-3877.9358
-2807.248
-3394.0742
-9687.7797
-9875.5253
-9699.3729
-9923.3097
-9165.5623
-7581.7841
-4017.4818
-2842.3241
-3389.4759
-9693.7603
-10142.574
-9965.4178
-10410.19
-9689.5553
-8017.1124
-4235.6352
-2852.1449
-3385.0541
-9659.6769
-10377.015
-10207.835
-10887.041
-10234.223
-8433.607
-4470.7204
-2928.2003
-3401.6175
-9581.5786
-10568.884
-10423.068
-11346.653
-10797.489
-8830.0642
-4727.8467
-3035.9618
-3436.4529
-9453.5958
-10714.473
-10614.011
-11780.576
-11370.397
-9240.6556
-4984.2859
-3117.9185
-3476.4866
-9280.9447
-10810.493
-10776.845
-12180.852
-11952.341
-9704.8046
-5192.6364
-3213.5478
-3524.0821
-9066.8521
-10856.17
-10913.317
-12541.058
-12523.414
-10196.405
-5460.9559
-3296.0168
-3596.3676
-8794.0828
-10843.175
-11021.305
-12864.279
-13139.32
-10730.811
-5700.2703
-3363.8751
-3658.534
-3378.6834
-2745.5735
-3813.6313
-6771.7267
-8168.9064
-8918.2759
-9079.3634
-9266.5832
-9512.021
-3327.2068
-2469.1901
-3711.4828
-6329.0746
-7651.3132
-8386.4649
-8712.4019
-8925.3686
-9342.0694
-3168.8058
-2404.5824
-3603.8221
-5914.5211
-7156.4312
-7871.5396
-8323.5077
-8567.9361
-9121.4086
-3157.2105
-2447.4244
-3471.2942
-5506.2268
-6681.0188
-7380.2061
-7916.1274
-8191.8388
-8857.8764
-2491.6164
-2153.3555
-3352.968
-5130.4287
-6230.2208
-6910.7122
-7496.606
-7800.6981
-8558.6346
-2757.8247
-1823.4573
-3244.473
-4785.6992
-5806.241
-6465.8545
-7067.6595
-7392.5586
-8230.012
-3787.028
-1645.3138
-3085.1219
-4470.9732
-5409.298
-6034.1572
-6628.7852
-6972.7355
-7872.5859
-3756.1573
-1585.2415
-2855.617
-4149.9332
-5007.347
-5601.7797
-6172.9666
-6535.569
-7466.2081
-3335.9967
-1661.1175
-2560.2769
-3755.0887
-4559.1251
-5139.6201
-5700.6505
-6077.7422
-6982.008
-2443.2822
-1744.8967
-1590.3564
-1022.4164
-623.28034
-59.886951
520.00649
1108.0015
2377.2903
-2905.3716
-2178.7933
-2016.2845
-1426.8474
-1012.5722
-433.32413
147.76247
659.76726
1916.7118
-3385.9422
-2629.6356
-2454.6153
-1851.1405
-1412.2852
-816.6543
-224.857
206.43554
1412.9859
-3885.0828
-3095.904
-2900.509
-2291.3229
-1825.1065
-1208.1858
-591.20527
-238.10041
866.0339
-4392.7463
-3577.4305
-3356.1053
-2746.3742
-2248.9735
-1606.6956
-945.02076
-656.45547
268.80001
-4897.0131
-4072.8084
-3816.1321
-3213.0932
-2686.9175
-2012.5543
-1279.2769
-1031.1968
-401.07285
-5396.2906
-4579.1442
-4282.4055
-3689.8723
-3137.0525
-2427.2304
-1601.8839
-1340.2941
-1162.3471
-5883.0646
-5087.9773
-4751.6794
-4171.8702
-3601.6961
-2853.9175
-1916.3663
-1565.0097
-1987.5892
-6427.6786
-5589.1147
-5224.4696
-4656.8842
-4073.1342
-3294.7076
-2231.6278
-1674.9086
-2771.5268
2754.3921
1505.6768
870.65943
288.36418
-257.68313
-644.05203
-1179.2785
-1332.4754
-1981.4241
3080.6593
1866.5753
1199.6443
615.96103
89.617076
-289.15694
-786.8575
-939.08767
-1523.1646
3390.9224
2214.0194
1522.8967
935.01969
425.40049
53.072427
-406.81172
-561.20254
-1077.9712
3687.7568
2548.8979
1837.6671
1245.2726
751.02771
380.75875
-42.878135
-199.85709
-652.07137
3971.3774
2869.4721
2143.5523
1545.878
1063.2768
695.26
306.69068
144.98351
-245.08809
4245.0226
3177.0757
2438.2657
1836.2353
1363.3009
995.61672
638.8763
473.5636
140.68992
4509.4499
3470.9851
2722.3651
2115.1084
1649.0798
1282.5937
955.24564
786.18247
507.15239
4768.552
3752.7992
2993.9333
2381.7022
1921.5525
1555.2946
1253.7117
1083.1376
852.36509
5022.8324
4021.8482
3253.5974
2635.2149
2179.3191
1814.4941
1535.8073
1364.8391
1178.3658
3248.0752
3220.3969
3373.0564
3522.1813
3876.5263
4279.4338
4958.7894
5826.737
7131.8368
3101.3286
3071.4844
3227.4107
3389.1077
3752.6775
4167.7791
4853.7163
5721.0282
6920.2677
2933.2776
2910.3597
3067.4097
3241.9436
3608.6998
4031.0629
4709.0054
5556.8173
6671.2813
2739.3877
2735.376
2893.0243
3080.4465
3445.5409
3872.7905
4539.6169
5368.5134
6437.7674
2519.5349
2545.2473
2704.112
2903.9955
3267.6259
3698.7132
4354.458
5171.7441
6212.6536
2284.7497
2339.7186
2500.7168
2713.7811
3075.5851
3512.099
4158.9276
4966.5564
5987.3862
2033.9209
2118.7144
2282.5449
2509.2511
2871.2775
3313.024
3951.4938
4750.4574
5756.4019
1768.3837
1882.5857
2049.5366
2291.5094
2653.7692
3100.9814
3732.3962
4521.3223
5517.4902
1482.7585
1631.3938
1800.7603
2059.5837
2423.5307
2875.0111
3499.4667
4278.4881
5272.8334
3391.2131
3526.9744
3653.7819
3771.1776
3879.4031
3978.4341
4069.2994
4152.0459
4227.8304
3358.3397
3486.4515
3605.5707
3715.8631
3818.1304
3912.4911
3999.3989
4079.3125
4153.0995
3503.6004
3621.7915
3729.7419
3829.0159
3920.3436
4004.4944
4081.8917
4153.3205
4219.0595
3641.8759
3750.2047
3849.0029
3939.4073
4021.6981
4097.0058
4165.691
4228.7992
4286.6508
3978.8126
4066.742
4144.6361
4214.3513
4276.4512
4332.3871
4382.5111
4428.0157
4469.1579
4367.1368
4439.3346
4500.2079
4551.4631
4594.2141
4630.2645
4660.3275
4685.9502
4707.6196
5022.1986
5064.0235
5091.5658
5108.5817
5117.1287
5119.1579
5116.0928
5109.3544
5099.8921
5859.6567
5862.5475
5845.4089
5815.4626
5775.3353
5728.378
5676.4697
5621.678
5565.1304
7138.7884
7097.902
7019.874
6924.8278
6817.2761
6705.6305
6591.5989
6477.7529
6364.9831
4296.7352
4221.0043
4279.8015
4340.1157
4506.9232
4726.6039
5088.6484
5508.2496
6254.3239
4359.7675
4283.8158
4335.7849
4389.4468
4541.5075
4743.2268
5076.2788
5451.8068
6146.0026
4417.0207
4341.6638
4387.5768
4435.319
4573.6925
4758.5287
5063.681
5396.7935
6040.663
4469.3328
4395.1761
4435.3782
4477.9137
4603.6131
4772.753
5051.3033
5343.9723
5937.976
4516.801
4444.4596
4479.63
4517.7176
4631.8429
4786.6968
5039.9861
5294.0066
5838.0741
4560.107
4490.0129
4520.4939
4554.8449
4658.4547
4800.5081
5030.047
5247.5199
5740.4541
4599.3371
4531.9129
4558.2954
4589.6204
4683.8233
4814.6395
5022.125
5205.0953
5645.1723
4635.0082
4570.5364
4593.1613
4622.1073
4707.9678
4829.0776
5016.4135
5167.3255
5551.8313
4667.1753
4605.936
4625.3307
4652.5051
4731.0951
4843.9178
5013.2844
5134.8228
5460.5999
4843.4993
4813.7592
4816.5198
4841.6797
4892.8411
4978.5124
5096.0504
5136.847
5045.9283
4830.4605
4798.5218
4802.3696
4827.1947
4879.0195
4964.0283
5079.8315
5110.2907
5016.4349
4816.2866
4781.5774
4786.7323
4811.2905
4864.2034
4949.4414
5064.5416
5089.4836
5004.569
4800.883
4762.8607
4769.5097
4793.9045
4848.3652
4934.7186
5050.5449
5075.276
5020.3268
4784.1727
4742.3367
4750.5697
4774.9115
4831.4567
4919.8409
5038.2085
5067.9183
5063.3965
4765.6989
4719.803
4729.7855
4754.1961
4813.4747
4904.7865
5028.012
5067.4401
5127.4188
4745.1688
4695.1417
4707.0041
4731.6447
4794.4021
4889.5808
5020.2483
5073.9583
5203.4105
4722.0694
4668.0532
4682.1016
4707.2168
4774.3046
4874.3013
5015.1507
5087.6426
5285.6061
4696.1854
4638.4187
4654.9149
4680.8383
4753.1816
4859.0201
5012.8175
5108.0781
5371.5607
5079.2475
5169.979
5113.8006
4993.3968
4905.9838
4855.0117
4829.416
4827.3621
4853.7377
5132.4658
5209.2791
5131.6362
5007.2857
4917.6622
4866.8498
4840.9989
4839.4532
4861.5913
5193.6332
5250.4437
5147.7816
5019.2503
4927.3767
4876.9666
4851.1745
4850.0473
4867.9141
5259.9904
5291.1149
5161.135
5028.697
4934.9812
4885.396
4859.9932
4859.3335
4873.4627
5330.1774
5329.8091
5171.0159
5035.3052
4940.457
4892.242
4867.5477
4867.3534
4877.7906
5402.3032
5365.2879
5177.2317
5039.2043
4944.0397
4897.797
4874.0484
4874.1861
4881.5001
5475.1767
5397.4315
5180.0214
5041.0336
4946.4148
4902.6262
4879.8582
4879.8006
4884.2963
5548.1024
5427.2828
5181.6464
5042.9446
4949.3182
4907.6309
4885.4425
4884.2768
4886.4197
5620.6896
5457.7453
5188.0039
5048.4363
4955.2767
4913.8417
4891.3016
4887.7464
4887.4476
5702.0909
5493.45
5208.2977
5064.0629
4969.6957
4924.6974
4899.9754
4891.4286
4888.076
5793.8597
5529.6337
5234.2384
5083.6404
4987.5282
4938.8205
4911.731
4897.861
4891.0085
5880.7141
5561.2583
5258.5682
5103.1441
5005.1227
4953.0731
4923.4181
4905.5271
4895.7328
5962.4041
5587.8761
5278.9831
5121.357
5021.7331
4967.4722
4935.2491
4914.2623
4901.9854
6037.2733
5607.0032
5293.3068
5137.0792
5036.8485
4981.4288
4946.8898
4923.6669
4909.5127
6094.7925
5615.8826
5300.5324
5149.6923
5050.4743
4994.4294
4957.8627
4933.2483
4918.013
6103.5391
5610.4568
5300.4858
5158.5381
5062.0144
5005.8107
4967.8672
4942.6546
4927.1272
6022.4436
5590.2561
5296.6819
5163.9988
5071.3192
5015.2048
4976.7463
4951.483
4936.4004
5886.8796
5554.8818
5290.1237
5165.9047
5077.7686
5022.2701
4984.079
4959.2838
4945.187
4882.7063
4892.8978
4911.5223
4940.9291
4982.6916
5040.3963
5113.4636
5216.1986
5310.5007
4910.3626
4917.5078
4934.6687
4963.7425
5007.3435
5067.7433
5147.7989
5256.9983
5389.0177
4932.0237
4937.3881
4953.7384
4982.9451
5028.119
5091.2481
5173.8845
5291.1357
5423.266
4947.6519
4952.7558
4968.5841
4998.6955
5045.3319
5111.5567
5198.4229
5326.1907
5468.2077
4957.8504
4963.1178
4979.425
5011.1733
5059.1219
5128.7729
5221.769
5362.4396
5524.8568
4962.6069
4968.8397
4986.7939
5020.0964
5069.7188
5143.0477
5242.3977
5399.9395
5580.1942
4962.4994
4970.756
4990.7949
5025.5551
5076.8635
5153.5197
5259.3872
5438.3421
5639.0077
4958.7448
4969.4997
4991.577
5027.6026
5080.5059
5160.3659
5272.0883
5476.1359
5704.0119
4952.7798
4965.4733
4989.1535
5026.341
5080.6359
5164.1616
5281.5184
5512.9248
5777.3026
5565.4317
5632.309
5697.4631
5778.3146
5874.9138
5990.1482
6132.2059
6310.4985
6530.5828
5613.4131
5675.8015
5745.1259
5831.5033
5932.9661
6051.5616
6197.1298
6379.2241
6600.8753
5663.2964
5725.6356
5798.9852
5888.2757
5993.4934
6117.0982
6266.8049
6454.4625
6684.6879
5719.6953
5784.6524
5860.013
5951.4467
6058.5204
6184.5756
6337.7479
6531.4113
6773.5113
5782.7837
5849.0616
5925.015
6015.8368
6123.8534
6251.9333
6407.4816
6607.3991
6860.3078
5845.1561
5910.9974
5986.3888
6075.8953
6181.3844
6308.5786
6465.8109
6668.1597
6919.0489
5896.4948
5959.0831
6031.7025
6118.2396
6221.4378
6347.3008
6506.1801
6704.9832
6930.4458
5927.6317
5986.1711
6054.977
6135.5861
6230.7639
6345.2296
6480.8248
6703.2524
6827.99
5922.1949
5975.8022
6040.1741
6113.5042
6182.4612
6306.9876
6349.4967
6652.3782
6630.0599
5287.2636
6075.3894
5819.1824
6144.1133
5947.6478
6023.1623
5943.299
5906.986
5853.8389
5249.2528
5390.5636
5389.3542
5532.7061
5523.2828
5616.1278
5595.1894
5629.7531
5595.5403
5175.5908
5210.5712
5199.5133
5249.9115
5246.6243
5297.8936
5296.5192
5334.5697
5325.9262
5064.6863
5103.0498
5073.3867
5119.7474
5088.94
5126.1583
5109.8585
5137.096
5130.1069
4945.224
4975.8404
4954.1206
4988.8373
4965.0956
4991.3393
4975.3657
4992.5854
4982.1117
4819.9557
4840.4422
4823.1669
4852.8223
4830.727
4855.7634
4837.6338
4853.8334
4838.755
4694.7689
4705.7144
4692.5042
4710.481
4694.0116
4710.019
4695.5758
4707.8239
4692.7845
4568.1683
4573.4521
4558.2897
4572.5849
4554.4221
4567.9057
4552.2316
4563.0565
4547.6307
4442.7724
4440.1025
4427.7486
4431.6459
4417.0271
4421.7279
4408.9744
4415.2056
4399.483
4260.7583
4123.5101
3972.5958
3795.6476
3591.2496
3346.1264
3063.8617
2747.5837
2528.1671
4275.7749
4137.4077
3983.0397
3803.2103
3591.2384
3339.623
3043.4403
2720.0459
2448.4159
4269.5211
4132.3169
3976.0127
3795.6936
3578.0375
3319.6784
3009.7466
2669.3273
2340.7406
4283.4207
4140.8716
3984.2349
3796.8245
3576.5507
3305.7621
2981.7966
2608.1107
2218.278
4278.2413
4140.2232
3980.9347
3797.1516
3572.3809
3296.3388
2954.8031
2545.3866
2090.344
4295.268
4151.0572
3993.1433
3803.3468
3579.9506
3294.2021
2938.6112
2488.6375
1965.0019
4291.0791
4153.6394
3991.9833
3809.5619
3579.4048
3299.125
2928.8482
2451.4388
1855.0675
4305.9674
4162.6587
4004.5622
3816.5145
3591.702
3301.7403
2932.7774
2417.5606
1821.6689
4311.9183
4173.0556
4014.8128
3833.2226
3607.4583
3329.3695
2949.8799
2444.8791
1687.9633
2557.7832
2767.4127
3106.8829
3389.6939
3574.4555
3716.2687
3852.8869
3993.7311
4132.6203
2441.504
2664.7459
3062.2079
3368.8874
3558.5548
3702.7016
3844.7016
3988.6507
4130.984
2298.4558
2560.0957
3028.5618
3354.7944
3543.6166
3690.2466
3835.6856
3983.0709
4127.4393
2129.2359
2453.3413
2995.1958
3337.7733
3530.6003
3683.8863
3836.7264
3986.3647
4132.6401
1916.964
2349.8709
2956.0253
3305.1655
3497.1105
3658.8262
3817.8469
3973.1207
4122.0473
1614.0943
2292.3018
2977.4376
3316.8762
3509.5098
3672.3785
3832.5651
3985.9267
4133.6192
1181.5806
2098.5683
2906.5202
3255.0084
3460.7152
3638.8112
3809.0091
3968.5273
4119.6297
792.43611
2180.7813
2976.9634
3282.3848
3484.8924
3660.4486
3826.1743
3982.2778
4130.848
-404.15297
1983.7703
2935.4839
3236.5604
3457.1652
3642.8138
3814.5464
3972.4728
4123.2987
4267.6099
4397.3188
4525.9213
4655.3317
4790.8674
4931.67
5082.0928
5239.5905
5409.5105
4267.7083
4399.5235
4529.0111
4660.202
4795.9676
4938.4477
5088.8751
5248.4568
5419.0694
4266.006
4399.273
4530.2369
4662.9587
4799.8739
4943.9806
5095.3112
5256.8264
5428.53
4270.5965
4405.064
4535.5922
4669.6141
4806.1793
4951.5729
5103.0726
5266.2776
5438.7803
4263.0956
4399.3405
4532.3252
4667.7555
4806.2587
4952.8128
5106.3489
5271.124
5445.4917
4272.7418
4408.7711
4540.774
4676.2795
4814.0137
4960.8772
5113.8384
5279.3199
5453.9175
4261.6019
4399.9049
4534.0602
4671.0414
4810.2839
4957.9564
5112.3044
5278.797
5454.8117
4271.7021
4408.8406
4542.3193
4678.5946
4817.5892
4964.9064
5119.2276
5285.554
5461.7009
4265.2672
4403.8473
4537.904
4675.1818
4814.408
4962.6239
5117.134
5284.3952
5460.9112
5588.4782
5782.6428
5988.7975
6214.1699
6453.3707
6712.9243
6979.1227
7257.4103
7450.9042
5601.2348
5797.5105
6009.0946
6239.5132
6488.3281
6757.9846
7039.9852
7331.4244
7545.2509
5613.5291
5812.1796
6028.6927
6264.2573
6521.9969
6801.6577
7098.6392
7401.1911
7639.748
5626.1318
5826.7362
6047.4448
6286.7185
6551.9351
6839.5328
7150.0701
7464.8695
7731.473
5635.1288
5837.9578
6062.0606
6304.9148
6576.388
6871.5763
7195.1534
7524.7544
7820.8758
5645.0136
5849.0885
6075.8075
6321.3718
6598.02
6899.2644
7236.1537
7580.2519
7906.5435
5647.3937
5853.1101
6082.1681
6329.9196
6611.429
6916.7124
7267.5859
7624.5393
7990.3225
5654.282
5860.5606
6090.3943
6339.6723
6623.6456
6932.0704
7292.6237
7661.1238
8081.8934
5654.552
5861.2813
6092.2209
6342.1879
6627.7442
6938.2382
7303.2632
7680.4453
8092.33
7550.6637
6859.041
6463.883
6126.0599
5784.5728
5445.5445
5114.6648
4789.8612
4470.9536
7671.2695
6943.5162
6542.057
6194.416
5845.6689
5497.5872
5161.9775
4832.8956
4512.5145
7783.4274
7018.2331
6616.5572
6257.9397
5904.4734
5549.7565
5210.3662
4878.5473
4556.4457
7895.7815
7091.1662
6687.5734
6313.8237
5957.8003
5594.2476
5255.4286
4918.2236
4598.0956
8013.7944
7170.7316
6763.5404
6379.4865
6017.5618
5650.7198
5306.684
4969.038
4645.4235
8137.2541
7239.1357
6823.2821
6427.0937
6064.5203
5686.4209
5346.6767
4997.9433
4679.9475
8264.1782
7341.4381
6900.8355
6497.3117
6127.4108
5752.0821
5404.6512
5059.6549
4736.0966
8355.5961
7378.7096
6936.2158
6520.1843
6153.1162
5767.4016
5424.2169
5071.3978
4752.1008
8572.0536
7536.199
7040.0063
6611.6359
6238.7324
5850.1995
5502.1902
5147.306
4825.2965
4153.7305
3834.8061
3511.8336
3183.746
2848.4719
2505.369
2151.7569
1788.3088
1415.1852
4192.1542
3872.9163
3548.3532
3220.2938
2884.2501
2541.4006
2187.6684
1824.4498
1449.1558
4235.1576
3915.2004
3591.3145
3263.2981
2928.572
2586.4571
2234.7109
1873.1475
1500.6585
4271.5635
3955.1922
3626.2251
3303.2467
2963.5313
2627.2336
2271.1722
1915.5645
1538.884
4320.2669
4000.9881
3674.3437
3348.9514
3012.3753
2673.8084
2321.3164
1964.5365
1591.8547
4345.5535
4032.8454
3698.6884
3380.2812
3037.3091
2705.8879
2348.0465
1998.3823
1620.1101
4405.9253
4089.1125
3759.0229
3437.8276
3098.5104
2765.7482
2410.6225
2062.3652
1684.7825
4415.9857
4103.5011
3768.7841
3451.8247
3108.9391
2779.9124
2422.5161
2077.0406
1698.7119
4488.6574
4175.3538
3841.0473
3524.593
3182.7086
2854.859
2498.8307
2157.8308
1775.4973
986.13292
485.31562
-33.703536
-583.60895
-1133.3358
-1682.2971
-2240.4755
-2943.219
-3982.84
1024.6718
531.66669
29.524999
-506.69519
-1033.1224
-1559.48
-2085.8322
-2730.6002
-3695.9606
1080.705
600.05905
110.10514
-409.06755
-934.58619
-1461.7382
-1998.3375
-2619.4541
-3478.2812
1131.6934
660.77317
186.85076
-321.30416
-838.46438
-1362.1042
-1872.2801
-2431.9465
-3197.0978
1186.4743
726.80629
265.44295
-231.13336
-737.0885
-1256.8839
-1730.7318
-2234.7452
-2779.6027
1231.1128
782.39927
335.24891
-148.80031
-647.96433
-1165.7761
-1638.5606
-2030.7721
-2352.1061
1298.2081
862.42909
436.02792
-35.321975
-515.49829
-1040.1732
-1501.5189
-1997.4085
-1223.8254
1324.7622
898.01297
475.92088
20.166549
-460.9424
-981.23656
-1532.6608
-1865.396
-1953.6027
1413.2772
1005.5256
613.74223
178.81716
-258.93791
-753.16645
-1238.8808
-2339.8263
1260.6241
-5661.5048
-7136.4029
-7467.5556
-7317.5744
-7436.2336
-7489.7788
-7044.7636
-6882.0503
-6751.9481
-5526.0937
-7193.7381
-7395.2777
-7225.3652
-7306.4986
-7336.1517
-7032.8543
-6868.9494
-6736.4552
-5501.8714
-7343.4816
-7302.3884
-7235.0107
-7394.6287
-7321.8958
-7013.4496
-6849.0956
-6714.535
-5642.9029
-7538.6472
-7211.769
-7231.9977
-7296.642
-7234.0893
-6988.9885
-6827.9059
-6687.069
-5919.4323
-7653.521
-7014.4724
-7234.8692
-7340.4494
-7197.9895
-6953.9274
-6806.8179
-6657.9382
-5866.3326
-7470.5505
-6970.6864
-7287.3145
-7270.9481
-7140.7916
-6923.3555
-6785.8689
-6630.7724
-5175.2939
-7060.4018
-7062.1347
-7267.3703
-7268.2722
-7092.7949
-6896.3113
-6765.1765
-6606.8347
-5690.2559
-8231.0643
-7028.1928
-7334.288
-7240.3554
-7062.4244
-6876.0924
-6749.9538
-6589.7678
-13674.242
-6310.4471
-7175.4558
-7298.2668
-7190.2436
-7010.6274
-6848.0155
-6731.5691
-6577.6852
-6665.9594
-6666.7632
-6735.662
-6884.5781
-7131.7871
-7446.6668
-7782.3256
-8685.4549
-8492.6851
-6638.6568
-6626.2815
-6690.9052
-6851.2532
-7112.6973
-7460.3848
-7834.2814
-8715.4598
-8441.022
-6620.5788
-6605.5023
-6681.6855
-6860.1896
-7141.4177
-7539.6986
-7988.9651
-8635.5634
-8452.956
-6598.9592
-6585.389
-6668.3864
-6868.9032
-7175.2746
-7603.8998
-8104.4787