/*--------------------------------*- C++ -*----------------------------------*\
  =========                 |
  \\      /  F ield         | OpenFOAM: The Open Source CFD Toolbox
   \\    /   O peration     | Website:  https://openfoam.org
    \\  /    A nd           | Version:  11
     \\/     M anipulation  |
\*---------------------------------------------------------------------------*/
FoamFile
{
    format      ascii;
    class       volScalarField;
    location    "0.0735";
    object      T;
}
// * * * * * * * * * * * * * * * * * * * * * * * * * * * * * * * * * * * * * //

dimensions      [0 0 0 1 0 0 0];

internalField   nonuniform List<scalar> 
880
(
300
300
300
300.0000112367545
300
300
299.9999999999998
300.0002560385383
300
300
299.9999999999067
300.0014705795421
300.0000000000001
300
300.0000000000434
299.9984360761685
300
300
299.9999999999999
300.0000000002602
300
300
299.9999999999997
300
299.999999933754
300.0000014541739
300.0067619659114
299.9795239010894
300.516954366659
302.6745677517025
304.9054127607926
306.1288190709354
300.0000008416443
300.0000013613089
300.0000016015979
300.0000006401933
300.0000343058118
300.0000626363556
300.0000821424205
300.0000396065532
300.0384649531256
300.0499137230542
300.0589598946286
300.0497764781117
307.2518221622549
308.2712714244552
308.7753150713745
309.6201191201275
308.8005002959212
306.5779295234444
304.3333359720302
302.5186672437547
300.1070694513203
300.1396759422167
300.1316808410177
300.0762957929802
300.0002082686937
300.00031115718
300.0003254906263
300.0002087103392
300.0000049843857
300.0000063142123
300.00000588956
300.0000030910573
300.0000006658769
300.0000000416188
300.0000000003311
299.9999999999906
300.0000689985403
300.0000089537924
300.0000003062667
299.9999999975204
300.0282195923463
300.0049429534931
300.0002496146092
300.0000022196436
301.1440124057497
300.3044586437193
300.0316552996167
300.0008137445798
300.0000001341565
299.9999998237606
299.9999999981565
300
300.0000004298783
299.9999997977493
299.9999999846452
299.999999999337
299.9988757379316
300.0000091901306
300.0000026849408
300.000000232894
300.774953885546
299.9960024272446
299.9995871188551
299.9999980532646
299.999994771863
299.9998508932886
300.0131670743824
312.4737157717075
300.0000002644191
300.0000794736556
300.1152333859724
324.6822109533676
300.0000088518398
300.0004318016808
300.2940975471429
334.5202804015928
300.0000138279005
300.0007200185935
300.4548163824093
342.4954609098114
346.452425842655
300.5391174277611
300.0008901183564
300.0000177567369
349.3458408767015
300.6708962427076
300.0012497646033
300.0000246237114
351.169281408267
300.7437786280888
300.0014200133388
300.0000300424147
353.6886091283443
300.9722407671803
300.0022770039519
300.0000487549771
300.0000468813173
300.0021707502256
301.0698332150363
357.5732386968498
300.0000611224575
300.0028566190305
301.3048950134087
359.2211359387496
300.0000823778784
300.0036593385957
301.4143201810682
355.3814299765305
300.0000360092462
300.0003690397801
300.6517146962063
339.2254288009912
300.0000160646777
300.0132318576267
301.4245868994702
322.6588871974693
299.9995598430213
299.997185363489
300.9101078053412
311.8049568559143
299.9997573918438
299.9796039017243
300.004685186088
304.8389244417339
299.9999470490576
299.97421502301
299.2104632925781
299.2088997378999
293.0744856113848
299.1342702655021
299.9895516065104
299.9999749922751
288.3197083380275
299.1253446919819
299.9917674290342
299.9999807328894
286.8143848946839
299.395338888792
299.9959097975302
299.9999911313867
290.5521615989059
299.4311564885664
299.9955052795409
299.9999902388789
290.3081209232679
299.8015677050892
299.9989234657049
299.9999973825031
291.3982438403692
299.927493125109
299.9997796698741
299.9999996033758
294.6546935158389
299.971168207501
299.9999348753618
299.9999999103362
297.6815135733261
299.9852879047459
299.9999576636943
299.999999889743
297.9844115214378
299.9175640372046
299.9990622251263
299.9999962256376
298.0581182804476
299.9179505959464
299.9990638701263
299.9999962234382
298.0894232750151
299.9177301017674
299.9990624037691
299.9999961934815
298.6436346341173
299.9218249574459
299.9990600425071
299.9999961965522
297.681513572663
299.9852879042687
299.999957662889
299.9999998905986
294.6546935154052
299.9711682068807
299.9999348737247
299.9999999105527
291.3982438403623
299.9274931256299
299.999779670054
299.9999996034273
290.3081209234441
299.8015677066843
299.9989234658386
299.9999973820139
299.9999749929036
299.9895516092142
299.1342702649304
293.0744856109592
299.9999807342034
299.9917674292867
299.125344692503
288.3197083377119
299.9999911305105
299.995909798564
299.3953388888356
286.8143848966657
299.9999902389595
299.9955052800993
299.4311564900192
290.5521615982953
299.2088997368072
299.2104632919165
299.9742150205713
299.9999470486821
304.8389244408083
300.0046851850453
299.9796039002383
299.9997573889536
311.8049568558328
300.9101078043076
299.9971853637019
299.9995598427742
322.6588871977931
301.4245868992925
300.0132318570103
300.0000160672391
300.0000468806608
300.0021707516407
301.0698332155857
357.5732386975629
300.0000611225936
300.0028566199064
301.3048950136862
359.2211359388695
300.0000823789846
300.0036593386081
301.414320180225
355.381429976573
300.0000360111659
300.0003690398347
300.6517146954668
339.2254288008284
353.6886091294725
300.9722407661974
300.0022770057636
300.0000487547634
351.1692814094103
300.7437786321746
300.0014200130998
300.0000300427463
349.3458408763713
300.6708962429768
300.0012497670132
300.0000246233531
346.4524258427418
300.5391174244161
300.0008901173977
300.0000177563837
299.999994772754
299.9998508941505
300.0131670744087
312.4737157708857
300.000000263736
300.0000794725254
300.1152333862753
324.6822109529481
300.0000088512739
300.0004318013841
300.2940975476186
334.520280401958
300.0000138272126
300.0007200194605
300.4548163832825
342.4954609104334
299.9999980531114
300.0000002332892
299.9999999992937
300
299.9995871178094
300.0000026849049
299.9999999854236
299.9999999979296
299.996002427563
300.000009190471
299.9999997971753
299.9999998234982
300.7749538855815
299.9988757380672
300.0000004299638
300.0000001342111
299.9999999998224
299.9999999975266
300.0000022201806
300.0008137450088
300.0000000001752
300.0000003059296
300.000249616854
300.0316552995604
300.000000042035
300.0000089538781
300.0049429518201
300.304458643738
300.0000006661396
300.0000689984839
300.028219593874
301.144012405096
300.0000049831441
300.0002082676398
300.1070694511516
308.8005002956123
300.0000063130722
300.0003111572523
300.1396759421744
306.5779295226693
300.0000058890264
300.0003254916243
300.1316808407496
304.3333359717553
300.0000030906299
300.0002087111475
300.076295792622
302.5186672430876
309.6201191202532
300.049776480949
300.0000396059324
300.0000006396239
308.7753150717136
300.0589598971806
300.0000821421821
300.0000016018477
308.2712714260066
300.0499137216884
300.0000626368872
300.0000013609064
307.251822161763
300.0384649465586
300.0000343052359
300.0000008420513
306.128819071423
299.9795239065694
300
300.0000000002648
304.905412760296
300.0067619618581
300
300.0000000000001
302.674567751998
300.0000014538935
300
300
300.5169543661555
299.9999999335993
300
299.9999999999999
300
299.9999999999999
300
300.0000112419029
300.0000000000002
300
300
300.0002560335637
300
300
299.9999999999939
300.0014705803645
300
300
299.9999999997933
299.998436076798
300.0000035427193
300.0001722070133
300.0016464434623
300.1193728280558
300.0001722242325
299.9998198056781
299.9993502169095
300.5196131850439
300.00164642769
299.9993501940344
300.1789097958881
304.3271217714936
300.1193728362226
300.5196131867409
304.3271217927027
322.8151150588142
351.6565268115919
331.7874127970165
318.8500319503503
307.9322602115412
348.1373658962349
342.8299379268007
337.980098072843
328.67292768818
344.2752277861941
342.4295102935644
340.6970222635286
337.0755697366265
342.6433771393787
342.0565734090245
342.0628005345754
340.5046714771084
343.376266004513
344.8260510519955
345.3788366124479
347.8502747382199
343.0992412093237
344.3402980588189
345.0512699290228
348.2485826686618
342.7123126007861
343.7685161886604
344.5636241115572
346.4284891041017
343.034514918219
344.2903066673433
345.4020744018392
343.4817417136894
331.152044968993
313.1973811612605
306.0067149260869
303.6482469991469
322.6970659135473
305.1964035202693
303.9938408210267
303.2713088429435
312.944065111673
301.8296872538328
303.8291364419561
303.64329281974
289.4119043330468
295.6138332161298
303.2029566069021
303.1833107431454
302.1361348509733
300.7468359082395
300.1333866185458
300.0082971052997
302.2140841136206
300.87872027579
300.1814038159833
300.0137570573813
302.8541113375489
301.2764013353689
300.2890904751096
300.0231646043401
302.5709610380599
300.7783081142967
300.0474000686032
299.9891404885788
300.0001065424355
299.9999952099143
300.000184156022
318.1273496956013
300.0002183713585
299.9999942953276
300.0001332491767
332.4860737186272
300.0003539179081
299.9999884396734
300.0001607148906
342.2403495566426
299.9990765236167
299.9999645130501
300.0001814702619
345.0011402159918
393.1851009905468
407.2330978679055
416.9396053502911
426.1213836767731
411.1285750185703
412.6980654976919
415.5958899639758
422.2539232243013
417.2560297214743
410.3671607914393
412.030384787771
415.540502263716
427.778936302717
414.5847638699929
410.0707221368889
412.3872975781753
430.7837948790439
432.674453645926
433.012886347873
433.3838742375109
425.547125141636
427.1527594612348
427.3711579083778
427.3842899748955
418.4317889627413
420.0678106780969
420.2584766911438
420.1582830437825
415.6413722877732
417.6104880949565
417.9672837115952
417.925950565096
433.0556566878039
430.3478774238639
419.7311373684917
396.132004705872
427.0075823068297
424.4701610447142
415.7851923635991
409.7854338128587
420.0949657963009
418.0962949004036
412.5718709174509
419.0959459561979
417.7449337651352
417.052528518157
415.1824190676658
403.6369317615165
355.1190970458141
312.1081664117876
237.6321021484989
205.4512805613558
346.9258603036116
278.0608220848558
211.555815330622
182.4477713573735
304.3866968056715
242.8836437540939
181.270333340426
156.0153634984086
241.8854146347122
180.8431206293805
170.4812126168425
144.2406711744221
208.2685456216594
206.6815520673723
207.0793514914025
198.655744713873
179.0919474872864
177.6783046109551
176.7523391965512
173.1111371241451
149.3955869806809
150.2102919976778
154.8730964576285
176.3442638629864
137.9113566797712
141.0403446501536
148.0529446039427
178.0616569510173
251.5784187504628
263.1070342341003
268.150115959841
277.1415870001879
258.9570387103481
267.254026289282
264.3139653588967
276.1428222362856
258.2184999784086
282.9528425675715
277.4804997625571
286.0628298768063
235.8699604452138
273.7117114716331
284.8389394092052
285.7845067132473
254.7454143125214
218.023771418366
214.2614448361293
236.2864212087148
245.6010734025573
207.4549630019805
152.7641363994919
150.7579096775187
238.9846115767292
180.3222885181415
124.6342288330229
117.2002099489267
201.4711328295748
123.8033809964787
73.75479470218662
92.27372514635201
112.5237820693609
126.0813130951349
152.3774479073328
178.182602735892
125.5739091109212
141.316365083137
182.1907017250845
222.0728811088238
179.5643076133912
192.1578971687637
217.003964455007
257.0345355639276
241.4458411847463
240.4041025548548
248.3827536213267
266.6091222503142
178.1826027359881
222.0728811088561
257.0345355639981
266.609122250298
152.3774479074796
182.1907017250205
217.0039644551159
248.3827536212642
126.0813130951085
141.3163650830956
192.1578971683651
240.404102554523
112.5237820694008
125.5739091110413
179.5643076130784
241.445841184201
236.2864212079584
214.2614448354896
218.0237714178557
254.7454143115951
150.7579096771829
152.7641363994802
207.4549630020434
245.6010734021337
117.2002099490536
124.6342288328843
180.3222885177662
238.984611576446
92.27372514646372
73.75479470223176
123.8033809963631
201.4711328293319
285.7845067130579
284.8389394092798
273.7117114720758
235.869960444954
286.0628298765546
277.4804997625683
282.9528425678916
258.2184999779137
276.1428222360274
264.3139653587256
267.2540262895424
258.9570387101381
277.1415869997388
268.1501159596543
263.1070342343544
251.5784187504286
198.6557447131387
207.0793514927193
206.6815520672888
208.2685456208906
173.11113712382
176.7523391973762
177.6783046112315
179.0919474870222
176.3442638631633
154.8730964580676
150.2102919980368
149.3955869808022
178.061656951238
148.0529446041412
141.0403446503605
137.9113566800563
205.4512805595001
237.6321021469901
312.1081664119631
355.1190970460143
182.4477713560386
211.5558153298664
278.0608220840282
346.9258603024329
156.0153634977065
181.2703333395942
242.8836437537706
304.3866968054176
144.2406711745035
170.4812126159525
180.8431206288168
241.8854146345219
396.1320047058159
419.7311373689438
430.3478774241111
433.0556566881099
409.785433812787
415.7851923639554
424.4701610451568
427.0075823074324
419.0959459562038
412.5718709177345
418.0962949009538
420.0949657969129
403.636931761427
415.182419067591
417.0525285186268
417.7449337658319
433.3838742376277
433.0128863469297
432.6744536465899
430.7837948797089
427.3842899753639
427.3711579080323
427.1527594614681
425.5471251416239
420.1582830441329
420.2584766913562
420.0678106782498
418.4317889626092
417.925950565587
417.9672837119782
417.6104880950996
415.641372287825
426.1213836764741
416.939605350243
407.233097867346
393.1851009904986
422.2539232249129
415.5958899634758
412.6980654976316
411.1285750183608
415.5405022647108
412.0303847871964
410.3671607913579
417.256029721093
412.3872975789513
410.0707221363944
414.5847638700072
427.7789363022515
318.1273496956924
300.0001841555894
299.9999952100165
300.0001065425191
332.4860737184787
300.0001332487475
299.9999942953774
300.0002183715329
342.2403495561286
300.0001607140029
299.9999884397033
300.0003539181989
345.0011402157884
300.0001814704794
299.9999645130696
299.9990765241727
300.0082971054715
300.1333866182728
300.7468359086005
302.1361348497433
300.0137570574731
300.1814038160434
300.8787202757331
302.2140841126851
300.0231646043187
300.2890904754883
301.2764013348912
302.854111336964
299.989140488442
300.0474000689612
300.7783081137954
302.5709610372402
303.6482469988898
306.0067149258943
313.1973811606883
331.152044968564
303.2713088426779
303.9938408208749
305.1964035198905
322.6970659133564
303.6432928194525
303.8291364417428
301.8296872534579
312.9440651116357
303.1833107427896
303.2029566065507
295.6138332154077
289.4119043330149
347.8502747366761
345.3788366119181
344.8260510538547
343.3762660072059
348.2485826678949
345.0512699289272
344.3402980594794
343.0992412103837
346.4284891036069
344.5636241114212
343.7685161885834
342.7123126010493
343.4817417133833
345.4020744016493
344.2903066672973
343.0345149184528
340.5046714773171
337.075569736278
328.6729276890375
307.9322602114736
342.0628005346206
340.697022263324
337.98009807348
318.8500319510168
342.0565734091332
342.4295102933747
342.8299379274288
331.7874127964633
342.6433771393823
344.2752277858593
348.1373658963267
351.6565268133445
298.2074764003298
299.9799765343913
299.9998876387946
299.9999996680268
298.1004680396458
299.9677171118943
299.9997552679549
299.9999991290235
298.8474732149263
299.953408474463
299.9995270000517
299.9999981626208
298.5300184799135
299.9235633771394
299.9991558588762
299.9999966913985
299.9999962263827
299.9990622249195
299.9175640370543
297.9844115207961
299.9999962239958
299.9990638708985
299.9179505950259
298.0581182804675
299.9999961926287
299.9990624047095
299.9177301011726
298.0894232743377
299.9999961943253
299.9990600435891
299.9218249545607
298.6436346336362
299.9999966909641
299.9999981619943
299.9999991263597
299.999999665425
299.9991558590956
299.9995270000213
299.9997552675757
299.9998876377217
299.9235633773158
299.953408473638
299.9677171127918
299.9799765335405
298.5300184790212
298.8474732139608
298.1004680395177
298.20747640059
)
;

boundaryField
{
    back
    {
        type            empty;
    }
    inlet
    {
        type            zeroGradient;
    }
    front
    {
        type            empty;
    }
    top
    {
        type            zeroGradient;
    }
    outlet
    {
        type            fixedValue;
        value           uniform 300;
    }
    bottom
    {
        type            zeroGradient;
    }
    wall
    {
        type            zeroGradient;
    }
}


// ************************************************************************* //
