/*--------------------------------*- C++ -*----------------------------------*\
  =========                 |
  \\      /  F ield         | OpenFOAM: The Open Source CFD Toolbox
   \\    /   O peration     | Website:  https://openfoam.org
    \\  /    A nd           | Version:  11
     \\/     M anipulation  |
\*---------------------------------------------------------------------------*/
FoamFile
{
    format      ascii;
    class       surfaceScalarField;
    location    "5.95";
    object      phi;
}
// * * * * * * * * * * * * * * * * * * * * * * * * * * * * * * * * * * * * * //

dimensions      [0 3 -1 0 0 0 0];

internalField   nonuniform List<scalar> 
8667
(
15.882807
2.0003695
-0.10539886
13.97241
2.2016048
-0.29120745
12.046347
2.4259207
-0.49985821
10.120326
2.600742
-0.67472044
8.1756549
2.7779011
-0.83323016
6.2519324
2.9123548
-0.98863234
4.3040366
3.06658
-1.1186842
2.4005745
3.1793943
-1.2759321
3.43676
-1.5891942
0.5530086
15.883532
3.8946156
13.973261
4.1118757
12.053964
4.3452175
10.123386
4.5313199
8.1814368
4.7198507
6.2435986
4.850193
4.3020642
5.0081145
2.3946921
5.0867664
5.3076659
0.52378622
15.884007
5.7883861
13.975472
6.0204112
12.057883
6.2628065
10.126759
6.4624442
8.183896
6.6627135
6.2423348
6.7917541
4.2965613
6.953888
2.3889052
6.9944225
7.1978232
0.49874786
15.884724
7.6814399
13.979111
7.9260242
12.063154
8.1787634
10.134764
8.3908339
8.1882778
8.6092001
6.2436172
8.7364148
4.2863104
8.9111949
2.3742467
8.9064861
9.0987454
0.47332458
15.886025
9.5731906
13.985647
9.8264025
12.072131
10.09228
10.143378
10.319586
8.1952025
10.557376
6.2475073
10.68411
4.2832896
10.875413
2.3612517
10.828524
11.00336
0.45663717
15.888032
11.462936
13.992261
11.722173
12.081611
12.00293
10.15485
12.246347
8.2051618
12.507064
6.2485307
12.640741
4.2778833
12.84606
2.3434053
12.763002
12.922725
0.42404005
15.889736
13.350978
14.000117
13.611793
12.09221
13.910837
10.165903
14.172654
8.2173949
14.455572
6.2581007
14.600035
4.277418
14.826743
2.3263266
14.714093
14.852987
0.39606484
15.892206
15.236551
14.006791
15.497208
12.10604
15.811588
10.180986
16.097707
8.2272283
16.40933
6.2618845
16.565379
4.2761997
16.812427
2.3075574
16.682736
16.818581
0.3419634
15.895395
17.118934
14.01328
17.379323
12.113924
17.710945
10.194975
18.016656
8.243514
18.360791
6.2739353
18.534958
4.2777343
18.808628
2.2877298
18.67274
18.821144
0.28516632
18.938879
15.957833
20.755064
15.961592
22.567297
15.965551
24.376143
15.968935
26.18161
15.972293
27.982492
15.976898
29.781831
15.978441
31.573425
15.986186
15.982929
33.368276
19.201799
14.135357
21.020112
14.143279
22.833143
14.15252
24.640691
14.161386
26.445451
14.167533
28.242126
14.180224
30.035704
14.184863
31.819479
14.202411
14.201745
33.600663
19.558132
12.28817
21.3981
12.303311
23.233623
12.316997
25.059437
12.335571
26.881818
12.345152
28.694808
12.367234
30.508241
12.37143
32.319096
12.391555
12.389631
34.13121
19.896268
10.408558
21.768662
10.430916
23.641197
10.444463
25.506994
10.469774
27.369271
10.482875
29.225222
10.511282
31.073286
10.523367
32.911686
10.553155
10.565004
34.736312
20.281185
8.4881645
22.203048
8.5090529
24.124796
8.5227155
26.048556
8.5460135
27.969768
8.5616639
29.895715
8.5853352
31.821474
8.5976071
33.746662
8.6279679
8.6433637
35.668302
20.482577
6.5405455
22.443317
6.5483128
24.405798
6.5602346
26.379663
6.5721482
28.349273
6.5920539
30.324762
6.6098463
32.286492
6.6358777
34.256886
6.6575735
6.68794
36.21231
20.793798
4.555376
22.805849
4.5362621
24.829933
4.5361503
26.879293
4.5227879
28.93336
4.5379865
31.006198
4.5370088
33.082012
4.5600641
35.173042
4.5665429
4.5921268
37.268856
20.707494
2.5206226
22.786249
2.457507
24.8732
2.4491989
26.976586
2.4194018
29.077288
2.437285
31.189597
2.4246996
33.292128
2.4575334
35.405266
2.4534049
2.4850741
37.512318
20.998258
0.34350913
23.471152
-0.015386976
25.884968
0.035383002
28.208074
0.096295398
30.512968
0.13239105
32.822
0.11566764
35.158163
0.12137091
37.499423
0.11214489
39.853213
0.13128322
33.280589
0.087687232
33.195669
0.084919345
33.121356
0.074313659
33.055328
0.066027991
32.996076
0.059251958
32.950189
0.045886637
32.905897
0.044292178
32.877964
0.027932584
0.028852312
32.849112
33.551162
0.13718835
33.516127
0.11995434
33.481333
0.10910799
33.459792
0.087569272
33.437346
0.081697841
33.428189
0.05504327
33.416414
0.056067624
33.417474
0.026872385
0.032815281
33.413511
34.112902
0.15549623
34.10818
0.12467639
34.097286
0.12000164
34.095583
0.089273078
34.089932
0.087348536
34.089207
0.055767842
34.08928
0.055994842
34.093403
0.0227499
0.026459729
34.099758
34.736613
0.15519579
34.737773
0.12351569
34.739428
0.1183469
34.7407
0.088001177
34.742733
0.085315362
34.743841
0.05465975
34.745786
0.054050517
34.746923
0.021613062
0.024506341
34.748876
35.657139
0.16635902
35.645565
0.13508983
35.633955
0.12995722
35.620093
0.10186281
35.605994
0.099414377
35.589041
0.071612261
35.572367
0.070725263
35.551047
0.042932274
0.044243137
35.531311
36.201095
0.17757335
36.185674
0.15051137
36.173509
0.14212188
36.15599
0.11938168
36.141569
0.11383562
36.118556
0.09462508
36.097755
0.091525942
36.066406
0.074281774
0.072917276
36.037732
37.249528
0.1969011
37.220372
0.17966693
37.193406
0.16908782
37.155091
0.15769706
37.11823
0.15069697
37.067096
0.14575834
37.016601
0.1420213
36.951622
0.13926068
0.14148282
36.883056
37.537597
0.17162256
37.552308
0.1649553
37.574375
0.14702135
37.584202
0.14787006
37.594991
0.13990738
37.586035
0.15471482
37.566854
0.16120234
37.509789
0.19632572
0.22226259
37.429009
39.904584
0.12025234
39.929797
0.13974174
39.912419
0.16439931
39.861207
0.1990822
39.759893
0.24122188
39.60782
0.30678735
39.412698
0.35632453
39.152416
0.45660736
38.861705
0.5129737
38.654842
0.79154918
-0.58468584
38.301513
0.75132471
-0.39799601
37.869469
0.71501299
-0.28296856
37.429827
0.68008087
-0.2404394
36.972579
0.65495131
-0.19770304
36.519944
0.62763385
-0.17499853
36.053213
0.60629625
-0.13956602
35.604784
0.58391807
-0.13548834
0.5706701
35.144171
-0.11005726
37.446393
0.7741657
37.423151
0.77456665
37.362142
0.77602203
37.271972
0.77025044
37.160593
0.76633031
37.033653
0.75457402
36.890647
0.74930251
36.729702
0.74486246
0.74206552
36.558307
36.932019
0.72520358
36.973451
0.73313397
37.001262
0.74821093
37.017738
0.75377522
37.017247
0.76682137
37.001791
0.77002944
36.970053
0.78104026
36.931024
0.78389137
0.7950712
36.878019
36.130016
0.63291933
36.224647
0.63850261
36.307506
0.66535244
36.391414
0.66986723
36.462684
0.69555086
36.534215
0.69849901
36.591904
0.72335066
36.650238
0.72555833
0.75080923
36.6945
35.64046
0.52376989
35.753702
0.52526042
35.858851
0.56020375
35.968619
0.56009916
36.069114
0.59505579
36.173864
0.59374933
36.26865
0.62856436
36.368819
0.62538959
0.66032971
36.459298
34.878777
0.39386858
35.013198
0.39083993
35.144846
0.42855501
35.280877
0.42406901
35.413741
0.46219114
35.551707
0.45578357
35.685504
0.49476698
35.82422
0.48667413
0.52681771
35.957732
34.238037
0.25558992
34.377585
0.25129174
34.520903
0.28523688
34.665052
0.27991968
34.812617
0.314627
34.962536
0.30586379
35.114732
0.34257152
35.270305
0.33110066
0.36918074
35.427942
33.556148
0.11295266
33.694126
0.11331372
33.844183
0.13517968
33.99033
0.13377282
34.150813
0.1541446
34.306831
0.14984497
34.478264
0.17113879
34.644163
0.16520218
0.18788016
34.825463
32.962065
33.075378
33.210558
33.344331
33.498476
33.648321
33.819459
33.984662
34.172542
34.35324
-0.18069845
34.558128
-0.20488792
34.753972
-0.19584396
34.975613
-0.22164053
35.186574
-0.21096181
35.424404
-0.23782922
35.65064
-0.22623595
35.906287
-0.25564712
-0.24071885
36.147006
35.000307
-0.35554251
35.192031
-0.39661207
35.376221
-0.38003355
35.578131
-0.42355054
35.772448
-0.405279
35.985699
-0.45108031
36.190101
-0.43063775
36.415181
-0.48072734
-0.4573997
36.631862
35.589602
-0.51720186
35.751704
-0.55871405
35.919646
-0.54797628
36.087142
-0.5910462
36.261598
-0.57973484
36.43558
-0.62506237
36.618677
-0.61373501
36.80037
-0.66242009
-0.65132781
36.994298
36.097154
-0.65662402
36.231191
-0.6927514
36.372443
-0.68922763
36.508596
-0.72719913
36.653613
-0.72475203
36.794141
-0.76559021
36.945412
-0.76500623
37.093554
-0.81056251
-0.81138472
37.253611
36.556062
-0.7533875
36.642949
-0.77963802
36.736053
-0.78233173
36.820065
-0.8112114
36.913169
-0.81785592
36.998828
-0.85124909
37.096205
-0.86238382
37.187397
-0.90175381
-0.9169036
37.292915
36.741319
-0.80020705
36.776227
-0.81454582
36.816437
-0.82254153
36.84786
-0.8426349
36.883991
-0.85398677
36.913994
-0.88125179
36.950135
-0.89852533
36.981918
-0.93353614
-0.95749177
37.022506
36.822378
-0.74456593
36.75499
-0.74715767
36.68672
-0.75427238
36.609594
-0.76550818
36.533235
-0.77762847
36.451477
-0.7994935
36.371831
-0.81887959
36.289709
-0.85141336
-0.87979601
36.212013
36.370382
-0.55664142
36.18141
-0.55818512
35.97404
-0.54690255
35.769214
-0.56068204
35.546795
-0.55520972
35.324945
-0.57764318
35.086993
-0.58092787
34.852714
-0.61713476
-0.62865871
34.601577
34.706078
-0.11854821
34.251554
-0.10366177
33.828082
-0.12342974
33.376444
-0.10904411
32.957965
-0.13673107
32.503025
-0.12270349
32.082035
-0.15993771
31.613958
-0.14905733
31.186081
-0.20078164
0.68017739
30.699231
-0.1933276
0.92567891
34.356075
1.0031567
36.134535
0.96445046
37.061212
0.86308834
37.394278
0.70447406
37.412226
0.51224869
37.186523
0.27406998
36.870041
36.421075
0.70402179
30.259486
-0.26427719
0.96322241
34.096875
1.0329304
36.064827
0.98461879
37.109524
0.8682919
37.510604
0.69409566
37.586422
0.48766666
37.392952
0.25857556
37.099132
36.679651
0.77208935
29.748228
-0.26083087
1.0256318
33.843332
1.0920599
35.998399
1.0406436
37.16094
0.92211618
37.629132
0.74932153
37.759216
0.54673404
37.59554
0.29346158
37.352404
36.973113
0.81241781
29.297941
-0.3621305
1.0733905
33.58236
1.1291068
35.942683
1.0652273
37.224819
0.93545601
37.758903
0.74482516
37.949847
0.52193575
37.818429
0.27910025
37.59524
37.252213
0.9046487
28.762463
-0.36917102
1.1547011
33.332307
1.2038082
35.893576
1.1324397
37.296188
0.99197648
37.899366
0.7973334
38.14449
0.57863844
38.037124
0.31089958
37.862979
37.563112
0.95557694
28.325644
-0.51875836
1.2137244
33.07416
1.2480635
35.859236
1.1605504
37.383701
1.0093458
38.050571
0.80001775
38.353818
0.56438772
38.272754
0.30377493
38.123592
37.866887
1.0785419
27.802303
-0.55520084
1.3179256
32.834776
1.3403466
35.836816
1.2393185
37.484729
1.0709388
38.218951
0.84939791
38.575359
0.61049614
38.511656
0.32909803
38.40499
38.195985
1.1665115
27.43129
-0.7954985
1.3879008
32.613387
1.3893767
35.83534
1.2693656
37.60474
1.0907944
38.397522
0.85609201
38.810062
0.6037289
38.764019
0.32658264
38.682136
38.522568
1.337874
26.945518
-0.85210194
1.5269768
32.424284
1.5115933
35.850723
1.3661722
37.750161
1.1551601
38.608534
0.90136842
39.063853
0.64259909
39.022789
0.34793529
38.9768
38.870503
0.046583316
38.82392
0.15472448
38.868659
0.26565024
38.911863
0.39214629
38.937357
0.52897682
38.471704
0.65893442
37.620203
0.77674864
35.732909
0.87478551
32.326247
27.147247
0.6730568
0.048180854
38.775739
0.1539596
38.76288
0.26570146
38.800121
0.37345054
38.829608
0.46393564
38.381219
0.55382618
37.530313
0.62424315
35.662492
0.66836922
32.282121
27.22482
0.59079623
0.05523439
38.720505
0.15830478
38.659809
0.26142676
38.696999
0.37071545
38.720319
0.48042215
38.271512
0.56603272
37.444702
0.6216545
35.60687
0.65282904
32.250946
27.334126
0.54352311
0.062976204
38.657529
0.16457261
38.558213
0.26780345
38.593768
0.35893488
38.629188
0.41729886
38.213148
0.46746406
37.394537
0.49347674
35.580857
0.49515567
32.249268
27.391659
0.43762205
0.07242772
38.585101
0.1778113
38.452829
0.27478411
38.496795
0.3733633
38.530609
0.46075325
38.125758
0.50588155
37.349409
0.52100929
35.56573
0.5102592
32.260018
27.472819
0.42909919
0.084208568
38.500892
0.19286863
38.344169
0.29321348
38.39645
0.37419971
38.449623
0.40965532
38.090302
0.41902435
37.34004
0.40403982
35.580714
0.35978706
32.30427
27.494839
0.3377676
0.098951807
38.40194
0.21469793
38.228423
0.31509742
38.296051
0.40490466
38.359815
0.47088169
38.024325
0.48123288
37.329689
0.45361252
35.608335
0.39701754
32.360865
27.556511
0.33534547
0.11781214
38.284128
0.24167383
38.104562
0.35411099
38.183614
0.43018142
38.283745
0.43802797
38.016479
0.40949581
37.358221
0.35048855
35.667342
0.27417097
32.437183
27.549682
0.28099983
0.13889192
38.145236
0.27557641
37.967877
0.38704785
38.072142
0.47843322
38.19236
0.52701191
37.9679
0.49720884
37.388024
0.42558931
35.738961
0.34052788
32.522244
27.551552
0.33865803
-0.22784532
27.487839
0.29155797
-0.34489995
32.639299
-0.4575396
35.851601
-0.522098
37.452582
-0.52541602
37.971218
-0.44554126
38.112485
-0.3165074
37.943108
-0.16534612
37.816716
37.97989
-0.32256991
27.471031
0.33937839
-0.45110443
32.767834
-0.57253387
35.97303
-0.63666976
37.516718
-0.59519366
37.929742
-0.49770419
38.014995
-0.36776784
37.813172
-0.1931211
37.642069
37.786769
-0.22457253
27.448864
0.24673917
-0.39864823
32.941909
-0.56323085
36.137613
-0.6586927
37.61218
-0.66833678
37.939386
-0.57644757
37.923106
-0.42109289
37.657817
-0.2292304
37.450207
37.557539
-0.35368568
27.523256
0.27929379
-0.54097343
33.129197
-0.71303671
36.309676
-0.80251528
37.701659
-0.7637302
37.900601
-0.64925704
37.808633
-0.48616404
37.494724
-0.26654643
37.230589
37.290992
-0.27099756
27.545377
0.24887702
-0.51737002
33.375569
-0.74609227
36.538399
-0.86004323
37.81561
-0.86162643
37.902184
-0.75090003
37.697907
-0.55491771
37.298742
-0.30932618
36.984997
36.981666
-0.42323608
27.617049
0.35156413
-0.69844506
33.650778
-0.92906027
36.769014
-1.0371183
37.923668
-0.98764091
37.852707
-0.84049987
37.550765
-0.63016592
37.088408
-0.35446838
36.7093
36.627198
-0.35941081
27.67862
0.2978399
-0.72058545
34.011953
-1.01226
37.060688
-1.1321316
38.043539
-1.1064215
37.826997
-0.95893754
37.403282
-0.71149032
36.840961
-0.39130772
36.389117
36.23589
-0.55443136
27.852026
0.38102508
-0.94757073
34.405092
-1.2339804
37.347098
-1.3373756
38.146934
-1.2594555
37.749077
-1.0702233
37.214049
-0.79755644
36.568294
-0.452585
36.044146
35.783305
-0.53481562
28.092784
0.29405719
-1.028248
34.898525
-1.3713639
37.690214
-1.4695723
38.245143
-1.3970086
37.676513
-1.1966026
37.013643
-0.88571733
36.257409
-0.49584758
35.654276
35.287458
0.67621896
34.611239
1.2257356
35.104759
1.7071391
35.776005
2.0881431
36.632639
2.3345131
37.430143
2.3460443
38.233612
2.007939
38.028319
1.2933371
35.613127
28.857676
0.52844506
0.73038593
33.880853
1.3237132
34.511432
1.8493485
35.25037
2.2629773
36.219011
2.5419383
37.151182
2.6129713
38.162579
2.249817
38.391474
1.4040065
36.458937
29.758509
0.5031736
0.7840059
33.096847
1.4096529
33.885785
1.9845718
34.675451
2.4546026
35.74898
2.7997095
36.806075
2.9654501
37.996838
2.7202406
38.636683
1.8865032
37.292674
31.045316
0.599696
0.83670892
32.260138
1.5008583
33.221636
2.1243633
34.051946
2.6203818
35.252961
3.0082901
36.418167
3.2354298
37.769698
3.0546925
38.81742
2.1671407
38.180226
32.554548
0.65790897
0.87799752
31.38214
1.5725883
32.527045
2.2473115
33.377223
2.8045823
34.695691
3.2612032
35.961546
3.5832986
37.447603
3.5986996
38.802019
2.8657204
38.913205
34.589647
0.83062105
0.91786741
30.464273
1.6516947
31.793218
2.3685249
32.660393
2.9492145
34.115001
3.4455207
35.465239
3.850869
37.042255
3.9744097
38.678479
3.395927
39.491688
36.842286
1.1432889
0.95321462
29.511058
1.7013378
31.045095
2.4639071
31.897824
3.1134602
33.465448
3.6678312
34.910869
4.1599817
36.550104
4.5103936
38.328067
4.1622988
39.839783
38.92211
2.0824748
0.97950975
28.531549
1.7647859
30.259818
2.5599362
31.102673
3.2279452
32.797439
3.8190089
34.319805
4.3521048
36.017008
4.7624363
37.917735
4.7829934
39.819226
40.772159
2.9329443
1.0042037
27.527345
1.7943463
29.469676
2.630855
30.266165
3.3807371
32.047557
4.05481
33.645732
4.6361886
35.43563
5.3174524
37.236472
5.7675676
39.369111
41.747418
4.7923078
-0.40274258
27.930087
-1.1241774
30.191111
-1.988158
31.130145
-3.1479657
33.207365
-4.5609961
35.058762
-6.3124622
37.187096
-8.4031172
39.327127
-11.081287
42.04728
43.788965
-13.122833
-0.35539404
28.285481
-1.0605905
30.896307
-1.8812977
31.950852
-3.0028636
34.32893
-4.4503605
36.506259
-6.2988076
39.035543
-8.5923243
41.620643
-11.173405
44.628361
44.264464
-11.648904
-0.33521932
28.620701
-0.98075817
31.541846
-1.7832534
32.753348
-2.9223749
35.468052
-4.4186018
38.002486
-6.3682427
40.985184
-8.7702071
44.022608
-10.856281
46.714435
39.300275
-5.8920916
-0.29541673
28.916118
-0.90490728
32.151337
-1.6637854
33.512226
-2.7542448
36.558511
-4.2847688
39.53301
-6.3077788
43.008194
-8.7095515
46.42438
-10.507426
48.512309
30.13856
-1.3457113
-0.28663491
29.202752
-0.82953752
32.694239
-1.5644511
34.247139
-2.6429468
37.637007
-4.2011828
41.091246
-6.3477589
45.15477
-8.5479005
48.624522
-9.9552448
49.919653
21.302743
-1.1194274
-0.26103208
29.463785
-0.75822783
33.191435
-1.4532306
34.942142
-2.4890263
38.672803
-4.0747028
42.676923
-6.2885108
47.368578
-8.4570825
50.793094
-9.2393877
50.701959
12.808345
-0.74499033
-0.2675065
29.731291
-0.69798823
33.621917
-1.3637465
35.6079
-2.3352551
39.644311
-3.9302362
44.271904
-6.1449709
49.583313
-8.2884026
52.936525
-8.6833206
51.096877
4.8205979
-0.69557326
-0.26652603
29.997817
-0.63964027
33.995031
-1.257211
36.225471
-2.1867161
40.573816
-3.7980012
45.883189
-6.0350214
51.820333
-8.0590121
54.960516
-6.3975238
49.435388
-1.6912627
0.11433676
-0.28935673
30.287174
-0.59618299
34.301857
-1.1690691
36.798357
-2.0293012
41.434049
-3.6303535
47.484241
-5.8339892
54.023969
-7.4898132
56.61634
-4.1564063
46.101981
-6.9843745
1.1367055
1.7966288
-9.6056415
0.82463805
3.4462324
44.452378
2.3549407
57.707632
1.0296063
55.349303
0.12829038
48.385557
-0.13043446
41.692773
-0.20596145
36.873884
-0.04266207
34.138558
30.244512
1.6567321
-12.078247
0.81587323
3.2240358
42.885074
2.1526684
58.778999
0.85135251
56.650619
0.0047577295
49.232152
-0.16930662
41.866838
-0.20249677
36.907074
0.0095935654
33.926467
30.254105
1.3994294
-14.528994
1.0513174
3.0385383
41.245965
2.0405033
59.777034
0.74445685
57.946665
-0.096380266
50.072989
-0.21702165
41.987479
-0.19820382
36.888256
0.051509259
33.676754
30.305615
1.0610006
-16.950686
1.3606918
2.8101092
39.496857
1.8441287
60.743015
0.59201873
59.198775
-0.1735949
50.838603
-0.22587171
42.039756
-0.17657596
36.838961
0.11386028
33.386318
30.419475
0.80316079
-19.323734
1.5698874
2.6300177
37.67
1.7226299
61.650403
0.45935975
60.462046
-0.28384723
51.58181
-0.25660599
42.012515
-0.14038156
36.722736
0.1809427
33.064994
30.600418
0.56710208
-21.588986
1.6981497
2.3997565
35.837345
1.5358981
62.514261
0.34021106
61.657733
-0.32973652
52.251757
-0.24043759
41.923216
-0.088115317
36.570414
0.26790759
32.708971
30.868325
0.35151575
-23.68297
1.7424681
2.2305445
33.958317
1.4076986
63.337107
0.19139618
62.874035
-0.4349518
52.878105
-0.25101342
41.739277
-0.00877159
36.328172
0.37419723
32.326002
31.242522
0.20645711
-25.754609
1.8651816
2.0156153
32.149158
1.2214434
64.131279
0.080213373
64.015265
-0.46979227
53.428111
-0.21163433
41.481119
0.070494126
36.046044
0.48937275
31.907123
31.731895
0.052607712
-27.220533
1.4133161
1.8122753
30.389491
1.0815572
64.861997
-0.062291506
65.159114
-0.54966882
53.915488
-0.19325718
41.124708
0.20137933
35.651407
0.6323845
31.476118
32.36428
-0.20165142
-28.298021
1.2791398
-4.2745122
34.462352
-7.1650132
67.752498
-7.6151703
65.609271
-5.9124795
52.212797
-3.0371358
38.249364
-0.83546552
33.449737
1.1074153
29.533237
33.471695
0.080425721
-28.25311
-0.12533628
-5.0506037
39.593381
-8.0293763
70.731271
-8.0790308
65.658925
-5.5646243
49.698391
-2.1631047
34.847844
0.60706945
30.679563
2.2090577
27.931249
35.680753
-0.43459845
-25.121246
-2.6972657
-6.0941803
45.252963
-8.4122373
73.049328
-7.8410559
65.087744
-4.9866702
46.844005
-1.144319
31.005493
1.4975713
28.037672
2.6604789
26.768342
38.341232
-0.62887228
-20.455655
-4.0367194
-6.5920634
51.216154
-8.9538744
75.411138
-7.5652351
63.699105
-3.8373337
43.116104
0.23918191
26.928978
3.4971183
24.779736
4.0191934
26.246267
42.360425
-1.5016402
-14.441671
-4.5123429
-7.3974784
57.111992
-9.0157508
77.029411
-6.9667214
61.650075
-2.6577878
38.80717
1.8131003
22.458089
4.3041511
22.288685
3.8360889
26.714329
46.196514
-1.7442762
-7.8793907
-4.8180045
-7.76765
63.135366
-8.9863271
78.248088
-6.5728664
59.236615
-1.1262166
33.360521
4.1202367
17.211636
6.3274488
20.081473
5.0147435
28.027034
51.211257
-2.6729755
-0.23712066
-4.9692946
-8.4251735
68.887564
-8.7753083
78.598223
-5.3187982
55.780105
0.89512891
27.146593
5.6910595
12.415705
6.8113838
18.961149
3.9829512
30.855467
55.194209
-2.9678687
7.3505249
-4.6197769
-8.649214
74.56891
-8.6707906
78.619799
-4.6236525
51.732966
1.9708943
20.552047
6.619933
7.7666668
8.2367051
17.344377
4.7626868
34.329485
59.956895
-4.1120173
-2.8891159
14.351658
-9.3782873
79.83518
-8.1389889
77.380501
-3.4528713
47.046849
2.167365
14.93181
6.8341021
3.0999296
8.0648767
16.113602
3.0929798
39.301382
63.049875
-0.62744868
-1.7790813
0.32407494
2.0824552
-0.32356071
-45.05389
44.750002
-0.008524714
-71.617967
71.302931
3.0492391
-35.015521
31.957757
6.2272668
18.59925
-21.777278
8.3569201
39.09159
-41.221243
9.2587203
49.912747
-50.814547
9.1091876
50.132593
-49.983061
16.469346
-16.328658
-0.57706542
-1.5316936
0.32967776
-0.052988765
-45.577967
0.12117885
-71.792135
2.6969438
-37.591286
5.8100024
15.486192
7.7650804
37.136512
8.7110833
48.966744
8.7221482
50.121528
16.445682
-0.50868618
-1.3520651
0.32905778
0.20548944
-46.292143
0.27943739
-71.866083
2.4695541
-39.781402
5.4396512
12.516095
7.2733567
35.302807
8.3334738
47.906627
8.5536701
49.901332
16.183012
-0.45121415
-1.2257681
0.32491722
0.39698378
-47.14034
0.43400851
-71.903107
2.3271827
-41.674577
5.1124413
9.730836
6.8959711
33.519277
8.1197264
46.682871
8.6221022
49.398956
15.590832
-0.37840191
-1.1702312
0.32286514
0.61037978
-48.129122
0.59058644
-71.883314
2.2529429
-43.336933
4.9144488
7.0693301
6.7217224
31.712003
8.1364534
45.26814
8.9993542
48.536056
14.519293
-0.30888304
-1.1790806
0.31773251
0.86018996
-49.298195
0.8117548
-71.834879
2.2527739
-44.777952
4.8092042
4.5128998
6.6342592
29.886948
8.2337969
43.668603
9.5832787
47.186574
12.716396
-0.2676029
-1.2327247
0.32124705
1.1065432
-50.672341
1.1100722
-71.838408
2.3033183
-45.971198
4.7525279
2.0636901
6.6518135
27.987663
8.4783143
41.842102
10.450028
45.21486
9.9982677
-0.23782782
-1.3197082
0.32481141
1.3581108
-52.26828
1.4503989
-71.930696
2.4051222
-46.925921
4.6980002
-0.22918784
6.7303447
25.955318
8.8696197
39.702827
11.632256
42.452223
6.2590855
-0.20069804
0.3462995
-1.4653096
1.5925261
-54.061504
1.7487002
-72.08687
2.4999436
-47.677165
4.6786122
-2.4078565
6.8385796
23.795351
9.3271232
37.214283
13.063494
38.715853
1.367744
1.0318325
12.928445
0.81506545
-14.775343
3.4551175
31.311001
-33.734289
0.88997833
-1.3786216
3.9437643
-5.3600498
-65.520212
71.77024
-6.687261
-77.367368
78.694579
-5.8359461
-69.015466
68.164152
-3.4683452
-55.643285
53.275684
-1.5196989
-44.559002
42.610356
-35.304196
33.784497
1.0388807
11.63939
0.25017462
3.8086289
28.541253
2.0826229
0.34738491
-3.6923395
-59.74525
-5.8901309
-75.169576
-6.0680224
-68.837575
-4.2786465
-57.43266
-2.4644185
-46.37323
-37.768614
1.2726609
11.410918
-1.0441893
3.9001711
25.913742
2.4102246
1.8373318
-2.8733492
-54.461676
-5.242381
-72.800544
-5.3049367
-68.775019
-3.7551292
-58.982468
-1.9273277
-48.201032
-39.695942
1.6545124
11.055088
-1.2986828
4.4047531
23.163502
3.2984972
2.9435879
-1.5538893
-49.609289
-4.5000976
-69.854336
-5.3600223
-67.915095
-4.2074253
-60.135065
-1.9287136
-50.479743
-41.624656
1.7300986
9.5757976
-0.25080768
4.2797379
20.613862
3.6551181
3.568208
-0.58704064
-45.36713
-3.5604626
-66.880914
-4.3513093
-67.124248
-3.7430964
-60.743278
-1.6579698
-52.56487
-43.282626
1.6777893
7.4745484
0.42346001
4.3908478
17.900804
4.2470118
3.7120441
0.62759004
-41.747708
-2.7611902
-63.492134
-4.2345084
-65.65093
-4.0584898
-60.919296
-2.2372798
-54.38608
-45.519905
1.4839049
5.4615188
0.52912514
4.270541
15.114168
4.5913025
3.3912831
1.5284963
-38.684902
-1.519646
-60.443992
-3.0474786
-64.123097
-3.2104932
-60.756282
-1.9562677
-55.640305
-47.476173
1.2657711
3.4917232
0.70402483
4.1494395
12.230499
4.9526129
2.5881101
2.6311594
-36.363449
-0.56394254
-57.248889
-2.5651972
-62.121842
-2.9966442
-60.324835
-1.9441131
-56.692836
-49.420286
0.79470266
1.9274753
0.76954547
3.8000321
9.2251696
5.291279
1.0968637
3.5452133
-34.617383
0.71117448
-54.414851
-1.2384455
-60.172223
-2.1334463
-59.429834
-1.6917481
-57.134535
-51.112034
-0.48462869
49.666605
-49.181976
-1.4684007
50.666616
-49.682844
-2.5547129
50.447002
-49.36069
-3.8070033
48.977667
-47.725376
-4.7896564
45.464873
-44.482219
-4.9409306
37.696376
-37.545102
-2.1537869
20.572621
-23.359765
0.39479106
6.0497748
-8.5983529
-2.8411819
2.6407709
0.59520209
-0.40207585
50.068681
-1.3661927
51.630733
-2.4789884
51.559798
-3.7460661
50.244745
-4.7727914
46.491598
-4.7914507
37.715035
-1.6450558
17.426227
0.70531274
3.6994064
-2.7227509
0.58688173
-0.3429494
50.41163
-1.2679568
52.55574
-2.3787267
52.670568
-3.7164689
51.582487
-4.7666855
47.541815
-4.6142258
37.562575
-1.4126267
14.224628
0.76437465
1.5224052
-2.5182521
0.55987578
-0.26519846
50.676829
-1.1654961
53.456038
-2.2987206
53.803792
-3.6368261
52.920592
-4.7106113
48.6156
-4.4448279
37.296792
-1.4629733
11.242773
0.59752178
-0.53808974
-2.4348019
0.51407147
-0.20862763
50.885456
-1.0492406
54.296651
-2.1759375
54.930489
-3.5838824
54.328537
-4.686053
49.71777
-4.2985123
36.909252
-1.526611
8.4708722
0.41640519
-2.4811056
-2.4551005
0.43670355
-0.13371016
51.019166
-0.9449878
55.107929
-2.0844849
56.069986
-3.4882799
55.732332
-4.6112114
50.840702
-4.1639454
36.461985
-1.5685351
5.8754626
0.28231051
-4.3319516
-2.5238924
0.35110264
-0.084366041
51.103532
-0.81918198
55.842745
-1.9409008
57.191705
-3.4133969
57.204828
-4.5833695
52.010675
-4.0359223
35.914538
-1.5875448
3.4270858
0.14998064
-6.0694771
-2.3471943
-0.026717268
-0.023260478
51.126793
-0.71272644
56.532211
-1.8414623
58.320441
-3.2965663
58.659932
-4.4841115
53.19822
-3.8945323
35.324959
-1.5847677
1.1173219
0.058644548
-7.7128896
-2.2521004
-0.03644897
0.014758671
-0.58756519
-1.696958
-3.209248
-4.4258785
-3.7183025
-1.5041169
0.0081631339
-0.31646197
0.29455982
1.2150993
1.1311119
4.8733455
-13.177139
8.0847181
-26.571137
7.625166
-37.08555
6.1994359
-43.056489
4.4128362
-45.938777
2.7240994
-47.671953
1.1208942
-48.079639
-48.061082
1.4153749
-1.5508949
1.3506193
6.3759997
-18.137763
8.2809821
-28.47612
7.5953363
-36.399904
6.1606891
-41.621842
4.4211377
-44.199225
2.7871685
-46.037984
1.2064974
-46.498968
-46.854584
3.1222963
-5.9185907
1.2453996
7.2133823
-22.228849
8.2696839
-29.532421
7.4927061
-35.622926
6.1271973
-40.256333
4.4866205
-42.558649
2.8417017
-44.393065
1.2590311
-44.916297
-45.595553
5.6048614
-11.475213
-0.04823916
7.8421535
-24.466141
8.2615313
-29.951799
7.4370916
-34.798486
6.0823177
-38.901559
4.467442
-40.943773
2.872403
-42.798026
1.3311392
-43.375033
-44.264414
6.7868091
-18.152431
-0.10959098
8.0959836
-25.775316
8.1429874
-29.998803
7.3162924
-33.971791
6.0339129
-37.61918
4.5169842
-39.426844
2.9199091
-41.200951
1.3824472
-41.837571
-42.881967
7.598827
-25.66146
-0.08979744
8.2715185
-26.448008
8.0703683
-29.797653
7.2591983
-33.160621
5.9825155
-36.342497
4.4747941
-37.919123
2.9253222
-39.651479
1.4204235
-40.332673
-41.461543
8.2874902
-30.224003
-3.7249474
8.3766531
-26.53717
7.9832913
-29.404291
7.1327648
-32.310095
5.9183963
-35.128129
4.5047091
-36.505436
2.9650493
-38.111819
1.4250133
-38.792637
-40.03653
8.7732825
-30.116609
-8.8806767
8.4048917
-26.16878
7.9445162
-28.943915
7.0616562
-31.427235
5.8558881
-33.922361
4.4415449
-35.091093
2.949078
-36.619352
1.4633246
-37.306883
-38.573205
8.8472172
-28.531704
-10.432122
8.3008446
-25.622407
7.8338066
-28.476877
6.9288126
-30.522241
5.7839237
-32.777472
4.4530502
-33.760219
2.968711
-35.135013
1.4756669
-35.813839
-37.097539
0.0028379502
38.513201
-38.516039
0.0864261
37.013101
-37.096689
0.19057499
36.26494
-36.369089
0.32884115
35.016926
-35.155192
0.46578614
33.919236
-34.056181
0.64252465
32.157161
-32.333899
0.75286345
30.897611
-31.00795
0.66444581
28.390597
-28.30218
24.899497
-24.578529
0.34347787
0.02620139
38.487
0.096447511
36.942855
0.16807866
36.193309
0.29239028
34.892614
0.43168941
33.779937
0.63644663
31.952404
0.79359858
30.740459
0.75727899
28.426917
25.169467
0.48730815
0.066039436
38.42096
0.17958062
36.829313
0.30254205
36.070347
0.4515933
34.743563
0.60093642
33.630594
0.81033387
31.743006
1.0070642
30.543729
0.98318133
28.4508
25.797536
0.355113
0.099739758
38.321221
0.20059945
36.728454
0.29232933
35.978617
0.42558652
34.610306
0.57633178
33.479849
0.81613682
31.503201
1.0803847
30.279481
1.1745447
28.35664
26.417437
0.55464328
0.14772068
38.1735
0.2925843
36.58359
0.44337661
35.827825
0.60350084
34.450182
0.7559544
33.327395
0.98295927
31.276196
1.2902388
29.972201
1.445463
28.201416
27.35121
0.51168975
0.18903841
37.984461
0.32954355
36.443085
0.45053502
35.706834
0.5978843
34.302832
0.74406114
33.181219
0.98564304
31.034614
1.3453463
29.612498
1.7181954
27.828566
28.130922
0.93848426
0.24262908
37.741832
0.43646639
36.249248
0.62147618
35.521824
0.79054927
34.133759
0.93054631
33.041222
1.1356545
30.829506
1.5018708
29.246282
2.0152
27.315237
28.881665
1.2644566
0.29216201
37.44967
0.4712134
36.070196
0.63057241
35.362465
0.80250493
33.961827
0.93934724
32.904379
1.1313396
30.637514
1.5227518
28.85487
2.2894672
26.548522
28.956161
2.2149716
0.35213183
0.60848889
0.83594111
1.0375488
1.1644565
1.2797294
1.6577219
2.5838366
3.008293
-0.2099754
-24.650902
0.28234856
-0.14023739
-28.371918
-0.039107278
-31.10908
0.1243579
-32.497364
0.20676214
-34.138586
0.25247941
-35.200909
0.21049366
-36.327103
0.15625548
-37.042451
-38.359784
-0.2153612
-24.679136
0.24359497
-0.16134341
-28.425936
-0.076965761
-31.193458
0.067341292
-32.641671
0.14104349
-34.212288
0.20160382