/*--------------------------------*- C++ -*----------------------------------*\
  =========                 |
  \\      /  F ield         | OpenFOAM: The Open Source CFD Toolbox
   \\    /   O peration     | Website:  https://openfoam.org
    \\  /    A nd           | Version:  11
     \\/     M anipulation  |
\*---------------------------------------------------------------------------*/
FoamFile
{
    format      ascii;
    class       volScalarField;
    location    "0.079";
    object      T;
}
// * * * * * * * * * * * * * * * * * * * * * * * * * * * * * * * * * * * * * //

dimensions      [0 0 0 1 0 0 0];

internalField   nonuniform List<scalar> 
880
(
300
300
300
300.0000263318491
300
300
300.0000000000283
300.0003686848069
300
300
299.9999999995374
300.0018776625971
300.0000000000001
300
300.0000000003176
299.9986235139644
300
300
299.9999999999999
300.0000000002472
300
300
299.9999999999997
300
299.9999998710556
300.0000028074461
300.0100168093109
299.971972242513
300.59556058662
302.9770626558915
305.3245967284769
306.5609525778127
300.0000012906953
300.0000023742009
300.0000027532441
300.0000011638275
300.000047209871
300.0000936900786
300.0001306013944
300.0000654765668
300.0477473132075
300.066249252115
300.0811999370108
300.0698091985234
307.8481240167166
309.0221008841348
309.719460973779
310.6363719508793
309.7372534821553
307.4136538045727
305.0738674000244
303.1658881034641
300.1414483431803
300.2006642468356
300.2047000890602
300.1315617465654
300.000309129617
300.0005304538818
300.0006266566891
300.0004477948938
300.0000082326196
300.0000119547137
300.0000126459823
300.0000077923162
300.0000020896469
300.0000001868377
300.0000000032856
300.0000000001165
300.0001777774327
300.0000316655557
300.0000017229115
300.0000000156276
300.0556512569315
300.0134978145637
300.001146822832
300.0000219514926
301.6585336422332
300.5866510521728
300.0986593801886
300.0051694775601
300.0000499831182
299.9999998825945
299.9999999947231
300
300.0000077892948
299.9999998673115
299.9999999814859
299.9999999989529
299.9983157924474
299.9999845400304
300.000002321829
300.0000003037441
301.0414951230406
299.9975942680391
299.9995734068868
299.9999966194652
299.9999906921777
299.9998335912143
300.020296091477
313.9368848671626
299.9999994234915
300.0001011053711
300.1436538723818
326.6899749766359
300.0000142049328
300.0006075059903
300.3643374714616
336.4540426241987
300.0000241680526
300.0011247185216
300.5996646226552
345.1581090434531
350.1183668356453
300.7259054147136
300.0013898309433
300.0000311213707
353.6398238773447
300.9211464193093
300.0020301959836
300.0000441356147
355.6338951536072
301.0161316784407
300.0022440516985
300.0000528294484
358.2784120872483
301.3270871572583
300.0036888052244
300.0000876342793
300.0000862862472
300.0036008493792
301.4899642080422
362.3729412553662
300.0001153505308
300.0048798028112
301.8474048776468
364.1300094908593
300.000162631981
300.0063661425161
302.0049252132459
359.8700823512833
300.0000364860585
300.0006473895152
300.9627186016514
342.7479439529816
300.0002237107242
300.0212560072307
301.915316853445
325.3266769081036
299.9995279534075
300.0067325368814
301.4190872935453
313.0015620599299
299.9993879136939
299.980453191274
300.3083629342279
306.4403082835036
299.9998766711233
299.9556878817857
299.2405674823063
301.6663007447826
294.7674284324364
298.9740885761136
299.9825052187954
299.9999558626884
289.0343425215859
298.9500479881532
299.9869935627502
299.9999661057951
285.8097480332737
299.1935111892332
299.9935866991022
299.9999851343459
289.0632753468649
299.2639876694193
299.9931976542102
299.9999838707701
289.1143046663147
299.730325077827
299.9983136857584
299.9999954990409
289.9677471995256
299.8957156761635
299.9996285231929
299.9999992482593
292.9831540386392
299.9533177407715
299.9998805977261
299.9999998169736
296.7235962126707
299.9784453864233
299.9999349327156
299.9999998144959
297.7734166654531
299.8951252685858
299.9986033722446
299.9999936095055
297.8914535485458
299.895606514817
299.9986042002055
299.9999936100863
297.976192541904
299.8948837846085
299.9986007897433
299.9999935809234
298.6536352035292
299.9007104373605
299.9985931300799
299.9999936114189
296.7235962119642
299.9784453859147
299.9999349318509
299.9999998154657
292.983154038194
299.9533177401276
299.9998805959843
299.9999998172248
289.9677471994676
299.8957156767577
299.999628523403
299.9999992483282
289.1143046665527
299.7303250795448
299.9983136858955
299.9999954985127
299.9999558631933
299.9825052213263
298.9740885756471
294.7674284320389
299.9999661073258
299.9869935630907
298.95004798843
289.0343425213631
299.9999851334235
299.9935867002052
299.1935111890741
285.8097480347737
299.9999838708584
299.993197654814
299.2639876711003
289.0632753465063
301.6663007437866
299.2405674816617
299.9556878793495
299.9998766705782
306.4403082824376
300.308362933144
299.9804531897158
299.9993879107243
313.001562059847
301.4190872924658
300.0067325372207
299.999527953457
325.3266769084454
301.9153168532437
300.021256006509
300.0002237132805
300.0000862855522
300.0036008509536
301.4899642086831
362.3729412560497
300.0001153506431
300.0048798038011
301.8474048780055
364.1300094909776
300.0001626331608
300.0063661425412
302.004925212349
359.870082351358
300.0000364881384
300.0006473895974
300.9627186008398
342.747943952802
358.2784120883798
301.3270871563078
300.0036888071963
300.0000876340622
355.6338951548276
301.0161316829493
300.0022440513433
300.0000528298156
353.6398238768326
300.9211464191554
300.0020301987801
300.0000441351935
350.1183668357846
300.7259054111765
300.0013898296878
300.0000311209688
299.9999906931322
299.9998335920974
300.0202960915527
313.9368848662843
299.9999994227976
300.0001011041797
300.1436538727008
326.6899749762941
300.0000142043063
300.0006075055389
300.3643374717761
336.4540426244246
300.000024167279
300.0011247196114
300.5996646239173
345.158109044261
299.9999966193159
300.0000003041686
299.9999999989398
300
299.9995734058323
300.0000023218108
299.9999999824081
299.9999999944575
299.9975942683811
299.9999845403212
299.9999998666972
299.9999998822967
301.0414951230788
299.9983157926114
300.0000077893765
300.0000499831578
299.9999999996106
300.0000000156355
300.0000219521696
300.0051694780471
300.0000000030593
300.0000017225256
300.0011468252446
300.0986593801134
300.0000001873977
300.0000316656823
300.0134978127983
300.586651052138
300.0000020899125
300.000177777402
300.0556512584797
301.6585336415592
300.0000082312783
300.0003091284704
300.1414483431681
309.7372534818524
300.0000119534627
300.0005304539177
300.2006642468587
307.4136538037416
300.0000126453793
300.000626657785
300.2047000888169
305.0738673996958
300.0000077918381
300.0004477957341
300.1315617461906
303.1658881027931
310.6363719510715
300.0698092014366
300.0000654758999
300.000001163208
309.7194609742518
300.0811999395544
300.0001306011526
300.0000027535052
309.0221008856059
300.0662492501949
300.0000936906648
300.0000023737864
307.848124016202
300.0477473070019
300.0000472092252
300.0000012911472
306.5609525783511
299.971972248325
300
300.0000000002636
305.3245967279254
300.0100168047687
300
300.0000000000001
302.9770626562413
300.0000028071574
300
300
300.5955605863512
299.999999870825
300
299.9999999999999
300
299.9999999999999
300
300.0000263350496
300.0000000000002
300
300
300.0003686782991
300
300
299.999999999646
300.0018776623181
300
300
299.9999999999736
299.9986235146233
300.0000279504276
300.0003133755081
300.0023201434297
300.1371442381731
300.0003133913048
300.0000693249037
299.9996681267326
300.5805289076885
300.0023201273697
299.9996680932448
300.2033767636918
304.608026568246
300.1371442480764
300.5805289114572
304.608026607779
323.3021985317334
352.2336716429309
332.459454736654
319.4481533363399
308.3597921251938
348.49953125644
343.3679193709958
338.6423575237851
329.4774621413699
345.0506170081916
342.9391463953897
341.0221717854038
337.2728654217406
343.0001011902531
342.1993368843777
341.9611082042681
340.200868178636
343.2306726446087
344.915896973457
345.4392917091938
347.9298053164286
343.0346902452587
344.209000053989
345.0201573656918
348.3727942077889
342.7418671888596
343.7539420893498
344.7764976543515
346.6234009605292
342.8599464908949
343.7755614930402
345.1681139875587
343.2355454798586
331.4913970672262
314.0551202947358
306.1419900097156
303.9514667832548
322.962190697889
307.0731418143263
304.4158003375294
303.819210987383
312.9577992184585
302.0646954186705
304.4544592339763
304.1530243200518
288.7376030360968
293.2218626225887
302.8533264812854
303.3886557381543
302.7424143771697
301.2222585976305
300.3156667266646
300.0370694195339
302.8235998507782
301.3697052722104
300.3924329343039
300.0547512631272
303.3734138694124
301.8213879343508
300.5701197767088
300.0853191799492
303.0223618056681
301.3956366343657
300.2195669930032
299.9949996103998
300.0012308696066
299.9999857721174
300.0000932513771
320.5884996738899
300.0022150417984
300.0000018661175
300.0000815251628
335.3765907179327
300.0035064662628
299.9999971598139
300.0001284810184
344.8303718241795
299.9962887530655
299.999887323629
300.0001690347299
347.6176814742578
394.5398993872577
409.1646848922404
417.3786748952917
426.0163921166395
412.3906801029939
414.5898192535107
416.1910613565133
421.7744059656796
418.7980448690545
411.8620389365121
412.8087178234657
415.3795918712322
429.3460763262235
416.2010478200191
411.3152710390934
413.1844606939465
431.172901156943
433.8824033766069
434.2093463635138
434.5221162499699
425.2163355474306
427.4489324806317
427.8097459830344
427.8690742435112
418.3340005506038
420.5829681246827
421.0827701626662
421.0660902931882
416.1654982635624
418.5740916929475
419.1944161833914
419.1889033574787
434.254606548555
431.4329535639233
420.6971696976775
397.7430030320423
427.4899369485626
424.9777797769758
416.3047998772134
411.8733144340491
420.8307388188724
418.6470311960933
413.1382942982173
421.3409128711976
418.7396204054568
417.2944587689633
415.4534640530446
404.4936069212317
356.6173857605716
309.5899958281234
234.583371181565
207.8757856627527
345.2543157685645
272.745245898872
212.2853216678483
185.3551378373587
306.4076362358286
236.8210361121473
181.701999089466
159.1394055155694
240.9452251604752
179.1378482346564
173.8512694076643
147.9301014501723
209.1346641027713
208.4140167021249
208.5205584917297
201.4144068470465
182.3282845109977
180.5525157478046
178.993960378736
176.5240257065692
153.0384046307626
152.7458185031863
156.7305946864166
180.4702652464719
140.8033537198924
142.3549180631252
148.693445853856
183.8298760620757
252.1349191556653
260.946588434993
265.1371360283146
275.0333797260103
263.7771629876849
266.6928395096031
263.1471514747199
275.3064391072366
261.7836479103455
283.8800383560928
278.2094679402321
285.2704389243364
238.9346472003017
275.0907060903412
286.5821387408026
289.5799848437401
252.2416365471489
214.8434772557444
199.3314749552845
226.5569552732735
245.8348260465361
210.7236965631104
155.7435213647663
140.6874230537277
240.9529161903047
185.3342129081535
124.1248827290979
113.2835386183012
203.3780109806723
128.8159868524538
80.01569360343674
87.53728360408799
106.3991011055684
129.4832047708279
164.4126700106314
189.0831036554718
120.550280298045
145.9993765105775
190.8428725238684
221.7346241015316
163.8707851741369
185.4220315788781
223.843603131182
255.5566623790205
240.2695491557401
240.0260469443656
256.2588744924374
274.339090229214
189.0831036555814
221.7346241015603
255.5566623790234
274.3390902291766
164.412670010854
190.8428725238418
223.8436031312717
256.2588744923827
129.4832047708265
145.9993765105601
185.4220315785073
240.0260469439859
106.3991011056168
120.5502802981912
163.8707851737644
240.2695491550484
226.556955272331
199.3314749546884
214.8434772552901
252.2416365462267
140.6874230534467
155.7435213648239
210.7236965632222
245.8348260461155
113.2835386184868
124.1248827288352
185.3342129077434
240.9529161900697
87.53728360417908
80.0156936034592
128.8159868523732
203.3780109804662
289.5799848434944
286.5821387408338
275.0907060905812
238.9346471996278
285.2704389241118
278.2094679402344
283.8800383563633
261.78364790968
275.3064391070264
263.1471514746028
266.6928395098554
263.7771629875492
275.0333797255233
265.1371360281539
260.9465884352089
252.1349191557584
201.4144068464378
208.5205584929746
208.4140167021045
209.1346641021367
176.5240257063493
178.9939603796697
180.5525157481403
182.328284510686
180.4702652466455
156.7305946869529
152.7458185035806
153.0384046307978
183.82987606221
148.6934458541215
142.3549180633553
140.8033537201272
207.8757856614479
234.5833711797558
309.589995828092
356.6173857606834
185.3551378359305
212.2853216669137
272.7452458981056
345.2543157675005
159.1394055146426
181.7019990885956
236.8210361121157
306.407636235798
147.9301014500825
173.851269406611
179.1378482340893
240.9452251604352
397.7430030319699
420.6971696982081
431.4329535641275
434.2546065487766
411.873314433939
416.3047998774709
424.9777797773252
427.4899369491172
421.3409128711494
413.13829429821
418.6470311966059
420.8307388195356
404.4936069212359
415.453464053229
417.2944587694561
418.739620406187
434.522116249881
434.2093463624796
433.8824033776856
431.1729011572206
427.8690742439649
427.8097459825915
427.4489324809948
425.2163355473626
421.0660902936687
421.0827701628531
420.582968124667
418.3340005506092
419.1889033580482
419.1944161837902
418.5740916928623
416.1654982635783
426.0163921166201
417.3786748950677
409.164684891699
394.5398993871451
421.7744059668784
416.1910613558226
414.5898192535368
412.3906801027748
415.3795918725941
412.8087178226295
411.8620389365016
418.7980448686154
413.1844606947344
411.3152710383653
416.2010478201212
429.3460763256876
320.5884996736486
300.0000932505707
299.9999857720601
300.0012308697306
335.3765907175526
300.0000815244717
300.0000018661869
300.0022150420378
344.8303718237113
300.0001284805136
299.9999971598389
300.0035064666475
347.6176814740647
300.0001690348586
299.9998873235289
299.9962887537348
300.037069419691
300.3156667262616
301.2222585978724
302.742414376028
300.0547512631704
300.3924329342394
301.3697052720491
302.8235998499146
300.0853191798478
300.5701197770267
301.8213879337678
303.3734138688836
299.9949996101472
300.2195669933462
301.3956366336942
303.0223618049914
303.9514667830258
306.1419900095141
314.0551202941725
331.491397066755
303.8192109870766
304.4158003373521
307.0731418138678
322.9621906976157
304.1530243196954
304.4544592336957
302.0646954182083
312.9577992183758
303.3886557376208
302.8533264808336
293.2218626217796
288.7376030360808
347.9298053150185
345.439291708713
344.9158969752688
343.2306726473805
348.3727942069339
345.0201573656464
344.2090000551166
343.034690246716
346.6234009599457
344.7764976542178
343.7539420896039
342.7418671895146
343.2355454794734
345.1681139873619
343.7755614931867
342.8599464912054
340.2008681788338
337.2728654214714
329.4774621422653
308.3597921247252
341.9611082042584
341.022171785363
338.6423575247502
319.4481533365803
342.1993368844327
342.9391463953664
343.3679193719878
332.4594547350051
343.0001011902615
345.050617007718
348.4995312564887
352.2336716452361
297.8168012022585
299.9719951406161
299.9998292135822
299.9999994520302
297.6442153569649
299.9574767164117
299.999647070912
299.9999986077189
298.7745149601561
299.941872722289
299.99932439585
299.9999970820552
298.7123005308618
299.9077953720738
299.9987783319414
299.999994640299
299.9999936103032
299.9986033720843
299.8951252683554
297.7734166649059
299.9999936106551
299.9986042010228
299.8956065137886
297.8914535486271
299.9999935800191
299.9986007907341
299.894883783872
297.9761925410884
299.999993608989
299.9985931312427
299.9007104343684
298.6536352029073
299.9999946397806
299.9999970813145
299.9999986047565
299.9999994492088
299.9987783321987
299.9993243958188
299.9996470705119
299.9998292124479
299.9077953722132
299.9418727214805
299.9574767173352
299.9719951397437
298.7123005300473
298.7745149591059
297.6442153567768
297.8168012025303
)
;

boundaryField
{
    back
    {
        type            empty;
    }
    inlet
    {
        type            zeroGradient;
    }
    front
    {
        type            empty;
    }
    top
    {
        type            zeroGradient;
    }
    outlet
    {
        type            fixedValue;
        value           uniform 300;
    }
    bottom
    {
        type            zeroGradient;
    }
    wall
    {
        type            zeroGradient;
    }
}


// ************************************************************************* //
