/*--------------------------------*- C++ -*----------------------------------*\
  =========                 |
  \\      /  F ield         | OpenFOAM: The Open Source CFD Toolbox
   \\    /   O peration     | Website:  https://openfoam.org
    \\  /    A nd           | Version:  11
     \\/     M anipulation  |
\*---------------------------------------------------------------------------*/
FoamFile
{
    format      ascii;
    class       surfaceScalarField;
    location    "0.146";
    object      phi;
}
// * * * * * * * * * * * * * * * * * * * * * * * * * * * * * * * * * * * * * //

dimensions      [0 3 -1 0 0 0 0];

internalField   nonuniform List<scalar> 
1652
(
2.843686947071611
0.8895636090847481
0
1.954123337988149
0.8895636090834615
-2.220446049250313e-16
1.064559728924702
0.8895636088541596
-4.476419235288631e-13
0.889554427287472
2.074873606261463e-11
0.1749975895378843
2.843686947076741
1.779127218162428
1.954123337998014
1.779127218162188
1.064559729040687
1.77912721670788
1.779039159253347
0.1750230009511251
2.843686947090741
2.668690827246526
1.954123338008367
2.668690827244562
1.064559730070238
2.66869081532173
2.668212074770489
0.1751324511259889
2.843686947092868
3.558254436328659
1.954123338013008
3.55825443632442
1.064559748129902
3.558254235062972
3.556535486845155
0.1753196540854842
4.418652025448567
2.872852967045247
5.279049614570389
2.872852967043177
6.139447203696
2.872852967042477
2.872852967040564
6.999844792516048
4.418652025437515
2.012455377932159
5.279049614550994
2.012455377929711
6.139447203662638
2.012455377929181
2.012455377926365
6.999844792776331
4.418652287277663
1.152059228396517
5.279050663383874
1.152053472397952
6.139188197353464
1.152041253968251
1.152544403665373
6.998485848390122
4.438425278048445
0.2488678673758654
5.428415732997834
0.1087064204437047
6.466158262618396
0.04523991704227803
7.515643382490157
0.03212951845633805
6.941512730878185
0.05833192973863499
6.883174942557813
0.05833155173072035
6.824846331821498
0.05831812168664563
0.05832007101560444
6.766514489378014
6.941520193213539
0.1166442386877623
6.883234400776087
0.1165899047691268
6.824994327492941
0.1164726363997641
0.1164251417251915
6.766773428741643
6.946138839067003
0.1658370807193544
6.897158544047397
0.1608620672312612
6.850970569656671
0.1566994074260387
0.1512378697537007
6.80417952997014
7.596463056513496
0.01980073438145125
7.667267328419761
0.01367823118312383
7.722240569046471
0.01413413261617752
7.783817084978047
0.003008215564840433
7.848354108956118
0.0526199087196097
-0.1767967642952491
7.738984729731155
0.1099327662483955
-0.05540155155862342
7.627830438835909
0.0928983901635641
-0.01233579282772318
0.07533962961951118
7.54286889497002
-0.008995759354452959
6.832962948497089
0.0007072989443139832
6.89900035984932
0.002747797420251108
6.931867054024892
0.005331547041720341
0.00607155932544079
6.936482989351845
6.767077206364275
3.518622830100959e-05
6.768200831275159
0.0001181969671586458
6.770017096572703
0.0002902996551714665
0.0004117267440700845
6.771096513377962
6.766516370702653
6.766522424849488
6.766517662758519
6.766504208256226
6.766482025185661
-0.0004002687827389106
6.766470133065585
-0.0003501724817801533
6.766477920870837
-0.0002402113634200065
-0.0001148714271519413
6.766497878697361
6.771134526424455
-0.005536997174386826
6.770515087896074
-0.004580717718326133
6.769182130945082
-0.003275081888640674
-0.001855843826814474
6.767608123956915
6.923566546320563
-0.05720644435191358
6.898157582074949
-0.04186790911291044
6.863594087243857
-0.03023574386880507
-0.02145790342567544
6.824066101358707
7.44237212041584
-0.006584967068755332
7.326985947286467
-0.003180015819024884
7.206693225287886
-0.002022681481839206
7.08591971609279
-0.002412335427095846
0.01443031450663307
6.970487795273469
-0.002763004663978275
0.0006644726113494981
6.788404296294924
3.023030427828921e-05
6.76670699482767
6.766513248223116
0.006174221841254157
6.866467511824978
-0.0006147506540939429
0.00011069355643889
6.770264566803033
3.70848232955634e-06
6.766526344629539
6.766516353300089
0.0006933713112165507
6.813041947376065
-0.002265091970649835
5.078088384569135e-06
6.767583022899972
1.610507838201158e-09
6.766518041772709
6.766517048396978
0.002461573695427655
6.889027836697523
-0.1600286542717754
1.433386894855726e-05
6.767761089845449
-4.454920344842961e-07
6.766514696592439
6.766512484523722
0.1555534228109685
6.610960592888316
0.3110698086200297
6.610989982520633
0.4542658412307229
6.618912008140974
6.971764441730561
0.1243954350754921
0.1555453345396082
6.455409248459481
0.310852673839212
6.455507686591863
0.4285351317791071
6.476948822866436
6.90637298889078
0.1461811803784161
0.1555155861755508
6.299870778069637
0.310330571676371
6.300223343939837
0.3931054755729403
6.339712073506926
6.799024383828772
0.1012321324839803
0.1554485364040997
6.144329541613271
0.3093564746764711
6.144946360718942
0.3509962856336595
6.205846372203956
6.608636964975381
0.07494578498015469
-0.2930633158177477
6.387321623920182
0.03378529553469933
-0.3075209962718076
6.076059698468955
-0.1553169193218574
5.990181793852889
5.988815669611482
-0.2362132716362134
6.176942491980411
0.01108346743023636
-0.3047592591261831
5.955417872673417
-0.155071989325351
5.835597696748991
5.833298035620969
-0.1689821997986219
5.953408204437669
-0.001467587906602175
-0.300957663046402
5.820989627894043
-0.1548678800591478
5.680748308797677
5.67779016806015
-0.09028913234638447
5.682688788362687
0.0002297586119220929
-0.295698224128403
5.687040781347783
-0.1543501997174432
5.526788707050385
5.52235675692459
0.1977744236374618
5.323099708386812
0.3765018886760822
5.327762367999311
0.1143203975946607
5.485167326979106
5.392260061338683
0.02691877600173709
0.1967013829482677
5.124082678379903
0.3652738387134004
5.13011347864606
0.07465708927875447
5.253159595319342
5.075601706210696
0.0684691234670729
0.1958184346492156
4.922783476311332
0.3625013525142705
4.930166522959841
0.1909295046955632
5.043526070940749
4.910279855589917
0.1844967327306868
0.1972693979204323
4.726697104306925
0.3753891324798462
4.731435644146597
0.3490173658632458
4.809357408325962
4.779222861503865
0.3678347370258199
-0.3418033426893785
5.06242142841832
-0.7388571840512442
5.079487420115559
-1.287842512814577
5.186690293063661
4.874068795755752
-1.431132759920339
-0.3439454990301674
5.397409681943829
-0.7388377439734244
5.428908399962342
-1.058368660557375
5.470576716287344
4.327796235704215
-0.4459014035353366
-0.3398843641427409
5.732091574065824
-0.6857156152588038
5.750373220511871
-0.9454015575705892
5.747487133083152
3.669041242078039
-0.05480028074657733
-0.3347889974228426
6.066825183392877
-0.6656134222403374
6.070415718026509
-0.796350913660176
5.940432857982604
3.286345272138837
-0.03765913528851234
0.3409271790231727
3.204133172897641
-0.01535188951332125
0.3382986237513497
6.013280124795553
0.1747737843651523
6.235900128537262
6.241656650932494
0.3040772431030105
3.101760214036454
-0.008310765578580827
0.334493393541498
6.069052979856542
0.1747074022590348
6.406881282340361
6.416458273753589
0.300041114665559
2.995460926713542
-0.001508920232970189
0.3342578224308341
6.148070528195419
0.1747797672617477
6.580381722137894
6.59145595868709
0.2809446182954291
2.871639606606299
0.0106210756940557
0.3327403092672032
6.25246867984068
0.1747814365001223
6.754475837009617
6.766464674593134
-0.1917024261031706
3.239946104339532
0.079596170916758
-0.01628201697220555
6.409402899591669
-0.0001871549794580929
6.761857130278663
6.766501855067277
-0.1320469065215657
3.690525485385194
0.1057095216551236
-0.006882477974600398
6.572527445206366
-5.533729260664977e-05
6.765104449466247
6.766513195659204
-0.09242241168700072
4.28095626092489
0.1116808069293639
-0.002977495625278825
6.692517569612257
-1.923691658900495e-05
6.766368311032535
6.766516193489743
-0.06463936928605163
0.1147889842851575
4.871081318692811
-0.001270799073866069
6.709310442153
-7.224489872559303e-06
6.765739922124652
6.766516300877065
1.008957573818866
-0.94561106902297
-0.009534442974895703
4.042854939712015e-11
1.974360674573342
-0.8685732483463022
2.1970869568122e-11
2.858079356334045
-0.8745157919814965
5.648814749292796e-11
-0.8749746331863499
-3.767475220683991e-11
1.013784144365397
-1.77232792960835
-0.01189460843820172
1.974961193476931
-1.734244665118224
2.858082013982524
-1.748986220460566
-1.749948947255873
1.007429792985194
-2.524779529786403
-0.02096518731016396
1.975120294936653
-2.605718111517267
2.858086801558685
-2.623785695850902
-2.624924434382923
1.009634774284607
-0.03970851223674192
-3.215569789958442
1.976215215488172
-3.481496001095731
2.858110681161294
-3.499211936506459
-3.49991161577438
-0.06463936928606773
-4.280956260938935
0.1147889842841219
4.87108131870438
-0.001270799086218188
-6.692517569630662
6.709310442152369
-7.224543947970119e-06
-6.766368311051053
6.765739922157595
-6.766516193538283
6.766516300980935
-0.09242241169360033
-3.690525485408385
0.1116808069316662
-0.002977495636631966
-6.572527445228848
-1.923689127392159e-05
-6.765104449493728
-6.766513195608994
-0.1320469065415424
-3.239946104335573
0.1057095216533588
-0.006882478002138592
-6.409402899573339
-5.533729921092245e-05
-6.761857130286106
-6.766501855084657
-0.1917024261042577
-2.87163960659418
0.07959617091413024
-0.01628201695595743
-6.252468679828807
-0.0001871549743293066
-6.754475836995788
-6.766464674590975
-0.1747737843664602
6.241656650969691
-6.066825183449924
-0.3382986237441529
6.235900128579921
-6.070415718056198
-0.3409271790162255
6.013280124746879
-5.940432857925782
3.204133172861026
-3.286345272096318
-0.01535188951340717
-0.1747074022337342
6.416458273777998
-0.3344933935219908
6.406881282390682
-0.3040772430986346
6.069052979832227
3.101760214009018
-0.008310765577843791
-0.1747797672548691
6.591455958701073
-0.3342578224102473
6.580381722154804
-0.3000411146594387
6.148070528181924
2.995460926698378
-0.001508920232248655
-0.1747814364879684
-0.3327403092425933
-0.2809446182858337
0.0106210756924484
0.7963509136620057
-3.669041242037157
-0.03765913528904155
0.6656134222705149
-5.747487133054543
0.3347889974458731
-5.750373220565844
-5.732091574099592
0.9454015575761445
-4.327796235675798
-0.05480028074440874
0.6857156152793777
-5.470576716269233
0.3398843641489639
-5.428908400023261
-5.397409681949367
1.058368660568797
-4.874068795746878
-0.4459014035328506
0.7388377439976181
-5.186690293061906
0.3439454990373987
-5.079487420159516
-5.062421428387914
1.287842512829294
-4.779222861505591
-1.431132759923859
0.7388571840711856
-4.809357408333159
0.3418033426810155
-4.731435644134641
-4.726697104297643
0.1977744236508709
5.323099708412706
-5.522356756979067
0.3765018887129974
5.327762368001316
-5.526788707088591
0.114320397597955
5.485167326930184
-5.6870407812007
5.392260061309803
-5.68268878830272
0.0269187760054086
0.1967013829416225
5.124082678407984
0.3652738387073808
5.130113478613027
0.07465708929534121
5.253159595235184
5.07560170619986
0.06846912346974099
0.1958184346543895
4.922783476651429
0.3625013525319842
4.930166522943774
0.1909295047019808
5.043526070913643
4.910279855587856
0.1844967327309153
0.1972693979338993
0.3753891325019149
0.3490173658661944
0.3678347370262768
-0.09028913230378199
-5.953408204449966
0.00022975861856811
-0.2956982240815153
-5.820989627905876
-0.1543501996884451
-5.680748308766957
-5.677790168076021
-0.1689821998232662
-6.176942492006352
-0.001467587907638901
-0.3009576630561154
-5.955417872820666
-0.1548678800648864
-5.835597696980278
-5.833298035639476
-0.2362132716413973
-6.387321623893523
0.01108346743336697
-0.304759259088702
-6.076059698415294
-0.1550719893010186
-5.990181793877912
-5.988815669625462
-0.2930633157730242
-6.608636964939731
0.03378529553965914
-0.3075209962638947
-6.205846372130752
-0.1553169193169888
-6.144946360706175
-6.144329541626447
0.155553422816852
6.610960592955295
-6.766512484591233
0.3110698086198312
6.610989982530248
-6.766514696564596
0.4542658412389162
6.618912008149202
-6.767761089851709
6.971764441726982
-6.889027836693344
0.1243954350688458
0.1555453345425339
6.455409248459159
0.3108526738426711
6.455507686606641
0.4285351317719945
6.476948822868992
6.90637298893277
0.1461811803903429
0.1555155861819736
6.299870778066467
0.3103305716874746
6.300223343937954
0.3931054755778595
6.339712073544472
6.799024383846033
0.1012321324902562
0.1554485363946139
0.3093564746561431
0.3509962856348656
0.07494578498003335
-6.766517048400112
4.454958630883965e-07
-6.76651635330076
-1.610823585629362e-09
-6.766513248218967
-3.708482173125915e-06
-3.023030001425564e-05
-6.766497878696364
-6.766518041784268
-1.433386992599761e-05
-6.766526344644654
-5.078088930132729e-06
-6.766706994830724
-0.0001106935525636565
-0.0006644726093987252
-6.767608123966296
-6.767583022905241
-0.002461573695716535
-6.770264566802275
-0.000693371309005486
-6.788404296277369
-0.006174221850831274
-0.01443031450789611
-6.824066101340203
-6.813041947367306
-0.1600286542652919
-6.866467511813497
-0.002265091969558319
-6.970487795268864
-0.0006147506554055604
-7.085919716094646
-0.002763004659662172
-0.0001148714334113787
-6.766477920867647
-0.001855843834483561
-6.769182130938098
-0.0214579034230043
-6.863594087265991
-7.206693225301401
-0.002412335425724998
-0.0002402113641446491
-6.766470133059592
-0.003275081890617426
-6.770515087898131
-0.03023574385390143
-6.898157582080627
-7.326985947293175
-0.002022681478493216
-0.0003501724816490359
-6.766482025196911
-0.004580717720462424
-6.771134526424677
-0.0418679091170639
-6.923566546330908
-7.442372120424522
-0.003180015820127668
-0.0004002687864995691
-6.766504208250444
-0.005536997184837023
-6.77109651339781
-0.05720644434446126
-6.936482989359577
-7.542868894980249
-0.006584967067534642
-3.51862421807958e-05
6.766516370696854
-6.766514489374858
-0.0007072989623305714
6.767077206346428
-6.766773428719758
-0.05261990874168726
6.83296294841238
-6.804179529990483
7.848354108983907
-7.783817085028329
-0.1767967642956062
-0.0001181969719452614
6.766522424851892
-0.002747797423294562
6.768200831278922
-0.1099327662609729
6.899000359791866
7.738984729749653
-0.05540155156359511
-0.0002902996551227277
6.766517662757255
-0.005331547040633766
6.770017096583743
-0.092898390175158
6.931867054019018
7.627830438852192
-0.01233579282946323
-0.0004117267496719368
-0.006071559334270726
-0.07533962962419155
-0.008995759356559885
-0.1512378697641502
-7.722240569091313
0.003008215571163819
-0.1164251417392412
-6.850970569841587
-0.05832007101533976
-6.824994327488318
-6.824846331823745
-0.1566994074552217
-7.667267328446394
0.01413413261563284
-0.1164726364147546
-6.897158544296007
-0.05831812169722983
-6.883234400763694
-6.883174942186523
-0.1608620672671081
-7.596463056481699
0.01367823119342737
-0.1165899047917216
-6.946138839227415
-0.0583315517180707
-6.941520193230303
-6.941512730872557
-0.1658370807064644
-7.515643382409306
0.01980073437894325
-0.1166442387104186
-6.998485848312662
-0.05833192973888612
-6.999844792819442
-6.999844792513797
-1.152544403595858
-6.466158262594536
0.03212951846943801
-2.012455377911123
-6.139188197174792
-2.872852967040541
-6.139447203690582
-6.13944720369308
-1.152041253993799
-5.428415732984154
0.04523991706332753
-2.012455377916414
-5.27905066337284
-2.872852967042233
-5.279049614566463
-5.279049614567286
-1.152053472398134
-4.438425278021882
0.1087064204503312
-2.012455377921992
-4.4186522872701
-2.872852967044603
-4.418652025443837
-4.418652025446893
-1.152059228393901
-3.556535486636577
0.248867867247565
-2.012455377927508
-3.558254235067183
-2.872852967046921
-3.558254436324423
-3.558254436328661
2.843686947076677
0.8895636090796828
1.954123337995112
0.889563609081564
1.064559728930439
0.889563608856127
0.8895544272848896
0.1749975895218348
2.843686947077599
1.7791272181565
1.954123337999196
1.779127218159969
1.064559729041708
1.779127216711378
1.779039159274298
0.1750230008253992
2.843686947089469
2.668690827241873
1.95412333800662
2.668690827242819
1.064559730068166
2.668690815332543
2.668212074717579
0.1751324510092858
2.843686947088214
1.954123338006611
1.064559748122727
0.1753196543314807
0.1749964756405242
0.1749964755691518
0.1749895845939381
0.1750220851080379
0.174993795185557
0.1751114331366746
0.1753296996528969
0.1748983720316644
0.1750220853092526
0.1749895844538763
0.1750159847216608
0.1750159844822535
0.1750123722291365
0.175078243946653
0.1745427300659588
0.1756073327563544
0.1751114332871049
0.1749937950870594
0.1750782440293266
0.1750123719474329
0.1750224838089059
0.1750224843084303
0.1719024957755279
0.1771129223266564
0.1753296994769576
0.1748983719480108
0.1745427298633157
0.1756073325838609
0.171902495679192
0.1771129229511357
0.1715350754747126
0.1715350757058881
-0.07295126067406965
0.2431461713470609
-0.1351397589373682
0.2375574625277968
-0.2012933598371597
0.2399419822088446
0.2208965729500572
-0.01308917001683441
0.2548795301378537
-0.03248980432265092
0.2557011546260445
-0.06101690088714717
0.2665673863106781
0.2663333061649426
-0.005639639369362515
0.2590513162468285
-0.01832514369690896
0.2665865474352063
-0.0298920469983891
0.2762340277661497
0.2794725855649133
-0.007116546008179347
0.2634974653570132
-0.01786542593670348
0.2751507091188057
-0.02520133826468529
0.2820512092287623
0.2845636506944215
0.2871193080331093
0.01619242058352582
0.2888171553406687
0.01122625772333485
0.2910387696970532
0.01173482396489867
0.00270767896541696
0.2920880006204783
0.2864495697985033
0.01060067774237472
0.2892079059445941
0.008142968202938639
0.2928980280008085
0.008368297593412899
-0.003316071565455658
0.3004358680871196
0.2824361452516929
0.002491146400937116
0.2880063614547915
0.002466850934561449
0.2929305608616931
0.003724061335171669
-0.02894722208401057
0.3199308233662309
0.265538967710561
0.2678054994287186
0.271650844241768
0.2456796460357425
0.2705167865883695
-0.1536134938710957
0.2442114116034824
-0.02723534082837326
0.238408304259286
-0.003603916982622246
-0.007419467091585419
0.2406181455139571
0.2643253777168827
-0.1158641075127986
0.2461201556453086
-0.007793919708958374
0.2440629531464429
0.001381393610273784
-0.005413857954012502
0.2460694571087965
0.2704072649451346
-0.06484371919601573
0.2550675552114178
0.008386738043799635
0.2514238526266475
0.008015112627865584
0.0003882715396238412
0.2500578357300036
0.181364265499611
0.1909188131923155
0.2018167525837709
0.2066627954056799
0.2434921815923281
-0.006175218724318754
0.2439878185793025
-0.002234543580531489
0.2433529843308293
-0.0003669906407162693
-0.0007035381067239665
0.2418582828658992
0.2462443696657359
-0.003125251608520618
0.2455818361696588
0.0001280976839262427
0.2439765573153409
0.002429755845081816
0.001606055793587913
0.2426104056770009
0.2484128871236418
0.001900709820608248
0.2466513751332406
0.004107838018359011
0.2450759351769789
0.005278157040712217
0.004151430580430437
0.2439592166929231
0.2120698842345291
0.2186017577231936
0.2246727787287819
0.2296674563361832
0.240671406404344
-0.001144941412032585
0.2396606115341369
-8.549088932585658e-05
0.2373279155042183
-0.002541827512374362
-0.176584259194127
0.2450544980751319
0.2419083039047087
0.0007360910310058033
0.2403875570150199
0.0009185156271976913
0.2387974104790479
-0.004463069958794474
-0.1617499089836945
0.2142035638152668
0.2432058573257017
0.00260438418936032
0.2416643041464721
0.001953310082012105
0.2387710929089601
-0.00536338329938113
-0.104113243746167
0.1712063966381255
0.2339237577280742
0.2349055878390243
0.2251765893064709
0.1097402553190887
0.2662417374515618
0.09282967441620293
0.2693481081774758
0.1354284664932297
0.2734866007281448
0.09162382705883299
0.06229738291276643
0.278072854900242
0.2414703939684049
0.05801698762200225
0.2645009079154522
0.1071565721104998
0.2735897811279844
0.07888467327559212
0.04968841860009965
0.280329242018792
0.1980557644333787
0.0237885850351629
0.2387651839606311
0.05944275176790559
0.2654364646667894
0.04857416809165482
0.03196562872982056
0.2788548552073334
0.1281668737073491
0.1821344337988109
0.226320543398314
0.2547141031121323
0.2766628776079407
0.02698756430460902
0.2782424132100693
0.007019039155273021
0.281671449566614
-0.002965351229522573
-0.001026747704266917
0.2891302090729254
0.2795041793747937
0.02135098365417654
0.2804147750186991
0.004981235588127797
0.2827360542109399
-0.002429685145744154
-0.001689635114584864
0.290331198276353
0.279718528139012
0.01461647714118208
0.2814904622753427
0.00348630917974635
0.2843331829645012
-0.001245228244024177
-0.00109430897419005
0.2913235163267371
0.2628704315836735
0.2667319792436722
0.2696593463352098
0.2765790881272427
0.3049475484302424
0.02093061612647418
0.3238987115972715
0.05445454261602234
0.3585700493506377
0.1567648146878335
0.3022646138238447
0.4272855623572988
0.3077721080856873
0.01383161850102677
0.3263288578463166
0.04155042817664922
0.3590057086808943
0.1291638457089928
0.2011512453636172
0.4623629965827756
0.3079806331068751
0.008299337849651978
0.3275178458181103
0.02930483746021462
0.3682613886761139
0.09199590260925394
0.0484037949553866
0.5244968161769512
0.2959697109576323
0.3342261545364756
0.4303612220762406
0.4810959863537796
0.2177632504409358
-1.216163321992237
0.02228342030084219
-0.2484332862978261
0.003304127961984099
-0.03056265084212487
-0.02721290747550163
-0.0004679974595592279
0.1527989864166763
-0.9041710213201947
0.01124913097942224
-0.1057422256518738
0.00172348512731927
-0.01514433239085665
-0.01552918432841342
-0.003450481601434564
0.07688397762950175
-0.4547300718072224
0.003804337630712353
-0.03120745781555374
-0.00240823190973071
-0.004118194149401129
-0.007170560395093069
-0.00372552075574434
0.02710591095196175
-0.002166934854220023
-0.00212491583289391
-0.002843537107048513
0.001178983014064005
-0.01333108151536595
0.001153744740862547
-0.005797824963723899
-0.0003438151768360119
0.000867836762060134
0.006318126340863373
0.003868453729137928
-0.00295337203565515
-0.01013660815347483
-0.003407492466267308
-0.004328069128888917
-0.003693179449216323
0.0004000607860292979
0.00450871349809967
-0.003538907776057303
-0.004239478972806392
-0.00538541021901922
-0.004780731672169724
-0.002634285727067934
-0.005302392502954077
0.000260470445747292
0.003393372181940031
-0.007094784925028227
-0.004403802748402925
-0.006668501462561472
-0.007549729907509493
-0.007311567006440658
0.0446012875520074
0.04108083144242765
0.08321660601075971
0.07503615016516504
0.120607210185933
0.08817985333532162
0.102156977176218
0.153051340601365
0.02168139650083225
0.01588418038073464
0.05975573769337458
0.04275050282980572
0.09864915986366057
0.06051253630270555
0.078068163152402
0.1399667417519761
0.00491474671555359
0.002717628040878037
0.03622351860866153
0.01499289116725164
0.07485239256029234
0.03095312934693301
0.04841470645992837
0.1188582895493582
-0.007503242670196746
0.00797309757085933
0.04515112243252063
0.1039789144407908
0.1210855784589131
-0.1373667021784708
0.1795837161892908
0.09648829875489856
-0.09004763266195309
0.1278819272103203
0.0751445907039093
-0.0805431965633441
0.09681022241456272
-0.06336048248083696
0.04162642894118795
0.09187596367731828
0.1060920383538644
-0.09602451302596593
0.08180008674333521
-0.06588753903381132
0.04871238565291745
-0.05718784449080203
-0.03175616086865431
0.01772408226955313
0.0872303628910355
-0.05911390462653893
0.04732031840534826
-0.03573972739167847
0.01568055801015981
-0.02367583998996523
-0.009927720879847304
-0.004733193742075942
0.04390809188337914
0.006540718025285309
-0.01041517761214463
-0.01569502254594886
-0.0140291282236127
0.001889762037593549
-0.01032601813185177
-0.001952381119763284
-0.005291317720772688
-0.005006029715279898
-0.007035716293750861
-7.253919687144617e-14
-0.009188810943688185
0.007625432459411009
-0.007505847624779263
-0.001085529234974833
-0.003467910439811921
-0.006692255634062267
-0.00885877230879172
3.885780586188048e-15
0.006192103917085062
0.02016309495311462
0.001125638290699064
0.006150668265403595
0.0004389954553619679
-0.0008541379862710592
-0.002702525067585847
1.570826801966518e-13
0.02315690472296889
0.01333215446541579
0.006667436167629902
5.037081862724335e-13
-0.007035716293751699
0.005291317720639135
-0.008858772308802493
0.003467910439836654
-0.002702525067645144
-0.0004389954550252095
-0.006667436166438785
0.009534442974420514
-0.005006029715323147
0.0103260181318425
-0.006692255634086574
0.007505847624803511
-0.0008541379862702578
-0.001125638290313938
-0.0133321544647929
0.0118946084386476
-0.001952381119792035
0.01402912822367708
-0.001085529235007213
0.009188810943781163
0.006150668265367207
-0.0061921039167178
-0.023156904722482
0.02096518731027469
0.001889762037555507
0.01569502254605475
0.007625432459339962
0.004733193742237227
0.02016309495299851
-0.01772408226921888
-0.04162642894068613
0.03970851223662613
-0.07514459070343547
-0.06336048248073821
0.09187596367725888
-0.09648829875433569
-0.08054319656326779
0.09681022241440951
-0.1210855784583414
-0.09004763266183231
0.1278819272100844
-0.137366702178112
-0.1530513406009716
0.1795837161889217
-0.04871238565279026
-0.03175616086856656
-0.08180008674318788
-0.05718784449074462
-0.1060920383535055
-0.06588753903373598
-0.09602451302573006
-0.1399667417516498
-0.01568055801001327
-0.009927720879800723
-0.04732031840513483
-0.0236758399899195
-0.08723036289079103
-0.03573972739165925
-0.05911390462638027
-0.1188582895490148
0.0104151776122335
-0.006540718025182718
-0.04390809188316006
-0.103978914440402
-0.04515112243213503
-0.04841470645978646
-0.007973097570471509
-0.03095312934674231
0.007503242669995084
-0.01499289116644395
-0.002717628040820874
0.007311567006225365
-0.07485239256002696
-0.07806816315208884
-0.03622351860770548
-0.0605125363031014
-0.004914746715226997
-0.04275050282818997
-0.01588418038008607
0.007094784924822167
-0.09864915986363329
-0.1021569771755108
-0.05975573769232417
-0.08817985333693386
-0.02168139649993572
-0.07503615016322315
-0.04108083144061837
0.003538907775863073
-0.120607210185743
-0.08321660600992001
-0.04460128755086634
-0.003868453728793457
0.00034381517643935
0.006318126340082691
-0.00115374474075039
0.0008678367623092265
-0.001178983013798571
-0.005797824963143489
-0.01333108151529006
0.0004679974595714924
0.00369317944885093
0.004508713497657704
0.003407492466307734
0.0004000607859917724
0.002953372035929163
-0.004328069128411667
-0.01013660815339373
0.003450481601668724
0.005302392502726022
0.003393372181800289
0.004780731672095114
0.0002604704456782431
0.004239478973113791
-0.002634285726805026
-0.005385410219026089
0.00372552075607426
0.007549729907248394
0.006668501462413991
0.00440380274864894
0.002843537107292998
-0.003304127963248279
-0.02721290747570344
-0.0222834202998096
-0.03056265084150018
-0.2177632504389602
-0.248433286296079
-1.216163321994
-0.4272855623568781
-0.001723485127310112
-0.01552918432857691
-0.01124913097905378
-0.01514433239070921
-0.1527989864152985
-0.1057422256511096
-0.9041710213214886
-0.4623629965821994
0.002408231909766746
-0.007170560395121491
-0.00380433763053282
-0.004118194149413151
-0.07688397762879523
-0.03120745781528619
-0.4547300718077252
-0.5244968161772716
0.00212491583305195
0.002166934854251012
-0.02710591095170158
-0.4810959863538724
-0.3585700493512127
0.3022646138246263
-0.3238987115971939
0.1567648146885643
-0.3049475484304102
0.05445454261837179
0.02093061613001268
-0.2891302090745229
-0.3590057086811251
0.201151245363431
-0.3263288578464758
0.1291638457103422
-0.3077721080860662
0.04155042817903354
0.01383161850440817
-0.2903311982782404
-0.3682613886773406
0.04840379495459679
-0.3275178458184795
0.09199590260846224
-0.307980633107405
0.02930483746241697
0.008299337851931599
-0.2913235163285767
-0.4303612220776979
-0.3342261545399837
-0.2959697109606969
-0.2765790881303847
-0.2816714495685179
-0.001026747698508745
-0.278242413211308
-0.002965351230768243
-0.2766628776079819
0.007019039156864637
0.02698756431021965
-0.2780728548979385
-0.2827360542129184
-0.001689635110214138
-0.2804147750204086
-0.002429685146643101
-0.2795041793755785
0.004981235589979094
0.02135098365961252
-0.2803292420170349
-0.2843331829666269
-0.001094308971459568
-0.2814904622773218
-0.001245228244687424
-0.2797185281397751
0.003486309181234049
0.01461647714632885
-0.2788548552055737
-0.269659346337792
-0.2667319792474506
-0.2628704315847646
-0.254714103105159
-0.2734866007280758
0.06229738291375186
-0.2693481081791556
0.09162382706397076
-0.266241737452691
0.1354284665056881
0.09282967440921042
-0.2450544980766981
-0.273589781127307
0.04968841860114692
-0.2645009079159729
0.07888467327879911
-0.2414703939638344
0.1071565721168057
0.05801698762109897
-0.214203563816847
-0.2654364646652828
0.0319656287292146
-0.2387651839597443
0.04857416809238335
-0.1980557644314515
0.0594427517713535
0.02378858503350667
-0.1712063966370371
-0.2263205433946744
-0.1821344337969504
-0.1281668737035908
-0.1097402553212829
-0.2373279155037066
-0.1765842591868605
-0.2396606115337036
-0.002541827511224559
-0.2406714064058476
-8.549088964970863e-05
-0.001144941406511502
-0.2418582828668371
-0.238797410478482
-0.1617499089757203
-0.240387557014903
-0.0044630699571796
-0.2419083039069387
0.0009185156271982464
0.000736091034145181
-0.2426104056784103
-0.2387710929073811
-0.1041132437394175
-0.2416643041463827
-0.005363383297942281
-0.2432058573269239
0.00195331008245786
0.00260438419062986
-0.2439592166938728
-0.2251765893084366
-0.2349055878417909
-0.2339237577289895
-0.2296674563372653
-0.2433529843316809
-0.0007035381063814072
-0.2439878185797667
-0.0003669906379961674
-0.243492181592887
-0.002234543581483395
-0.006175218723639297
-0.2406181455134187
-0.2439765573157739
0.001606055793685335
-0.2455818361700849
0.002429755847324244
-0.2462443696658813
0.0001280976828894054
-0.003125251607801305
-0.2460694571083746
-0.2450759351770289
0.004151430580994764
-0.2466513751334064
0.005278157042365172
-0.2484128871236758
0.004107838017458676
0.001900709821095137
-0.2500578357294762
-0.2246727787293625