/*--------------------------------*- C++ -*----------------------------------*\
  =========                 |
  \\      /  F ield         | OpenFOAM: The Open Source CFD Toolbox
   \\    /   O peration     | Website:  https://openfoam.org
    \\  /    A nd           | Version:  11
     \\/     M anipulation  |
\*---------------------------------------------------------------------------*/
FoamFile
{
    format      ascii;
    class       volVectorField;
    location    "0.1";
    object      U;
}
// * * * * * * * * * * * * * * * * * * * * * * * * * * * * * * * * * * * * * //

dimensions      [0 1 -1 0 0 0 0];

internalField   nonuniform List<vector> 
880
(
(25 -2.147058196983069e-15 0)
(24.99999999999993 -1.08179247509142e-12 0)
(24.99999956491843 -9.053986220366588e-07 0)
(24.99996060994091 1.600278442986801e-06 0)
(25 2.14610412926363e-16 0)
(24.99999999999792 -1.274824886400728e-11 0)
(24.99999824656584 -3.971322683626547e-06 0)
(24.99939592192155 -0.002788415567279646 0)
(25 1.123874477181403e-14 0)
(25.00000000024904 2.598766059960142e-10 0)
(24.99999876542199 -1.437646749587169e-06 0)
(24.99525539792318 -0.01834423554022642 0)
(25.00000000000002 -1.464497209738729e-13 0)
(24.99999999645358 -2.555370885907341e-10 0)
(24.99983542096647 -0.0001029481440548127 0)
(24.92437156414265 -0.06296345399047595 0)
(25.00000000000001 -1.781959516730407e-13 0)
(24.99999999997195 9.945832939442954e-12 0)
(24.99999999995122 -2.145573978847245e-10 0)
(24.99999997247419 -9.050508815474388e-08 0)
(25.00000001294534 2.916595105098728e-10 0)
(24.99999997747235 3.612013052256523e-09 0)
(25.00000015731063 -2.150787229593507e-08 0)
(24.99999738187133 -3.179976773261326e-07 0)
(24.99902750339725 0.0001198713178443337 0)
(24.9978644223665 0.0007840003179208247 0)
(24.99830304430758 0.007869362752630145 0)
(24.99779608296972 -0.01215489147063975 0)
(24.60987614447561 0.1084307553100015 0)
(24.28425292715963 0.5134615216703849 0)
(24.18606395273039 0.9138352867712639 0)
(24.17699404142621 1.143455391669097 0)
(24.99999944259734 -1.025088626892749e-06 0)
(24.99999673353532 -6.245369564536486e-06 0)
(24.99998740305759 -1.640886379181921e-05 0)
(24.99999140715833 -9.4569730465859e-06 0)
(24.99995450493965 1.580632066860958e-05 0)
(24.99989766283727 0.0001269301124663214 0)
(24.99993292295695 0.000326253073063516 0)
(24.99992460082711 0.0002307401486724777 0)
(24.98001875116274 0.01304052950302966 0)
(24.97531028356109 0.03439663704907028 0)
(24.98086815361193 0.05609030054643277 0)
(24.97879801557617 0.0560917184175896 0)
(24.18143540594616 1.4063666808423 0)
(24.16005398891203 1.698869688502102 0)
(24.26225644459865 1.846981691370764 0)
(24.31013647513041 2.141362656667073 0)
(24.98262891318709 2.247243072920142 0)
(25.34614380611681 1.921354153594611 0)
(25.55317144839989 1.372006491000425 0)
(25.61556206226463 0.8981726906585427 0)
(24.9596024899401 0.1017744362566869 0)
(24.96220669766117 0.193832698527477 0)
(25.02168242048204 0.2022038457246349 0)
(25.04695222195196 0.1765325383017525 0)
(24.99969280285866 0.000694368539386353 0)
(24.99918925027282 0.002012382471285065 0)
(24.99979155917238 0.002974295034822716 0)
(25.00031013659376 0.002818572371695596 0)
(24.99997643939455 -2.860781233869081e-05 0)
(24.99994407237509 -7.330199403591781e-05 0)
(24.99990486702096 -9.436597667632297e-05 0)
(24.99990385356901 -8.373685153981328e-05 0)
(24.99992652475006 -5.222938346701218e-05 0)
(24.99996438892091 -2.066909393386142e-05 0)
(24.9999903090715 -4.928237926316665e-06 0)
(24.99999875583173 -5.776068028610473e-07 0)
(25.00059750436543 0.002032563032077525 0)
(25.0004610667244 0.0009209787018647367 0)
(25.00016900307086 0.0002456942129968677 0)
(25.00002789330206 3.435695176649925e-05 0)
(25.05485467375872 0.1233014672756286 0)
(25.04064669641362 0.06596447968302907 0)
(25.0208527367649 0.0248809001335897 0)
(25.00627632186821 0.006179206277247267 0)
(25.55790361004439 0.5917069036692946 0)
(25.44610660914457 0.3911900173278724 0)
(25.30469764051757 0.2301541640578444 0)
(25.15751523875102 0.1017207222821419 0)
(25.04910623810942 0.02734208961352691 0)
(25.00088670883531 0.0007823247908146915 0)
(25.00000179149983 2.113799796687571e-06 0)
(24.99999993968864 -2.684623166709397e-08 0)
(25.00484307622536 0.002562563837378707 0)
(25.00003330429881 2.489442154545242e-05 0)
(25.00000003670421 2.096980174424549e-08 0)
(24.99999999879013 -7.210519508856532e-10 0)
(24.98617702782614 0.01897207660740533 0)
(24.99995973526556 5.11696656527538e-05 0)
(24.99999991268314 9.345596786443532e-08 0)
(24.99999999631559 -2.285675500013867e-09 0)
(24.21316643637796 0.4724572105918979 0)
(24.99231899910289 0.007957457827152131 0)
(25.00000117188257 2.451081926598231e-05 0)
(25.00000189643533 -2.219040578694598e-06 0)
(24.99999791036981 -3.583146103153029e-06 0)
(24.99983666529136 7.435407925717027e-05 0)
(24.93188548348889 0.02599187223155212 0)
(20.96021961643561 1.379550465481112 0)
(24.99999062090385 -1.905421186782088e-05 0)
(24.99948109765786 0.000405996700005472 0)
(24.86850542439296 0.08172265692360618 0)
(20.57999644517934 2.84372951256024 0)
(24.99997113388869 -6.154696674769266e-05 0)
(24.99881270729452 0.001297917747944099 0)
(24.78662245772449 0.1882831033154101 0)
(19.99127516022056 4.372179483503175 0)
(24.99989893510684 -0.0001300839202948951 0)
(24.99862988262878 0.002828880606049073 0)
(24.73521874265213 0.3166638894519269 0)
(19.87708804791599 5.594446188036825 0)
(19.80006958746019 6.640311837400509 0)
(24.66729588994261 0.4764557200324819 0)
(24.99760764077291 0.004487268267826486 0)
(24.99987942679678 -0.0001800408877523144 0)
(19.96688826045249 7.198192737462223 0)
(24.64003643193995 0.6093794259727757 0)
(24.99788346293794 0.006962976038845831 0)
(24.99973903668169 -0.0003232303424324665 0)
(19.84557765644341 7.739130377765255 0)
(24.54426882803786 0.7628752914047268 0)
(24.99575595163987 0.008881768707453093 0)
(24.9997442605264 -0.0004004329818276525 0)
(19.69050602970067 8.137167886764647 0)
(24.4661920647017 0.9377939218909978 0)
(24.99557039206357 0.01382850814618623 0)
(24.99948837143777 -0.0006136047804134238 0)
(24.9994311934274 -0.0008230198786614726 0)
(24.9918475979 0.01751308801447394 0)
(24.28200936482677 1.193200552428028 0)
(19.52493181861874 8.650139723141219 0)
(24.99900398703985 -0.001302384977167251 0)
(24.9903333754172 0.02853902370679786 0)
(24.29560420194458 1.42170549902762 0)
(20.16927655443063 8.54403011292216 0)
(24.99923960009086 -0.00174398449322404 0)
(24.99320005891832 0.02819600173384018 0)
(24.56483771421414 1.21215289342074 0)
(22.04972309808147 7.563439527094692 0)
(24.99857257103983 -0.0006922176988658421 0)
(24.99596144321801 0.01335411172722217 0)
(24.9198205166698 0.7530230651943376 0)
(24.30978265197006 5.183984890690047 0)
(24.99858515238584 -0.001292547985071058 0)
(24.99708913039508 0.04630421841006508 0)
(25.37768364020116 0.6126788645127325 0)
(27.72452058908827 2.919069400832293 0)
(24.99884320743715 -0.0006261892143457159 0)
(25.03430797992729 0.01358612663994608 0)
(25.44926011240531 0.1458408933729763 0)
(27.96154567493431 0.3104570617898239 0)
(24.9999165329443 -0.0001556654725316252 0)
(25.01055078365759 -0.005179291326007024 0)
(25.19505055207734 -0.296988463543931 0)
(25.16377763986366 -3.02838358389679 0)
(24.99991983586635 -0.000188161613276585 0)
(24.99073261836939 -0.0203892836582888 0)
(24.69492064373882 -0.5670659390470633 0)
(20.90991083863582 -4.325575703857388 0)
(18.82777785706033 -4.173728808651928 0)
(24.45489145485625 -0.5563486120014592 0)
(24.9871777443238 -0.01748112892003026 0)
(24.99994839798923 -0.0001056662925943015 0)
(17.73445136079625 -3.48488377662421 0)
(24.31896920424292 -0.5072871963988036 0)
(24.98419751510558 -0.01489952759821291 0)
(24.99992509390215 -9.400279821393225e-05 0)
(17.44948550110137 -2.006753581003959 0)
(24.31090657459863 -0.3447179045008875 0)
(24.98960125524246 -0.008574654406702853 0)
(24.99997864617993 -3.587732682089086e-05 0)
(16.35173112729543 -0.8507623321274498 0)
(24.21631953788757 -0.2669464474533074 0)
(24.98855185256506 -0.007685395967880513 0)
(24.9999685893073 -3.696426948363549e-05 0)
(18.39476658817539 0.1765138103082269 0)
(24.51716846276467 -0.1592725170139613 0)
(24.99479557883618 -0.003592953332828212 0)
(24.99998770518983 -1.549466315874555e-05 0)
(20.85144524598301 0.7856689386217566 0)
(24.76672579701668 -0.07932692412657362 0)
(24.99832603673546 -0.00114128140591915 0)
(24.9999962475947 -4.078247275806915e-06 0)
(22.67545737218549 0.6129935777971637 0)
(24.90422222034693 -0.05028766604643647 0)
(24.99953243844782 -0.0004902684601083156 0)
(24.99999918681393 -1.654616907649989e-06 0)
(23.83181563684658 0.3279947170902443 0)
(24.97644481379847 -0.0424841172246784 0)
(24.99997951717272 -0.0003282505821261424 0)
(24.99999989560296 -1.007780567880126e-06 0)
(23.2925947497262 -0.1157581161258432 0)
(24.89650005137361 -0.002902832662947316 0)
(24.99799785975763 -2.310931278093765e-05 0)
(24.99998589757834 -6.809110436378363e-08 0)
(23.37527090869939 -0.3922395590475746 0)
(24.90132774825461 -0.008057196619101148 0)
(24.99805157719675 -6.050375798454653e-05 0)
(24.99998614968707 -1.8470233011419e-07 0)
(23.34392638513475 -0.7379489608240373 0)
(24.90302556417807 -0.01714000723486767 0)
(24.99809702844202 -0.0001259844541158811 0)
(24.99998644359903 -3.750429298322366e-07 0)
(23.3780841114316 -0.7876539119066954 0)
(24.9108814327046 -0.02530928076172855 0)
(24.99827519050683 -0.0002481921927891654 0)
(24.99998768637004 -1.018119235723143e-06 0)
(23.83181563684621 -0.3279947170987403 0)
(24.97644481381667 0.04248411721605564 0)
(24.99997951719957 0.0003282505655220485 0)
(24.99999989562724 1.007780006110694e-06 0)
(22.6754573721877 -0.6129935778151715 0)
(24.90422222037122 0.05028766604554286 0)
(24.9995324384688 0.0004902684663303129 0)
(24.99999918682298 1.654621617895575e-06 0)
(20.85144524598308 -0.7856689386163516 0)
(24.76672579703434 0.07932692413536846 0)
(24.99832603673617 0.001141281419304794 0)
(24.99999624760104 4.078248513137476e-06 0)
(18.39476658815668 -0.1765138103171376 0)
(24.51716846277743 0.1592725170253903 0)
(24.99479557882779 0.00359295333217957 0)
(24.99998770518846 1.549466491359452e-05 0)
(24.99994839796137 0.0001056663054574537 0)
(24.98717774432115 0.01748112890550348 0)
(24.45489145483996 0.556348611999481 0)
(18.82777785701061 4.173728808706132 0)
(24.99992509390077 9.400280110737923e-05 0)
(24.98419751510581 0.01489952760386275 0)
(24.31896920423188 0.5072871963944215 0)
(17.73445136075175 3.484883776656017 0)
(24.99997864617617 3.587732668314074e-05 0)
(24.98960125524846 0.008574654402118371 0)
(24.3109065746088 0.3447179045142829 0)
(17.4494855010666 2.006753581004808 0)
(24.99996858930485 3.696426943708824e-05 0)
(24.98855185254769 0.007685395962155391 0)
(24.21631953788673 0.2669464474625836 0)
(16.35173112727593 0.8507623321192854 0)
(20.90991083859204 4.325575703890952 0)
(24.69492064372203 0.5670659390660998 0)
(24.99073261837277 0.0203892836760911 0)
(24.99991983587951 0.0001881615982471412 0)
(25.16377763984109 3.028383583918151 0)
(25.19505055208037 0.2969884635474141 0)
(25.01055078365389 0.005179291319783005 0)
(24.99991653294604 0.0001556654738806213 0)
(27.96154567492921 -0.3104570617724614 0)
(25.44926011240851 -0.1458408933810265 0)
(25.03430797993011 -0.01358612664029339 0)
(24.99884320742402 0.0006261892193263427 0)
(27.72452058908896 -2.919069400824015 0)
(25.37768364021336 -0.6126788645105615 0)
(24.99708913040579 -0.04630421839670959 0)
(24.99858515237375 0.001292547981384498 0)
(24.99943119343861 0.0008230198822578121 0)
(24.99184759780088 -0.01751308802194788 0)
(24.28200936479042 -1.193200552452862 0)
(19.52493181861051 -8.650139723167287 0)
(24.999003987033 0.001302384976942657 0)
(24.9903333754335 -0.02853902368844478 0)
(24.29560420192396 -1.421705499039474 0)
(20.16927655442029 -8.544030112936911 0)
(24.99923960009163 0.001743984513950822 0)
(24.99320005891719 -0.02819600174619457 0)
(24.56483771421217 -1.212152893418128 0)
(22.0497230980902 -7.563439527092823 0)
(24.99857257104815 0.0006922176726992105 0)
(24.99596144322546 -0.01335411172209632 0)
(24.91982051667231 -0.7530230651958338 0)
(24.30978265197144 -5.18398489068437 0)
(19.69050602968871 -8.137167886792284 0)
(24.46619206471463 -0.937793921879519 0)
(24.99557039215427 -0.01382850812798852 0)
(24.99948837139899 0.0006136047797590068 0)
(19.84557765642661 -7.739130377784372 0)
(24.54426882800935 -0.7628752914184767 0)
(24.99575595159247 -0.00888176873114813 0)
(24.999744260529 0.0004004329818505885 0)
(19.96688826044835 -7.198192737470793 0)
(24.64003643193774 -0.6093794259619043 0)
(24.99788346294913 -0.006962976031841353 0)
(24.99973903667946 0.0003232303419888515 0)
(19.80006958746363 -6.640311837403279 0)
(24.66729588990185 -0.4764557200657728 0)
(24.9976076407637 -0.004487268270939474 0)
(24.99987942679126 0.0001800408879118052 0)
(24.99999791036735 3.583146767023924e-06 0)
(24.99983666527596 -7.435407595228813e-05 0)
(24.93188548347163 -0.02599187224124975 0)
(20.96021961642829 -1.379550465487333 0)
(24.99999062088283 1.905421240021939e-05 0)
(24.99948109767539 -0.0004059966929882553 0)
(24.86850542445898 -0.08172265688660003 0)
(20.57999644519951 -2.843729512551465 0)
(24.99997113386625 6.154696748736352e-05 0)
(24.99881270725869 -0.001297917757563038 0)
(24.78662245766389 -0.1882831033894442 0)
(19.99127516021394 -4.372179483528645 0)
(24.99989893510561 0.0001300839203215118 0)
(24.99862988263978 -0.002828880598681951 0)
(24.7352187427297 -0.3166638893894353 0)
(19.87708804793666 -5.594446188014431 0)
(25.00000189643366 2.219041267601033e-06 0)
(24.99999999631727 2.284922126756251e-09 0)
(24.99999999877927 7.225285094033164e-10 0)
(24.99999993968998 2.684697377434357e-08 0)
(25.00000117190418 -2.451081765256301e-05 0)
(24.99999991269244 -9.345465920758062e-08 0)
(25.00000003671097 -2.096762593545627e-08 0)
(25.0000017915029 -2.113801707926786e-06 0)
(24.99231899911353 -0.007957457831511885 0)
(24.99995973526216 -5.116966513650421e-05 0)
(25.00003330430621 -2.489442260550503e-05 0)
(25.00088670884033 -0.0007823247917352725 0)
(24.21316643638634 -0.472457210594131 0)
(24.9861770278232 -0.0189720766080195 0)
(25.00484307622146 -0.002562563839974566 0)
(25.04910623810838 -0.02734208961663592 0)
(24.99999875582603 5.776063395247422e-07 0)
(25.00002789329424 -3.435695516592027e-05 0)
(25.00627632186089 -0.006179206279174921 0)
(25.15751523875078 -0.1017207222745465 0)
(24.99999030907566 4.928238406386796e-06 0)
(25.00016900305928 -0.0002456942150875215 0)
(25.02085273676505 -0.02488090012387616 0)
(25.30469764051479 -0.2301541640498972 0)
(24.99996438892011 2.066909564798718e-05 0)
(25.0004610667214 -0.0009209786979765157 0)
(25.04064669642477 -0.06596447968582139 0)
(25.44610660915868 -0.3911900173315117 0)
(24.99992652475437 5.222938434443204e-05 0)
(25.00059750437132 -0.002032563033247304 0)
(25.05485467375161 -0.1233014672804568 0)
(25.55790361004729 -0.5917069036650376 0)
(24.99997643944688 2.860785379094699e-05 0)
(24.99969280286609 -0.0006943685302928578 0)
(24.95960248993693 -0.1017744362600389 0)
(24.9826289131802 -2.247243072908413 0)
(24.99994407240983 7.330199839698434e-05 0)
(24.99918925025887 -0.002012382449867812 0)
(24.96220669765468 -0.1938326985303424 0)
(25.34614380611482 -1.921354153587929 0)
(24.99990486701421 9.436599079840957e-05 0)
(24.99979155918033 -0.002974295037988173 0)
(25.02168242049232 -0.2022038457340146 0)
(25.55317144840417 -1.372006491007976 0)
(24.99990385356647 8.373685591224707e-05 0)
(25.00031013660145 -0.002818572370982834 0)
(25.04695222195277 -0.1765325382984495 0)
(25.61556206227585 -0.8981726906546604 0)
(24.31013647513512 -2.141362656664445 0)
(24.9787980155718 -0.05609171842074161 0)
(24.99992460086141 -0.0002307401430492351 0)
(24.99999140717232 9.457125149694071e-06 0)
(24.26225644460405 -1.846981691374948 0)
(24.98086815359496 -0.05609030054372703 0)
(24.99993292300443 -0.0003262530996789998 0)
(24.99998740321913 1.640842966297818e-05 0)
(24.16005398891432 -1.698869688492108 0)
(24.97531028356572 -0.03439663705284129 0)
(24.99989766288454 -0.0001269302754913628 0)
(24.99999673327078 6.246355224096524e-06 0)
(24.18143540595547 -1.40636668084079 0)
(24.98001875118585 -0.01304052950857617 0)
(24.9999545049415 -1.580620676923174e-05 0)
(24.99999944257174 1.024365634549318e-06 0)
(24.17699404142966 -1.143455391675362 0)
(24.99779608293609 0.01215489145904874 0)
(24.99999738186971 3.180114651492514e-07 0)
(24.99999997245975 9.052246687769786e-08 0)
(24.18606395273637 -0.9138352867712246 0)
(24.9983030443229 -0.007869362739032795 0)
(25.00000015730518 2.148890381209421e-08 0)
(24.99999999995075 2.146034476726131e-10 0)
(24.28425292716642 -0.5134615216716913 0)
(24.99786442237562 -0.0007840003149331539 0)
(24.99999997750476 -3.60400636155752e-09 0)
(24.99999999997287 -9.919424329601642e-12 0)
(24.60987614448478 -0.1084307553083063 0)
(24.99902750340495 -0.0001198713186345314 0)
(25.00000001293865 -2.906698883359338e-10 0)
(25.00000000000003 2.223833735191534e-13 0)
(25.00000000000001 1.938311530434031e-15 0)
(24.99999999999999 7.799103423209712e-13 0)
(24.99999956491183 9.054004673616742e-07 0)
(24.99996060993999 -1.600268593189047e-06 0)
(25 -2.061478572114495e-15 0)
(25.00000000000126 1.200803926634916e-11 0)
(24.99999824656432 3.971320867405021e-06 0)
(24.99939592192722 0.002788415548266439 0)
(25 -3.833476279248453e-15 0)
(25.0000000002531 -2.618915178871157e-10 0)
(24.9999987654209 1.437644603372188e-06 0)
(24.99525539791994 0.01834423554294938 0)
(25 1.115703079037062e-13 0)
(24.99999999646452 2.558659759460526e-10 0)
(24.99983542097184 0.0001029481413031133 0)
(24.9243715641476 0.0629634539781547 0)
(24.99993412357016 5.381129266604121e-12 0)
(24.99801223176373 0.007144852127990837 0)
(24.97010978239858 0.02629748729327357 0)
(24.70075970506676 -0.01203896043142006 0)
(24.99801223180782 -0.007144852079350414 0)
(24.98001995381208 2.985271657500409e-11 0)
(24.82345914480697 -0.01634341847195872 0)
(23.99602552953929 -0.3002195689939004 0)
(24.97010978243329 -0.02629748727197932 0)
(24.8234591448795 0.01634341850712164 0)
(24.10822180795041 -1.063344663765336e-10 0)
(22.19506917011293 -0.481296270275054 0)
(24.70075970506539 0.01203896046921686 0)
(23.99602552955152 0.3002195690239705 0)
(22.19506917017017 0.4812962701756638 0)
(19.70952999971825 1.249031019364367e-11 0)
(18.88669171002029 2.679653552125098 0)
(19.62763576242964 3.153490491649214 0)
(21.54259811246635 2.689812494668651 0)
(23.11443963214955 1.67977392236763 0)
(19.92246332255782 4.555993744767711 0)
(20.14045742566628 4.520435528170828 0)
(21.0208670590616 4.435627848689939 0)
(22.22942247110488 4.004150454417247 0)
(20.64697356731027 5.371217210678974 0)
(20.97969440211924 4.852302056422833 0)
(21.70322414023733 4.949321237046078 0)
(22.55759470792322 4.812646644140878 0)
(21.22214761609257 6.040949789933453 0)
(21.63575839402061 5.166582407801459 0)
(22.20421837975907 5.223107809239702 0)
(22.71987626884497 5.083899239080585 0)
(23.02240279790053 5.263658599292565 0)
(23.12499122769619 5.477415222071349 0)
(23.26068928321289 5.542995013407102 0)
(23.45709399384021 5.719765823080644 0)
(22.80232893102522 5.44966466344831 0)
(23.09063769682058 5.575739402286167 0)
(23.24029860473213 5.598661600045721 0)
(23.93900975117404 5.931719783972588 0)
(22.41027021588256 5.438401954314124 0)
(22.98116492834782 5.624720493043081 0)
(23.17173907216977 5.652634026702508 0)
(25.31958195058372 6.299826271136431 0)
(21.20202916078549 6.092663111095203 0)
(21.52018014251358 5.800919663919264 0)
(21.89372796375464 5.586174505464201 0)
(26.91464249462308 7.398008634735989 0)
(26.9461413105497 3.337063699179111 0)
(27.27318101665571 0.9976109267675063 0)
(26.45958967027264 0.4880888814412018 0)
(26.07626258884466 0.3366274744248068 0)
(28.80069151673884 2.361775731274497 0)
(28.69715956590551 0.3889737680707592 0)
(27.49985617136944 0.3820483175272978 0)
(26.77673721799491 0.3189728055156953 0)
(31.6977274992726 1.952872189530459 0)
(29.67381985764592 0.1484804159381845 0)
(28.0540944495113 0.09902747995473743 0)
(27.19103147428764 0.04334299914799824 0)
(25.09643591581256 2.111491107261833 0)
(23.3734533618839 0.3444357231801497 0)
(23.08414905380001 -0.1278071378046328 0)
(23.46728346571584 -0.550222100340646 0)
(25.83191798153146 0.2470146410154942 0)
(25.71301485051895 0.1174893079324244 0)
(25.56524308319084 0.06470322281491771 0)
(25.34510947699856 0.07069928008237103 0)
(26.31535089799519 0.2134940864829867 0)
(26.01972865845907 0.08404039831352528 0)
(25.76797595282081 0.02534645630590407 0)
(25.46552761634713 0.02844963762733007 0)
(26.64346483870817 -0.001362985374090398 0)
(26.25481296672463 -0.02625509361688875 0)
(25.92808675179145 -0.04260587940832933 0)
(25.57275078005631 -0.02851261355546721 0)
(24.07877831957332 -0.7787313309995002 0)
(24.60138595187582 -0.6835116251204504 0)
(24.83196696633431 -0.499887410353737 0)
(24.95509914213638 -0.3016404358745488 0)
(25.137340462636 0.04435190756408944 0)
(25.02118283945768 0.008538166943856552 0)
(24.7873409694032 0.5355312245807878 0)
(20.03926762750342 4.126225776818002 0)
(25.19507384753896 0.02762825622685587 0)
(25.03089714895005 0.00819926231971238 0)
(24.43773893053753 0.9636352894988991 0)
(16.69299278247937 3.992382654774599 0)
(25.25085376342233 -0.01445167760424912 0)
(25.03963900423913 0.002685531205415119 0)
(23.68672611129639 1.183763977960118 0)
(14.04182427031868 2.092869248868154 0)
(24.9961786125523 -0.1196381905809879 0)
(25.0331721906245 -0.01142404882674206 0)
(21.7563158258093 0.2448303495726979 0)
(8.440427142427648 1.153557248474219 0)
(14.55104323502286 7.06230393615059 0)
(15.67547842480706 8.120237747947238 0)
(15.95897905777952 9.314782726874594 0)
(16.30198425122794 10.20746939291457 0)
(12.91787500205175 7.265711680004009 0)
(15.0222894046323 8.219244521775067 0)
(15.72228533514547 9.501825767999861 0)
(16.16110018440364 10.22302983554514 0)
(10.45989206525132 6.213021991423652 0)
(13.32984391488793 7.922007228183983 0)
(14.91393402114611 9.443158358655285 0)
(15.84832721643462 10.15603051548476 0)
(6.092949653082903 3.022429191707803 0)
(9.472194837559986 4.563110484814658 0)
(11.93554553954605 6.887881252900803 0)
(13.41271227479342 9.104702625708695 0)
(16.4431204893452 10.84602109978982 0)
(16.65464925774836 11.08800209049683 0)
(16.82555408765637 11.30719264136309 0)
(16.98467937791979 11.36741683450724 0)
(16.33575482323692 10.71942667222124 0)
(16.55794570297136 10.95486827444441 0)
(16.80108793629118 11.17160992587395 0)
(16.99895494334788 11.25554391893628 0)
(16.21724450223794 10.63538838042824 0)
(16.44832976398046 10.89793743594008 0)
(16.73300845698284 11.14547172465019 0)
(16.9441685195481 11.25605601734514 0)
(14.61424098341408 10.22259743118831 0)
(15.20013277337668 10.74877210362203 0)
(15.69090129463342 10.81497666850949 0)
(15.91558475539182 10.78004874995408 0)
(17.21298394547944 11.42081079475088 0)
(18.06202288361361 11.3379599503903 0)
(19.99310405831016 10.78229613962927 0)
(23.00625480291619 8.914357512927884 0)
(17.22987229810546 11.31168527176388 0)
(18.05402764366243 11.28078950155599 0)
(19.99581724733687 11.00267962658373 0)
(23.71177231785576 11.22590527968785 0)
(17.14471001076657 11.31947031242967 0)
(17.80007887877223 11.32183642425553 0)
(20.27127386525015 11.78759935662952 0)
(29.29416524112175 17.21220303034203 0)
(16.36774884013192 10.96372233347346 0)
(17.42184203460383 10.64891775612414 0)
(20.80041787296732 12.24906279182515 0)
(40.18543744892116 23.40940491327536 0)
(28.01852760586263 4.12774284405289 0)
(27.84345274067204 -4.710475905249969 0)
(7.780912731145605 -4.993062579868706 0)
(3.553101633451918 -2.389036369177814 0)
(29.69249235970064 3.423511932661518 0)
(22.63339285643324 -3.070139646948059 0)
(2.424811054672702 -4.853487902943008 0)
(1.241730059975849 -1.064735136116301 0)
(30.58497052569002 2.790100512078018 0)
(13.95447158589478 -4.886353762361065 0)
(0.8791542602153397 -1.345942464277757 0)
(0.827608055150852 -0.3783921670860561 0)
(20.48185660384673 -9.087665622154038 0)
(3.88146406779865 -4.540465502022978 0)
(-0.6893607796609741 0.3715047556214404 0)
(0.1465842992836488 -0.4418960124061032 0)
(1.730903983578177 -1.534672197889692 0)
(0.5178559690540988 -1.116174236045184 0)
(-0.0548128144248367 -0.5259581876557242 0)
(-0.699105791484013 0.781836055962675 0)
(0.4648967488522604 -0.1169581734582636 0)
(-0.5275771023208871 0.3320549874885076 0)
(-0.8823999098069609 0.9637816238798317 0)
(-0.4228607350689241 2.365477739562145 0)
(0.3520378914427493 0.03186349431736814 0)
(-0.2464822281078967 0.8511576657582 0)
(0.1461772108915245 2.113103745347976 0)
(-0.1643329927116962 3.875189051421837 0)
(0.1770955761097631 -0.08166605803429261 0)
(0.03281721339614393 0.9241982629223812 0)
(-0.1114429960423661 3.005995970005033 0)
(-0.9749577640895425 4.119186972017998 0)
(7.869985104442209 -3.535417375660368 0)
(15.96952254868278 -4.924896084666694 0)
(20.6051211732848 -4.834852400399414 0)
(23.45676965200634 -5.204228493061467 0)
(3.591226809133075 -0.6877885817027162 0)
(11.96145259994333 -2.861687953891161 0)
(17.98746189483918 -4.148348778734155 0)
(22.13841383725301 -5.68723850730898 0)
(-0.8953169523252016 -0.7840050396791581 0)
(5.207687366517034 -2.622976743057604 0)
(13.04178090606852 -4.103474723447006 0)
(21.56348551394056 -4.322942537532282 0)
(-2.212469174623312 1.400059648128939 0)
(1.584497908742481 0.8618035396913626 0)
(10.03450737515875 1.675937829037797 0)
(23.93824363973728 -2.434567080744346 0)
(24.91238508884644 -10.65956855604344 0)
(27.28590477872635 -17.40701187547239 0)
(27.23993018680507 -21.20941123900024 0)
(20.52622529102771 -11.15374048492303 0)
(23.94246158479147 -10.60974808119795 0)
(26.41141702820909 -19.31352781465253 0)
(24.60258930869754 -14.29837414109701 0)
(16.11442124609958 -3.049506563594511 0)
(23.41258027454042 -13.15076148550801 0)
(21.00694103104066 -14.67338613501511 0)
(15.47018271901379 -2.316367680924558 0)
(7.216695454736975 3.626653174095142 0)
(17.55482309729154 -13.40671936041284 0)
(7.486706227119521 -4.70331726110761 0)
(4.699236477045054 3.943131899318415 0)
(1.691826817057876 5.775135932817467 0)
(-0.9342168579900475 6.220568202033246 0)
(-2.461406105953277 5.204264384376429 0)
(-2.825871474671572 3.392723769201679 0)
(-2.865250065288028 1.167387881276764 0)
(0.6235724667162754 5.13255335899794 0)
(-2.599518265740635 4.009381675670237 0)
(-3.764432014198419 2.418610632937096 0)
(-3.535837651303475 0.7728199073736921 0)
(4.876018668911823 -0.5141049298786523 0)
(-1.141014338526072 -0.96365566718907 0)
(-2.641538262378163 -0.6843609803567219 0)
(-2.403570597594794 -0.4141683734518116 0)
(12.38149501417326 -7.513617944042032 0)
(7.282132287659263 -6.08820035147088 0)
(5.2022130686382 -3.712153118494106 0)
(5.412398670023853 -1.196646327292653 0)
(-2.865250065287693 -1.167387881272704 0)
(-3.535837651302845 -0.7728199073703799 0)
(-2.40357059759487 0.4141683734526996 0)
(5.412398670019591 1.196646327289401 0)
(-2.825871474671034 -3.392723769197999 0)
(-3.764432014196708 -2.418610632933078 0)
(-2.641538262377038 0.6843609803577652 0)
(5.202213068638972 3.712153118490193 0)
(-2.4614061059514 -5.204264384372641 0)
(-2.599518265738503 -4.009381675668276 0)
(-1.141014338524629 0.9636556671887823 0)
(7.282132287660319 6.088200351468725 0)
(-0.9342168579878316 -6.220568202030908 0)
(0.6235724667185655 -5.132553358997368 0)
(4.876018668911386 0.5141049298787637 0)
(12.38149501416889 7.513617944045832 0)
(20.52622529101161 11.15374048491896 0)
(27.23993018679232 21.20941123898896 0)
(27.28590477872696 17.40701187547128 0)
(24.91238508883747 10.65956855604578 0)
(16.1144212460966 3.04950656359025 0)
(24.60258930869371 14.2983741410937 0)
(26.41141702821064 19.31352781465331 0)
(23.9424615847867 10.60974808119952 0)
(7.21669545473659 -3.626653174095048 0)
(15.47018271901327 2.316367680922138 0)
(21.00694103103956 14.67338613501274 0)
(23.41258027453878 13.15076148550615 0)
(1.691826817059329 -5.775135932816171 0)
(4.699236477044755 -3.9431318993183 0)
(7.486706227118484 4.70331726110842 0)
(17.55482309729076 13.40671936041406 0)
(23.93824363973546 2.43456708074416 0)
(10.03450737515862 -1.675937829036991 0)
(1.584497908742905 -0.8618035396909081 0)
(-2.21246917462488 -1.400059648128415 0)
(21.56348551393808 4.322942537531274 0)
(13.04178090606543 4.103474723442441 0)
(5.20768736651509 2.622976743055669 0)
(-0.8953169523309642 0.7840050396761876 0)
(22.13841383724468 5.687238507311534 0)
(17.98746189483124 4.148348778732212 0)
(11.96145259993413 2.861687953891054 0)
(3.591226809114489 0.6877885816998252 0)
(23.45676965199347 5.20422849306105 0)
(20.60512117327665 4.834852400392482 0)
(15.96952254866859 4.924896084670911 0)
(7.86998510441133 3.535417375660444 0)
(-0.6991057915046497 -0.7818360559680981 0)
(-0.05481281445792231 0.5259581876475344 0)
(0.5178559690248088 1.116174236050745 0)
(1.730903983548969 1.534672197915738 0)
(-0.4228607350802061 -2.365477739559701 0)
(-0.8823999098244677 -0.9637816238879651 0)
(-0.5275771023259282 -0.332054987488671 0)
(0.4648967488527301 0.116958173468768 0)
(-0.1643329927217471 -3.87518905141934 0)
(0.146177210881534 -2.113103745357103 0)
(-0.2464822281173134 -0.8511576657618466 0)
(0.3520378914361985 -0.03186349430758866 0)
(-0.9749577640927873 -4.119186972017219 0)
(-0.1114429960492572 -3.005995970018048 0)
(0.03281721339453565 -0.9241982629241844 0)
(0.1770955761089079 0.08166605804109485 0)
(3.553101633426121 2.389036369189978 0)
(7.780912731084689 4.993062579850372 0)
(27.84345274053118 4.710475905289128 0)
(28.01852760584898 -4.127742844044822 0)
(1.241730059981408 1.064735136116847 0)
(2.424811054682767 4.853487902916275 0)
(22.63339285637322 3.070139646926126 0)
(29.69249235970468 -3.423511932650569 0)
(0.8276080551535742 0.3783921670894701 0)
(0.8791542602292807 1.345942464260274 0)
(13.95447158584707 4.886353762364402 0)
(30.58497052568992 -2.790100512088665 0)
(0.1465842992849446 0.4418960124109462 0)