/*--------------------------------*- C++ -*----------------------------------*\
  =========                 |
  \\      /  F ield         | OpenFOAM: The Open Source CFD Toolbox
   \\    /   O peration     | Website:  https://openfoam.org
    \\  /    A nd           | Version:  11
     \\/     M anipulation  |
\*---------------------------------------------------------------------------*/
FoamFile
{
    format      ascii;
    class       volScalarField;
    location    "0.275";
    object      T;
}
// * * * * * * * * * * * * * * * * * * * * * * * * * * * * * * * * * * * * * //

dimensions      [0 0 0 1 0 0 0];

internalField   nonuniform List<scalar> 
880
(
500
500.0000001023853
500.0057210712948
501.7621878297674
500.0000000000075
500.0000000577554
500.009709458353
502.8320533177514
500.000000000298
500.0000002276691
500.0215541017905
504.2803806196545
500.0000000021528
500.0000012613331
500.0524431862146
506.5287183067954
499.9999999557352
500.0000000397131
499.9999995622798
500.0000980360114
500.0000172776858
500.0000196522344
500.0008173160834
500.001259393539
500.1331467864272
500.2422537748943
500.4699863850012
500.420684995225
511.5726459227094
517.3668461786807
522.3188818924183
524.6263265082075
500.0002152412704
500.0015893274661
500.0029301077122
500.0154823556156
500.0135588986279
500.0397437355141
500.087631558869
500.1672087657313
501.5020626116092
502.4963745521064
503.593936849282
504.9594643031472
527.0246925880925
530.135542640543
531.2586152237543
531.0627329140607
521.6068540550023
517.2171342556917
515.7644394400014
514.2719381179825
508.3716522521229
509.812351351189
510.8644334324216
511.1445516633048
500.5771356765668
501.0259225489528
501.5463405077726
502.0265694004893
500.0558308964412
500.149699540953
500.2977358553171
500.4879536216671
500.6862629382654
500.8546015039004
500.9234357110781
500.9187899647488
502.374189124074
502.5962062871872
502.7118659340448
502.7820111300765
510.9445983129729
510.390588459885
509.7242159868946
508.956960457336
513.0252632227549
511.8525840098794
511.0062572257338
510.5361987707937
508.6777995291269
508.08739015715
502.8684326224712
500.8359780408171
510.5125743052753
507.0623874749854
502.6428805838377
500.6989833795603
528.9614165388064
507.3674564688498
502.1112534919338
500.4903382654988
581.8611905972621
512.1646424599388
502.028653898175
500.3102191370764
500.1241375576857
502.0304644512215
521.604243918768
618.357263509087
500.1067534571035
502.256244456972
531.4474904946836
622.288204675628
500.2200821687053
503.454249181737
545.5243995132965
629.7910485908747
500.5393368102731
506.2396993367806
559.9491776200628
632.4393882021941
632.3510501721172
576.0324812933443
511.6573416170069
501.2147393295347
629.8157513074182
589.4394670388982
520.5615881464796
502.5571977195531
624.9757715367042
596.6873750437551
531.559910430382
504.7741233131787
616.8285153606271
599.5095836435697
542.6462874060738
508.256290234984
513.0574389980386
547.7753286702608
588.7085249423492
605.7268290747282
514.2262893936538
539.7956940984287
571.2837852875454
589.8151359661171
513.4078381536349
531.3062323910568
552.7977195424085
567.6868371998029
511.1698472762526
521.7223665697761
532.8475958866355
538.4969879585608
510.7526874539736
516.0540156374943
518.3257143387458
506.2829761031944
508.0015995440593
509.5087531963049
502.7832673479426
464.2781074807068
505.3946169976495
505.1684372203672
501.2787496554004
436.9350276722625
503.4059501912979
504.962707685493
505.4954344719828
451.1934322434218
507.9665829612408
505.245292927649
503.2392546819473
501.6582590520114
534.5651175127711
507.0752714926418
502.2097270664237
500.5956896999578
551.2967348470573
509.3232563198605
501.3112921560043
500.0574314480474
543.717241040625
511.2856013963772
500.016707211552
499.7995599262373
529.335386066753
505.3647389995907
498.2190694598641
499.5666779756309
509.3252892803346
498.8851955111725
498.0770952613041
499.7077374559834
491.1388556984998
495.2771792738766
498.3097378280965
499.8807150814906
482.1792122376833
493.8840002410595
498.8553194915289
499.9494295826748
442.4773025513849
483.7134387288064
497.3241097242859
499.8257540062287
446.8429248416142
483.9018735590852
497.1898584710601
499.8280594083535
452.7590430149702
483.6344481794247
497.0240717609702
499.8285129487367
460.9673606835875
483.9794436968817
496.8451578637043
499.8259629614255
482.1792122376685
493.8840002411682
498.8553194917578
499.9494295824676
491.1388556984668
495.2771792737714
498.3097378280437
499.8807150812006
509.3252892801867
498.8851955109059
498.0770952610015
499.7077374556735
529.335386066692
505.3647389992488
498.2190694597316
499.5666779755219
501.6582590519488
503.2392546820514
505.2452929278869
507.9665829610219
500.5956896999044
502.2097270664368
507.0752714927094
534.5651175128224
500.0574314481606
501.3112921560519
509.3232563193117
551.2967348468659
499.7995599263101
500.0167072117831
511.2856013958866
543.7172410404743
451.1934322429451
505.495434472284
504.9627076855262
503.4059501911796
436.9350276719207
501.2787496554521
505.1684372204668
505.3946169974766
464.2781074807588
502.7832673479291
509.5087531964666
508.0015995440738
506.282976103376
518.3257143386535
516.0540156372828
510.7526874540546
513.0574389981205
547.7753286710814
588.7085249429829
605.7268290749512
514.2262893934648
539.7956940987443
571.2837852878249
589.8151359663862
513.4078381532157
531.3062323913183
552.7977195424882
567.6868371999802
511.1698472763008
521.7223665694792
532.8475958865755
538.4969879587649
616.8285153607247
599.5095836437686
542.6462874061875
508.2562902355393
624.9757715368104
596.6873750438539
531.5599104305057
504.7741233131445
629.815751307492
589.4394670391027
520.5615881463589
502.5571977196519
632.3510501721724
576.0324812936428
511.6573416176689
501.2147393294498
500.1241375576856
502.0304644512268
521.6042439186473
618.3572635089068
500.1067534574127
502.2562444573024
531.4474904948814
622.2882046755628
500.2200821691344
503.4542491822166
545.5243995134792
629.7910485910807
500.5393368103964
506.2396993362664
559.9491776199354
632.4393882022554
500.310219136948
500.4903382654113
500.6989833797965
500.835978040991
502.0286538978392
502.1112534918221
502.6428805838758
502.8684326224534
512.1646424598015
507.3674564688921
507.0623874747399
508.0873901570746
581.8611905970472
528.9614165387466
510.5125743052687
508.6777995291735
500.9187899651848
502.7820111298488
508.9569604576639
510.5361987709472
500.9234357113083
502.7118659331653
509.7242159872206
511.0062572257426
500.8546015044568
502.5962062859459
510.3905884600026
511.8525840096996
500.6862629386226
502.3741891230084
510.9445983131616
513.0252632226634
500.0558308954889
500.5771356771747
508.371652252228
521.6068540552901
500.1496995404682
501.0259225495203
509.8123513516344
517.2171342557851
500.2977358554524
501.5463405081121
510.8644334326909
515.7644394396417
500.4879536217214
502.0265694003348
511.1445516636451
514.2719381177079
531.0627329141332
504.959464303868
500.167208767853
500.0154823579711
531.2586152237214
503.5939368482253
500.0876315591297
500.0029301033234
530.1355426407595
502.4963745521325
500.0397437352598
500.0015893248871
527.0246925882677
501.5020626118179
500.0135588990951
500.0002152417956
524.6263265082997
500.4206849955638
500.0012593935644
500.000098036659
522.3188818924472
500.4699863849458
500.0008173160468
499.9999995623871
517.3668461787009
500.2422537748381
500.0000196520758
500.0000000397182
511.5726459227228
500.1331467863651
500.0000172775881
499.9999999557616
500.0000000000005
500.0000001025835
500.0057210712916
501.762187825412
500.0000000000163
500.0000000575496
500.0097094583521
502.832053317678
500.000000000347
500.0000002275949
500.021554101787
504.280380619595
500.0000000022707
500.0000012612155
500.0524431861753
506.528718306779
503.4438332197108
505.3823346516387
508.657583205699
516.2877511362435
505.3823346517966
507.8335975579841
513.5586024458468
525.1641578285036
508.657583206155
513.5586024456968
523.1384561347674
538.0844668799931
516.2877511361276
525.1641578284894
538.0844668804411
555.0611262626735
573.274008600268
559.3620006366536
551.7393847567056
538.8230317746295
570.9136873072036
566.6769644226968
565.1938876005216
558.9009814158205
571.5192496369831
570.1878151551873
569.2967984443277
567.0212005078323
568.7794537135229
568.2056438947136
567.9567597178462
566.7921466592705
564.4049264618714
563.4928602681717
559.6815343764395
554.1803682933735
564.72443051981
563.1899270050426
559.5513165599332
554.7042538494983
564.808776803127
563.3399086432986
559.6705541489772
555.2221295175291
565.1139640548297
563.2309419775414
559.7779296413686
550.9942330294912
513.8268653317785
495.0304926249952
492.860652519417
494.0125878802607
503.1535581657346
490.7857256207643
493.1810050557127
494.6274593197263
492.5211254969248
490.6615783886709
494.71195246617
496.2910821218066
470.3885937290711
485.8550818035255
493.1770064770446
494.9125946961903
494.9078712312758
496.0733603056611
497.3168520408691
498.7105784997038
495.4083542640721
496.51786101836
497.8998148025239
499.4239014873099
496.7038022170219
497.5130883901573
498.3276833378761
500.1844189894421
495.6116890833992
496.7163381277907
498.6156411808123
500.614364581985
500.0421348482411
523.5454379776063
588.5375842701286
643.2984769213118
501.2622719854844
534.3415820589665
601.8459129611722
641.5040312005744
502.4075433808848
540.8552469436343
609.1788496724503
641.7087639772269
502.9653164041889
546.7197778715898
614.7128787453082
641.0367861828418
682.5190830316079
670.3389278907016
666.1928570965669
668.234567361684
690.9530902378978
678.1784328915958
669.867623609407
671.8481809267802
698.3477510542148
686.7176743127372
674.0336209890445
674.0045192647523
697.4658190340074
691.8302736380117
676.4980022709125
675.2288838616749
662.8573247462569
651.4660381805547
640.1583506458184
627.5355661790865
666.5648937797419
655.0821749185338
642.3050403190383
630.7979863439451
669.5489443504591
658.8639497982159
644.6971562250869
633.4381848421637
671.3855018916325
660.9198899665889
652.4957417070608
637.7544601517021
616.5093811651213
604.5144285635733
588.9813411220726
568.3682776580108
617.5525524819144
604.0375519019957
588.8448484461813
594.5833905855154
618.8709005173636
603.824869468738
595.9431259016827
619.7627927025741
621.6832281499948
607.1138689206952
608.2287956126139
602.3966824743871
524.7687087381038
451.2607546512544
334.5185229455218
286.9959185601227
511.6729461581641
409.7443714992226
269.3979309892199
241.6192741081689
468.7439078162333
357.583026182189
243.495639503749
233.2914681227953
369.3290784231471
279.5764297967229
231.0928986421652
236.2394043901599
376.9465290445273
433.0076667050176
471.4649373097736
495.9054495568213
327.4446590581559
386.406355550066
427.8554993645047
456.7874849842904
301.9272146323318
349.3240374074799
390.1686599791884
425.152039295801
300.3438212899135
346.4661264437353
391.2068995372655
420.6897675515222
500.5371477072848
499.9928527502758
481.5843691134958
465.23625849151
461.4009011476181
481.7708962621947
479.700380841287
471.6347261096176
425.9624136090762
455.5573858605883
472.4924412368769
493.369042866157
403.9290406649235
434.3053236616223
459.4233475193811
523.3400591998731
458.6080461763359
454.8090643069133
455.6332122545591
450.290889650265
454.4726361072556
464.1848386931697
473.7615246193455
469.2237865592232
451.3409964666963
470.618080540785
480.4055399926074
469.4158399520845
440.9397220602582
459.5661874058575
462.1513285569471
450.1790920850941
430.2444987528751
415.8249841019712
409.7703916371653
408.6465950437263
452.1952854188497
434.6818401960445
422.9002007896645
419.321790963576
462.5805437662907
453.5312948035581
441.8883868482471
435.7461824132102
444.4068227207856
441.8544786716935
442.4821278153461
443.0673060649219
408.6465950437086
419.321790963571
435.7461824132097
443.0673060649497
409.7703916370948
422.9002007895962
441.8883868482066
442.4821278154043
415.8249841018416
434.6818401959286
453.5312948034834
441.8544786717483
430.2444987527276
452.1952854187282
462.5805437661797
444.4068227207485
450.2908896501145
455.6332122543826
454.8090643067586
458.6080461761626
469.2237865590845
473.7615246192225
464.184838693123
454.4726361071678
469.4158399519773
480.4055399925137
470.6180805407564
451.3409964666336
450.1790920849805
462.1513285568479
459.5661874058239
440.9397220601907
523.3400591996957
459.4233475192427
434.3053236615074
403.9290406649591
493.3690428660002
472.4924412367079
455.5573858604133
425.962413609036
471.6347261094967
479.7003808411403
481.7708962619948
461.4009011475759
465.2362584913932
481.5843691133845
499.9928527501093
500.5371477071504
495.9054495568869
471.4649373100854
433.0076667055111
376.9465290446958
456.787484984485
427.8554993649317
386.406355550627
327.4446590584959
425.1520392959458
390.1686599795804
349.324037408013
301.9272146327084
420.6897675515898
391.2068995375644
346.4661264443318
300.3438212903752
286.9959185594995
334.5185229441956
451.260754651251
524.7687087383131
241.6192741080642
269.3979309886086
409.7443714991948
511.6729461582735
233.2914681228748
243.4956395033484
357.5830261824495
468.7439078164932
236.239404390497
231.0928986418762
279.5764297970752
369.3290784235305
568.3682776582091
588.9813411222058
604.5144285637112
616.5093811652745
594.5833905857322
588.8448484462959
604.0375519020471
617.5525524819773
619.7627927027783
595.9431259017331
603.824869468672
618.8709005172982
602.3966824746357
608.2287956125978
607.1138689205665
621.6832281498449
627.5355661792411
640.1583506460114
651.4660381805902
662.8573247463185
630.7979863440378
642.3050403192074
655.0821749185028
666.5648937798272
633.4381848420961
644.6971562247201
658.8639497981862
669.5489443505902
637.7544601516477
652.4957417069116
660.919889966545
671.3855018917588
668.2345673619092
666.1928570966891
670.3389278905565
682.5190830314017
671.8481809269499
669.8676236093908
678.178432891349
690.9530902376212
674.0045192649415
674.033620988954
686.7176743123506
698.3477510538546
675.2288838618514
676.4980022707224
691.8302736375805
697.4658190336112
643.2984769211181
588.5375842699298
523.5454379776328
500.0421348483504
641.5040312004111
601.8459129609915
534.3415820589476
501.2622719855905
641.7087639769719
609.1788496723132
540.8552469436065
502.407543380968
641.036786182579
614.7128787451931
546.7197778715432
502.9653164042547
498.7105784998804
497.316852040807
496.0733603053763
494.9078712311529
499.423901487444
497.8998148023655
496.5178610180105
495.4083542639002
500.1844189895647
498.3276833377276
497.5130883897879
496.7038022168187
500.6143645821057
498.6156411806542
496.7163381273978
495.6116890832082
494.012587879934
492.8606525191398
495.0304926252264
513.8268653322408
494.6274593192946
493.1810050553888
490.7857256209659
503.1535581661985
496.2910821212995
494.7119524658355
490.6615783888102
492.5211254974628
494.9125946956988
493.1770064766991
485.8550818037146
470.3885937294255
554.1803682933822
559.681534377219
563.4928602686234
564.404926461959
554.7042538496987
559.5513165607682
563.1899270054776
564.7244305198469
555.2221295178146
559.6705541498269
563.3399086437096
564.8087768031136
550.994233029976
559.7779296422169
563.2309419779422
565.1139640548159
566.7921466591819
567.0212005077876
558.9009814158686
538.8230317748402
567.9567597178002
569.2967984442796
565.193887600464
551.7393847566923
568.2056438946872
570.1878151551117
566.6769644225396
559.3620006364326
568.7794537135028
571.5192496368841
570.9136873070215
573.2740085999237
481.6771013537858
492.2308099919269
498.5849741331094
499.938523956677
474.8254041273811
488.2424334785958
497.8668205002348
499.8991849465202
474.1971838545646
486.0780862572805
497.2735057156452
499.8592177947057
468.7107960432072
484.7692238780908
496.9376816762848
499.8342470796089
499.8257540061836
497.3241097244259
483.7134387287385
442.4773025513668
499.8280594082761
497.1898584712244
483.9018735589489
446.8429248417229
499.8285129488013
497.0240717610304
483.6344481792843
452.7590430151205
499.8259629614865
496.8451578636697
483.9794436967951
460.9673606835809
499.8342470795706
499.8592177945601
499.8991849466829
499.9385239567479
496.9376816761445
497.2735057154911
497.8668205000458
498.5849741332025
484.7692238781237
486.0780862573759
488.242433478823
492.2308099921386
468.7107960431034
474.1971838544573
474.8254041272512
481.6771013537033
)
;

boundaryField
{
    back
    {
        type            empty;
    }
    inlet
    {
        type            zeroGradient;
    }
    front
    {
        type            empty;
    }
    top
    {
        type            zeroGradient;
    }
    outlet
    {
        type            fixedValue;
        value           uniform 500;
    }
    bottom
    {
        type            zeroGradient;
    }
    wall
    {
        type            zeroGradient;
    }
}


// ************************************************************************* //
