/*--------------------------------*- C++ -*----------------------------------*\
  =========                 |
  \\      /  F ield         | OpenFOAM: The Open Source CFD Toolbox
   \\    /   O peration     | Website:  https://openfoam.org
    \\  /    A nd           | Version:  11
     \\/     M anipulation  |
\*---------------------------------------------------------------------------*/
FoamFile
{
    format      ascii;
    class       volScalarField;
    location    "0.0255";
    object      p;
}
// * * * * * * * * * * * * * * * * * * * * * * * * * * * * * * * * * * * * * //

dimensions      [0 2 -2 0 0 0 0];

internalField   nonuniform List<scalar> 
880
(
80
80
80
79.99999998146249
80
80
79.99999999999991
79.99999999473161
80
79.99999999999999
80
79.99999888765879
80
80
80
79.99999794958009
80
80.00000000000001
79.99999999999994
80
79.99999999999999
80
79.99999999999983
80
80
79.9999999999965
80.00000032428321
79.99999641977146
80.01669863384039
80.0708075610988
80.09587751355818
80.08928886831686
79.99999999999076
79.99999999998215
79.99999999997921
80
80.00000000805892
80.00000000992371
80.00000001097823
80.00000000218719
80.00003402537742
80.00003795747098
80.00004029556887
80.00002005509204
80.09799466752528
80.10804895715556
80.11119145143476
80.09570679433408
80.17563523437238
80.07823219558179
80.01253441301043
80.00047957208191
80.00014316933159
80.00007799188172
80.00001543293952
80.00000075780849
80.00000006439498
80.00000003829601
80.0000000079621
80.00000000030451
80.00000000036457
80.00000000025088
79.99999999998214
80
79.99999999999996
79.99999999999997
80
80.00000000000001
80
80.00000000000001
80.00000000000001
80.00000000000001
80.00000000073706
79.99999999929567
79.99999999986012
80
79.99999668559755
79.99999874079894
79.99999990329387
79.99999999922832
79.99999999992441
80
79.99999999999999
80
79.99999987311283
79.99999999842299
80.00000000000145
79.99999999999999
80.00010689599061
80.00000136437659
80.00000000058905
79.99999999999999
79.88959207723832
79.99990192470587
79.99999995475326
79.99999999999999
79.99999999999991
80.00000000024936
80.0000037467599
80.03140882708919
80.00000000000615
80.00000000670111
80.00003785528142
80.20229572970611
80.00000000000608
80.0000000087385
80.00004700103871
80.23227063246054
79.99999999999136
80.00000001052331
80.00005349670901
80.24214261446451
80.25383799161612
80.0000615157397
80.00000001304426
79.99999999999451
80.26734180386983
80.00007139419192
80.000000016271
80.00000000000165
80.28174632289065
80.00008314799643
80.00000002038368
80.00000000002315
80.30621921693951
80.00010196999924
80.00000002742392
80.00000000008863
80.00000000000846
80.00000001419509
80.00005976498899
80.21977173756567
80.00000000003988
80.00000001272302
80.00004947600867
80.16522847278016
80.00000000620092
80.00000001227346
80.00004344076135
80.12759992424675
79.99999997288022
80.00000001729492
80.00002062650994
80.04543848938509
80.0000001281043
79.99997313492277
79.98733170416023
79.22659443585596
80.00000012244965
79.99996732862421
79.96818828704781
75.21971044745409
80.00000009380771
79.99997021252484
79.96482174985205
73.22269882527969
80.00000007306225
79.99997836237003
79.96567918004142
72.69205710767339
74.66109202449492
79.98052378959453
79.99998217007348
80.00000004892684
74.87595153756033
79.98318090064404
79.99998646279475
80.00000004575163
75.38742833446953
79.98703025021852
79.99999048484391
80.00000004072632
74.21494348060969
79.98322812589902
79.99998809206996
80.00000002165598
78.92381914237622
79.99851327455931
79.99999914060029
80.00000000357217
79.95725715536476
79.99997455584695
80.00000000887144
80.00000000051348
79.99627992339266
79.99999555454846
79.99999999827673
80
79.97107908159015
79.99996093550322
79.99999997146826
79.99999999988924
79.80688612997599
79.99963593154554
80.00000179203211
80.0000000427309
79.8070391810956
79.99963461364135
80.00000177257969
80.00000004273954
79.80670568411504
79.99962039965671
80.00000155221744
80.00000004031061
79.80718216304284
79.99959064760876
80.00000105114846
80.00000003344897
79.97107908144658
79.99996093538964
79.99999997132524
79.99999999990301
79.9962799231961
79.99999555442598
79.9999999979956
79.99999999999993
79.95725715529812
79.99997455586556
80.00000000886841
80.00000000053265
78.92381914261351
79.99851327485224
79.99999914061162
80.00000000350691
80.00000004912978
79.99998217039898
79.9805237897337
74.66109202460191
80.00000004586803
79.99998646285015
79.98318090077257
74.87595153755025
80.00000004055624
79.99999048503032
79.98703025022282
75.38742833480745
80.0000000216903
79.99998809212083
79.98322812620003
74.21494348040838
72.69205710739172
79.96567917986897
79.99997836225801
80.00000007301755
73.22269882498189
79.96482174967188
79.99997021219981
80.00000009351567
75.21971044735719
79.96818828678083
79.99996732861894
80.00000012219616
79.22659443593479
79.98733170406535
79.99997313480918
80.00000012845364
80.00000000000614
80.00000001431899
80.00005976512263
80.21977173781701
80.00000000004501
80.00000001276723
80.00004947601087
80.16522847271972
80.00000000635242
80.00000001225142
80.00004344061121
80.12759992421363
79.99999997314299
80.00000001728553
80.00002062639282
80.04543848938505
80.30621921741619
80.00010196981592
80.00000002759711
80.00000000006868
80.28174632327988
80.00008314828283
80.00000002043434
80.00000000001934
80.26734180382761
80.00007139451037
80.0000000164017
80.00000000000688
80.25383799181654
80.00006151553029
80.000000013056
79.9999999999921
80
80.00000000032827
80.0000037467382
80.03140882671416
79.99999999999982
80.00000000660373
80.00003785538485
80.20229572972605
79.99999999999936
80.00000000874563
80.00004700108639
80.23227063264747
79.99999999999632
80.00000001055862
80.00005349654811
80.24214261450535
80
80
80
80
79.99999995453352
80.00000000058482
79.99999999999672
80.00000000000001
79.99990192475127
80.00000136454646
79.99999999832984
80
79.88959207724596
80.00010689599922
79.99999987312418
79.99999999992788
79.99999999999991
80
79.99999999999989
79.99999999926067
80
79.99999999999999
79.99999999996116
79.99999990329464
79.99999999999999
80
79.99999999923305
79.99999874081634
80
80.00000000000583
80.00000000084977
79.99999668556126
80.00000000029765
80.00000006418313
80.00014316915846
80.1756352343216
80.0000000001248
80.00000003833922
80.00007799189346
80.07823219535814
79.99999999998491
80.0000000081905
80.00001543285885
80.01253441298762
80
80.00000000032163
80.00000075783372
80.00047957190969
80.09570679442946
80.00002005538094
80.00000000211899
79.99999999999999
80.11119145134016
80.00004029603774
80.00000001093973
79.99999999998022
80.1080489574428
80.00003795768502
80.00000000995152
79.99999999998194
80.09799466744821
80.00003402476719
80.00000000801199
79.99999999999045
80.08928886846786
79.99999641981373
80
80
80.09587751347243
80.00000032403251
80
79.99999999999999
80.07080756125238
79.99999999998353
80
79.99999999999999
80.01669863380376
80
80
79.99999999999989
80
79.99999999999997
80
79.99999998311826
80.00000000000003
80.00000000000001
79.99999999999999
79.99999999485814
80
80
80
79.9999988876274
80
80
79.99999999999989
79.9999979494664
79.99999841143838
79.99997333515017
79.99963461280619
80.00470515875386
79.99997333510537
79.99975056713306
79.9939738795549
79.96615325570548
79.99963461281467
79.9939738796227
80.00140774579971
81.0274244492428
80.00470515885632
79.96615325577972
81.02742444935025
92.74506270963032
123.5854676426967
97.51262962638997
88.43009924936126
81.41168649542175
133.8829261925148
115.0659851835617
105.7656439687972
87.0923922783077
137.6890219010527
121.5559122166272
113.4731578335867
90.5281214823745
138.5286489987892
122.4804275660727
114.3813858826703
90.75225373620782
91.63774208266014
92.20633806348989
92.33104987355777
92.60919971613492
115.3152372421905
115.8581190215355
116.0117964252681
121.3220013749325
123.0369511250712
123.2771440130649
123.3932576304963
130.3868547630239
139.2814028599484
139.3279410975323
139.385656739319
149.4322287429494
90.00877162499687
82.9350932080163
80.29717607256791
80.00581141327922
99.99166903878182
84.15795378980791
80.33589158969362
79.99714761185885
95.06619147600325
82.65988230752873
80.15007615947334
79.98824639304146
79.08833555841908
78.84591937648069
79.85185070525338
79.96306811160821
79.99958690144085
79.99993766537992
79.99999801336958
79.99999999619057
79.99913783720746
79.99997513390289
79.99999980147093
80.00000001663426
79.99884439574166
79.99999383843613
80.00000003030003
80.00000001730733
79.99468527978712
79.99980402867936
79.99999887217868
80.00000000853638
80.00000000094963
80.00000000316332
80.00000280207595
74.40714490700692
80.00000000624784
80.00000000102648
80.0000009910915
69.50507359146455
80.0000000083013
80.00000000098545
80.0000001006261
70.8364706054582
80.0000000092402
80.00000000138803
80.00000001541667
91.90798707050874
94.1847524828746
118.9929752757774
121.5670776509879
121.4690257013773
155.5196990514292
198.0554925975495
201.1458085919568
200.9729337824984
190.5832763011333
219.1363553978981
222.015042558405
221.9383332611565
219.1687874657014
244.9933380348916
248.6487656549704
248.7015197372742
121.4345019342199
121.4588757035324
121.491212363031
121.9449627082299
200.8716164831608
200.8720513850488
200.8888688763194
200.9510630369043
221.8489346123199
221.8313959017741
221.8305636938314
221.7234034984127
248.5952270439064
248.5536371623191
248.5499013194124
248.3997449968075
113.0512003318428
107.0130086931375
102.1501689527083
89.6880811086443
193.3595521932993
186.8744809121033
179.7458055853915
156.0155869852641
218.5696878166821
215.5027812652193
209.9331814680143
201.7997218847679
247.6690357003088
248.6056701873304
244.2137625057559
251.9567530698478
75.90455409273457
42.27450525482295
18.38567246190383
16.58760667088007
74.47402124581362
29.44331100628706
10.75931708943802
9.05372054595064
67.60207150233229
16.307527010176
6.107496344551706
5.223649796088273
44.86176745578004
5.831852015088546
2.973860899774176
2.708671133890873
16.36874084225807
16.53303455209802
16.62931398949674
12.65282997748518
9.113750649934218
9.184194490669274
9.81150618202699
8.519371971883844
4.920884041228943
4.957850496716891
5.658221370508627
6.570796803875954
2.408358942603247
2.393562552057149
2.937085384033836
4.042832632020901
53.79200456070839
77.16605776283039
79.67143114477611
77.81146546693584
38.99218947061569
70.52625510609884
77.94780622677131
75.82624699364705
31.78198751017062
62.53948702650603
73.48896700802386
75.66982663022046
21.35809021618477
53.52410178962588
68.53785890209474
71.42763114438662
76.40846343954851
70.67916088527579
63.33582094707145
59.84162462350042
63.49969378219221
52.24959803492325
38.4839090341243
30.20227540973463
41.81888561532379
32.73733950241584
21.70289644406876
11.98352391669578
24.14629024043205
14.06525613849904
10.8820133037343
5.168302783007063
3.388055856716021
3.297609830114913
3.23326544424848
3.181935830591899
9.904745010188105
9.599597746149488
9.310469043673281
9.115605186569761
28.39793484086141
28.12410723139212
27.83221045746928
27.63932913862854
58.20399670951496
58.01352817363748
57.87071791797393
57.80378967215487
3.181935830592396
9.115605186577389
27.63932913864219
57.80378967291465
3.233265444251568
9.310469043704387
27.83221045744962
57.87071791796478
3.297609830111592
9.599597746162795
28.1241072313699
58.01352817363186
3.388055856728302
9.904745010181289
28.39793484081218
58.20399670941368
59.84162462343104
63.33582094697228
70.67916088512513
76.40846343929651
30.20227540966489
38.48390903415885
52.24959803505098
63.4996937820907
11.98352391670863
21.70289644410026
32.73733950240791
41.81888561529366
5.168302783015783
10.88201330373736
14.06525613850144
24.1462902404257
71.42763114431561
68.53785890196332
53.52410178965934
21.35809021617726
75.66982663016368
73.48896700797661
62.53948702651018
31.78198751017487
75.82624699362631
77.94780622659638
70.52625510605242
38.99218947065318
77.81146546687042
79.67143114465644
77.16605776279094
53.79200456077915
12.65282997746254
16.62931398947561
16.53303455206585
16.36874084219366
8.519371971880476
9.811506182020915
9.184194490686947
9.113750649940618
6.570796803906035
5.658221370518608
4.957850496740002
4.920884041250589
4.042832632027351
2.937085384042999
2.393562552063521
2.408358942615702
16.58760667075179
18.38567246186864
42.27450525478097
75.90455409271971
9.053720545971425
10.75931708942523
29.44331100619223
74.474021245611
5.223649796122221
6.107496344533747
16.30752701015598
67.60207150217019
2.708671133921658
2.97386089974991
5.831852015054036
44.86176745570862
89.68808110852109
102.1501689527298
107.013008693002
113.051200331795
156.0155869848157
179.7458055853199
186.8744809120405
193.3595521933138
201.7997218845109
209.9331814679224
215.5027812652289
218.5696878166008
251.9567530697453
244.2137625057183
248.6056701873489
247.6690357003506
121.9449627080543
121.4912123632474
121.4588757035621
121.4345019342029
200.9510630366638
200.8888688764842
200.8720513851497
200.8716164831643
221.7234034980821
221.8305636938804
221.8313959017848
221.8489346122556
248.3997449965703
248.5499013194636
248.5536371622826
248.595227043881
121.4690257012047
121.5670776512289
118.9929752756
94.18475248310645
200.9729337823413
201.1458085921861
198.055492597307
155.5196990517043
221.938333261042
222.0150425585248
219.1363553977557
190.583276301261
248.7015197372104
248.6487656550529
244.9933380347396
219.168787465726
74.40714490699925
80.00000280206733
80.00000000315244
80.00000000094904
69.50507359148615
80.0000009910864
80.00000000102206
80.00000000624765
70.83647060549646
80.00000010062483
80.00000000098569
80.00000000830127
91.90798707056545
80.00000001541783
80.00000000138799
80.0000000092387
79.99999999619492
79.99999801341573
79.99993766538279
79.99958690146026
80.00000001663545
79.99999980151989
79.99997513390842
79.99913783718866
80.00000001729816
80.00000003035828
79.99999383844077
79.99884439571093
80.00000000853257
79.99999887221463
79.99980402868346
79.99468527976562
80.00581141320355
80.29717607255374
82.93509320791955
90.00877162492301
79.99714761182594
80.33589158969143
84.15795378975838
99.99166903876284
79.98824639302347
80.15007615947221
82.65988230750006
95.06619147600777
79.96306811155297
79.85185070526539
78.84591937645057
79.0883355584204
92.60919971606286
92.33104987346023
92.20633806345403
91.63774208280265
121.3220013746816
116.0117964251497
115.8581190214466
115.3152372423683
130.3868547628282
123.3932576303521
123.2771440127617
123.0369511251909
149.4322287428321
139.3856567391679
139.3279410972303
139.2814028600802
90.75225373622463
90.52812148220238
87.09239227844455
81.41168649552768
114.3813858826046
113.4731578333489
105.7656439688209
88.43009924937328
122.4804275661352
121.5559122162906
115.0659851835121
97.51262962630932
138.5286489989172
137.6890219009199
133.8829261924936
123.5854676427405
79.95524893377686
79.99991731332069
80.00000015837108
80.00000000649028
79.86902845044813
79.99974862577065
80.00000049758975
80.00000002008117
79.76340425276827
79.99953268393382
80.00000040424634
80.00000002310605
79.71207529297932
79.99945172080147
80.00000055059132
80.00000002792274
80.00000004281168
80.00000179196074
79.99963593160317
79.80688613000024
80.00000004279224
80.00000177273596
79.99963461338922
79.8070391812023
80.00000004024963
80.00000155237517
79.99962039968941
79.80670568385743
80.00000003323542
80.00000105132233
79.99959064695733
79.80718216304429
80.00000002789557
80.00000002308148
80.00000001985266
80.00000000622649
80.00000055063316
80.00000040424506
80.00000049752391
80.0000001581771
79.99945172100253
79.9995326836317
79.9997486260809
79.99991731312117
79.71207529274604
79.76340425247828
79.86902845054685
79.95524893382716
)
;

boundaryField
{
    back
    {
        type            empty;
    }
    inlet
    {
        type            zeroGradient;
    }
    front
    {
        type            empty;
    }
    top
    {
        type            zeroGradient;
    }
    outlet
    {
        type            fixedValue;
        value           uniform 80;
    }
    bottom
    {
        type            zeroGradient;
    }
    wall
    {
        type            zeroGradient;
    }
}


// ************************************************************************* //
