/*--------------------------------*- C++ -*----------------------------------*\
  =========                 |
  \\      /  F ield         | OpenFOAM: The Open Source CFD Toolbox
   \\    /   O peration     | Website:  https://openfoam.org
    \\  /    A nd           | Version:  11
     \\/     M anipulation  |
\*---------------------------------------------------------------------------*/
FoamFile
{
    format      ascii;
    class       surfaceScalarField;
    location    "0.0255";
    object      phi;
}
// * * * * * * * * * * * * * * * * * * * * * * * * * * * * * * * * * * * * * //

dimensions      [0 3 -1 0 0 0 0];

internalField   nonuniform List<scalar> 
1652
(
2.843686947071611
0.8895636090847481
0
1.954123337988149
0.8895636090834618
2.220446049250313e-16
1.064559728903287
0.8895636090848642
0
0.889563609807982
1.998141652137519e-10
0.1749961214972846
2.843686947076741
1.779127218162428
1.954123337998014
1.779127218162189
1.064559728910183
1.779127218172693
1.779127175555412
0.1749961510678867
2.843686947090741
2.668690827246526
1.954123338008367
2.668690827244562
1.06455972891429
2.66869082726677
2.668689302996289
0.1749970077199028
2.843686947092868
3.558254436328659
1.954123338013008
3.558254436324421
1.064559728916617
3.558254436363165
3.558266591177638
0.1749847674969651
4.418652025448567
2.872852967045247
5.279049614570545
2.872852967043177
6.139447203693196
2.872852967042502
2.872852967040008
6.999844792818314
4.418652025437509
2.012455377932159
5.279049614550976
2.012455377929712
6.139447203664236
2.012455377929244
2.012455377926213
6.99984479277803
4.418652025480184
1.152057788815211
5.279049614601067
1.152057788813801
6.139446820171916
1.152057791782257
1.152057763632847
6.999848516125394
4.419675048737222
0.2852552076953259
5.284177854746127
0.2574134099406684
6.146897528660606
0.2389734963183237
7.008008102556222
0.2374756223073717
6.941512752877174
0.05833203988642965
6.883180712936996
0.05833203987325097
6.824848672997383
0.05833203986714963
0.05833203992724911
6.766516633059172
6.941512753801745
0.1166640708547286
6.883180713938437
0.1166640696913733
6.824848673979802
0.1166640689378229
0.1166640744160048
6.76651663686821
6.941516225941581
0.1749713208021353
6.883184307327167
0.1749682573384407
6.824852163333283
0.1749670114015574
0.1749713673484617
6.766528546604243
6.951104695990781
0.1859527515819155
6.892841858704949
0.183455761365452
6.834226672920124
0.1829668958204239
6.780518360689825
0.1818801043242031
6.78188002837164
7.985900480966812e-05
-0.05711186009762204
6.770906814340937
3.924721400866416e-05
-0.01720492836922199
6.766798370730729
6.706192651251275e-06
-0.001560121525915503
2.924773868651087e-07
6.766518660899564
-1.472932936280591e-05
6.766529257621392
5.414148540605623e-08
6.766521352127945
2.988799940872866e-08
6.766517023444449
5.810243397519343e-09
2.691870060189672e-10
6.766516637300097
6.766516638778526
4.312348256263476e-10
6.766516635474675
2.572095869624036e-10
6.766516633253815
4.972722233986815e-11
-1.209143896119258e-12
6.766516633046973
6.766516633047805
6.766516633048468
6.766516633048367
6.766516633044933
6.766516633046038
-1.097455459841967e-12
6.766516633047141
-1.099453861286293e-12
6.766516633048259
-1.11743947428522e-12
-1.084243805848928e-12
6.766516633049343
6.766516633046081
-4.881206550066963e-12
6.766516633047177
-1.883493361276578e-12
6.76651663304825
-2.145172928180727e-12
-2.181588243388433e-12
6.766516633049348
6.766516632985415
1.605274246863075e-09
6.766516632985208
6.313279343750366e-10
6.766516633049005
5.207445585853065e-11
-6.938338792394916e-13
6.766516633049355
6.766516455580435
2.316275161784453e-06
6.766516561120693
3.89900252251163e-07
6.766516632053173
1.004797794967871e-08
6.766516633062624
-2.08046357919045e-11
3.694267114440208e-13
6.766516633048361
-6.780020989083368e-12
5.773159728050814e-15
6.76651663304867
0
6.766516633049347
6.766516633049342
-9.740205864083862e-10
6.766516689343619
8.026956876960867e-11
-1.675648508836503e-11
6.76651663326601
-2.55351295663786e-15
6.766516633049062
6.766516633049341
9.260982043457489e-07
6.766478255435668
4.032966027800455e-08
7.04877267665438e-10
6.766516736958207
4.655831276068056e-12
6.766516633099285
6.766516633049275
-5.273281847872902e-05
6.764165590261092
0.0298301217211131
-3.758277478116412e-08
6.766516352068956
-1.699729246240622e-11
6.766516632936164
6.766516633049261
0.1555520676223738
6.610964565426804
0.3111041343643619
6.610964565719418
0.466650717333009
6.610966012755468
6.616350666984975
0.593828796008091
0.1555520675794725
6.455412497804546
0.3111041256073472
6.455412498195416
0.4666178236042278
6.455414314838988
6.462455604208015
0.5057873962170818
0.1555520675657454
6.299860430182448
0.3111041228541407
6.29986043062428
0.4666100060773345
6.299862345784569
6.306593727938514
0.4961652012557731
0.1555520675531086
6.144308362560517
0.3111041206190644
6.144308363065256
0.4666056447702849
6.144310389264612
6.150706202399572
0.4973211058033763
-0.4666007659735025
5.994801701238991
0.498247761497297
-0.3111043510939265
5.988758327746186
-0.1555521841947831
5.988756178861556
5.988756178280658
-0.4665945332449726
5.838822457387304
0.4990139097149735
-0.3111043474781067
5.833206249851166
-0.1555521841734665
5.833203994663156
5.833203994000526
-0.466587334179231
5.683014441459173
0.4998665683901642
-0.3111043429790021
5.677654317683535
-0.1555521841437277
5.677651810539955
5.677651809723081
-0.4665764409837569
5.526651597697486
0.4989990191083141
-0.3111043357841696
5.522101837301386
-0.1555521840951888
5.522099626173573
5.522099625446168
0.1993010974795301
5.322798527871377
0.3986021780120407
5.322798528204168
0.5978527304617489
5.322799684646244
5.325751315850134
0.6916543365153613
0.19930109748914
5.123497430296757
0.3986021801194221
5.123497430549515
0.5978624578973079
5.123498243231523
5.12538918093829
0.7194523348100923
0.1993010975709946
4.924196330192216
0.3986021811047902
4.924196333081483
0.5978691084785268
4.924196923475805
4.925397538857785
0.7398220533022984
0.1993010975069763
4.724895238884731
0.3986021878327211
4.724895235433644
0.5978899819461609
4.724895493870434
4.725274154692714
0.7788104968418205
-0.3354092212936852
5.060304468727429
-0.6708098248359136
5.060303650681679
-1.003544744971183
5.059640886423481
4.969929865121301
-1.258767421977941
-0.3354092177907008
5.395713697825962
-0.6708004926901248
5.395711791385592
-0.9956968814830341
5.393357020675143
4.977589646599798
-0.6059335318467577
-0.3354092197216405
5.731122926895847
-0.6708007898680604
5.731121431226494
-0.9932307409918864
5.728087805466804
5.121233238367623
-0.183835704520913
-0.3354092231339275
6.066532156066589
-0.670803580859519
6.066531117143947
-0.9926719812309044
6.065020687924034
5.536748228544531
-0.1481168679718971
0.5187648571219905
5.727091659975771
-0.0713149789437624
0.3499818430512267
6.240069442236544
0.1749961115870858
6.241527452855723
6.241528275012866
0.5194850492507098
5.937284218929729
-0.07102711657455842
0.3499838850574731
6.415399607452565
0.1749961138796361
6.416523841047839
6.416524394597667
0.5204108174787849
6.107364039443961
-0.06991012139687364
0.3499859929018002
6.590394597994103
0.1749961157719704
6.591519971345416
6.591520514324486
0.5191181698397371
6.386483283136661
-0.03090220771676457
0.349984647495623
6.765828450903376
0.1749961148298472
6.766516306549645
6.766516633729289
-0.0009166879639442849
6.745192120271385
0.1194414973418291
-1.465120160526467e-06
6.766505338962688
-1.027315787993643e-09
6.766516630654404
6.766516633075559
-3.142157990121408e-05
6.766352994756148
0.01216599174380589
-2.686351563419009e-08
6.766516646335757
2.241695717941639e-10
6.766516633665779
6.766516633061018
-4.899402807345687e-06
6.76681121511345
0.002009474506248166
-5.50817613742538e-09
6.766516992730593
9.439338199968006e-12
6.766516633665112
6.766516633068647
-4.313862067362173e-05
0.01498145992824745
6.765342778531433
-5.123886359648111e-08
6.766511083590011
-2.225486461782111e-11
6.766516633733261
6.766516633361995
1.107690552246235
-0.8722629110212994
-0.1561042001239979
-1.635136470667931e-12
1.983288464947903
-0.8749754399557714
-8.242295734817162e-13
2.858270033632359
-0.8749806223834975
3.295141937087465e-13
-0.8749805996820088
-1.433519969396002e-12
1.107691425220638
-1.74449363051604
-0.1563521956760312
1.983288462182791
-1.749950331756265
2.858270032858282
-1.749961237801298
-1.749961199277169
1.107691277905049
-2.616587768871031
-0.1568627731030293
1.983288424292918
-2.624924323650894
2.858270023586287
-2.62494182994119
-2.624941798504517
1.107693638984193
-0.1573194717213145
-3.489870163430991
1.983288338796815
-3.499899094118682
2.858270001855511
-3.499922431613085
-3.499922397750238
-4.313862072580221e-05
-6.766811215113966
0.01498145992779037
6.765342778525577
-5.123887913960345e-08
-6.766516992731031
6.766511083588583
-2.238764729156628e-11
-6.766516633663898
6.76651663373325
-6.766516633068585
6.766516633367419
-4.899403035163452e-06
-6.76635299475685
0.002009474506097286
-5.50865131287992e-09
-6.766516646336413
-3.939049086909563e-11
-6.766516633667234
-6.766516633061247
-3.142158034130649e-05
-6.745192120273574
0.01216599174407057
-2.686363709258899e-08
-6.766505338962763
2.237394713944241e-10
-6.766516630654642
-6.766516633075619
-0.0009166879642393821
-6.386483283134301
0.1194414973427997
-1.465120044175094e-06
-6.765828450902768
-1.027286922195003e-09
-6.766516306549843
-6.766516633729237
-0.17499611157702
6.241528275048677
-6.066532156111853
-0.3499818430308727
6.241527452890494
-6.066531117189006
-0.5187648571126482
6.240069442202107
-6.065020687877925
5.727091659935818
-5.536748228505975
-0.07131497894377004
-0.1749961138684016
6.41652439462219
-0.349983885035788
6.416523841070989
-0.5194850492406566
6.415399607428554
5.937284218905654
-0.07102711657461802
-0.1749961157600216
6.591520514337436
-0.3499859928788967
6.591519971357254
-0.5204108174681319
6.59039459798208
6.107364039433402
-0.06991012139676603
-0.174996114817541
-0.3499846474700262
-0.5191181698263906
-0.03090220771681139
0.9926719812399651
-5.12123323833836
-0.1481168679711373
0.6708035808845537
-5.728087805434161
0.3354092231471485
-5.731121431258868
-5.731122926928496
0.9932307410015494
-4.977589646578611
-0.1838357045198585
0.6708007898912199
-5.393357020657224
0.3354092197334769
-5.39571179140746
-5.395713697846517
0.9956968814957647
-4.969929865113722
-0.6059335318455188
0.6708004927125959
-5.059640886415199
0.3354092178012002
-5.060303650692481
-5.060304468737372
1.003544744983164
-4.725274154692805
-1.258767421982068
0.6708098248558265
-4.724895493869924
0.3354092213034919
-4.724895235434122
-4.724895238884836
0.1993010974860332
5.322798527888228
-5.522099625469568
0.3986021780269008
5.322798528225127
-5.522099626202535
0.5978527304694233
5.322799684627161
-5.522101837274088
5.325751315830577
-5.526651597671802
0.6916543365176238
0.1993010974953013
5.123497430307465
0.3986021801333989
5.123497430562548
0.5978624579046651
5.123498243217957
5.125389180924619
0.719452334811691
0.1993010975765498
4.924196330197584
0.3986021811173219
4.924196333088238
0.5978691084840303
4.924196923468929
4.925397538851581
0.7398220533010178
0.1993010975122417
0.3986021878443624
0.5978899819511065
0.7788104968408732
-0.4665764409772051
-5.683014441438853
0.4989990191094705
-0.3111043357718005
-5.677654317662023
-0.1555521840896874
-5.677651810561997
-5.677651809741079
-0.4665873341724766
-5.83882245737311
0.4998665683898032
-0.3111043429659725
-5.833206249834459
-0.1555521841379693
-5.833203994679056
-5.833203994012769
-0.4665945332391265
-5.994801701235894
0.4990139097163098
-0.3111043474648649
-5.988758327738727
-0.15555218416748
-5.988756178869663
-5.988756178286948
-0.4666007659672836
-6.150706202399283
0.4982477614986098
-0.3111043510798672
-6.144310389268536
-0.1555521841884798
-6.144308363065248
-6.14430836256052
0.1555520676224385
6.610964565426809
-6.766516633049337
0.3111041343646412
6.610964565719426
-6.766516632936224
0.4666507173337292
6.610966012755381
-6.766516352069055
6.616350666985039
-6.7641655902607
0.5938287960081189
0.1555520675795351
6.455412497804435
0.3111041256075598
6.455412498194873
0.4666178236046664
6.455414314838409
6.462455604206917
0.5057873962186836
0.1555520675656669
6.299860430182408
0.3111041228537912
6.299860430624847
0.4666100060765195
6.299862345782135
6.306593727938484
0.4961652012541982
0.1555520675530677
0.3111041206189739
0.4666056447698522
0.4973211058036996
-6.766516633049297
1.706079721941478e-11
-6.766516633049343
-4.672151554530046e-12
-6.766516633049343
3.885780586188048e-15
0
-6.766516633049345
-6.766516633097863
3.758279798482533e-08
-6.766516633049181
-7.049306693929225e-10
-6.766516633049347
1.709543617778309e-11
-9.103828801926284e-15
-6.766516633049347
-6.766516736958935
5.273281835560528e-05
-6.76651663326573
-9.260976558400635e-07
-6.766516633048657
9.736993433762109e-10
-3.728128916691276e-13
-6.766516633049355
-6.766478255435424
0.02983012172107008
-6.766516689344002
4.032955380761649e-08
-6.766516633048399
8.014139352141569e-11
-6.766516633062526
-6.778300143395199e-12
-1.101341240428155e-12
-6.766516633048242
-2.181699265690895e-12
-6.766516633048266
-7.079892228034623e-13
-6.766516633049327
-6.766516632052997
-2.079808547605921e-11
-1.100786128915843e-12
-6.766516633047141
-2.157718448358992e-12
-6.766516633047176
5.212336118276539e-11
-6.766516632985519
-6.766516561120668
1.004783156677291e-08
-1.100786128915843e-12
-6.76651663304604
-1.879496558387928e-12
-6.766516633046086
6.312680378428581e-10
-6.766516632985743
-6.766516455579988
3.89900320529879e-07
-1.098787727471517e-12
-6.766516633044936
-5.336175945558352e-12
-6.766516633046905
1.605264643433912e-09
-6.766516637300752
-6.766518660899138
2.316275076186258e-06
-4.362945560387743e-10
6.766516633032119
-6.766516633039151
-5.415156434374069e-08
6.766516638763004
-6.766516636848026
-7.985901010454377e-05
6.766529257636591
-6.766528546624388
6.781880028386738
-6.780518360709988
-0.05711186009748392
-2.620638150929722e-10
6.766516633038432
-2.989765712779757e-08
6.766516635467551
-3.924721883580284e-05
6.76652135213814
6.770906814350854
-0.01720492836987719
-5.484845910785907e-11
6.766516633043286
-5.820282256152609e-09
6.766516633249494
-6.706197729522412e-06
6.76651702344865
6.766798370735661
-0.00156012152592494
-3.876121645873809e-12
-2.792543973839656e-10
-2.92482342678646e-07
-1.472933009194488e-05
-0.1749713673547859
-6.834226672932262
0.1818801043252158
-0.1166640744354644
-6.824852163341222
-0.05833203993142011
-6.824848673973833
-6.824848672982239
-0.1749670114087459
-6.892841858709844
0.1829668958206666
-0.1166640689576683
-6.883184307322516
-0.05833203987144364
-6.883180713948114
-6.883180712925337
-0.1749682573462459
-6.95110469599237
0.1834557613660294
-0.1166640697115625
-6.941516225921172
-0.05833203987760238
-6.941512753830135
-6.941512752869934
-0.1749713208114235
-7.008008102547826
0.1859527515813327
-0.1166640708754927
-6.999848516084424
-0.05833203989093283
-6.999844792821217
-6.999844792815535
-1.15205776362782
-6.146897528656029
0.2374756223076657
-2.012455377910965
-6.139446820157485
-2.872852967039931
-6.139447203692224
-6.139447203690341
-1.152057791778413
-5.284177854744438
0.2389734963186815
-2.01245537791648
-5.279049614590011
-2.872852967042259
-5.279049614566445
-5.279049614567443
-1.152057788812807
-4.419675048735452
0.2574134099411928
-2.012455377921993
-4.418652025475476
-2.872852967044603
-4.418652025443834
-4.418652025446892
-1.152057788815276
-3.558266591176068
0.2852552076955651
-2.012455377927508
-3.558254436363169
-2.872852967046921
-3.558254436324422
-3.55825443632866
2.843686947076677
0.8895636090796828
1.954123337995112
0.8895636090815651
1.064559728908975
0.8895636090861367
0.8895636098043505
0.174996121503601
2.843686947077599
1.7791272181565
1.954123337999196
1.779127218159969
1.064559728911147
1.779127218174185
1.779127175574121
0.1749961510680945
2.843686947089469
2.668690827241873
1.95412333800662
2.668690827242819
1.064559728912863
2.668690827267942
2.668689303002671
0.1749970077192093
2.843686947088214
1.954123338006611
1.06455972891139
0.1749847674954152
0.1749961302989501
0.1749961303009971
0.1749964053397205
0.1749960817816209
0.1749958266656165
0.1749994169898076
0.1749429424265257
0.1750039855197961
0.1749960817811058
0.1749964053411501
0.1749969840556772
0.1749969840572682
0.1750292466216008
0.1749744998154235
0.1750664302137481
0.1748766760529112
0.1749994169907545
0.1749958266664756
0.1749744998178703
0.175029246622622
0.1749692231508525
0.1749692231504408
0.1735049374759312
0.1753587844250011
0.1749429424282891
0.1750039855205153
0.1750664302151191
0.1748766760541048
0.1735049374773972
0.1753587844240977
0.1703540351849266
0.1703540351858269
-0.1012718775396477
0.2700436949175434
-0.1852523527436654
0.2443134290478771
-0.2541502720564066
0.2258283399651902
0.1963874001577889
-0.001136289626666676
0.3044510659449159
-0.0651240414245467
0.2858824739444955
-0.1728015483523936
0.2749128582321265
0.2246793958367739
0.0262279950490395
0.3134261799264725
-0.02158451039214837
0.2937647301966996
-0.1292349229910242
0.2900560441997095
0.2403822759154667
0.02944426695204705
0.3154280261323906
-0.01605540284607399
0.2925287455795564
-0.1256866539758047
0.2970404438141899
0.2526088983663969
0.2542314566395387
0.09931453019339176
0.2549886784960573
0.09572081827927398
0.2550498033100749
0.09501816712483796
0.07995265823371733
0.2543350992762161
0.298240635486938
0.01195378750530873
0.2990884725486054
0.01101100791871212
0.299536904251846
0.01067569059008766
-0.04589730763642885
0.3086373870226075
0.2926459621392007
-0.03143427195545334
0.2931994481951227
-0.03259516316980038
0.2935774315045201
-0.03289260797938642
-0.09839609397667565
0.3108856774391011
0.315964006325454
0.3163360208520222
0.3167395368416935
0.2734030595053676
0.2520824540560845
-0.1142559806678496
0.2368638310508357
-0.02232280467141778
0.2334668690497952
-0.001237681504127286
2.248050625980325e-05
0.233328042760497
0.2643891868183952
-0.1258025862741746
0.2375696347828878
-0.01711021873384094
0.2334542235101402
-0.0004526462494686689
0.000109211520712138
0.2333278683031682
0.2609299974936279
-0.09131459860676272
0.2372722356590919
-0.002475981885001477
0.233428355577298
0.001375243496835432
0.0002036942424142318
0.2333321160412037
0.2184556013391447
0.2304505396576578
0.2329930051367544
0.2332713130183906
0.2333274597747512
5.110760004312098e-06
0.2333281155536496
3.245959570019608e-07
0.2333281594679396
7.040128480184649e-10
-9.690376279181123e-11
0.2333281597621221
0.2333280222766854
1.205947671906182e-05
0.2333281568437485
4.339564309008281e-07
0.2333281597852079
1.688833961566161e-09
-1.382739478472672e-10
0.2333281598017761
0.2333286912372929
2.471051171937244e-05
0.2333281649180681
1.010295352266155e-06
0.2333281598256567
5.281733717055204e-09
-1.186401532571324e-10
0.2333281597996042
0.2333247462438549
0.2333281284873625
0.2333281597962786
0.2333281598202613
0.2333281597743796
-2.695915712891406e-11
0.2333281597865088
1.076405631295074e-11
0.2333281430671522
1.834990465132691e-08
0.04916165065045491
0.2255812650907892
0.2333281597700339
-3.982542073899253e-11
0.2333281597660902
-2.856104241999446e-12
0.2333281600864411
2.520163688846111e-09
0.0594471463042931
0.2150422783844756
0.2333281597738789
-4.190525704217407e-11
0.2333281597634084
-4.228117855831215e-12
0.2333281598996693
3.515211455251688e-10
0.04696412488730028
0.2027767974293781
0.2333281597848247
0.2333281597648367
0.2333281597796045
0.2006493568943856
0.2555194574411075
0.4208017709800098
0.2727914061063686
0.1855123502367466
0.2734386483205096
0.1717759471514292
0.1733185365652961
0.2734660627615028
0.314349738183277
0.1403867427993348
0.3410939589044844
-0.05521138195520803
0.3420487072015784
-0.05776529913918449
-0.05631143617418144
0.3420726920971667
0.2749874387752891
0.01646586491821966
0.2960578719709736
-0.1348656056579195
0.2968445567110871
-0.1395090560277917
-0.1386390511782897
0.2968612656945319
0.2987509498240826
0.3244637286050566
0.3253913891211141
0.3254481168367054
0.2734598008564961
0.1741355539450706
0.2735014906793685
0.1743383483920622
0.2735577128870902
0.1745239433096908
0.1737896600489299
0.2726367773905001
0.3419826673269677
-0.05548191569707162
0.3419807685517202
-0.05537556933368026
0.3420093821274067
-0.05535786568483703
-0.05385216058120113
0.3419330129444513
0.2967443330371054
-0.1380017810266162
0.2967400978079297
-0.1379102112658257
0.296749876053551
-0.137914435843417
-0.1369757717610947
0.2974803019795932
0.3252175482955817
0.3251923484077603
0.3252067770885849
0.3259680946575113
0.302524170840761
0.2919265995007509
0.3386413996784517
0.341166951244491
0.3759948548266571
0.3909404565859019
0.568056649527781
0.4139137418031394
0.3592046573491293
-0.02580647474462672
0.3806833017947719
-0.009150647007419854
0.4087436462655342
0.01819715131166499
0.1492517618657749
0.4908696004305295
0.2938135113940055
-0.125233976286836
0.2920974286420666
-0.1188378419268665
0.3018131799254908
-0.09251734883323537
-0.08050403715596044
0.4911970596703381
0.333801515468853
0.3505382449076617
0.4127616433058859
0.5930130675794592
0.2665753109723918
-1.14109348590291
0.05537071051401259
-0.3801978000550908
0.01032247853317243
-0.05639889355625356
-0.03877982219758422
0.0002458576710254144
0.1881216115721042
-0.928824608561039
0.02393398612032461
-0.2046022784586992
0.001617864210694413
-0.004775011405128392
0.001966915742141445
0.000238455973400024
0.1159153521832146
-0.5531788846091374
0.008420438042969739
-0.0852399179460855
-8.121396000986859e-05
0.003468595415173536
0.005955765754105374
0.0005224391247920616
0.07183298170704161
0.002542638052565861
0.000319573821957281
0.0003445785093041005
0.005493791215661799
-0.02386946565835784
0.01096601649597493
-0.02429134214371904
0.01594504196705834
-0.02606411376489773
-0.01518065319810622
0.02574105174818647
0.0009131285400033259
0.001145236001301474
0.0004928888369960388
0.001050690961329814
-0.00381802904821291
0.0008036009457752791
-0.009497314824382215
0.002711304722445115
0.0001296407864574984
0.004531564924674308
-0.001731087176740047
0.00472121836244116
-0.006283173693842826
0.004858617292043926
-0.005963458198237542
-0.002401375086795093
0.000271601258430244
-0.0003556855509693315
-0.004686096076890341
-0.002624136549214031
0.1968582001279078
0.05950076172489638
0.2320669128510364
0.0133383827149503
0.2339879059904399
0.004883207353587327
0.02957827188233153
0.2358104963451738
0.1517876926165068
0.007417923727488285
0.2266944912485581
0.02331007726821549
0.2337266659724571
0.02030229283715901
0.03292121830496331
0.2501343813552718
0.1142251398927255
-0.04770260673600127
0.2167121062133916
0.02159472110337976
0.2517314650434288
0.02975919719613979
0.01002442240640261
0.289838641644052
0.0326707067556861
0.1457688974246051
0.2329330407061193
0.2631510560294552
0.1787373110219628
-0.3689302022051361
0.4452760562069124
0.1100303035044326
-0.2910614508005526
0.401179329438408
0.04594345489210175
-0.2018627828152778
0.3486644131034299
-0.1630302407574939
0.001903653841441311
0.3260709094274323
0.1982783186031005
-0.280007232175975
0.1116710124194758
-0.1790000678198223
0.03586258155146181
-0.09515430061824258
-0.05039507035226291
0.004084812753176709
0.2208934537624218
-0.1640317167719213
0.1356721478781595
-0.07654738606764225
0.04113382353379158
-0.0369770533243843
-0.01232789581093795
0.005841956930517006
0.1296054280996511
0.08660485287597851
0.03976128879426481
0.002883011242232543
0.0006297051185017617
0.007294687673377342
0.0004540600531627841
0.007429383984879415
0.0002342909813593148
0.007336639282291436
0.007276262505103094
-2.975744650690615e-14
0.003362095003794453
0.02995682719307296
0.001991026777618178
0.03006949845440883
0.0007048554269358659
0.02930223758242952
0.02883057631345784
1.149393080712713e-13
0.002435141450261538
0.08750506191528495
0.001545086666283377
0.08720621888381729
0.0006052503687010574
0.08624192203939958
0.08570571356363307
-3.153310945691601e-13
0.0006208219358939809
0.0003427371046749728
0.0001302791476394671
9.008488399686598e-13
0.007276262505111376
-0.0002342909814011789
0.0288305763135179
-0.0007048554268886641
0.08570571356368557
-0.0006052503687607041
-0.0001302791471854553
0.1561042001253473
0.007336639282277197
-0.000454060053109653
0.02930223758258484
-0.001991026777817376
0.08624192203935049
-0.001545086666007278
-0.0003427371043454308
0.1563521956762181
0.007429383984847841
-0.000629705118391043
0.03006949845442687
-0.003362095004008372
0.08720621888390488
-0.002435141450119416
-0.0006208219359198908
0.1568627731031386
0.007294687673401351
-0.002883011242219272
0.02995682719296514
-0.005841956930497095
0.08750506191524135
-0.004084812753072264
-0.001903653841466221
0.1573194717213457
-0.04594345489213347
-0.1630302407575462
0.3260709094274679
-0.1100303035041675
-0.2018627828151457
0.3486644131031769
-0.1787373110218498
-0.2910614508005498
0.401179329438402
-0.3689302022052047
-0.2358104963453603
0.4452760562069241
-0.03586258155174108
-0.05039507035224883
-0.1116710124194773
-0.09515430061835289
-0.1982783186028139
-0.1790000678196721
-0.2800072321759664
-0.2501343813553791
-0.0411338235337096
-0.0123278958109349
-0.1356721478782279
-0.0369770533243429
-0.2208934537623039
-0.07654738606761978
-0.1640317167718137
-0.2898386416439119
-0.03976128879431468
-0.08660485287594233
-0.1296054280995885
-0.263151056029256
-0.2329330407057606
-0.01002442240629781
-0.1457688974248239
-0.02975919719543074
-0.03267070675564442
-0.02159472110370067
0.04770260673597651
0.002624136549250745
-0.2517314650433993
-0.03292121830453681
-0.2167121062132228
-0.02030229283646678
-0.1142251398927674
-0.02331007726840784
-0.007417923727747328
0.002401375086795311
-0.2337266659727392
-0.02957827188171391
-0.2266944912487278
-0.004883207353702568
-0.1517876926165871
-0.0133383827152605
-0.0595007617254722
-0.002711304722383123
-0.2339879059903502
-0.2320669128510237
-0.1968582001280252
-0.02574105174810837
-0.01594504196703296
-0.01518065319815426
-0.01096601649606431
-0.02606411376491038
-0.005493791215671499
-0.02429134214386409
-0.02386946565854942
-0.0002458576709850405
0.003818029048175815
-0.009497314824352933
-0.0004928888370426231
0.0008036009457623242
-0.0009131285400279798
0.00105069096144083
0.001145236001347395
-0.0002384559734087584
0.006283173693895951
-0.005963458198079152
0.001731087176758864
0.004858617292045508
-0.0001296407864580813
0.004721218362603249
0.004531564924780674
-0.00052243912479406
0.004686096076957229
0.0003556855509916539
-0.0002716012584548406
-0.0003445785093318726
-0.01032247853298297
-0.03877982219790853
-0.05537071051266786
-0.05639889355551449
-0.2665753109708671
-0.3801978000535738
-1.141093485905122
-0.4139137418030996
-0.001617864210663875
0.001966915742214893
-0.02393398611972092
-0.004775011404713592
-0.1881216115708632
-0.2046022784579925
-0.9288246085620596
-0.4908696004304933
8.121396002645255e-05
0.005955765754185955
-0.008420438042774488
0.003468595415403265
-0.115915352182652
-0.08523991794564972
-0.5531788846095697
-0.4911970596702427
-0.0003195738219486923
-0.002542638052494204
-0.07183298170659839
-0.5930130675795616
-0.3759948548268853
0.5680566495293393
-0.3386413996785719
0.3909404565859191
-0.3025241708405571
0.3411669512456109
0.2919265995029178
-0.2726367773897787
-0.4087436462657241
0.1492517618672234
-0.3806833017948328
0.01819715131229649
-0.3592046573490972
-0.00915064700702084
-0.02580647474392217
-0.3419330129443439
-0.3018131799256202
-0.08050403715544063
-0.2920974286422855
-0.09251734883250684
-0.2938135113941582
-0.1188378419263137
-0.1252339762866372
-0.2974803019797865
-0.4127616433063345
-0.3505382449080728
-0.3338015154692576
-0.325968094658097
-0.2735577128868245
0.1737896600516472
-0.273501490679418
0.1745239433101975
-0.2734598008562242
0.1743383483921273
0.1741355539463457
-0.2734660627613654
-0.3420093821272175
-0.05385216057912212
-0.3419807685516409
-0.05535786568375267
-0.3419826673268881
-0.05537556933343812
-0.05548191569680716
-0.3420726920972503
-0.2967498760538025
-0.1369757717594556
-0.2967400978080145
-0.1379144358421733
-0.2967443330371702
-0.1379102112656719
-0.1380017810269207
-0.2968612656946817
-0.3252067770889613
-0.3251923484080473
-0.3252175482956583
-0.3254481168368351
-0.2734386483204154
0.1733185365656122
-0.2727914061063139
0.1717759471507453
-0.2555194574416703
0.1855123502385855
0.4208017709786872
-0.2255812650906537
-0.3420487072014817
-0.0563114361735122
-0.3410939589044364
-0.05776529913903994
-0.3143497381835915
-0.05521138195484954
0.1403867427989373
-0.2150422783844629
-0.2968445567111262
-0.1386390511777035
-0.2960578719709643
-0.1395090560272803
-0.274987438775416
-0.1348656056576374
0.01646586491801816
-0.2027767974293131
-0.3253913891212168
-0.3244637286051456
-0.2987509498240935
-0.200649356894152
-0.2333281430671424
0.0491616506503485
-0.2333281597864976
1.834986473880917e-08
-0.233328159774379
1.071764899052141e-11
-2.695083045622937e-11
-0.2333281597621221
-0.2333281600864376
0.05944714630419734
-0.2333281597660823
2.520146480389229e-09
-0.2333281597700299
-2.864375403532904e-12
-3.9834413545492e-11
-0.2333281598017566
-0.2333281598996669
0.04696412488695351
-0.2333281597634061
3.515163160550117e-10
-0.2333281597738815
-4.231281991451397e-12
-4.190253699576374e-11
-0.2333281597996106
-0.2333281597796019
-0.2333281597648354
-0.2333281597848186
-0.2333281598202407
-0.2333281594679323
-9.689332669537976e-11
-0.2333281155536272
7.03913982658122e-10
-0.2333274597747075
3.245959805942e-07
5.110760143589577e-06
-0.233328042760459
-0.2333281597851835
-1.382552961004535e-10
-0.2333281568436306
1.688832518276229e-09
-0.2333280222767082
4.339564628197401e-07
1.205947692312082e-05
-0.2333278683030925
-0.2333281598256123
-1.186421516585767e-10
-0.2333281649179345
5.281744042129333e-09
-0.2333286912373738
1.010295377412707e-06
2.471051186686557e-05
-0.2333321160411462
-0.2333281597962578
-0.233328128487331
-0.2333247462440065