/*--------------------------------*- C++ -*----------------------------------*\
  =========                 |
  \\      /  F ield         | OpenFOAM: The Open Source CFD Toolbox
   \\    /   O peration     | Website:  https://openfoam.org
    \\  /    A nd           | Version:  11
     \\/     M anipulation  |
\*---------------------------------------------------------------------------*/
FoamFile
{
    format      ascii;
    class       volScalarField;
    location    "0.35923595";
    object      p;
}
// * * * * * * * * * * * * * * * * * * * * * * * * * * * * * * * * * * * * * //

dimensions      [0 2 -2 0 0 0 0];

internalField   nonuniform List<scalar> 
880
(
80.0000000000004
80.00000016385775
80.01345672557167
81.88034832305185
80.00000000017729
80.0000004813165
80.0166905416073
82.76389799071069
80.00000000090172
80.00000187777135
80.03089509425681
83.82258930349066
80.0000000120275
80.0000082457134
80.06380961740818
85.40755734967831
79.9999999446778
80.00000002780087
80.00000611603599
80.00009435555469
80.00003799675125
80.00014606526086
80.00091100102495
80.0013465004169
80.14459863497459
80.23457445630596
80.38548915914431
80.53778884931893
88.34437582750674
91.39560751840233
94.00067293101239
95.23498846356421
80.00023343494871
80.00190271517597
80.0071896972737
80.02228104089652
80.01262423540271
80.05407622577667
80.10847751476044
80.2287573200348
81.2704991486784
81.90766867648223
82.71482396522134
83.76513033535335
96.38508849451192
97.95089463682898
98.27350023178566
97.50850199744613
90.98665942864896
87.50957229374441
85.83751242293258
84.74258379370086
85.6917528302701
86.37142293038008
86.77397701785605
86.80860056116146
80.63880099095067
81.12354325813291
81.63900733359456
82.02323976253621
80.07908862000896
80.19128858456625
80.36116009467959
80.59966004896351
80.87775786018221
81.1570896341035
81.43362735999575
81.6400532384551
82.31286336507111
82.48081947530319
82.56761460598194
82.57335510465103
86.44907164618972
85.94968620893816
85.29455136975167
84.6163052126366
83.58709698419457
82.89853964229205
82.50698595636881
82.07913020843986
82.08344341739465
84.14365878187162
82.52051043154084
81.76637756997631
87.74229250780705
83.86378171721709
82.36950589532987
81.74666980239664
120.5571247578723
85.26204360591278
82.18751405645538
81.49457322774425
158.3476314083023
93.05760298685564
82.67019269251408
81.40187312804127
81.37296017830609
83.39322889570019
102.771355291625
175.0765519509182
80.87270417373789
84.75159108862549
113.7342205808871
174.2794215940058
81.08512013461041
87.90151457850001
128.3725836606729
176.1372606621066
81.89138376705931
93.58557885612545
142.2709120870586
173.4127660897149
167.707408648827
149.9507606851254
102.239809317047
83.66781065378451
160.7383475683357
151.1909469251579
111.8298934260807
86.84025109134886
153.3431112702102
148.9208907926378
120.1256280417641
91.94276858445323
145.6346801999112
138.908763711091
121.4588127641355
98.31244046031642
103.9489368520167
117.3638816535808
126.5676167614884
136.6078167485718
103.1376434924098
109.2148619874697
113.4275807939486
123.6649492386105
100.8367371949818
101.4842859056896
100.68131109096
107.3274328760236
97.84658153481382
95.22410112860068
89.17510296005506
88.30751795509624
95.4683750233587
89.327566492627
78.72371400756099
66.39563809775183
91.68570781558898
83.96083214577408
69.93162373037407
43.06376380083894
88.80546998213242
81.54220862566505
63.23952659182378
26.3939332618154
86.35650238383215
80.4617662626474
58.99097604743051
14.84813870662529
15.6055821617997
60.56905102518748
79.58678578396227
84.17250675882605
24.76309749652075
61.36490890545625
78.99417674251825
82.70511672041502
27.33964967871049
61.0451454804975
78.13598636089118
81.713848237882
25.83944777404515
60.43849219514157
77.52978711637638
81.17537223548217
31.26906859395367
63.06648376298692
77.20208370133891
80.23975981003316
36.95812970177151
65.60883177794817
77.11656300086705
79.68640305947815
43.59638046835236
68.84967957218463
77.31447879516507
79.66585191227927
51.42001159298898
71.09836926820621
77.69927589522406
79.739144192582
53.28221454974781
58.94012314802907
73.28913128139442
79.26092305893364
51.9366015703838
60.14526159766424
73.51425820623273
79.25270145025725
49.49666378581961
61.86257272102397
74.01483594499375
79.25460100568971
47.17461701536919
63.82098681407799
74.73202158198565
79.31311591691228
51.42001159299916
71.09836926815045
77.6992758951876
79.73914419225603
43.59638046842415
68.84967957185167
77.31447879500224
79.66585191169831
36.95812970178857
65.60883177777863
77.11656300046518
79.68640305899824
31.26906859400212
63.06648376266698
77.20208370121664
80.2397598097873
84.17250675903672
79.5867857840512
60.5690510251419
15.6055821615267
82.70511672034866
78.99417674249055
61.36490890534727
24.76309749624023
81.71384823795324
78.13598636104049
61.04514548006586
27.33964967865694
81.17537223556651
77.5297871166446
60.43849219502746
25.83944777402183
14.84813870668416
58.99097604737949
80.46176626267855
86.35650238395682
26.393933261698
63.23952659183967
81.54220862577716
88.805469982093
43.06376380074453
69.93162373068951
83.96083214583379
91.68570781589356
66.39563809789483
78.72371400738092
89.32756649222128
95.46837502358032
103.9489368523499
117.3638816542356
126.5676167619979
136.6078167485013
103.1376434922874
109.214861987315
113.4275807942273
123.6649492386353
100.8367371945665
101.4842859055696
100.6813110909799
107.3274328760801
97.84658153471877
95.22410112836883
89.17510295987982
88.30751795528143
145.6346801998837
138.908763711139
121.4588127645027
98.31244046112239
153.3431112700835
148.9208907926634
120.1256280419325
91.94276858454698
160.7383475683704
151.1909469249775
111.8298934258412
86.8402510916513
167.7074086485608
149.9507606854402
102.2398093174114
83.66781065379126
81.37296017821593
83.39322889569179
102.7713552915784
175.0765519505937
80.87270417421283
84.75159108878401
113.7342205808732
174.2794215935934
81.08512013534146
87.9015145792185
128.3725836606106
176.137260661905
81.89138376717531
93.58557885610089
142.2709120871211
173.4127660895243
81.40187312805705
81.4945732276425
81.74666980277151
81.76637757003866
82.6701926921148
82.18751405620178
82.36950589550483
82.52051043148258
93.0576029863834
85.26204360591591
83.86378171692378
84.14365878175785
158.3476314077467
120.5571247574944
87.74229250795867
82.08344341740218
81.64005323873197
82.57335510480665
84.61630521280919
82.07913020848903
81.43362735970202
82.56761460610491
85.29455136981801
82.50698595639477
81.15708963410474
82.480819475334
85.94968620896589
82.89853964194647
80.8777578599155
82.31286336480808
86.44907164641864
83.58709698426691
80.0790886198775
80.63880099068133
85.69175283045466
90.98665942878746
80.19128858434546
81.12354325775186
86.37142293061871
87.50957229359153
80.36116009501943
81.63900733311203
86.77397701790395
85.83751242233903
80.59966004878578
82.02323976243903
86.80860056132542
84.74258379341811
97.50850199735046
83.76513033547894
80.22875731989194
80.02228104117607
98.27350023174171
82.71482396531636
80.10847751460479
80.00718969724693
97.95089463682154
81.90766867635008
80.05407622504568
80.0019027150388
96.38508849454497
81.27049914845375
80.01262423516124
80.00023343518532
95.23498846341623
80.53778884943436
80.00134650044183
80.00009435600761
94.00067293056676
80.38548915913765
80.00091100083135
80.00000611632308
91.39560751799908
80.23457445626082
80.00014606513402
80.0000000276608
88.34437582719144
80.14459863483339
80.0000379965267
79.99999994537085
80.00000000002807
80.00000016396199
80.01345672558119
81.88034832293368
80.00000000026193
80.00000048100623
80.01669054167587
82.76389799059291
80.00000000110963
80.00000187755403
80.03089509428936
83.82258930378953
80.00000001233936
80.00000824563381
80.06380961745928
85.40755734983718
83.52399131765873
85.09528008398105
87.64368912628152
92.78683334667791
85.09528008427004
87.15060534122989
90.99717672727837
98.69103942075616
87.64368912642173
90.99717672724637
97.31194373197417
106.8208057728151
92.78683334681745
98.69103942045523
106.8208057732151
117.1819660260878
127.9924050575784
119.0251773832393
115.1013352073189
106.8655706853305
126.2796893266312
123.6456325665651
123.6040545336599
119.5301034028302
126.3198265798256
125.4943277208791
125.0506670225199
123.6401265689463
123.737353086952
123.3302694536692
123.2434672401384
122.3928722748667
119.6767933650484
117.8559417810245
114.2518158319975
109.3401039902541
119.9429125659093
118.0398074353559
114.3867960632371
109.8050873544346
120.2785988419874
118.2215777062331
114.3689923571479
110.2398982172962
120.4533784998773
118.1133160041562
114.520773130279
108.5601465138618
82.8305018367445
71.90503583485437
70.60491555107735
70.98547756958368
75.82086885706308
69.03043303133572
69.65706347848118
70.38172249375528
69.99731342551109
68.89583929957487
70.22943301293891
70.92988032073217
60.73660836747985
66.59796706425301
69.23780997602924
70.19842248234569
70.93006563443083
71.29234531530997
72.10772272942623
73.05114652329924
70.4727501252642
70.85093935801555
71.73553172825507
72.92902872580252
70.9044950046877
71.13421672766286
71.8725117972955
72.80675689719432
70.29690578604804
70.6180789241575
71.55368424314132
72.84656074438746
78.67361559249115
114.0349432107061
165.0705126290992
181.4274545766206
81.36341875529416
121.5215926137159
162.5392189002951
173.2945879132238
83.49448516984349
125.2963447069105
161.3139212406428
171.9958565569213
84.86367070365995
130.7123051108522
161.6592395864225
171.9729445672203
218.1625939706309
209.3375372124698
201.7906203165394
190.5375422367601
219.3305193057766
212.1165674730489
203.9476758275489
192.3780875942135
218.3263417887755
213.6472222464419
205.0481399883563
193.4987864185017
213.2095778473578
215.5721451981029
206.9710471827655
195.2368195537152
178.1484057533925
167.8956160697855
158.2746308921232
153.3866645376238
180.1467344735595
169.2800293594226
158.9647534447624
153.7600029133097
181.2952353959329
169.4890700582768
159.5125095768542
153.725290542925
183.7015601341128
170.9142902866988
161.1739269597201
154.8235059089295
148.5697835762468
140.6582019283816
126.7741753819243
105.8850744588286
149.2635898138933
142.1818819657408
128.8939449115093
114.3599940711582
149.2079380994533
142.6097617465838
130.6897924969598
119.6674716802531
150.3700898430055
144.9549115577821
134.0436987049924
134.5834639191169
64.62302808463579
16.54899403032367
2.690614617319042
1.283622251252787
49.95163271022585
10.39446677140829
2.242191612044476
1.464414918996283
34.73868303620098
6.571949816278815
1.96342904354308
1.620811107906404
19.55113730926074
3.061000402262074
1.726198406195541
1.813267137911846
1.929261612502312
4.153511069045175
6.78575475611736
10.67158734885942
2.736359934077254
5.08788915420582
7.800711867102457
11.94482697144512
3.199563812431975
5.472984625891492
8.646004681929714
12.6469565764186
3.753869431621441
6.199473884740573
10.09295578270589
13.79309556393158
12.51725969115562
18.94027897340049
26.03303898557037
34.74105886792319
12.12981533717158
17.87731434594055
24.72001117612315
33.23099347276623
12.44052407673071
16.35108294689109
22.87552185850203
32.23957268739285
11.69547869328679
14.46077898211839
19.06070555146028
30.282141132033
35.0338537024177
33.20772475111347
32.54788821279573
33.17745542625005
31.86522997158306
31.78646448492005
32.24761064931305
32.35378123641935
31.01256310811727
32.65717524559238
32.98670954400664
33.02247885937599
29.23684643769233
31.45586636681966
31.77609401196863
32.5025031131027
32.92043120331223
33.23135290080728
33.49134860233617
33.61789487763248
32.97862189124168
32.93621403033255
32.84472602122901
32.95091639411248
32.92856901895924
33.39767792367121
33.83631144203332
34.09495068096709
34.75149822004551
35.80222596944346
36.54012555931406
36.54219749153176
33.61789487763431
32.95091639410301
34.09495068098019
36.54219749153629
33.49134860234987
32.84472602121984
33.83631144203942
36.54012555932795
33.23135290078823
32.93621403035134
33.39767792372012
35.80222596947625
32.92043120336909
32.97862189123037
32.92856901898934
34.7514982200811
33.17745542635807
32.54788821282232
33.20772475117653
35.0338537024564
32.35378123644198
32.24761064936119
31.78646448496657
31.86522997162921
33.02247885942705
32.98670954409072
32.65717524563449
31.01256310817427
32.50250311312038
31.77609401199749
31.45586636686383
29.23684643774302
30.28214113212463
19.0607055515864
14.46077898221955
11.69547869337252
32.23957268747072
22.87552185857799
16.35108294699788
12.44052407685406
33.2309934728443
24.72001117623206
17.87731434605414
12.12981533727251
34.74105886798582
26.03303898568105
18.94027897348325
12.51725969130427
10.67158734891987
6.785754756145431
4.153511069007482
1.929261612531775
11.94482697150258
7.800711867149015
5.087889154194873
2.7363599340814
12.64695657648246
8.646004681995553
5.472984625886986
3.199563812428275
13.79309556399475
10.09295578275399
6.199473884756454
3.753869431619796
1.283622251291341
2.690614617282002
16.54899403020021
64.62302808462242
1.464414919013632
2.242191612030422
10.39446677134543
49.9516327102056
1.62081110790696
1.963429043532347
6.571949816277674
34.73868303625227
1.813267137908458
1.726198406184082
3.061000402262249
19.55113730926879
105.8850744588866
126.7741753819015
140.6582019281243
148.5697835762909
114.3599940710301
128.8939449112946
142.1818819656417
149.263589813628
119.6674716802591
130.689792496802
142.6097617467416
149.2079380994057
134.5834639192383
134.0436987047314
144.9549115579363
150.3700898428546
153.3866645375617
158.2746308918556
167.8956160695668
178.1484057527635
153.7600029132252
158.964753444744
169.2800293585704
180.1467344728586
153.7252905431292
159.5125095764911
169.4890700575513
181.295235395359
154.8235059087926
161.1739269595611
170.9142902863065
183.7015601336505
190.5375422363302
201.7906203162256
209.3375372121951
218.162593970719
192.3780875939586
203.9476758273124
212.1165674726792
219.3305193058294
193.4987864183626
205.0481399880811
213.6472222462102
218.3263417887144
195.2368195536179
206.9710471826164
215.5721451975864
213.2095778476227
181.4274545766225
165.0705126288399
114.0349432107697
78.6736155927735
173.2945879131397
162.5392189001214
121.5215926137562
81.36341875559297
171.9958565568312
161.3139212404953
125.2963447069005
83.494485170156
171.9729445669116
161.6592395862792
130.7123051108383
84.86367070398305
73.05114652352121
72.1077227291548
71.29234531479548
70.93006563405902
72.92902872605811
71.73553172816008
70.85093935748951
70.47275012504268
72.80675689747366
71.87251179714208
71.13421672715634
70.90449500446657
72.84656074466227
71.55368424291362
70.61807892363267
70.29690578567876
70.98547756913983
70.60491555073365
71.90503583498223
82.83050183688246
70.38172249332584
69.65706347806406
69.03043303155559
75.82086885715003
70.92988032030406
70.2294330125072
68.89583929983016
69.99731342556055
70.19842248191014
69.23780997551522
66.59796706449377
60.73660836755998
109.340103990288
114.251815832018
117.8559417813305
119.6767933649246
109.8050873544613
114.3867960634918
118.0398074355267
119.9429125656666
110.2398982172834
114.3689923571283
118.2215777062815
120.2785988418056
108.5601465138382
114.5207731305439
118.1133160044686
120.4533784997178
122.3928722742673
123.6401265679617
119.530103402079
106.8655706853079
123.2434672392704
125.0506670216344
123.6040545323963
115.1013352068303
123.3302694529856
125.4943277198217
123.6456325650974
119.0251773821153
123.7373530862138
126.3198265788924
126.2796893247369
127.9924050554345
54.09191320753101
71.27153870230801
77.56391305938307
79.75944198321069
50.81856555103295
69.8946873884736
76.93569669435242
79.66603801967003
48.22201566826963
68.2388664127614
76.32177107754319
79.54989898684057
46.39899188081134
65.93400548640632
75.50438867332286
79.42096484363329
79.26092305883542
73.28913128141713
58.94012314800717
53.28221454984153
79.25270145011612
73.51425820623319
60.14526159762359
51.93660157041156
79.25460100564771
74.01483594510337
61.86257272094256
49.49666378590114
79.31311591682122
74.73202158193676
63.82098681401765
47.17461701544407
79.42096484341994
79.54989898674746
79.66603801950161
79.7594419829277
75.50438867307365
76.32177107743057
76.93569669394164
77.56391305911416
65.9340054864961
68.23886641268925
69.89468738861635
71.27153870249506
46.39899188080015
48.22201566820717
50.8185655510308
54.09191320759758
)
;

boundaryField
{
    back
    {
        type            empty;
    }
    inlet
    {
        type            zeroGradient;
    }
    front
    {
        type            empty;
    }
    top
    {
        type            zeroGradient;
    }
    outlet
    {
        type            fixedValue;
        value           uniform 80;
    }
    bottom
    {
        type            zeroGradient;
    }
    wall
    {
        type            zeroGradient;
    }
}


// ************************************************************************* //
