/*--------------------------------*- C++ -*----------------------------------*\
  =========                 |
  \\      /  F ield         | OpenFOAM: The Open Source CFD Toolbox
   \\    /   O peration     | Website:  https://openfoam.org
    \\  /    A nd           | Version:  11
     \\/     M anipulation  |
\*---------------------------------------------------------------------------*/
FoamFile
{
    format      ascii;
    class       volScalarField;
    location    "0.35923595";
    object      T;
}
// * * * * * * * * * * * * * * * * * * * * * * * * * * * * * * * * * * * * * //

dimensions      [0 0 0 1 0 0 0];

internalField   nonuniform List<scalar> 
880
(
500.0000000000027
500.000000292371
500.0240605691362
503.3407941743508
500.0000000004407
500.0000008570672
500.0298642542149
504.8871228027874
500.0000000016358
500.0000033381324
500.0553413209243
506.7156400114662
500.0000000211684
500.0000146205457
500.1147614428623
509.428387042142
499.9999999006574
500.000000075423
500.0000101660856
500.0001636967991
500.0000671574281
500.0002570891357
500.0016144243901
500.0023566051728
500.2633622782458
500.4346996781582
500.7186523191358
500.960755920669
514.9178099433637
521.1125352446639
526.3742430542896
529.029169949211
500.0004089510436
500.0033846794583
500.0128250805272
500.0397779564987
500.022791401484
500.0985658756153
500.2005072899987
500.4220193078498
502.4155740714468
503.6983842802829
505.2861409916184
507.2307064374052
531.2572849470249
533.8983791428439
534.3925707534269
533.1640088677
522.8401780296251
517.6388961972003
515.4439818300012
513.9695469638609
511.0474974942074
512.6641625933487
513.5779290063194
513.7075484552076
501.1772339247509
502.0603018739043
503.0083077501351
503.76656989875
500.1411460178848
500.3405977147792
500.6412531429088
501.0639159340639
501.5574385237048
502.0498864727547
502.5355933320508
502.88723000877
504.3928217523487
504.7489974027577
504.9504562923235
504.9005640247471
513.0678849305039
512.1692246359398
510.9866126984371
509.7491159513549
512.2219222256407
511.0323409432584
510.2808466095718
509.5129964877187
508.939998666352
508.8784199106346
504.7597676361005
503.0952891893417
519.1985943948325
508.0402756633898
504.386021955063
503.0560557781448
571.3181780475875
510.4333186354139
503.9291870042961
502.6034114285202
620.3436391436331
523.8955785313001
504.780489792207
502.4448673503239
502.3965152555421
506.0673893393088
539.6771854868739
637.4091638355785
501.5158374553911
508.5902805566884
556.302680561811
635.1891069358588
501.8918166184284
514.4420901053837
576.6102287538341
636.1937726160622
503.3245882124164
524.8672048766624
594.747644590449
633.4378136511435
628.3168492725947
604.8051987218872
539.815390792959
506.4863971272534
621.8131375445474
607.45439642298
554.9977468926579
512.1638619866948
614.4987549261446
605.2839390722575
566.9944776565628
521.1589192873491
606.6428577737888
594.2587991713556
569.0865861483053
532.0893300438994
541.2918567049677
563.5992925130994
579.7592537147003
597.1536459865019
539.8326093211259
552.0558617894034
562.8277989444351
582.2094080171229
535.835066376658
540.32139968692
544.5106341330187
560.5778636655103
530.637021124729
529.8355218941675
525.3123131091413
530.4063078510818
526.7521864907314
520.4504491734684
508.4952662728361
495.5317247744861
520.5910141378682
511.2779541916751
491.9682616032191
459.8351353567659
515.7628849052603
506.0172283785352
477.930519982757
425.1202864272407
511.5881524255899
504.5831616155739
477.6784912057396
399.8641241790948
410.5418602622347
486.826533347606
503.2609255723629
507.7683386159465
477.9407619824958
493.0372281467428
502.4041468633613
505.1697611792505
517.2614987198261
495.7346887996931
500.8734909668853
503.3598420803105
530.172620178787
500.4062334102841
500.2272661287462
502.2904675375933
539.0029442100124
504.3270887547488
498.9655257203206
500.3929215086778
533.7936576039077
504.2973852964241
497.6634646886002
499.221906017655
525.7947485454154
503.4849084493105
497.2753810499343
499.1942486740385
517.7066602161242
499.1154735582656
497.079412484702
499.4039100666492
479.7734128747637
469.4022894292485
488.9355401991851
498.6805706116377
474.2555214403852
471.2942556108775
489.4246815750502
498.6804109226001
465.2301522545045
473.4183040397469
490.3269758107468
498.694580257075
459.5022126556437
476.2501906242384
491.3791213544905
498.7839205994412
517.7066602161829
499.115473557897
497.0794124850196
499.4039100663898
525.7947485455001
503.4849084486515
497.2753810498779
499.194248673166
533.7936576039473
504.2973852957938
497.6634646874466
499.2219060167697
539.0029442101051
504.3270887538739
498.9655257201084
500.3929215081601
507.7683386161752
503.2609255726489
486.8265333478139
410.5418602612719
505.1697611791243
502.4041468634081
493.0372281472039
477.9407619815186
503.3598420803458
500.8734909670741
495.7346887988525
517.2614987196752
502.2904675375114
500.2272661291764
500.4062334096784
530.1726201791294
399.8641241812779
477.6784912057272
504.5831616157033
511.5881524257621
425.1202864271773
477.9305199827612
506.0172283789429
515.7628849051838
459.8351353568281
491.9682616038801
511.2779541916881
520.5910141380987
495.5317247749456
508.4952662725557
520.4504491728673
526.7521864908427
541.2918567050492
563.5992925137047
579.7592537153441
597.1536459869847
539.8326093206703
552.0558617890724
562.8277989446517
582.2094080177199
535.8350663759095
540.321399686639
544.5106341329758
560.5778636658611
530.6370211244911
529.8355218937326
525.3123131088535
530.4063078515221
606.6428577741584
594.2587991718004
569.0865861485953
532.0893300448433
614.4987549266745
605.2839390727005
566.9944776566668
521.1589192872829
621.8131375450732
607.454396423375
554.9977468923374
512.1638619867442
628.3168492731155
604.8051987222381
539.8153907933969
506.4863971271453
502.3965152553986
506.0673893392643
539.6771854867463
637.4091638356736
501.5158374561434
508.5902805570718
556.3026805619098
635.1891069360768
501.8918166194488
514.4420901064442
576.6102287542668
636.1937726160122
503.3245882124255
524.867204876516
594.7476445910373
633.4378136513777
502.4448673501649
502.603411428341
503.0560557787091
503.09528918949
504.780489791496
503.9291870039558
504.3860219551327
504.7597676359459
523.8955785305593
510.4333186353702
508.040275662861
508.878419910497
620.3436391435146
571.3181780471873
519.1985943949651
508.9399986662224
502.88723000928
504.9005640250841
509.7491159517295
509.512996488072
502.5355933318589
504.9504562926836
510.9866126986953
510.2808466097666
502.0498864727559
504.7489974029684
512.1692246359613
511.0323409426493
501.5574385232788
504.3928217521491
513.0678849307523
512.2219222258075
500.1411460173759
501.1772339244319
511.0474974946538
522.8401780299951
500.3405977141809
502.0603018734716
512.6641625938921
517.6388961972408
500.6412531433499
503.0083077497295
513.5779290067309
515.4439818291808
501.0639159336324
503.766569898686
513.7075484554795
513.969546963408
533.1640088677323
507.2307064376019
500.4220193077442
500.0397779568706
534.3925707535348
505.2861409917766
500.2005072897457
500.0128250803841
533.8983791432356
503.6983842801682
500.0985658743951
500.0033846789931
531.2572849472323
502.4155740711272
500.022791401104
500.0004089515958
529.0291699489804
500.9607559209933
500.002356605391
500.0001636975404
526.3742430538022
500.7186523191724
500.0016144241106
500.0000101665719
521.1125352440503
500.4346996781116
500.0002570888215
500.0000000750825
514.9178099428656
500.2633622780968
500.0000671569164
499.999999901189
500.0000000001753
500.0000002925185
500.0240605690659
503.3407941741229
500.0000000005271
500.0000008567644
500.0298642542426
504.8871228027706
500.0000000018922
500.0000033379117
500.0553413210019
506.715640011962
500.0000000219067
500.0000146203847
500.1147614429511
509.4283870424271
506.2254158792426
508.9278387313747
513.2491680411727
521.8955153781777
508.9278387318331
512.3867266344366
518.755497269701
531.3320368069076
513.2491680414589
518.7554972697418
528.8805480815006
544.0767885316268
521.8955153782858
531.3320368067485
544.0767885322016
560.259490906245
577.2416065240318
564.2359133082765
557.3544311034659
544.9498239687915
575.4561103696175
571.5456143126934
570.3314163245312
564.6288284952983
575.3921635014505
574.3217322129668
573.7613580955029
572.0573277526996
571.9799501293869
571.5450527060264
571.6839637646286
570.9796748412666
567.8988487107638
565.5535359790445
560.4612843615587
553.2864690628356
567.5583218562978
565.1532443959793
560.2395010953962
553.9644465194494
567.5747203455762
564.9924958267062
559.9824135778617
554.5583797377626
567.6370530897282
564.7358925434612
560.1859893029867
550.9724961899424
512.3813801912482
492.8099090554995
489.9499632278751
490.4503309849153
501.8264878293216
488.7084475135172
489.9705045285422
491.09678603247
491.579832141297
488.877815918426
491.5593764629102
492.8374226575833
469.926710246621
484.1233659736091
489.9013330271613
491.5987731765674
490.7931985308246
491.8105172214869
493.3327693832033
494.8470207014414
491.0039231420996
491.4808278562339
492.8627381942179
494.8616190642126
492.3164562810818
492.3386494118587
493.2673461663251
494.7357474703498
491.2483248426787
491.4195224758998
492.7258714628783
494.8404309852341
505.0242398239299
567.6795185149126
639.3617184391385
664.5432492460633
510.9448826889511
581.1658257187212
642.0078373390078
660.2509648153932
516.4241163160234
589.4968937125009
641.9779027774856
660.94932833531
520.2332784071417
597.7646938015221
642.1824998757879
661.3623104433441
694.3007396911527
681.4452855497294
670.1399923676577
656.8751470542334
702.7508741765513
690.0068396260393
676.8982708036245
662.5493616776705
708.7285355684322
697.471873702587
683.0150580526152
668.0407042365014
706.6523070781267
701.2939569820937
687.1940898158531
671.8351950318445
643.6162118685927
633.0271651990205
623.2182757037465
618.9683247991625
648.7147077224611
637.1078981720784
625.9496884408261
621.0677497327686
653.8781318512421
640.6182500727548
629.5061497760862
623.1776994172365
658.2968059575384
643.6925870612674
632.9968892796647
625.5984653256545
615.0673995752029
607.6462820241451
590.9806004565381
565.0079985297467
616.8448217896978
609.2347773832516
593.7784362010503
592.6504935974631
617.83895883037
610.1545223331237
602.7703008971903
620.4156335037742
619.7334256389654
614.005697356532
616.3504868587947
603.9811744021055
522.5290095112889
460.1974502594603
422.6664746792442
426.5639085324044
512.0671786905177
421.9834051422705
305.5282858907581
252.9706071304502
468.73183123118
368.1012076846869
252.1783782575033
231.8540558533264
368.0076815534796
282.5859448640137
227.8297933906276
239.5912884317239
376.1221898953703
403.9275597023671
471.0878339162501
522.924515773825
306.4931923087075
380.3613434592307
441.8189663045796
491.7073063776144
291.667516555607
350.9022718741401
404.4012536968434
445.1309006780257
298.9378102679241
351.4328416241974
402.1233722063386
431.1497726699106
487.0603951505977
510.3455777783643
509.2793481054917
509.686757035498
435.7731838863729
473.9286827939579
492.6747951965215
510.5669689155644
407.3530167389968
432.9142096966405
470.5545290456568
514.1741939852915
392.4920379626287
408.2738844631139
445.0625644585518
512.9339807632118
491.8259803008727
470.613220691321
459.392543358716
459.703071211739
495.1781905756548
486.021871600936
482.0170548928222
475.8952447796678
504.2369787728268
507.4083803002603
501.6103022865315
488.6177075106554
503.601471622917
508.6045735817561
498.7249528855284
484.0920676492983
465.9312209103286
450.6273421214069
442.2372563015231
439.8955438328184
471.5290905978616
455.6886560949977
444.420281991791
441.0564333490356
469.7954136617042
461.2957764131264
452.6150233770811
448.9985717838864
462.8006192152637
460.2204682271046
455.4797475281944
452.3450872445729
439.8955438327826
441.0564333490061
448.998571783902
452.3450872446649
442.2372563013525
444.4202819916381
452.6150233770783
455.4797475284511
450.6273421211302
455.6886560947161
461.29577641303
460.2204682272928
465.9312209099076
471.5290905976656
469.7954136616291
462.8006192154147
459.7030712118684
459.3925433587467
470.6132206916292
491.8259803011085
475.8952447797005
482.0170548929152
486.0218716012165
495.1781905758821
488.6177075104858
501.6103022864015
507.4083803003114
504.2369787728921
484.0920676490816
498.7249528854387
508.604573581694
503.6014716228844
512.933980763306
445.0625644589735
408.2738844637256
392.4920379632367
514.1741939853964
470.554529046098
432.9142096972312
407.3530167396953
510.5669689157348
492.6747951968267
473.9286827945029
435.7731838872625
509.6867570356356
509.2793481056825
510.3455777788527
487.060395151272
522.9245157736293
471.0878339161881
403.9275597008513
376.1221899043359
491.707306377606
441.8189663048267
380.3613434585749
306.4931923090276
445.1309006783216
404.4012536974238
350.9022718738784
291.6675165553995
431.1497726702981
402.1233722068884
351.4328416245029
298.9378102678928
426.5639085541152
422.6664746811493
460.1974502594796
522.5290095117055
252.9706071337773
305.5282858906895
421.9834051420262
512.0671786907926
231.8540558534915
252.1783782571788
368.1012076853016
468.7318312318589
239.5912884319327
227.8297933901128
282.5859448646185
368.0076815539972
565.0079985301164
590.9806004569417
607.6462820246702
615.0673995755232
592.650493597801
593.7784362012203
609.2347773835022
616.844821790149
620.4156335040775
602.7703008972036
610.154522332977
617.8389588305929
603.9811744028817
616.3504868587456
614.0056973563244
619.7334256392259
618.9683247997532
623.2182757041586
633.0271651988619
643.6162118686095
621.0677497332871
625.9496884408669
637.1078981717828
648.714707722179
623.1776994174415
629.5061497762676
640.6182500723529
653.8781318509805
625.5984653260426
632.9968892798813
643.6925870611522
658.2968059571631
656.875147054061
670.1399923672942
681.4452855493956
694.3007396909518
662.5493616773321
676.8982708036049
690.0068396259187
702.7508741761901
668.040704236174
683.0150580523388
697.4718737020173
708.7285355684137
671.8351950315329
687.1940898156706
701.2939569819865
706.6523070776271
664.5432492460533
639.3617184388786
567.6795185148754
505.0242398243919
660.2509648152488
642.0078373387236
581.1658257186236
510.9448826895116
660.9493283350781
641.9779027771483
589.4968937122991
516.4241163165935
661.3623104435046
642.1824998754525
597.7646938012991
520.2332784077049
494.8470207020932
493.3327693831104
491.8105172207563
490.7931985304202
494.861619064859
492.8627381940794
491.4808278552657
491.0039231416847
494.7357474709942
493.2673461659944
492.3386494108679
492.316456280552
494.8404309858703
492.725871462509
491.4195224748433
491.2483248419161
490.450330984127
489.9499632272512
492.8099090558795
512.38138019162
491.0967860317172
489.9705045276955
488.7084475140412
501.826487829611
492.8374226568104
491.5593764619396
488.8778159188796
491.5798321415093
491.5987731757623
489.9013330259981
484.1233659739834
469.9267102468423
553.2864690630086
560.4612843618065
565.5535359796935
567.898848710629
553.9644465196437
560.2395010955536
565.1532443965635
567.5583218561045
554.5583797376107
559.9824135778956
564.9924958270879
567.5747203452803
550.972496189964
560.1859893030653
564.7358925436578
567.6370530894987
570.9796748403508
572.0573277515946
564.6288284943747
544.949823968911
571.6839637636486
573.761358094002
570.3314163228395
557.3544311029639
571.5450527049403
574.3217322112205
571.5456143098777
564.235913306404
571.9799501284582
575.392163499582
575.456110366184
577.2416065203647
505.1313807384027
497.2537876109222
496.8135899858488
499.4842327715004
485.4160136569517
492.0361493668943
495.3926741156094
499.3454159092742
470.3698833245034
486.3989707840128
493.9791624859054
499.1480508733583
460.1372938485789
480.4285136290769
492.4955687008317
498.9410898076672
498.6805706112335
488.9355401992069
469.402289429187
479.7734128748505
498.6804109222326
489.4246815751849
471.294255610755
474.2555214407377
498.6945802570651
490.3269758111603
473.4183040394751
465.2301522548086
498.7839205994752
491.3791213546796
476.2501906240267
459.5022126557817
498.9410898074426
499.1480508732462
499.3454159094528
499.4842327716024
492.4955687005749
493.9791624857118
495.3926741150884
496.8135899857637
480.4285136292556
486.3989707842646
492.0361493674463
497.2537876113545
460.1372938484021
470.3698833242526
485.4160136569618
505.1313807384994
)
;

boundaryField
{
    back
    {
        type            empty;
    }
    inlet
    {
        type            zeroGradient;
    }
    front
    {
        type            empty;
    }
    top
    {
        type            zeroGradient;
    }
    outlet
    {
        type            fixedValue;
        value           uniform 500;
    }
    bottom
    {
        type            zeroGradient;
    }
    wall
    {
        type            zeroGradient;
    }
}


// ************************************************************************* //
