/*--------------------------------*- C++ -*----------------------------------*\
  =========                 |
  \\      /  F ield         | OpenFOAM: The Open Source CFD Toolbox
   \\    /   O peration     | Website:  https://openfoam.org
    \\  /    A nd           | Version:  11
     \\/     M anipulation  |
\*---------------------------------------------------------------------------*/
FoamFile
{
    format      ascii;
    class       volScalarField;
    location    "0.123";
    object      Ma;
}
// * * * * * * * * * * * * * * * * * * * * * * * * * * * * * * * * * * * * * //

dimensions      [0 0 0 0 0 0 0];

internalField   nonuniform List<scalar> 
880
(
1.443353270571932
1.443353270571932
1.44335327057455
1.443351690410141
1.443353270571932
1.443353270571932
1.443353270576104
1.443340384456643
1.443353270571932
1.443353270571933
1.44335327065946
1.443329407955999
1.443353270571932
1.443353270571932
1.443353273887319
1.443212785760488
1.443353270571932
1.443353270571932
1.443353270571933
1.443353270530536
1.443353270571932
1.443353270571932
1.443353270571935
1.443353270571932
1.443353672498058
1.443351680785447
1.443270468312472
1.443704061938274
1.431991835473233
1.402903501809177
1.385573827926486
1.380787353426017
1.443353231777808
1.443353126709829
1.443352581052748
1.443352762917975
1.443351534139042
1.443348859646291
1.443347160218519
1.443348254480503
1.442328798454906
1.441821585640745
1.441640119543795
1.441426023597289
1.378032983266006
1.371010982685612
1.375195510344984
1.362554076234632
1.390294932067206
1.419944490535702
1.444041946708182
1.457802034225131
1.440228726621935
1.436502060625617
1.438909391822284
1.441889878151554
1.443337906398579
1.443295099444706
1.443263739090823
1.44330139074442
1.443351973194235
1.443350173944436
1.443346041501353
1.443343816834522
1.443344408301829
1.443347312604291
1.44335098625284
1.443352860934493
1.443334156887746
1.443362781925326
1.443366097630346
1.443357309803795
1.443839677665733
1.444810806951497
1.444643099336501
1.44393107008934
1.462152713104849
1.461247596352699
1.457690425683876
1.45275131942462
1.447826710894896
1.44347653057963
1.443353641677134
1.44335324228593
1.444562582836305
1.443364280485128
1.443353288476696
1.443353268482085
1.443488038635721
1.443355844613154
1.443353358941767
1.443353267247564
1.420415870813637
1.443226966861334
1.443355359382386
1.443353648898778
1.443353388035599
1.443354207243333
1.442359343570003
1.256049668842015
1.443353095590744
1.443343144958854
1.438416763319812
1.149325262707437
1.44335243220416
1.443314054302987
1.432624270948605
1.099570845521995
1.443348574790698
1.443287672499166
1.427090492301642
1.085696287785198
1.080691126936276
1.420230260349678
1.443232944559647
1.443347106971947
1.087767556491512
1.415065420744397
1.443203822621051
1.443338775034039
1.089373125406037
1.408185535444461
1.443123160514881
1.443338377162358
1.089805788687692
1.400263478791014
1.443040786606427
1.44332471756042
1.443319240106349
1.442950509519423
1.389436094485423
1.072256055188748
1.443304318895756
1.442653579882857
1.376192112771985
1.093309061895251
1.443286790317991
1.442586421740023
1.382688549554425
1.143652799627597
1.443298880284778
1.442640877799559
1.400173679874287
1.245512118167082
1.443212927070882
1.442777375311109
1.435809712104232
1.431644622275071
1.44310549578911
1.44484274547239
1.459616277806041
1.573722123541096
1.443333796578117
1.444632421921722
1.455146884285265
1.528864829844861
1.44336948280614
1.443438200027855
1.43334622992036
1.331615625383841
1.187703314499787
1.42278928985336
1.443209823226262
1.443360716173136
1.109543931845078
1.413050774552639
1.442831527096679
1.443351053822071
1.084052862020882
1.409831547478068
1.442880541854617
1.443352851124952
1.025931616604667
1.403109903726251
1.442685109135845
1.443351852015714
1.112782629313862
1.416271464142856
1.443027915347607
1.443352584237986
1.237991222370351
1.430184442777264
1.443257391048664
1.443353093909113
1.338010440689986
1.43799432507969
1.443328465176539
1.443353240000503
1.410379238284307
1.442448580748108
1.443356886976723
1.443353273525946
1.353602125052941
1.437719070136529
1.443235066999957
1.443352362591588
1.357908940912392
1.437949829436346
1.443238256289866
1.443352370510521
1.353991642488608
1.437762426031975
1.443240569456139
1.443352378179457
1.349245811997096
1.437938721882893
1.443258438446393
1.443352462588911
1.410379238291164
1.442448580753429
1.443356886986283
1.443353273510908
1.338010440693191
1.437994325085991
1.443328465195554
1.443353239999329
1.237991222368469
1.430184442770145
1.443257391046743
1.443353093908173
1.112782629306039
1.416271464125878
1.44302791534489
1.443352584243391
1.44336071616064
1.443209823213288
1.422789289849447
1.187703314496773
1.443351053804066
1.442831527087435
1.413050774549283
1.109543931841917
1.443352851137551
1.44288054184089
1.409831547479558
1.084052862015174
1.443351852013863
1.442685109130603
1.403109903710305
1.025931616606345
1.331615625393696
1.433346229931995
1.443438200047675
1.443369482819458
1.528864829860583
1.455146884296907
1.444632421935968
1.443333796604867
1.573722123539656
1.459616277818339
1.444842745472739
1.443105495793574
1.431644622273352
1.435809712109809
1.442777375318759
1.443212927038781
1.443319240113634
1.442950509510928
1.389436094480215
1.072256055180827
1.44330431889628
1.44265357986613
1.376192112764756
1.093309061894196
1.443286790297375
1.442586421738109
1.382688549561463
1.143652799627878
1.443298880274762
1.442640877796611
1.40017367987888
1.245512118168571
1.089805788672952
1.400263478782261
1.443040786576371
1.443324717559067
1.089373125393214
1.408185535413365
1.443123160520129
1.443338377157999
1.087767556493352
1.4150654207531
1.443203822594037
1.44333877504102
1.080691126932165
1.420230260370938
1.443232944581459
1.443347106976818
1.443353388024966
1.443354207234409
1.442359343574293
1.256049668846898
1.443353095597232
1.44334314497055
1.438416763305555
1.149325262720944
1.443352432214559
1.443314054311859
1.432624270947439
1.099570845509491
1.443348574803951
1.443287672473988
1.427090492297687
1.08569628778584
1.443353648898272
1.443353267240904
1.443353268481234
1.443353242287746
1.443355359394364
1.44335335893833
1.443353288463157
1.443353641685999
1.443226966857966
1.443355844609254
1.443364280497058
1.443476530581832
1.420415870813466
1.443488038634349
1.444562582831997
1.447826710896077
1.443352860947552
1.443357309803654
1.443931070075434
1.452751319420304
1.44335098625723
1.443366097634361
1.444643099318762
1.457690425683152
1.443347312592586
1.443362781926036
1.444810806959792
1.461247596354999
1.443344408299724
1.443334156886465
1.443839677657937
1.462152713111291
1.443351973210409
1.443337906410204
1.440228726608523
1.390294932066779
1.443350173961281
1.44329509944802
1.436502060623706
1.419944490543498
1.443346041508845
1.443263739076099
1.438909391825017
1.444041946714743
1.443343816840793
1.443301390732738
1.441889878154089
1.45780203423155
1.362554076232565
1.441426023571696
1.443348254490096
1.443352762925631
1.375195510339474
1.441640119524428
1.44334716022136
1.443352581045382
1.371010982675823
1.441821585667709
1.443348859643113
1.443353126716701
1.378032983265773
1.44232879850285
1.443351534142771
1.44335323177277
1.380787353420668
1.443704061896511
1.443353270571932
1.443353270527027
1.385573827928938
1.443270468348507
1.443353270571932
1.443353270571933
1.402903501804251
1.443351680789579
1.443353270571932
1.443353270571933
1.431991835470354
1.443353672502027
1.443353270571932
1.443353270571934
1.443353270571932
1.443353270571933
1.443353270574094
1.4433516904904
1.443353270571931
1.443353270571932
1.443353270575661
1.443340384526507
1.443353270571932
1.443353270571932
1.443353270658466
1.443329407967588
1.443353270571932
1.443353270571932
1.443353273895786
1.443212785761997
1.443349265602638
1.44333617864801
1.443250800375563
1.441258688247807
1.443336178441004
1.443332132576942
1.443222402411139
1.433822581413591
1.443250800395791
1.44322240242409
1.439244364948483
1.383162403279078
1.441258688277587
1.433822581466533
1.383162403493572
1.199370962534243
1.031736387110377
1.12079269306552
1.275026153209603
1.367446170595616
1.083028489553669
1.105075527096024
1.164981727770114
1.239773513998716
1.125940346564216
1.154809281867229
1.198805310429305
1.249224209105062
1.171533775682455
1.193134112894201
1.226902593158472
1.261973892743621
1.26917945518809
1.27524291743916
1.282526782052311
1.280482099122679
1.255138944759484
1.271692615850904
1.279769159472589
1.307354890605243
1.230614089495851
1.262945615735918
1.27394831091065
1.39361659881864
1.168713111883183
1.184227687120603
1.195713511132069
1.513689648306399
1.406322482359107
1.538584827364514
1.53159481744387
1.505650338435623
1.499240605329672
1.637088071828276
1.591931626579501
1.545309937154096
1.679393749222655
1.737354631227537
1.62955600429854
1.558738368503907
1.27490561432171
1.301003773523208
1.273475200271773
1.277675913628243
1.48792223525772
1.475699663030529
1.466351770179257
1.461742558052898
1.514499364841337
1.494107530446181
1.479490687330445
1.471228890420426
1.525461908973718
1.50481411666664
1.489852847148323
1.478872627967419
1.311013486938964
1.354843645742751
1.394411948915048
1.418637369155775
1.455351044858916
1.448212431594543
1.444127906392875
1.236203687114304
1.46250605084345
1.452338280300354
1.445479047945272
1.080993368256915
1.468355961207576
1.456194019831811
1.445558110142527
0.9275956383334011
1.42850816212922
1.437031550284698
1.435720297407564
0.66198595831134
0.8413879111001
0.8458035992679733
0.8714250881569936
0.9128130697497155
0.7371575588556969
0.8058994779600157
0.8652199022438689
0.9144153600631703
0.6057141343503955
0.7275937558641909
0.8315485336954782
0.9024987241855154
0.3817478336222891
0.538399148207097
0.6779423819558384
0.7931100740920858
0.9413550156693157
0.954721704578367
0.9674553175776529
0.9732820568164773
0.9437520250584279
0.9554101240562078
0.9678206703444372
0.9756873553229278
0.9402050934843705
0.9548234082545644
0.9698088758019286
0.9786252357820405
0.8717510947831014
0.9056363490126138
0.9230151390668667
0.9281526756462388
0.980304127205145
1.007313946006429
1.063207455320294
1.164086744790808
0.9836043888109925
1.008429902845696
1.067334420570364
1.218571056191781
0.9869460507060591
1.004645557592626
1.093150539866632
1.543323544053026
0.9507798351931815
0.9728175339708509
1.108528210437673
2.147789441008605
1.404375647992332
1.726742748037966
0.6796293091745491
0.3862832497202819
1.484489156175928
1.537686333016209
0.4915569751600836
0.1880404637468649
1.533405746128918
1.213500532234566
0.2296509450398794
0.1078204451185718
1.217038532644992
0.7114901493994112
0.01103151760770809
0.03296990230292714
0.2028218864121971
0.09268796564093613
0.03144896062942386
0.1036618012348492
0.1073135062303517
0.08179912948849816
0.117654380077793
0.1910120185534551
0.06295678992500033
0.1166581447884106
0.2004480632912488
0.3066701678839194
0.02773033298251732
0.1161334050673929
0.2789171282924549
0.3408854945193995
0.5259840785382074
0.9871509048767042
1.270714579408365
1.441808970233222
0.2296340753936515
0.7202309041977281
1.090498843170686
1.335129186058671
0.07499731705485764
0.3394601474878744
0.7853229567084782
1.221795230576108
0.1635492255619449
0.1229584196242829
0.5734738785744459
1.353740540804635
1.636533272739378
1.891017993279126
2.537058900228041
2.060231939204461
1.558204711459386
1.888214328824964
2.076883569514627
1.267762292355977
1.530341850027374
2.049423124498046
1.148992418868574
0.5507184852908453
1.334396479246674
1.194047055854499
0.2357323071564834
0.4241407000584613
0.4278254338495063
0.3731441316836559
0.3083724485934173
0.2021919881672553
0.2566169804966185
0.2491680492160213
0.2770769817066441
0.2277482022576899
0.6081593345742047
0.1510795562231163
0.173146633608622
0.2212861236554338
1.235404360533941
0.69241935693428
0.4079542772231176
0.2898041033536009
0.2021919881667756
0.2277482022574731
0.2212861236552416
0.2898041033478295
0.308372448592279
0.2770769817065972
0.173146633607367
0.4079542772188325
0.3731441316834384
0.2491680492144621
0.1510795562207616
0.6924193569309076
0.4278254338493863
0.2566169804952137
0.6081593345725963
1.235404360530909
2.060231939201707
2.537058900234646
1.891017993288514
1.636533272748903
1.267762292354247
2.076883569512785
1.888214328827897
1.558204711465436
0.5507184852909717
1.148992418865096
2.049423124500771
1.530341850029413
0.4241407000590338
0.2357323071570674
1.194047055850603
1.334396479247598
1.35374054080694
0.573473878574572
0.1229584196244513
0.163549225563235
1.221795230578107
0.7853229567075559
0.3394601474828947
0.0749973170538048
1.335129186062224
1.090498843169493
0.7202309041913966
0.2296340753888703
1.441808970238338
1.27071457940592
0.9871509048714235
0.5259840785328151
0.103661801229988
0.03144896062974256
0.09268796563304878
0.2028218864080238
0.1910120185509823
0.1176543800747471
0.08179912949528201
0.1073135062387049
0.3066701678808961
0.2004480632863115
0.1166581447941054
0.06295678993393468
0.3408854945167971
0.2789171282873477
0.1161334050728628
0.0277303329863988
0.3862832497249962
0.6796293091719656
1.726742748039211
1.404375647993809
0.1880404637507842
0.4915569751612924
1.537686333020173
1.484489156182406
0.107820445122562
0.2296509450389721
1.213500532238935
1.533405746135062
0.0329699022986038
0.01103151760982913
0.7114901494083735
1.217038532649603
1.164086744791213
1.063207455317952
1.007313946003852
0.9803041271984648
1.218571056193223
1.067334420569772
1.00842990284353
0.9836043888056004
1.543323544058416
1.093150539868321
1.004645557591045
0.9869460507024282
2.147789441017828
1.108528210443129
0.9728175339773082
0.9507798351984984
0.9732820568051802
0.9674553175754779
0.9547217045842784
0.9413550156612134
0.9756873553152116
0.967820670343046
0.9554101240630444
0.9437520250553176
0.9786252357762019
0.9698088758016983
0.9548234082619557
0.9402050934834759
0.9281526756468945
0.9230151390679711
0.9056363490188108
0.8717510947808796
0.9128130697392858
0.8714250881566137
0.8458035992758749
0.8413879111014866
0.9144153600516863
0.8652199022431566
0.8058994779636934
0.737157558855241
0.902498724175128
0.8315485336948366
0.7275937558627334
0.605714134349236
0.7931100740732367
0.6779423819585814
0.5383991482015503
0.3817478336171722
1.236203687118534
1.444127906419026
1.448212431594189
1.455351044859037
1.080993368259215
1.445479047967804
1.452338280289417
1.462506050843269
0.9275956383373704
1.445558110161194
1.456194019804745
1.468355961210978
0.6619859583229599
1.43572029744272
1.437031550300861
1.428508162100233
1.461742558055675
1.466351770180645
1.475699663033457
1.487922235261493
1.471228890420879
1.47949068733229
1.494107530447309
1.514499364844072
1.478872627966483
1.489852847149678
1.504814116665405
1.525461908977328
1.418637369155449
1.394411948914956
1.354843645739032
1.311013486938035
1.50565033843994
1.531594817451396
1.53858482737267
1.406322482361754
1.545309937161802
1.591931626584327
1.63708807183475
1.499240605333173
1.558738368513155
1.629556004302074
1.737354631234792
1.679393749228272
1.27767591363637
1.273475200273877
1.301003773527339
1.274905614318815
1.280482099129783
1.282526782058196
1.27524291742745
1.269179455167227
1.307354890614287
1.279769159475737
1.271692615842104
1.255138944749616
1.393616598830707
1.273948310915817
1.262945615733799
1.230614089499318
1.51368964832629
1.195713511151307
1.184227687122392
1.16871311186875
1.261973892744892
1.249224209102449
1.239773513991022
1.367446170611532
1.226902593174702
1.198805310435638
1.164981727729315
1.275026153193161
1.193134112909702
1.154809281869918
1.105075527044535
1.120792692926836
1.171533775670055
1.12594034653298
1.083028489518331
1.03173638702838
1.421923111252513
1.441572578395564
1.443335246197211
1.443353203792519
1.423584083808003
1.441574812253702
1.443327221773131
1.443353119236893
1.393553606391974
1.440545941959817
1.443311735688324
1.443352993423267
1.355981302999792
1.438785078233261
1.443287910025277
1.443352744393623
1.443352362584569
1.44323506700121
1.437719070135721
1.353602125031918
1.443352370502328
1.443238256281074
1.437949829449469
1.357908940918017
1.443352378188217
1.44324056944481
1.437762426044402
1.353991642499323
1.443352462613587
1.44325843843402
1.437938721907444
1.349245812009732
1.443352744399771
1.443352993432019
1.443353119267727
1.443353203821254
1.443287910021044
1.443311735689494
1.443327221779365
1.443335246212027
1.438785078237246
1.44054594196577
1.441574812243227
1.441572578408036
1.355981303008812
1.393553606401453
1.423584083811136
1.421923111253494
)
;

boundaryField
{
    back
    {
        type            empty;
    }
    inlet
    {
        type            calculated;
        value           nonuniform List<scalar> 
16
(
1.443353270571932
1.443353270571932
1.443353270571932
1.443353270571932
1.443353270571932
1.443353270571932
1.443353270571932
1.443353270576159
1.443353270574873
1.443353270571932
1.443353270571932
1.443353270571933
1.443353270571932
1.443353270571932
1.443353270571932
1.443353270571932
)
;
    }
    front
    {
        type            empty;
    }
    top
    {
        type            calculated;
        value           uniform 0;
    }
    outlet
    {
        type            calculated;
        value           nonuniform List<scalar> 
16
(
1.443352012413151
1.443352013164748
1.443351988796058
1.443351938145738
1.443353170255759
1.443353056425881
1.443352875441445
1.443352360311493
1.443352012408492
1.443352013158983
1.443351988800914
1.443351938161155
1.443352360314647
1.443352875445199
1.443353056443835
1.443353170273843
)
;
    }
    bottom
    {
        type            calculated;
        value           uniform 0;
    }
    wall
    {
        type            calculated;
        value           uniform 0;
    }
}


// ************************************************************************* //
