/*--------------------------------*- C++ -*----------------------------------*\
  =========                 |
  \\      /  F ield         | OpenFOAM: The Open Source CFD Toolbox
   \\    /   O peration     | Website:  https://openfoam.org
    \\  /    A nd           | Version:  11
     \\/     M anipulation  |
\*---------------------------------------------------------------------------*/
FoamFile
{
    format      ascii;
    class       surfaceScalarField;
    location    "0.123";
    object      phi;
}
// * * * * * * * * * * * * * * * * * * * * * * * * * * * * * * * * * * * * * //

dimensions      [0 3 -1 0 0 0 0];

internalField   nonuniform List<scalar> 
1652
(
2.843686947071611
0.8895636090847481
0
1.954123337988149
0.8895636090834615
-2.220446049250313e-16
1.064559728905446
0.889563609048355
-5.018874205120483e-12
0.8895538279314976
3.884892407768348e-12
0.1749973741213539
2.843686947076741
1.779127218162428
1.954123337998014
1.779127218162188
1.064559728934749
1.779127217913502
1.779072863524916
0.1750109672828206
2.843686947090741
2.668690827246526
1.954123338008367
2.668690827244562
1.064559729211781
2.668690825249937
2.668382730718502
0.1750538487248679
2.843686947092868
3.558254436328659
1.954123338013008
3.558254436324421
1.064559736029924
3.558254392021505
3.556975264607728
0.1751646352123336
4.418652025448567
2.872852967045247
5.279049614570484
2.872852967043177
6.139447203694977
2.872852967042494
2.872852967041872
6.999844793239406
4.418652025437511
2.012455377932159
5.279049614550982
2.012455377929711
6.139447203663355
2.012455377929227
2.012455377926296
6.999844792777098
4.418652070885115
1.152058259957527
5.279051004277597
1.152055876991579
6.138372393738412
1.152165509421969
1.152174289909569
6.99878211720716
4.438817428367053
0.2494132163681553
5.421651929933028
0.112374352756914
6.45063329443976
0.04873747132808937
7.487979274709206
0.03006704986915953
6.94151277685218
0.05833176930249451
6.883178364478074
0.05832970623632572
6.824847758592408
0.05832409103410263
0.05832648209442071
6.766515782450757
6.941521914102565
0.1166468267645276
6.883228300880524
0.1166089115996878
6.824942133957574
0.1165312136146047
0.1165315340952729
6.766651833969574
6.946490244133576
0.1673151122686698
6.896103506657196
0.1636497695564578
6.844401211133999
0.1604967020497293
0.1561434228672761
6.792429236482056
7.555733206519542
0.02231739341400069
7.615969554789721
0.0152684915695756
7.676199933281316
0.01425771161527439
7.735325900518807
-0.0009789177382095726
7.771929617541579
0.04003409603546126
-0.181890677631066
7.655134747423729
0.08248099775429024
-0.05365548407468113
7.530088461111086
0.07553025237118338
-0.01632652889748193
0.0563363000730443
7.405012593786584
-0.008306995723134147
6.810551753945009
0.0003730734923179657
6.846741314746833
0.001277558638106635
6.869606968376972
0.002473164557874163
0.002582981795776207
6.868409163446248
6.766781038138413
1.649494341815494e-05
6.767192954883671
4.75480606311196e-05
6.767905438945619
0.0001119590516132085
0.0001366165480146675
6.768086508882424
6.766516558048482
6.766516748152077
6.766514322534187
6.766508995673925
6.766505109909577
-0.000125417625247648
6.766506887932461
-8.697500487864218e-05
6.76651258659411
-3.659858641613667e-05
-7.12407995717701e-06
6.76651611015662
6.76798725251168
-0.002276780483062568
6.767473578834565
-0.001631745073972013
6.766828562139338
-0.0008098574589398
-0.0001933528128419404
6.766550834498748
6.853080876978167
-0.03985410361381009
6.827745155194851
-0.0276515582006337
6.796849508432508
-0.01858173491749704
-0.009092793209622863
6.773946024931618
7.273692173404943
-0.004916138140154458
7.143998191259111
-0.003810656099151433
7.01905917927387
-0.00394642294822023
6.903422491029896
-0.001327534668672747
0.002245951029826165
6.814648655171121
-0.002375181393906078
1.985378644309144e-05
6.76728828667537
5.503224925762495e-07
6.766518068242744
6.766516613838426
0.0003470963271667293
6.773845305893968
-0.002042031150199353
1.359303579140381e-06
6.766537304282624
4.874320957970468e-08
6.766516077976532
6.766516638785709
3.528556465404176e-06
6.768395309725084
-3.349472472974346e-05
-2.500066914046251e-06
6.766508450232888
-1.440810171171591e-08
6.766514815387754
6.766516643709639
0.001567846030807007
6.851588896221232
-0.1338010106554693
5.998648030414166e-06
6.767086186522361
-1.453089116587591e-06
6.766512168250429
6.766513795185354
0.1555538630793158
6.610961866152075
0.311087004555513
6.610976946798105
0.4578033537474896
6.616541134773388
6.9436558188821
0.1295901433179623
0.1555501822461962
6.455411081422681
0.3109627257797666
6.455443144776291
0.4388815910260341
6.468204920012416
6.876847728529762
0.1488464254152363
0.155534026861882
6.299865327089189
0.3107055661272503
6.300038993927765
0.4149146791665649
6.324164982872458
6.731755226080243
0.09720727828348452
0.1554996426719263
6.14431688162187
0.310222749129596
6.144595576707979
0.3859210176197297
6.182192091896614
6.549687111324904
0.06126590948819155
-0.346721478871201
6.409328499694356
0.01583189931861106
-0.3094965088603596
6.046298065868114
-0.1554581703591159
5.989416671786159
5.988774892067614
-0.3096025813216357
6.279596416043479
0.0059399348020307
-0.3084273818960981
5.90932104751298
-0.1553700951004938
5.833954763102779
5.833230222822583
-0.2682306606627881
6.100424936471945
-0.005617693799877421
-0.3074005247965029
5.76085526060054
-0.1553435806520093
5.678762793332179
5.677688061042963
-0.2248848701443996
5.81321125527854
0.002229467981876287
-0.3057493973320674
5.614273642834626
-0.1551829293823873
5.523515581379465
5.52216127916209
0.1988741662482171
5.322872131734514
0.3914225034329025
5.324238725647255
0.2864894065882058
5.408861371681406
5.460727038877788
0.02953497850479914
0.1985922814562537
5.123633015793629
0.3876757862303559
5.125553695006007
0.2397995241879614
5.210241839812078
5.1253692990945
0.07267586172152884
0.1983097054493179
4.924032560788911
0.385534286031262
4.926012126491591
0.294575578603546
4.993183951815181
4.923571190588917
0.1834561666097483
0.1987644897871265
4.725312717780666
0.3906564269610101
4.728016851828344
0.4116110613070048
4.777043643016263
4.76314454730748
0.3698844128519957
-0.3374728110621887
5.060774881237274
-0.7035507283465119
5.068649830651323
-1.25450081552214
5.156789309800256
4.88362510106217
-1.438758166307197
-0.3382384371847395
5.39597049124453
-0.7065897486191756
5.410924956732684
-1.031180053688875
5.440585826183622
4.394226865306939
-0.4554134622427141
-0.3370929593158098
5.731394966368629
-0.6716959820100075
5.736121676882252
-0.932666619107867
5.712932377976862
3.821174952382776
-0.0615295310378338
-0.3353349413309548
6.066594561861463
-0.6640381063835128
6.064905948910828
-0.7969218954402806
5.90454367306176
3.433004943113374
-0.03731137017259399
0.3504156401109928
3.294778157619078
-0.01229819991261378
0.3412124924754724
5.98755298814006
0.1748814392973878
6.237468887362017
6.241525508638745
0.3274286710499666
3.169843206194695
-0.005230581215153324
0.3398433775354194
6.087061600167837
0.1748770512568194
6.410226804621922
6.416506594527014
0.3342664844734271
3.018378250288633
0.0002365527554841415
0.3409656794059456
6.223273605290421
0.1749236135192783
6.585315122312211
6.591503306717924
0.3167505035455312
2.848302039759711
0.011864245333861
0.340441939967242
6.36662531754806
0.1749259350183581
6.76130798346115
6.766502694014804
-0.1519825304789972
3.409148536523291
0.07778344919677255
-0.007480463801992965
6.557342270509202
-5.598796263228678e-05
6.765093986354217
6.766513258906837
-0.09576137296267961
4.154852237605422
0.1067839602835874
-0.002614017150721404
6.680973365501771
-1.489596386194947e-05
6.766165127983725
6.766515981315526
-0.05954981939109349
4.913835524930699
0.1240893959384034
-0.001018351032754161
6.742779906650176
-4.913587865251756e-06
6.766504606687768
6.766516604572713
-0.03751908176343299
0.1145729104458053
5.593255886230439
-0.0004513487749853162
6.745353527574686
-2.059488169781076e-06
6.766333444367181
6.76651660217942
1.029952013212652
-0.8723839051166173
-0.0189937407893877
-7.583222938478684e-11
1.978920796855576
-0.8683173140076588
-5.076827847005916e-12
2.858204872174961
-0.8747812754166797
3.292477401828364e-11
-0.8749788422968949
-3.410427495964541e-11
1.037527815137219
-1.766761875519414
-0.02163395479557165
1.979065761648157
-1.736613225882983
2.858205259547214
-1.74953930378834
-1.749957562578855
1.036977318104499
-2.591104159406164
-0.03549525123042448
1.979126289750631
-2.60944597321428
2.858204849248934
-2.624368505456835
-2.624936440542153
1.040377669147818
-0.05240559761435796
-3.385667531918048
1.979655801863206
-3.488377774028207
2.858209018366212
-3.499511409684822
-3.499918326927484
-0.03751908176267105
-4.913835524940218
0.114572910444796
5.59325588624211
-0.0004513487842368047
-6.742779906655303
6.74535352758644
-2.059527010489504e-06
-6.766504606708128
6.766333444386305
-6.766516604617965
6.766516602256997
-0.05954981939493653
-4.154852237628898
0.1240893959405795
-0.001018351041180088
-6.680973365523644
-4.913574892517758e-06
-6.766165128007101
-6.766515981288635
-0.09576137298097021
-3.40914853652169
0.10678396028295
-0.002614017170971428
-6.557342270510125
-1.489596486403677e-05
-6.765093986364102
-6.766513258910863
-0.1519825304730815
-2.848302039742311
0.07778344919396156
-0.00748046379132683
-6.366625317530561
-5.59879593986512e-05
-6.761307983444362
-6.76650269401623
-0.1748814392943814
6.241525508661884
-6.066594561916347
-0.3412124924616722
6.237468887390874
-6.06490594896432
-0.3504156401041295
5.987552988104716
-5.904543673002516
3.294778157582845
-3.43300494306883
-0.01229819991278097
-0.1748770512339441
6.416506594546035
-0.3398433775112492
6.410226804647379
-0.3274286710464325
6.087061600162716
3.169843206160659
-0.005230581214685052
-0.1749236135081967
6.591503306726624
-0.3409656793852489
6.585315122319844
-0.3342664844658439
6.223273605282621
3.01837825026794
0.0002365527561567771
-0.1749259350074192
-0.3404419399422564
-0.3167505035345937
0.01186424533249645
0.7969218954428861
-3.821174952344456
-0.03731137017288944
0.6640381064202242
-5.712932377946373
0.3353349413568373
-5.736121676917038
-5.731394966381793
0.9326666191139722
-4.394226865279605
-0.06152953103646619
0.6716959820283182
-5.440585826164527
0.3370929593179675
-5.410924956772349
-5.395970491249046
1.03118005369973
-4.883625101052241
-0.4554134622406429
0.7065897486398799
-5.156789309796923
0.338238437184576
-5.068649830686311
-5.06077488122224
1.254500815535677
-4.763144547305416
-1.438758166311556
0.7035507283635667
-4.777043643019752
0.3374728110653962
-4.7280168518366
-4.725312717759966
0.1988741662531712
5.322872131750614
-5.522161279186819
0.3914225034531942
5.324238725622707
-5.523515581478289
0.2864894066037832
5.408861371663162
-5.614273642748617
5.460727038868541
-5.813211255224187
0.02953497850677511
0.1985922814543569
5.123633015814701
0.3876757862309003
5.125553694994545
0.2397995241995847
5.210241839782838
5.125369299088467
0.07267586172147289
0.1983097054566546
4.924032560885076
0.3855342860490644
4.926012126491038
0.29457557860691
4.99318395180051
4.923571190583601
0.1834561666084501
0.1987644897984883
0.3906564269810699
0.4116110613100957
0.3698844128517385
-0.2248848701069208
-6.100424936420406
0.002229467989182887
-0.3057493973090951
-5.760855260501441
-0.15518292936962
-5.678762793312615
-5.677688061065411
-0.2682306606567108
-6.27959641604712
-0.005617693802623336
-0.3074005247850117
-5.90932104759802
-0.1553435806473292
-5.833954763175366
-5.833230222835256
-0.3096025813415906
-6.409328499721228
0.005939934801911129
-0.3084273818756582
-6.046298065878932
-0.1553700950882468
-5.989416671876659
-5.988774892073449
-0.3467214788425657
-6.549687111331457
0.01583189933127038
-0.3094965088533154
-6.182192091829108
-0.1554581703536725
-6.144595576756028
-6.144316881630029
0.1555538630818045
6.610961866176619
-6.766513795210272
0.3110870045570503
6.610976946823417
-6.766512168243468
0.4578033537557499
6.616541134786206
-6.767086186530238
6.943655818898917
-6.851588896240557
0.1295901433099148
0.1555501822463525
6.455411081411691
0.3109627257791323
6.455443144787253
0.4388815910138891
6.468204920020042
6.876847728547697
0.1488464254279528
0.1555340268665988
6.299865327086322
0.310705566136055
6.300038993922341
0.4149146791784346
6.324164982893727
6.731755226059104
0.09720727827811237
0.1554996426640672
0.3102227491122219
0.3859210176092205
0.0612659094884217
-6.766516643714566
1.453094695014201e-06
-6.766516638788397
1.440823871323715e-08
-6.766516613838841
-4.874340575611313e-08
-5.503192322953154e-07
-6.766516110148233
-6.766514815367239
-5.998645998817054e-06
-6.766516077978079
2.500062915355983e-06
-6.766518068258307
-1.359302332804013e-06
-1.985378338975607e-05
-6.766550834495007
-6.76650845023991
-0.001567846031270415
-6.766537304286383
-3.528554532783446e-06
-6.767288286669645
-0.0003470963261155147
-0.002245951035584448
-6.773946024918757
-6.768395309738719
-0.1338010106535762
-6.773845305875468
-3.349473729408192e-05
-6.814648655166597
-0.002042031148923762
-6.903422491029994
-0.002375181391603143
-7.124083736487208e-06
-6.766512586597343
-0.000193352817862702
-6.76682856213706
-0.009092793210320749
-6.796849508440875
-7.019059179282915
-0.001327534666369201
-3.65985861061624e-05
-6.766506887930425
-0.0008098574598545127
-6.767473578835504
-0.01858173490268478
-6.827745155188199
-7.143998191264325
-0.003946422944955286
-8.697500493004551e-05
-6.76650510991402
-0.001631745073577884
-6.767987252509693
-0.02765155820360959
-6.853080876989616
-7.273692173407021
-0.003810656098761189
-0.0001254176274603225
-6.766508995673853
-0.002276780490935826
-6.768086508899003
-0.03985410360596342
-6.868409163467781
-7.405012593786999
-0.004916138138677695
-1.649495501243603e-05
6.766516558039347
-6.766515782437621
-0.0003730735074155556
6.766781038120127
-6.766651833950493
-0.04003409605505653
6.810551753892299
-6.792429236411248
7.771929617563767
-7.735325900568258
-0.1818906776326897
-4.754806367557318e-05
6.766516748147603
-0.001277558642043042
6.767192954881838
-0.08248099776317303
6.846741314754149
7.655134747436721
-0.05365548407833581
-0.0001119590528547709
6.766514322530488
-0.002473164561472507
6.767905438957277
-0.07553025238043937
6.869606968404148
7.530088461116127
-0.01632652889828379
-0.000136616555245439
-0.002582981808140095
-0.05633630007800672
-0.008306995725724853
-0.1561434228756345
-7.67619993332682
-0.0009789177343890731
-0.1165315341112053
-6.844401211095473
-0.05832648209379643
-6.82494213395834
-6.824847758584577
-0.1604967020683591
-7.615969554829531
0.0142577116117682
-0.1165312136317801
-6.896103506831036
-0.05832409104314729
-6.883228300877228
-6.883178364353324
-0.1636497695912927
-7.555733206525989
0.01526849157895388
-0.1166089116191014
-6.946490244365034
-0.05832970623630873
-6.941521914112553
-6.941512776844774
-0.1673151122725551
-7.487979274673126
0.02231739341195332
-0.1166468267882448
-6.998782117306456
-0.058331769309101
-6.999844792820218
-6.99984479323501
-1.152174289844068
-6.450633294416826
0.03006704987131903
-2.012455377911054
-6.138372393604076
-2.872852967041804
-6.139447203691309
-6.139447203692063
-1.152165509435217
-5.42165192989843
0.04873747134630779
-2.012455377916462
-5.279051004267593
-2.872852967042251
-5.279049614566449
-5.279049614567381
-1.152055876991196
-4.438817428352706
0.1123743527887985
-2.012455377921992
-4.418652070881258
-2.872852967044603
-4.418652025443835
-4.418652025446893
-1.152058259955379
-3.556975264615092
0.2494132163408444
-2.012455377927508
-3.558254392023832
-2.872852967046921
-3.558254436324423
-3.558254436328661
2.843686947076677
0.8895636090796828
1.954123337995112
0.8895636090815642
1.06455972891135
0.8895636090497487
0.8895538278844808
0.1749973740752587
2.843686947077599
1.7791272181565
1.954123337999196
1.77912721815997
1.064559728935986
1.779127217915775
1.77907286352109
0.1750109670470334
2.843686947089469
2.668690827241873
1.95412333800662
2.668690827242819
1.064559729210023
2.668690825258021
2.668382730699484
0.175053848767009
2.843686947088214
1.954123338006611
1.06455973602322
0.1751646351400045
0.1749965459974436
0.1749965459094848
0.1749944224530373
0.1750076296190399
0.1750005771343764
0.1750274757502328
0.1751474595291476
0.1749431425402193
0.1750076299098143
0.1749944223382867
0.1750038768933508
0.1750038766240023
0.1749905944474598
0.1750168671226346
0.1744379075285969
0.1755025280342889
0.1750274757003552
0.1750005770469631
0.175016866970571
0.174990594327552
0.1749663118545079
0.1749663121155526
0.1719305021181393
0.1768495819436217
0.1751474596055529
0.1749431424768354
0.1744379075137513
0.1755025280208638
0.171930502120466
0.1768495820926592
0.1715194783115854
0.1715194784029001
-0.07312276404309148
0.243309322216532
-0.1360773256115234
0.2378459888207457
-0.2025077357205472
0.2398032667736136
0.2199830167415776
-0.01426734045637146
0.2564046295244238
-0.03409243507546145
0.2562024667836585
-0.06338044136767884
0.2668235288600621
0.266001291223556
-0.00797056238574112
0.2628183653119038
-0.0210084766388462
0.2674359513988909
-0.03269082373885179
0.2769319681920341
0.2804848723402332
-0.002729010792908992
0.2666600294021574
-0.01320647150929832
0.2776443449699753
-0.02188661630174515
0.2845723622812555
0.2870475000457494
0.2894639215583705
0.01913400721083824
0.2913304673181779
0.01312935557980416
0.294185308625709
0.01151867392350253
-0.001063063548760179
0.2959021479915491
0.2900698449029258
0.01292472554393126
0.293169243925918
0.01070083216696843
0.2971419982713087
0.008357400385337055
-0.006614085431630057
0.3047389018706464
0.2872288619808535
0.002447538655100501
0.2926521794326473
0.005595593411371114
0.2975491120623491
0.00437664011032074
-0.03176239616641718
0.3247312266342036
0.2675985511735862
0.2728502723331178
0.2783031459241855
0.2496983682739354
0.2746220822409484
-0.1586200333376414
0.2512343332371228
-0.0277381195146571
0.2450203857551592
-0.005397724221761546
-0.005041638433558759
0.2445842733823054
0.268045300500466
-0.1204218461568025
0.2510690926560255
-0.008315205098717138
0.2492700684723442
0.0005110423203272263
-0.002527739837593301
0.2500392265852959
0.2733867388708585
-0.06771854471610156
0.2586401633428428
0.007983622606411056
0.2557159318563592
0.007858995599347718
0.003509003373346697
0.2531739407390889
0.1821415860138696
0.1914181647407701
0.2035891585201576
0.2107584773002215
0.2439688130478146
-0.003612774925747131
0.2424540563264673
-0.002241514671348255
0.2414199826051918
-0.002689155787484077
-0.0008552249628142605
0.2408241277953551
0.2472422478594806
0.0003660826758284386
0.2443107129642487
0.001203143035365839
0.2430406722755762
0.0003038267322619803
0.0001270629090608932
0.2418036397423858
0.2494984678349968
0.005422864856270138
0.2465992592223256
0.005548686854996654
0.2451880245227632
0.003891804884586569
0.001981516472690292
0.2433060322272874
0.2179507905469724
0.2251805526063974
0.2318036587467134
0.2340243981090133
0.2377159291343728
-0.001260279675577458
0.2346054744466884
-0.001332445277873517
0.2337643534960992
-8.816359804841856e-05
-0.1533997277898325
0.2456012456805529
0.238413221098855
0.000280824929625223
0.2350452044386878
3.145428442891118e-05
0.2339694350172553
-4.234199192426624e-05
-0.1451225045541798
0.2161214715007612
0.2395729381615789
0.002121920980360237
0.2357485518661186
0.001673980180634638
0.2337287041197364
2.259429911050104e-05
-0.09831194171351154
0.1768704162823682
0.2339222320196273
0.2335729875118712
0.230608085368298
0.1215405206910702
0.269915804993445
0.09559306812664581
0.2741143384251119
0.1357052904162088
0.2777317367756865
0.08374671435016989
0.0511137322325137
0.2793054409933596
0.2471976165023826
0.05890737834286641
0.2698492296787168
0.1076449268647631
0.2788134394022706
0.06798335730635963
0.04118867348066124
0.2825750035268023
0.2006372996101986
0.03006908070865477
0.2440687623576283
0.05790657214422457
0.2721704018463864
0.03498136056799495
0.02601539038154288
0.2821101259657404
0.1487773513112369
0.2030984971349092
0.2342325068312472
0.2546313020609572
0.2800465505336804
0.01298496451920961
0.2859782349105837
0.003368157900921487
0.2929067482195951
-0.006639248110022256
-0.0007498592572793283
0.300357429140296
0.2838092316240029
0.01118151485048735
0.2892595596788851
0.002936936507370147
0.295496214786204
-0.004757975234333189
-0.001127217306715167
0.303789079091306
0.2847542283560763
0.009304478663180293
0.2912613828042718
0.002434104483146515
0.2985809315909568
-0.002361527282336517
0.0001998772888945899
0.3067971285261739
0.2639609725909201
0.2726916118177544
0.2805453405889023
0.2909846375929542
0.3090311127727866
0.02171714173194572
0.3252368586365871
0.05800394620793359
0.3561848972451345
0.1529300668914085
0.3021808610089208
0.4261963672668645
0.3135201673380489
0.01435061798934534
0.3299480782459872
0.04292051090997506
0.3590057274118809
0.1247441836109136
0.1969008156690594
0.4658236004824946
0.3156755325467998
0.009788628057259219
0.3315018623768214
0.02947612561602519
0.3694346819202866
0.09064397236999211
0.04662440278351754
0.5250071388430371
0.305095158853064
0.3369300810659561
0.4304028706776101
0.4845888477315741
0.2214732093897965
-1.224713223107264
0.02416513162665729
-0.2533312357093923
0.003648412228342263
-0.03321746917224618
-0.02654396548904125
0.0006253909340115261
0.1554922673850334
-0.9092623003526643
0.01329839326263578
-0.1080710387994146
0.003410446905084681
-0.01655323596160196
-0.0148455648687894
-0.00160492936542548
0.07669149726934653
-0.4583448531187536
0.005278597144501692
-0.03400731670356436
-0.0005867372115736895
-0.004884199051673692
-0.007200322116777694
-0.001499172275483117
0.0287938797489518
-0.002001274224554184
-0.0002106478073333352
-0.0007524510473849236
0.001816935504186708
-0.01028420792728918
0.001369539833324595
-0.002579465553190594
-0.000371415733059613
0.002606009751630903
0.005614428227200756
0.005010662983516788
-0.001874566243377486
-0.006965170974504546
-0.002921894461241506
-0.0002410174090891753
-0.002944781494068457
0.001724530718748771
0.003813337483467807
-0.004336864785843528
-0.00228237221836913
-0.003410325049413042
-0.003763670438830437
0.0005262804943829483
-0.005687060646455439
0.00106739489804622
0.003308868317372982
-0.009167311381316552
-0.00117470882078128
-0.004670972718884578
-0.009023774534803268
-0.009807594975904922
0.05387198047762724
0.03378200513760371
0.1039084636426677
0.07112617388574044
0.148050964909674
0.097821525409681
0.1043724005737448
0.1820698331729872
0.02510561172850394
0.008873527230508008
0.07445601607922642
0.03436929111187086
0.1234706403650576
0.06507421701758365
0.08170343871357197
0.1692175312440895
0.005108102744403521
-0.001390711627817842
0.04451165256610331
0.007276348685137948
0.09589310242254667
0.03281011027652106
0.05446010063717949
0.1479070936829819
-0.00957917861114194
0.006666480578830548
0.05536683673203256
0.1277286033862972
0.1460073709697209
-0.1726484276524021
0.2228678682745261
0.1136274718545281
-0.1224287409458237
0.1658881053621381
0.08297113880529809
-0.06665504513447107
0.101242794808106
-0.0701437472504351
0.05438445037741103
0.08671746890339993
0.1320221050034411
-0.1218700086931024
0.09482630664264628
-0.0766593001542131
0.05805117447979772
-0.04581635150159986
-0.04103879857307922
0.02741147176944725
0.1045344721377064
-0.07049611148063215
0.06673691623150686
-0.03490237640147887
0.01351776361088659
-0.02071966505250905
-0.01094129487139969
-0.0145128003377028
0.06197653873931407
0.0132613931004637
-0.02838632833412024
-0.03836838202924786
-0.03275584472564565
0.001945475134764191
-0.02240079467681589
-0.002802619724770663
-0.01229043189778846
-0.00492813345449522
-0.004699639853160955
-7.86176679312689e-15
-0.0152990157947878
0.0124882537360889
-0.01259965604682892
-0.0002629969229037375
-0.007222969254783829
-0.006976504397822089
-0.008640680912796874
6.776523786555799e-14
0.01402948737322767
0.03336862712974061
0.004851342488048901
0.0123473535438004
0.0012047788305007
-2.454932165261298e-05
-0.003184541178616832
1.150537998206858e-13
0.03741447839802198
0.02536229731498919
0.01292833459072325
3.450642549474026e-13
-0.00469963985315019
0.01229043189775695
-0.00864068091280438
0.0072229692548956
-0.00318454117864982
-0.001204778830232373
-0.01292833458980636
0.01899374078919246
-0.004928133454485339
0.02240079467680303
-0.006976504397826693
0.0125996560468215
-2.454932166772242e-05
-0.004851342487723113
-0.02536229731419511
0.02163395479573274
-0.002802619724804258
0.03275584472560532
-0.0002629969228960839
0.01529901579474142
0.01234735354379631
-0.01402948737292043
-0.03741447839725484
0.03549525123048482
0.001945475134718339
0.03836838202924117
0.01248825373607228
0.01451280033780322
0.03336862712967091
-0.02741147176901053
-0.05438445037660435
0.05240559761424582
-0.0829711388045367
-0.07014374725023503
0.08671746890323441
-0.1136274718541709
-0.06665504513444219
0.1012427948081351
-0.1460073709694307
-0.1224287409459315
0.1658881053622661
-0.1726484276523615
-0.1820698331728829
0.2228678682745513
-0.05805117447937257
-0.04103879857297203
-0.09482630664242925
-0.04581635150156363
-0.1320221050032059
-0.07665930015411226
-0.1218700086930756
-0.1692175312439688
-0.01351776361070432
-0.01094129487138691
-0.06673691623130613
-0.02071966505247223
-0.1045344721375469
-0.03490237640139098
-0.07049611148057174
-0.1479070936828469
0.0283863283341936
-0.01326139310027563
-0.06197653873913155
-0.1277286033860514
-0.05536683673186301
-0.05446010063716125
-0.006666480578516855
-0.03281011027654285
0.009579178611116991
-0.007276348684647313
0.00139071162798432
0.009807594975712423
-0.09589310242254928
-0.08170343871331259
-0.04451165256542625
-0.06507421701825361
-0.005108102743967356
-0.03436929111094818
-0.008873527229689537
0.009167311381153228
-0.1234706403652294
-0.1043724005730232
-0.07445601607854051
-0.09782152541141531
-0.02510561172756702
-0.07112617388476503
-0.03378200513561129
0.004336864785717758
-0.1480509649096275
-0.1039084636421768
-0.05387198047666659
-0.005010662983167404
0.0003714157326843298
0.005614428226657205
-0.001369539833176394
0.002606009751794133
-0.001816935503919405
-0.002579465552781143
-0.01028420792730881
-0.0006253909338678962
0.002944781493768081
0.003813337483096577
0.002921894461411868
0.001724530718800424
0.001874566243633828
-0.0002410174088069011
-0.006965170974414306
0.001604929365649739
0.005687060646208945
0.003308868317254528
0.003763670438874513
0.001067394898031516
0.002282372218690661
0.0005262804945622285
-0.003410325049303373
0.001499172275741988
0.009023774534553115
0.004670972718880733
0.001174708821030724
0.0007524510475601775
-0.003648412228314872
-0.02654396548927904
-0.02416513162581176
-0.03321746917169312
-0.2214732093881092
-0.2533312357079344
-1.22471322310958
-0.426196367266491
-0.003410446905074163
-0.01484556486873336
-0.01329839326229153
-0.01655323596137197
-0.1554922673838323
-0.1080710387986983
-0.9092623003539503
-0.4658236004823033
0.0005867372116746539
-0.007200322116676962
-0.005278597144374559
-0.004884199051496962
-0.07669149726870554
-0.03400731670324986
-0.4583448531194212
-0.5250071388433326
0.0002106478074537163
0.002001274224569252
-0.02879387974868901
-0.4845888477321548
-0.3561848972445231
0.302180861009036
-0.32523685863566
0.15293006689077
-0.3090311127720219
0.05800394620752014
0.02171714173411732
-0.300357429139307
-0.3590057274120039
0.1969008156691012
-0.3299480782458566
0.1247441836105568
-0.3135201673380057
0.0429205109096833
0.01435061799285453
-0.3037890790913788
-0.3694346819209277
0.04662440278296576
-0.3315018623770455
0.0906439723688014
-0.315675532547587
0.02947612561682633
0.009788628059810733
-0.3067971285261333
-0.430402870679698
-0.3369300810697725
-0.3050951588563463
-0.2909846375942373
-0.2929067482193001
-0.0007498592500226886
-0.2859782349117163
-0.006639248111984686
-0.2800465505359149
0.003368157899941049
0.01298496453070508
-0.2793054409935891
-0.2954962147858392
-0.001127217299918382
-0.2892595596805441
-0.004757975235783141
-0.2838092316281299
0.00293693650770166
0.01118151485887531
-0.2825750035280268
-0.2985809315907744
0.0001998772931371962
-0.2912613828065371
-0.002361527283119003
-0.2847542283599007
0.002434104483893473
0.009304478669076022
-0.2821101259672151
-0.2805453405888941
-0.2726916118212275
-0.2639609725952876
-0.2546313020585013
-0.2777317367726901
0.05111373223318294
-0.2741143384266977
0.08374671434720926
-0.2699158049949618
0.1357052904306106
0.09559306811832446
-0.2456012456799935
-0.2788134393991747
0.0411886734807746
-0.2698492296804978
0.06798335730589056
-0.2471976164994741
0.1076449268753525
0.05890737833737192
-0.2161214714984029
-0.2721704018427583
0.02601539038008138
-0.2440687623570536
0.03498136056712386
-0.2006372996044586
0.05790657215116835
0.03006908070444314
-0.1768704162784282
-0.2342325068251243
-0.2030984971341333
-0.1487773513032176
-0.1215405206890171
-0.2337643534938029
-0.1533997277894072
-0.2346054744457865
-8.816361282965035e-05
-0.2377159291343659
-0.001332445278931838
-0.001260279672106346
-0.2408241277965341
-0.2339694350128715
-0.1451225045559387
-0.2350452044396724
-4.234200594493975e-05
-0.2384132210976783
3.145428474421452e-05
0.0002808249340170987
-0.2418036397432596
-0.2337287041164332
-0.09831194171519286
-0.2357485518684135
2.259428844797462e-05
-0.2395729381596885
0.001673980183144519
0.00212192098468289
-0.2433060322278549
-0.2306080853656072
-0.233572987519529
-0.2339222320154654
-0.2340243981027216
-0.2414199826059419
-0.0008552249614402485
-0.2424540563266251
-0.002689155785054242
-0.243968813048538
-0.002241514670917821
-0.003612774925193907
-0.2445842733819879
-0.2430406722760336
0.0001270629095867504
-0.2443107129643806
0.0003038267333861366
-0.247242247859733
0.001203143035496679
0.0003660826754786073
-0.2500392265847223
-0.2451880245225103
0.001981516472256695
-0.2465992592223359
0.003891804885080563
-0.2494984678348935
0.005548686855195717
0.005422864855765153
-0.2531739407388353
-0.2318036587459495