/*--------------------------------*- C++ -*----------------------------------*\
  =========                 |
  \\      /  F ield         | OpenFOAM: The Open Source CFD Toolbox
   \\    /   O peration     | Website:  https://openfoam.org
    \\  /    A nd           | Version:  11
     \\/     M anipulation  |
\*---------------------------------------------------------------------------*/
FoamFile
{
    format      ascii;
    class       volScalarField;
    location    "0.123";
    object      T;
}
// * * * * * * * * * * * * * * * * * * * * * * * * * * * * * * * * * * * * * //

dimensions      [0 0 0 1 0 0 0];

internalField   nonuniform List<scalar> 
880
(
300
300
299.9999999998136
300.0004651519873
300
300
300.0000000019137
300.0020490291796
300
300
300.0000000301956
300.0103985756078
300.0000000000001
300
300.0000007606398
300.0181489189146
300
300
299.9999999999999
299.9999999982427
300
300
299.9999999999997
300
299.9999956421636
300.0000635343695
300.0430717572169
299.9248508422343
301.2221284560743
304.9184737097011
308.183587509513
309.3868110857362
300.0000066008406
300.0000405097468
300.0000530253432
300.0000370410911
300.0001631542041
300.0004516580317
300.0013729583014
300.0010520216795
300.0909267733143
300.2008676424009
300.3497143416678
300.3694408004041
310.8910724413884
312.7828456287228
314.370300399194
316.4387879096673
315.8529819264406
312.9974714472993
310.4758690911625
308.5432102855949
300.6504066271028
301.1828089544256
301.4796893964868
301.3678300882578
300.0030782970529
300.008159009218
300.0162561077982
300.0196802462028
300.0001269959982
300.0003352006448
300.0007040237217
300.0007816350085
300.0006248256761
300.0003186115063
300.000081034072
300.0000063176531
300.0175454593011
300.0125605751799
300.0058352187095
300.0012933419281
301.1021167521014
300.7866750404295
300.4525252753647
300.1652957161342
306.5423839399928
304.6723407647016
303.1481936926174
301.9030689414022
300.8800703610264
300.0320172726547
300.0001100504943
300.0000000778415
300.243068292581
300.0032679028835
300.0000077765779
300.000000027947
300.0165224804826
299.9996682242405
299.9999842467968
300.0000003505782
303.0527913366506
300.0181326584653
299.9997976098888
299.9999803058634
299.9999529279566
299.99989639555
300.1025052340895
323.4923391866104
299.9999905265273
300.0012604563886
300.5856341348763
340.8614107595056
300.000134039545
300.003241126791
301.2266517733502
351.3915989145284
300.0004488556473
300.0112832027168
302.3061015324897
360.2737385207162
367.6445683370746
303.4701151492971
300.0164417381693
300.0006869782243
375.4920224595513
305.064800830504
300.0342064769904
300.0013273785749
381.1668492984251
306.3547125319758
300.0392554274868
300.0014424262626
386.6549194700188
308.0298956299911
300.0667781590453
300.0026459191673
300.0030210908286
300.0814143798504
310.0497023793731
391.4420140571514
300.0047577787207
300.128027141237
312.5658873984538
391.2277131996522
300.0093188759588
300.1750408172898
312.7627204155833
382.6567241559999
299.9998557784396
300.0745303397529
307.9186091437028
361.0097889869078
300.0162302542338
300.3364601327534
309.1205481536226
340.2513458456959
300.0188502187672
300.4419645797361
305.5836511368541
317.7174688186984
300.0033247807226
300.239898567572
304.6250669676667
313.2559732995701
299.9948633338238
299.9903809284014
302.9317922541734
317.7473296904083
313.6738036453029
300.1251579459143
299.844819511984
299.9949650002144
306.2402611210914
298.8401666609339
299.8247147608031
299.9980980179429
299.0601494792164
297.9819888500379
299.8647797242164
299.999405648318
289.898060405977
297.6459745263127
299.9088699393322
299.9995531432235
284.7078866631064
298.4295227057258
299.970019303907
299.9998588476626
281.232925032343
299.1779539520238
299.9917505089406
299.9999670788067
281.0633293721701
299.4676141487045
299.9964276904304
299.9999889749345
283.6022195549317
299.7423237715083
299.9988180324947
299.9999945877908
297.2001655796759
299.5616634483438
299.9846441598389
299.9998544312239
298.3634844578676
299.5892692716419
299.9840000111905
299.999851451772
298.8290974650748
299.5937583102587
299.9814639202252
299.9998381337699
300.079264238997
299.6736180913257
299.9729835072758
299.9997819896009
283.6022195544585
299.7423237706593
299.9988180311955
299.9999945901447
281.063329371748
299.467614148234
299.9964276879109
299.9999889747633
281.2329250319227
299.1779539533185
299.9917505093962
299.9999670790148
284.7078866634629
298.4295227080627
299.9700193039906
299.9998588468898
299.9949650001637
299.8448195137706
300.1251579460185
313.6738036451636
299.9980980198966
299.8247147617836
298.8401666618059
306.2402611217296
299.9994056466432
299.8647797261453
297.9819888489121
299.0601494795868
299.9995531438738
299.9088699399814
297.6459745282129
289.8980604052321
317.7473296891724
302.9317922523186
299.9903809255487
299.994863332273
313.2559732972277
304.6250669663993
300.2398985661256
300.0033247782259
317.7174688193298
305.5836511355515
300.4419645800338
300.0188502188741
340.2513458459601
309.1205481531838
300.3364601317598
300.0162302577509
300.0030210896999
300.0814143830726
310.0497023811061
391.442014057895
300.0047577785308
300.1280271432032
312.5658873999189
391.2277131998448
300.00931887688
300.1750408173882
312.7627204145122
382.6567241559792
299.9998557823455
300.0745303400977
307.9186091428096
361.0097889867247
386.6549194713314
308.0298956302142
300.0667781605943
300.0026459196279
381.166849299929
306.3547125357272
300.0392554259884
300.0014424266568
375.4920224594659
305.0648008280364
300.0342064855802
300.0013273775447
367.6445683381145
303.4701151483445
300.0164417311326
300.000686977462
299.9999529295977
299.9998963966953
300.1025052341879
323.4923391856103
299.9999905259942
300.0012604556326
300.5856341358897
340.8614107597176
300.0001340384785
300.003241123714
301.2266517728398
351.3915989147502
300.0004488541998
300.0112832080439
302.3061015334638
360.2737385207096
299.9999803053316
300.0000003514007
300.0000000280435
300.0000000774392
299.9997976084117
299.999984247255
300.0000077783592
300.0001100488518
300.0181326588657
299.9996682246957
300.003267901416
300.0320172728984
303.0527913371013
300.0165224810663
300.2430682921516
300.8800703613818
300.0000063156419
300.0012933424258
300.165295717882
301.903068941765
300.0000810339633
300.0058352181873
300.4525252773027
303.1481936925907
300.0003186128462
300.0125605754297
300.7866750394321
304.6723407642507
300.000624825878
300.0175454594368
301.1021167531998
306.5423839393411
300.0001269940996
300.0030782955291
300.6504066274425
315.8529819266549
300.0003351985739
300.0081590089756
301.1828089549092
312.9974714465598
300.0007040225094
300.0162561092204
301.4796893966595
310.4758690905878
300.0007816340639
300.0196802474647
301.3678300883552
308.5432102845576
316.4387879106591
300.3694408029314
300.0010520208101
300.0000370402337
314.370300399541
300.3497143431553
300.0013729580986
300.0000530250093
312.7828456298393
300.200867641724
300.0004516582212
300.0000405100657
310.8910724411234
300.0909267720547
300.0001631536248
300.0000066015527
309.3868110859382
299.924850843702
300
299.9999999987777
308.1835875085893
300.0430717522154
300
300.0000000000001
304.9184737092255
300.0000635339023
300
300
301.2221284560277
299.9999956415963
300
299.9999999999999
300
299.9999999999999
299.9999999997925
300.0004651527844
300.0000000000002
300
300.0000000019327
300.002049025521
300
300
300.0000000303383
300.0103985724255
300
300
300.0000007594862
300.0181489198199
300.0010780799886
300.0040179997943
300.0181449814102
300.2624559610461
300.0040180284449
300.0051960705841
300.0172148378622
301.010173707835
300.0181449584977
300.0172147831025
300.3929730576908
306.3429532481417
300.2624559379144
301.0101736889147
306.342953311873
326.0317438617682
354.9726342781534
335.9620443171482
322.774708511796
310.8109342516778
351.13841006149
346.4606458839985
342.0461898111404
333.204242307169
348.1296294429919
346.0213344825729
343.9282175923508
339.8446517038654
346.4272019980139
345.4981972094082
344.8882483368465
342.8026324368999
344.5592049980114
345.1505341636342
345.9780087887358
348.1240965904232
344.7775704637178
344.6384527159129
345.2773866495742
347.473336093637
345.0223827853882
344.1425947473956
344.5504703817903
345.8472683564845
345.5346213088881
343.9662096371131
344.2876386708961
342.0825314368644
331.1943938369342
313.2330773800794
304.4644449156845
304.2722482820171
322.1385512571149
305.0351381285672
302.4912209683749
304.946915460452
311.7622381687283
298.565277535812
303.4746785318329
306.4556427196998
287.6833404416359
291.3554447654001
302.9296703860388
306.0136285340602
303.6335529082543
302.8983754298819
302.3923714481627
302.3190074714582
304.5956776772728
303.4489870592798
302.7577137814988
302.3336408729449
305.8272884196992
304.2456767017891
303.3014060801596
302.6044641867426
305.2755654388791
303.6502556908807
302.7028306784939
302.3429998668546
301.5885583076842
300.7037231259088
300.1276471860489
332.5140533131384
301.4428099234186
300.6595102227051
300.11498968946
349.1832779224923
301.586611669221
300.755096944412
300.3844301851205
358.4543102913029
301.2853707958338
300.4478585544144
300.820007790827
363.9114565002066
409.2098249766871
419.7632203140045
422.532575072108
424.6700009485641
422.902214470001
425.6116561883383
423.2547206986358
422.469544639895
425.6486423686609
423.7082099732647
422.438667167901
419.7295607904081
433.9486049638614
427.6731177092781
422.5590983452615
418.4893098258736
425.7613603012529
429.4372335970698
432.0994539959061
434.8156498846706
421.8248060377092
424.3231230051933
426.2180090650681
428.9003007063787
416.7193700826637
418.2456635411659
419.755080682264
422.3560121959719
414.8098630015648
415.6779583424396
416.8098774549088
419.4337984716614
434.8140588970307
429.5626659233125
417.8476416891291
399.1316011672889
429.449747838391
425.1446825393346
415.1933173629226
415.2788338078686
423.2253983715948
420.181448105071
415.3077383548041
428.3644723548773
420.0879758279302
418.6506616456131
419.5466368658541
409.3573658355014
362.8762458436343
297.4311144420707
206.9519395626455
206.6901662462532
350.5481665815196
261.4138599303441
190.252008769129
173.9214643632253
317.0656017329351
214.5356267034613
166.8355334223166
156.9184860520563
241.1700314064225
156.6001611419095
166.7482618578096
151.678559701291
218.4213008130525
225.6948138826779
230.7395509848967
230.1656044001384
182.4518852324793
191.8409544497237
203.4616581236662
219.9852088463225
158.1094496633933
164.1757695382471
184.7703199329597
220.1559095259309
148.6913490386704
152.8060613739488
178.8184224669878
226.7444025995245
265.1058501442589
256.846927012578
252.7351886295736
257.5169384903182
272.9996335141826
268.2575151781818
259.6103844779713
263.5637353693715
266.1665501536006
276.6614968868592
272.4201713049937
278.1192905146497
248.7642604261571
267.347803940506
272.1339585069659
289.0559866641373
236.3975540497028
212.1493278871409
183.5988819293994
200.0099463707531
240.1292711898578
213.6146440084434
186.0609900106244
217.5010473002459
242.1429122386633
185.3496767343297
210.4659704375076
208.1697151706709
215.115689496645
171.5144099940755
204.5440000794723
182.4876602528927
173.5463845431139
171.3942716918581
167.8271515569515
166.7094248441862
184.760991714903
173.6379371028907
172.0770561955123
171.3357695606489
215.1472908237324
207.6644321062817
209.0546383314085
210.7585047017958
250.4812696723246
268.6356317024312
261.6854436217515
257.8960846159764
166.7094248442462
171.3357695606487
210.7585047017366
257.8960846154856
167.8271515571946
172.0770561955157
209.0546383314704
261.6854436214413
171.394271692076
173.637937103092
207.6644321063137
268.6356317021401
173.5463845432892
184.7609917152117
215.1472908237347
250.4812696722314
200.0099463706299
183.5988819290969
212.1493278866118
236.397554048987
217.5010473002832
186.0609900107947
213.6146440082781
240.1292711893877
208.1697151706594
210.4659704375838
185.3496767341201
242.1429122384812
182.487660252922
204.5440000793869
171.5144099941769
215.1156894964667
289.0559866640306
272.1339585067083
267.3478039395346
248.7642604246529
278.1192905144607
272.4201713048205
276.6614968861033
266.1665501519895
263.5637353691047
259.6103844778064
268.2575151773837
272.9996335126901
257.5169384900391
252.7351886294392
256.8469270117243
265.1058501430137
230.1656043996735
230.7395509853616
225.6948138831935
218.4213008127394
219.9852088458311
203.4616581243401
191.8409544504016
182.4518852321618
220.1559095254184
184.7703199334402
164.1757695387241
158.1094496633129
226.7444025986306
178.8184224670948
152.8060613742848
148.6913490387372
206.6901662445874
206.9519395611732
297.4311144419678
362.8762458437567
173.9214643620323
190.2520087678842
261.413859929898
350.5481665809366
156.9184860512237
166.8355334213028
214.5356267030758
317.0656017327136
151.6785597007554
166.7482618554449
156.600161140241
241.1700314060539
399.1316011672142
417.8476416893058
429.5626659231356
434.8140588970937
415.2788338079604
415.1933173631196
425.1446825394065
429.4497478387061
428.3644723551001
415.3077383550965
420.1814481054944
423.2253983722193
409.3573658355355
419.5466368663978
418.6506616461538
420.0879758287738
434.8156498846061
432.0994539965803
429.4372335980235
425.7613603018955
428.9003007067278
426.2180090656321
424.3231230058211
421.8248060385905
422.3560121964945
419.7550806827579
418.2456635416113
416.7193700836369
419.4337984723861
416.8098774553404
415.6779583429439
414.8098630029253
424.6700009489861
422.5325750705855
419.7632203137231
409.2098249759889
422.4695446403753
423.2547206967565
425.6116561886925
422.9022144683132
419.7295607910731
422.4386671662494
423.7082099727999
425.6486423658971
418.4893098265327
422.5590983439704
427.6731177086057
433.9486049606418
332.5140533105408
300.1276471805251
300.7037231275938
301.5885583074187
349.1832779192726
300.1149896842765
300.6595102253843
301.442809922439
358.4543102884122
300.3844301832726
300.755096947399
301.5866116676281
363.9114564974941
300.8200077913141
300.4478585572457
301.2853707938297
302.3190074713199
302.3923714480156
302.8983754294446
303.6335529077239
302.3336408730767
302.7577137812403
303.4489870590064
304.595677676753
302.6044641869564
303.3014060796609
304.245676701773
305.8272884191168
302.3429998671804
302.7028306780137
303.6502556910703
305.275565438207
304.2722482808575
304.4644449154342
313.2330773789496
331.194393836827
304.946915459516
302.491220968122
305.0351381273426
322.1385512571187
306.4556427189279
303.4746785315529
298.5652775347245
311.7622381686037
306.0136285331861
302.9296703858787
291.3554447642229
287.683340440897
348.1240965901404
345.9780087890842
345.1505341659854
344.5592049996139
347.473336092983
345.2773866499468
344.6384527181498
344.7775704640999
345.8472683556683
344.5504703814859
344.1425947490653
345.0223827857542
342.0825314361885
344.2876386701171
343.966209638409
345.5346213090662
342.802632435626
339.8446517050479
333.2042423037221
310.8109342568636
344.8882483350532
343.9282175920629
342.0461898113825
322.7747085109186
345.498197208172
346.0213344816136
346.4606458841342
335.9620443147501
346.4272019971701
348.1296294406896
351.1384100571281
354.9726342775376
286.8599644964213
299.670775233222
299.9968933068246
299.9999860588135
290.4141177830501
299.69383051318
299.9958713251647
299.9999738895452
295.1455673493656
299.719245699115
299.9936575451865
299.999950955109
299.7852610237643
299.7293547118609
299.978936692672
299.9998403375419
299.999854432205
299.984644159995
299.5616634473681
297.2001655777303
299.999851452781
299.9840000124091
299.5892692699865
298.3634844579514
299.9998381321474
299.9814639217026
299.593758309072
298.8290974641837
299.9997819857517
299.9729835088577
299.6736180885894
300.079264237965
299.9998403362969
299.9999509530313
299.9999738841907
299.9999860543861
299.9789366932793
299.9936575452373
299.9958713247319
299.9968933052973
299.7293547112401
299.7192456976349
299.6938305143669
299.6707752322901
299.7852610228392
295.1455673474983
290.4141177821722
286.859964497019
)
;

boundaryField
{
    back
    {
        type            empty;
    }
    inlet
    {
        type            zeroGradient;
    }
    front
    {
        type            empty;
    }
    top
    {
        type            zeroGradient;
    }
    outlet
    {
        type            fixedValue;
        value           uniform 300;
    }
    bottom
    {
        type            zeroGradient;
    }
    wall
    {
        type            zeroGradient;
    }
}


// ************************************************************************* //
