/*--------------------------------*- C++ -*----------------------------------*\
  =========                 |
  \\      /  F ield         | OpenFOAM: The Open Source CFD Toolbox
   \\    /   O peration     | Website:  https://openfoam.org
    \\  /    A nd           | Version:  11
     \\/     M anipulation  |
\*---------------------------------------------------------------------------*/
FoamFile
{
    format      ascii;
    class       volScalarField;
    location    "0.35923805";
    object      Ma;
}
// * * * * * * * * * * * * * * * * * * * * * * * * * * * * * * * * * * * * * //

dimensions      [0 0 0 0 0 0 0];

internalField   nonuniform List<scalar> 
880
(
1.118016635923817
1.118016634793396
1.117913274081744
1.101702315473366
1.118016635922823
1.118016632481563
1.117870535924209
1.096268790805441
1.118016635905756
1.118016621504525
1.117737691387557
1.089038907040803
1.118016635824109
1.118016566725889
1.117400351657537
1.069554793206942
1.118016636535325
1.118016634945924
1.118016603633611
1.118016146179762
1.118016282126517
1.118014695860564
1.118008386234904
1.118021818260295
1.116457598242523
1.115369336877502
1.113824312168658
1.113109161608712
1.031318062972605
0.994340311485467
0.9723370061604273
0.9700767827197787
1.118010992271613
1.117995259181888
1.117968926031332
1.117859297109281
1.117902554018282
1.117468083016918
1.116770890961317
1.11550760764739
1.104433935616371
1.09743531464374
1.088274353902889
1.079903666627596
0.9590686556532536
0.9591345203329598
0.957513066281366
0.9810531684445309
1.040052762188242
1.075624047006265
1.08996902733466
1.104392981671908
1.065631260864943
1.065218648738249
1.069325812281831
1.077707024742915
1.111148923473971
1.105552420425687
1.100432490204543
1.097672813427824
1.11731673365397
1.116401006099609
1.115078519755984
1.113440572190532
1.111889959329114
1.110735769874738
1.109985159439415
1.109839764711296
1.097061101873746
1.098711777262364
1.102514489116443
1.107802213874084
1.086124504694179
1.096163678181967
1.10564676044178
1.113536269458868
1.111645912043649
1.119220067320322
1.123416399456393
1.12638936231534
1.128791574332634
1.12090633218977
1.113436629282347
1.109951771642722
1.079486731593928
1.125822834251561
1.120187446998433
1.110313779698343
0.8046049903058379
1.11504983635992
1.12564703767724
1.111385984300692
0.5734002075772491
1.037969184412456
1.125572260556968
1.113023816884487
1.113322304778649
1.121409545332973
0.954225321754647
0.5177881853714411
1.108802625891209
1.108873939407466
0.8848660629815307
0.5549415488719515
1.106523700670443
1.080245058620316
0.8075012980166976
0.574615195015529
1.100894975097952
1.033507504400574
0.76275480369619
0.6140856457927291
0.6624719671527949
0.7509867666596202
0.974896347936091
1.089462580247985
0.7143565316569925
0.7749385762165691
0.9219122991879254
1.069246266690119
0.7674917536266711
0.8176036818193831
0.9053465228409042
1.037923569495398
0.8151715353375186
0.8746829618871979
0.923456180611258
1.006072512129238
0.9854165655380165
0.9755965619715741
0.9503713366391754
0.875367800459153
1.009917846613788
1.039760782126503
1.036596705114055
0.9571067078164921
1.038619340489257
1.101927388612246
1.127950037221515
1.064399815071549
1.064422390130614
1.149828522251665
1.216003422244837
1.193061543748576
1.084293378565894
1.191061831806633
1.305727811287637
1.394838955834216
1.109067471106628
1.221506972797586
1.366105416763926
1.585976412858147
1.124974803725336
1.226893371367409
1.41160247871538
1.77490011472126
1.134437426992394
1.212809607657467
1.386977116859393
1.945095038230271
1.71747041060889
1.321803435752715
1.201074239503371
1.140475034564116
1.181741677771991
1.275076617881426
1.188875531142359
1.140462391420817
1.02753779858386
1.252847777828585
1.179570752618864
1.136957175632171
0.8788745445472321
1.215800022962713
1.165457979782091
1.132923693752324
0.8055067999243746
1.162031617682348
1.14239332675518
1.125675450205936
0.7301840808517593
1.09224402042873
1.117140145717865
1.118953389601949
0.696951469024825
1.041879779491705
1.105959245561601
1.117614328854406
0.6807073392177568
1.033195083078097
1.106960066690796
1.117614700817734
0.650001385149884
0.9389502733897631
1.069464386889998
1.113028088311774
0.6571798235919023
0.9372220419354368
1.069603829036131
1.112891393495151
0.685281182066787
0.9362557910310915
1.070399940291438
1.112841984043334
0.7090103703114722
0.9439647564473215
1.073783627104347
1.113117946074028
0.6807073392174713
1.033195083078863
1.106960066696521
1.117614700823082
0.6969514690235065
1.041879779497505
1.105959245566191
1.117614328862997
0.7301840808533733
1.09224402043023
1.117140145718799
1.118953389603194
0.8055067999256804
1.162031617691626
1.142393326756726
1.125675450204668
1.140475034562463
1.20107423950166
1.321803435754338
1.717470410608847
1.140462391421745
1.188875531142443
1.275076617885905
1.181741677779014
1.136957175627938
1.179570752612912
1.25284777783405
1.027537798580302
1.132923693746494
1.16545797977763
1.21580002296452
0.8788745445518729
1.945095038218717
1.386977116856775
1.212809607655247
1.134437426990231
1.774900114722398
1.411602478718445
1.226893371367681
1.124974803728106
1.585976412860614
1.366105416754671
1.221506972796821
1.109067471099624
1.394838955829492
1.305727811288997
1.191061831814492
1.084293378558791
0.9854165655348431
0.9755965619689395
0.9503713366366071
0.8753678004600645
1.009917846614296
1.039760782127191
1.036596705110141
0.9571067078184506
1.038619340490852
1.10192738861361
1.127950037218227
1.064399815070971
1.064422390128665
1.149828522255839
1.216003422247496
1.193061543745876
0.8151715353383115
0.8746829618901204
0.9234561806094251
1.00607251212307
0.7674917536283501
0.8176036818218015
0.9053465228402734
1.037923569494992
0.7143565316573176
0.7749385762199513
0.9219122991893652
1.069246266684891
0.6624719671536851
0.7509867666593062
0.9748963479317511
1.089462580248294
1.11332230478146
1.121409545335043
0.9542253217544763
0.5177881853737794
1.108802625886705
1.108873939407273
0.8848660629826015
0.5549415488739695
1.106523700663576
1.080245058611613
0.807501298019672
0.5746151950173135
1.100894975095798
1.033507504398337
0.7627548036990509
0.6140856457926325
1.113023816883487
1.11138598430313
1.110313779693754
1.109951771642142
1.125572260561188
1.125647037680768
1.120187446991661
1.113436629282565
1.037969184417953
1.115049836361454
1.125822834255486
1.120906332191346
0.573400207580816
0.804604990308876
1.079486731590047
1.128791574332336
1.109839764708231
1.107802213869818
1.113536269457964
1.126389362319688
1.109985159442915
1.102514489115427
1.105646760447253
1.123416399459232
1.110735769873985
1.098711777261873
1.096163678179444
1.119220067323315
1.11188995933197
1.097061101877422
1.086124504697005
1.111645912043155
1.117316733655064
1.111148923479633
1.065631260867178
1.040052762190474
1.116401006099498
1.105552420428932
1.065218648740483
1.075624047011339
1.115078519749436
1.100432490213681
1.069325812282855
1.089969027343355
1.113440572191242
1.097672813427702
1.077707024748262
1.104392981674833
0.9810531684454623
1.079903666625128
1.115507607649982
1.117859297110194
0.9575130662829474
1.088274353902121
1.116770890965015
1.117968926032899
0.9591345203371694
1.097435314646924
1.117468083025599
1.117995259178203
0.9590686556510475
1.104433935620611
1.117902554022136
1.118010992275171
0.9700767827195389
1.113109161607021
1.118021818262409
1.118016146177678
0.9723370061586091
1.113824312169155
1.118008386235257
1.118016603631191
0.9943403114793035
1.115369336878772
1.118014695859442
1.118016634947369
1.031318062962093
1.116457598246549
1.118016282136947
1.118016636532614
1.118016635923625
1.118016634792657
1.117913274081452
1.101702315472064
1.118016635921967
1.118016632485307
1.117870535919634
1.096268790800283
1.118016635905015
1.118016621508175
1.11773769138903
1.089038907024251
1.118016635822624
1.118016566728158
1.11740035165768
1.06955479319337
1.09002145250708
1.079808784929069
1.058234014821772
1.008455232142399
1.079808784938225
1.064149835212278
1.027795461161295
0.9529323393647651
1.058234014841119
1.027795461177817
0.9622071809693241
0.8591084484571819
1.008455232158344
0.9529323393913656
0.8591084484671198
0.7515443801418431
0.7259573583378709
0.7634721416187488
0.8354125238905464
0.9069050071351867
0.7808833104317265
0.7857138486860594
0.8156857139652068
0.8610028146949065
0.7683363167441617
0.8085903482370292
0.8384369949539991
0.8598140100162734
0.8035039178029882
0.8475331580016964
0.8694709638206621
0.8807775502180433
0.8966513933154572
0.90951532055147
0.9296243307581032
0.9684913456862801
0.8949914793565307
0.9106165458645951
0.9352848695183484
0.9903470015082446
0.8839064848577179
0.9081218252051038
0.9365979321019811
1.054092690260461
0.833466192812429
0.8609966493614928
0.8995067321051838
1.141561189800733
1.149102340554005
1.190190857144509
1.162244670264401
1.155848570968529
1.270483891466693
1.298132427725296
1.245480200312586
1.21359465825596
1.425516142430733
1.363578813070213
1.297062042853988
1.251312390097479
1.160550742011715
1.101036256217614
1.087577086085509
1.089678641847263
1.158622409802892
1.159546740056538
1.157141623337576
1.153222511183104
1.197679903054138
1.182975779852522
1.168754432335561
1.156244231965572
1.223636229633909
1.198458980995836
1.175103233633046
1.153897115762644
1.088935621486208
1.078628463247469
1.068266051129031
1.0509812058247
1.122111312602209
0.8700036787436741
0.5643493828767536
0.364831131696268
1.090915088866159
0.697602086451989
0.3661582145753832
0.1741335428657852
1.032828622812702
0.5043263841199543
0.1475365332864027
0.03135703961088399
0.8517491569255501
0.3004526052601277
0.02332744274975989
0.1011553052768103
0.3408959699587256
0.4415101597140627
0.5060780926009816
0.5696205341736278
0.2433961370507232
0.3991276286141702
0.4925660715431954
0.5666278006295529
0.1101826274281386
0.3087562126049809
0.455714272543838
0.5501834298288613
0.009858303858373078
0.1609755693294047
0.3251006967366359
0.4612704686013278
0.643791121069507
0.7091244392692726
0.7653467591756336
0.8044257285302269
0.6372082812296985
0.7038045146968644
0.759963497562224
0.7996770809376599
0.6207893496111485
0.6914820832480524
0.7536163756478613
0.7976347591734176
0.5749322766380134
0.6673103880375488
0.7485511330996613
0.7963438341459367
0.8505503226073617
0.9213128579636551
1.016684623195891
1.130832943617276
0.8424434329343303
0.90721708030544
0.9950905395795873
1.146749419610599
0.8386695057220003
0.8955812664708078
1.009276895408637
1.465248477713827
0.836695844084691
0.8901266382561543
1.035239237804507
2.043035677989868
1.35800517761065
1.502749883837982
0.7466955849168538
1.540899419221012
1.440689904750814
1.291890959212138
1.120953510169163
1.900696955451569
1.484631669762187
0.9245309503067192
1.364566726937408
1.930174375823893
1.143592186420627
0.4372457784176113
1.650019146283189
1.864191886239845
1.320024031923191
0.8907248766602849
0.6860986228534983
0.4518957710504017
1.399965567525462
0.9917672491586689
0.7130754124047797
0.351242329158633
1.338005352418489
0.9695960230166301
0.6147504128341768
0.2354629695475203
1.275459837555156
0.926691993326448
0.5551689800898734
0.1790080653441549
0.3129868448463451
0.09002441056632657
0.1519453473311075
0.3539343806012241
0.3575748231148808
0.2740452280918797
0.06743592548544564
0.2737523879750645
0.3253608395403492
0.3765610819805856
0.2087465589089443
0.1802066117370986
0.2563844856731488
0.3770798981525465
0.2875074091663621
0.05461006804817637
0.3303600858985526
0.3633307088933353
0.3674618006945241
0.3665497793803064
0.3127487956299311
0.2977511788757536
0.3017526220070144
0.2879354157405121
0.2125360763762321
0.1577205082018429
0.1531253159632504
0.1300836306375123
0.1153148464729948
0.06702735917553575
0.08520312891617327
0.08051636048700869
0.06427322614081662
0.06053836213206232
0.05568709707508728
0.04946215206538085
0.08590399425920099
0.03554062677854254
0.01249056415276283
0.03216327936967951
0.2343397261623051
0.1729301073015646
0.1018657376157528
0.04156648697779431
0.3263140998276405
0.2781397897117894
0.2178966531082759
0.1782774997849683
0.04946215206513194
0.03216327936969852
0.04156648697761213
0.1782774997848338
0.05568709707448418
0.01249056415290471
0.1018657376158002
0.2178966531089688
0.06053836213143519
0.03554062677872529
0.1729301073014267
0.2781397897125942
0.06427322614033715
0.08590399425943589
0.2343397261619342
0.3263140998281568
0.3665497793783696
0.367461800693941
0.363330708892577
0.3303600858979163
0.2879354157405331
0.3017526220069217
0.2977511788756844
0.3127487956293905
0.1300836306374051
0.1531253159628959
0.1577205082020234
0.2125360763760072
0.08051636048697972
0.08520312891655159
0.06702735917602362
0.1153148464735152
0.05461006804785565
0.287507409163928
0.3770798981500291
0.2563844856715189
0.1802066117369974
0.2087465589079931
0.3765610819775331
0.3253608395360613
0.2737523879749358
0.0674359254848116
0.2740452280884025
0.3575748231111145
0.3539343806013112
0.1519453473325122
0.09002441056244553
0.3129868448402023
0.4518957710455063
0.6860986228537223
0.8907248766748336
1.320024031906247
0.351242329155772
0.7130754124030998
0.9917672491643016
1.399965567523366
0.2354629695462801
0.6147504128312695
0.9695960230203573
1.338005352419124
0.17900806534423
0.5551689800911254
0.9266919933257017
1.275459837553712
1.540899419176429
0.7466955849125925
1.50274988383799
1.358005177613708
1.900696955431574
1.120953510179403
1.291890959217443
1.440689904745609
1.930174375825654
1.36456672694553
0.9245309503009156
1.48463166975737
1.864191886244716
1.650019146294645
0.4372457784182861
1.143592186417578
1.130832943616117
1.016684623193325
0.9213128579652039
0.8505503226051134
1.146749419612185
0.9950905395824676
0.9072170803047562
0.8424434329371266
1.465248477708412
1.009276895407457
0.8955812664637058
0.8386695057219954
2.043035677983342
1.035239237807617
0.8901266382521325
0.8366958440853475
0.8044257285317817
0.7653467591763677
0.7091244392683245
0.6437911210710707
0.7996770809376041
0.7599634975621259
0.703804514697869
0.6372082812305528
0.7976347591716805
0.7536163756491844
0.6914820832476891
0.6207893496107832
0.7963438341483333
0.7485511330994795
0.6673103880371569
0.5749322766382835
0.5696205341745203
0.506078092602632
0.4415101597137275
0.3408959699589798
0.5666278006299214
0.4925660715449971
0.3991276286148339
0.2433961370513702
0.5501834298287588
0.4557142725444837
0.3087562126052991
0.1101826274290755
0.4612704686006811
0.3251006967356244
0.1609755693298492
0.009858303858578771
0.3648311316972562
0.5643493828792945
0.8700036787444604
1.122111312600079
0.1741335428666585
0.3661582145778234
0.69760208645446
1.09091508886416
0.03135703961028759
0.1475365332880268
0.5043263841225047
1.032828622810556
0.10115530527684
0.02332744274986791
0.300452605260953
0.8517491569224352
1.153222511181957
1.157141623342073
1.159546740062702
1.158622409810591
1.156244231963544
1.168754432335617
1.182975779857563
1.197679903057621
1.153897115760202
1.175103233631959
1.198458981000597
1.223636229637738
1.05098120582039
1.068266051130213
1.078628463250407
1.088935621492512
1.155848570973438
1.162244670271351
1.19019085714304
1.149102340553006
1.213594658262207
1.245480200319521
1.298132427724163
1.270483891466256
1.251312390104069
1.297062042860887
1.363578813068582
1.425516142431288
1.089678641847965
1.087577086091064
1.101036256216651
1.160550742014134
0.9684913456868343
0.9296243307585075
0.9095153205478896
0.8966513933146733
0.9903470015063253
0.9352848695163161
0.9106165458633431
0.8949914793541806
1.054092690263146
0.9365979321022275
0.9081218252013172
0.8839064848542052
1.141561189800669
0.8995067321020658
0.860996649359453
0.8334661928084154
0.880777550216201
0.8598140100161562
0.86100281468739
0.9069050071231867
0.8694709638205613
0.8384369949461472
0.81568571395774
0.835412523878663
0.8475331579966677
0.8085903482288755
0.7857138486765136
0.7634721416105517
0.8035039177984536
0.7683363167374154
0.7808833104238742
0.7259573583342361
0.6232855015345803
1.002704435262963
1.099020257679238
1.116673297561457
0.6574113801809884
0.9785201233858407
1.091854730662697
1.115850621777682
0.6902720368191632
0.9705178816347513
1.085818760223455
1.114840290228681
0.7062564125387474
0.9574410716451391
1.079432130775541
1.113852703312419
1.113028088311052
1.069464386888758
0.9389502733902986
0.6500013851461052
1.112891393496006
1.069603829036452
0.9372220419379248
0.6571798235929269
1.112841984045844
1.070399940292048
0.9362557910335974
0.685281182065545
1.113117946077372
1.073783627106105
0.9439647564491469
0.7090103703089417
1.113852703317669
1.11484029022516
1.115850621783562
1.116673297568168
1.07943213077959
1.085818760225191
1.091854730670534
1.099020257689812
0.9574410716429321
0.9705178816386465
0.9785201233862051
1.00270443526216
0.7062564125378675
0.6902720368198936
0.6574113801808033
0.623285501532663
)
;

boundaryField
{
    back
    {
        type            empty;
    }
    inlet
    {
        type            calculated;
        value           nonuniform List<scalar> 
16
(
1.118016635923817
1.118016635923327
1.118016635921991
1.118016635900154
1.118016636034887
1.118016635839496
1.118016624556934
1.118016452906882
1.118016452906123
1.118016624556382
1.118016635839877
1.118016636034292
1.118016635923624
1.118016635923231
1.118016635921705
1.118016635899328
)
;
    }
    front
    {
        type            empty;
    }
    top
    {
        type            calculated;
        value           uniform 0;
    }
    outlet
    {
        type            calculated;
        value           nonuniform List<scalar> 
16
(
1.111558488287741
1.111421798806535
1.111388250387401
1.111763433901524
1.116097176779318
1.115119935682566
1.113890065829324
1.112672568105978
1.111558488286456
1.111421798806928
1.111388250389725
1.111763433904749
1.112672568110607
1.113890065825763
1.115119935688348
1.116097176785976
)
;
    }
    bottom
    {
        type            calculated;
        value           uniform 0;
    }
    wall
    {
        type            calculated;
        value           uniform 0;
    }
}


// ************************************************************************* //
