/*--------------------------------*- C++ -*----------------------------------*\
  =========                 |
  \\      /  F ield         | OpenFOAM: The Open Source CFD Toolbox
   \\    /   O peration     | Website:  https://openfoam.org
    \\  /    A nd           | Version:  11
     \\/     M anipulation  |
\*---------------------------------------------------------------------------*/
FoamFile
{
    format      ascii;
    class       volVectorField;
    location    "0.35923805";
    object      U;
}
// * * * * * * * * * * * * * * * * * * * * * * * * * * * * * * * * * * * * * //

dimensions      [0 1 -1 0 0 0 0];

internalField   nonuniform List<vector> 
880
(
(24.99999999999999 -2.806460042047581e-12 0)
(24.99999998203183 -1.217529306453725e-08 0)
(24.99829018743186 -0.0005554004923592256 0)
(24.71735892346384 0.007624813445268919 0)
(24.99999999998872 -2.831607822271742e-11 0)
(24.99999994445427 -7.040194122650073e-08 0)
(24.99747951021793 -0.001722119968550829 0)
(24.63269185988133 -0.1593361913533882 0)
(24.99999999963697 -2.437985534546445e-10 0)
(24.99999976102305 -2.871995295044097e-07 0)
(24.9951454345042 -0.003584537087874381 0)
(24.51359687386399 -0.2644846803371205 0)
(24.99999999829957 1.052176768271836e-09 0)
(24.9999988181946 -1.167894275065706e-06 0)
(24.98908560522429 -0.007016884913455875 0)
(24.1372391124231 -0.4137218396550743 0)
(25.0000000111903 -4.114180773928262e-09 0)
(24.99999998001881 8.777786652651615e-09 0)
(24.99999953213299 -9.298883990008522e-07 0)
(24.99999314126271 -1.184417868334158e-05 0)
(24.99999376772891 -4.448830710475361e-06 0)
(24.99996304571563 -1.867035606670807e-05 0)
(24.99985588924801 1.066992193440756e-05 0)
(25.00017477412746 -0.001107699533921371 0)
(24.97171034329341 -0.01019846576120794 0)
(24.95164240986216 -0.006360562847419649 0)
(24.92414574217126 0.01073087643076999 0)
(24.91407655666785 -0.0668349284347404 0)
(23.40263423393334 -0.09542116827097859 0)
(22.69016530537197 0.6348522375269916 0)
(22.2685452666108 1.33502986760017 0)
(22.24429311223175 1.74623164781365 0)
(24.99988402581676 -6.19669547282395e-06 0)
(24.99960660803387 -0.0003640920624588062 0)
(24.99925373087292 -0.001529090254663785 0)
(24.99747564215236 -0.004522308857221853 0)
(24.99801873064458 -0.0006931150166528444 0)
(24.99019665308933 -0.0003535901827967372 0)
(24.97714994434679 0.00549343717127718 0)
(24.95441873741595 0.008911136791394967 0)
(24.7558588652808 -0.01080223922374147 0)
(24.63017506461241 0.09839535783887586 0)
(24.46164717958924 0.2785212252095353 0)
(24.3183415997455 0.406260124404283 0)
(21.98166318538403 2.34071152126233 0)
(21.98731733358425 2.779776867320999 0)
(21.88511312401459 3.317366527125404 0)
(22.33925119859152 3.758416592995147 0)
(23.38566931693927 4.323120682276327 0)
(24.11421978267195 4.173029286303933 0)
(24.45809408071062 3.766274537915602 0)
(24.81732654373759 3.316640444852007 0)
(24.07885317425702 0.7464020075442023 0)
(24.09385233338099 1.104404995499722 0)
(24.19611141290845 1.349493004694655 0)
(24.38212830169719 1.475564604525405 0)
(24.87563914908616 0.03529389490354994 0)
(24.77189973341539 0.115505534120795 0)
(24.67953588347915 0.2412752632744598 0)
(24.63421015276719 0.3945600067913668 0)
(24.98787349758446 -0.01055588734899575 0)
(24.97236240748683 -0.0242604640319203 0)
(24.9502461446219 -0.04404439456389382 0)
(24.92404996165283 -0.07056270068651074 0)
(24.90148937686683 -0.1010180382661751 0)
(24.88770900968328 -0.1311328672285703 0)
(24.88284408871878 -0.1445291609207286 0)
(24.88832524110924 -0.1379836340736684 0)
(24.63263297080679 0.5574791432552323 0)
(24.6744527454497 0.7120297731590784 0)
(24.76091796143198 0.8382307217844498 0)
(24.87668750828677 0.8925759488372611 0)
(24.54953452737884 1.608778438502845 0)
(24.75257405842885 1.654951056939981 0)
(24.94052287680099 1.627188774547702 0)
(25.09322997837087 1.55547326619974 0)
(24.99115120971942 2.905796928611085 0)
(25.1787251868824 2.489602681699295 0)
(25.29112359848553 2.09436159535431 0)
(25.36345023338161 1.778078661802321 0)
(25.42831132782102 1.377475643388425 0)
(25.24434829384801 1.453738850585784 0)
(24.99915647231836 0.9127467849797214 0)
(24.89607333165999 -0.1212277734712662 0)
(24.54801518865193 1.559506617976229 0)
(25.34338275173374 1.289325746746756 0)
(25.14340141349307 0.861787241881279 0)
(24.90333169325472 -0.09618436420997038 0)
(19.1543535754811 1.728678840774547 0)
(25.15903884227032 1.297226217746686 0)
(25.25814608484117 0.7517686749179028 0)
(24.91621873726644 -0.08053574927790184 0)
(14.127099505356 2.095966435846392 0)
(23.70231077717601 1.628811561220696 0)
(25.27711649097938 0.7747505397747692 0)
(24.94896225728939 -0.09185212009788736 0)
(24.95453327890845 -0.06679766300614805 0)
(25.21733181169695 0.7182334250808816 0)
(22.05145238627201 2.269367908040658 0)
(12.48982406185644 3.860312836514612 0)
(24.83136359320973 -0.08883060690248921 0)
(24.99459350913944 0.8082515183462333 0)
(20.6059674539188 3.314580033818519 0)
(12.79856084465098 5.640558422538938 0)
(24.78950269722635 -0.1158532315347156 0)
(24.47443947135761 1.156920581702099 0)
(18.824925218355 4.649503058111684 0)
(12.64750864830861 7.078643203889332 0)
(24.69831077879578 -0.1634687247689222 0)
(23.59932455714615 1.928843495046717 0)
(17.5877269768499 6.058391757614372 0)
(13.13582762254676 8.144172091099994 0)
(14.04754612345826 8.855717958327034 0)
(16.96790577100825 7.293809150672622 0)
(22.43000425257327 3.156667059350873 0)
(24.51830784549922 -0.1864961778533772 0)
(15.13573344968744 9.393283396300731 0)
(17.24086667701907 8.219386683615353 0)
(21.2172656149823 4.641981128282734 0)
(24.19843274728355 -0.07129233619517907 0)
(16.37659381799717 9.684254037218235 0)
(18.11055362130912 8.754312869217943 0)
(20.70753042845246 5.995957717289606 0)
(23.69386147969735 0.2364316628181076 0)
(17.54806654900452 9.756779107700503 0)
(19.39763632104636 8.854119986775775 0)
(20.87608228516436 7.036004380919142 0)
(23.19625198968359 0.7229376991569633 0)
(22.91095965952453 0.8509819616361383 0)
(22.04902892967469 7.091156059123312 0)
(21.12110127157423 8.806647125365565 0)
(18.96386387574849 9.89778851003204 0)
(23.45620623083006 0.6464000724171727 0)
(23.50851123294439 6.648126198455619 0)
(23.10799011748582 8.415240688335327 0)
(20.90706977475392 9.81049357207227 0)
(24.03999941240942 0.3441296215574574 0)
(24.93162644630791 5.875078790237253 0)
(25.19364718315117 7.620149325753244 0)
(23.44736315295238 9.238279374662824 0)
(24.51868845925986 -0.2494338215821376 0)
(26.06333335846023 4.606851337146955 0)
(27.16639142733578 6.226688764638059 0)
(26.40060565487125 7.616393111290489 0)
(24.88420140296461 -0.3075606889553686 0)
(26.92927257819185 3.628092014167821 0)
(29.04980830274661 4.804324665792104 0)
(30.68347610930156 4.759035679639913 0)
(25.30047803935287 -0.4989525534407698 0)
(27.49767246234831 2.601740872112899 0)
(30.11086970307179 3.390624939227984 0)
(34.00252943764704 0.7046297603759148 0)
(25.54328421793643 -0.5425621761311813 0)
(27.54997766396821 1.647315760595579 0)
(30.83480190688332 1.256059670067817 0)
(36.3481912492818 -4.253902132739936 0)
(25.65370398931074 -0.5437429219624437 0)
(27.2244734166635 1.022788710419843 0)
(30.31241643307236 -0.3107852339314315 0)
(37.77958543480153 -9.252050818151414 0)
(34.01916874626949 -7.328156167923945 0)
(29.13042839559652 -1.4173228476019 0)
(26.94234608411969 0.3554848575056265 0)
(25.69372578643203 -0.5467561603619193 0)
(25.63459378667759 -3.215039409938355 0)
(28.24648095095127 -1.936576163710463 0)
(26.64812578098625 -0.1001475958543836 0)
(25.62906609746585 -0.4720630692598152 0)
(23.08910003969075 -3.61272811507049 0)
(27.75007835926008 -2.84173434829879 0)
(26.39351346752357 -0.5594356484607148 0)
(25.50627852185914 -0.3592985959866466 0)
(19.90317334367467 -3.659491217585523 0)
(26.97784544769353 -3.450134677003487 0)
(26.04932282865453 -0.9532424347040077 0)
(25.38980817770205 -0.2751137391993393 0)
(18.08533387963441 -4.760130127355644 0)
(25.72431412854414 -4.391146119769282 0)
(25.48603013605999 -1.289833914218327 0)
(25.18022513021165 -0.2156761640974674 0)
(15.43328586809337 -6.813574436532831 0)
(24.0865105052986 -4.635073641989282 0)
(24.89652654235689 -1.125749607317582 0)
(25.00123772149695 -0.1079295376061048 0)
(14.37829261919859 -6.976625274197426 0)
(23.02533243110704 -4.048562723164602 0)
(24.65192879790746 -0.7359209588067535 0)
(24.97081050022101 -0.0491370065303427 0)
(14.33664167917161 -5.861263890285286 0)
(22.80032926685134 -3.600500173144562 0)
(24.67303439467356 -0.6014652129671095 0)
(24.97608427567581 -0.03608042416287015 0)
(14.22223098333843 -0.663246362562129 0)
(20.34300729500098 -0.1132556170045054 0)
(23.64823343858617 0.01057885061212558 0)
(24.85558910833113 0.00198248702735367 0)
(14.20380729740331 -1.755728645881992 0)
(20.33965119928711 -0.5378232760991447 0)
(23.66314730760882 0.0006275339344944267 0)
(24.85253228690827 0.004365008285189597 0)
(14.41812225654778 -3.256046327148746 0)
(20.34756421477776 -0.9879349668678832 0)
(23.70247138023529 -0.0717633462123142 0)
(24.8517824918769 0.0002500410628353609 0)
(14.46992836706413 -4.649571914906081 0)
(20.55616413614736 -1.352469665437743 0)
(23.80220911443567 -0.1947256724202046 0)
(24.86016937198688 -0.01139117867492193 0)
(14.33664167917534 5.861263890260473 0)
(22.80032926686085 3.600500173134606 0)
(24.67303439480796 0.6014652129205432 0)
(24.97608427578845 0.03608042414350665 0)
(14.37829261918701 6.976625274152158 0)
(23.02533243121183 4.048562723220951 0)
(24.65192879800447 0.7359209587925694 0)
(24.97081050038385 0.04913700657661996 0)
(15.4332858681272 6.813574436548212 0)
(24.08651050531106 4.635073642026472 0)
(24.89652654234686 1.125749607361815 0)
(25.00123772150465 0.1079295376563608 0)
(18.08533387966687 4.760130127359635 0)
(25.72431412871167 4.391146119849838 0)
(25.48603013608621 1.289833914253169 0)
(25.18022513017308 0.2156761641451833 0)
(25.6937257864016 0.5467561603035448 0)
(26.9423460840956 -0.3554848575393972 0)
(29.13042839563535 1.417322847594814 0)
(34.01916874619721 7.328156168052343 0)
(25.62906609748281 0.4720630692087555 0)
(26.64812578099007 0.1001475958470731 0)
(28.24648095105461 1.936576163719249 0)
(25.63459378678614 3.215039410046816 0)
(25.50627852176921 0.3592985959399804 0)
(26.39351346740396 0.5594356484845627 0)
(27.75007835934524 2.841734348431403 0)
(23.08910003960017 3.612728115110794 0)
(25.38980817757343 0.275113739178218 0)
(26.04932282856861 0.9532424346751296 0)
(26.97784544770836 3.450134677079866 0)
(19.90317334378323 3.659491217621273 0)
(37.77958543473442 9.25205081826806 0)
(30.31241643302477 0.3107852339256543 0)
(27.22447341662612 -1.02278871042507 0)
(25.65370398926969 0.5437429219145757 0)
(36.34819124929503 4.253902132789563 0)
(30.83480190694505 -1.256059670027373 0)
(27.54997766398753 -1.647315760600996 0)
(25.54328421799071 0.5425621761449237 0)
(34.00252943769154 -0.7046297603349587 0)
(30.11086970290891 -3.390624939197289 0)
(27.49767246233933 -2.601740872086005 0)
(25.30047803919944 0.4989525535090543 0)
(30.68347610921803 -4.759035679613704 0)
(29.04980830277571 -4.80432466576052 0)
(26.92927257835267 -3.628092014147529 0)
(24.88420140280423 0.3075606890427072 0)
(22.91095965945008 -0.8509819616173704 0)
(22.04902892962042 -7.091156059128552 0)
(21.12110127152117 -8.806647125364529 0)
(18.96386387578027 -9.897788510038932 0)
(23.45620623083258 -0.6464000723732318 0)
(23.50851123295435 -6.648126198452 0)
(23.10799011740402 -8.41524068830536 0)
(20.90706977480966 -9.810493572093618 0)
(24.03999941243046 -0.344129621537018 0)
(24.93162644633188 -5.875078790245587 0)
(25.19364718308265 -7.620149325717689 0)
(23.44736315295103 -9.23827937465011 0)
(24.51868845920974 0.2494338216516513 0)
(26.06333335854833 -4.60685133712793 0)
(27.16639142739079 -6.226688764615571 0)
(26.40060565482401 -7.616393111272019 0)
(17.54806654902985 -9.756779107709093 0)
(19.39763632111632 -8.854119986818603 0)
(20.87608228512513 -7.036004380916485 0)
(23.196251989561 -0.7229376991735819 0)
(16.37659381804121 -9.684254037243102 0)
(18.11055362137267 -8.754312869244679 0)
(20.70753042843648 -5.995957717298189 0)
(23.69386147968557 -0.236431662815062 0)
(15.13573344969765 -9.39328339631391 0)
(17.24086667711177 -8.219386683635118 0)
(21.21726561501567 -4.641981128260046 0)
(24.19843274716854 0.07129233620211801 0)
(14.04754612349091 -8.855717958329819 0)
(16.96790577101872 -7.293809150643609 0)
(22.4300042524856 -3.156667059316727 0)
(24.51830784550166 0.1864961778550868 0)
(24.95453327896446 0.06679766302892835 0)
(25.21733181174086 -0.7182334250557711 0)
(22.05145238626489 -2.269367908050994 0)
(12.48982406191805 -3.860312836526903 0)
(24.83136359312598 0.0888306069008053 0)
(24.99459350914423 -0.8082515183028952 0)
(20.60596745394626 -3.314580033819146 0)
(12.79856084469858 -5.640558422565053 0)
(24.78950269709497 0.1158532315281935 0)
(24.47443947119244 -1.156920581636461 0)
(18.82492521844226 -4.649503058097128 0)
(12.64750864835358 -7.078643203904416 0)
(24.69831077874746 0.1634687247721068 0)
(23.59932455710176 -1.928843494965094 0)
(17.58772697694065 -6.058391757599511 0)
(13.13582762254773 -8.144172091095735 0)
(24.94896225726308 0.09185212011169294 0)
(24.91621873731412 0.08053574929057176 0)
(24.90333169316699 0.09618436423957959 0)
(24.89607333165075 0.1212277734676283 0)
(25.27711649105672 -0.7747505397762003 0)
(25.25814608491158 -0.7517686749089082 0)
(25.14340141334945 -0.8617872418660691 0)
(24.99915647231721 -0.912746784996199 0)
(23.70231077728322 -1.628811561240705 0)
(25.15903884230158 -1.297226217751892 0)
(25.34338275180453 -1.289325746760197 0)
(25.24434829388011 -1.453738850578886 0)
(14.12709950544683 -2.095966435853749 0)
(19.15435357554748 -1.728678840770199 0)
(24.54801518857127 -1.559506617947241 0)
(25.42831132781258 -1.377475643362831 0)
(24.8883252410536 0.137983634080862 0)
(24.87668750820207 -0.8925759488154045 0)
(25.09322997836106 -1.555473266174636 0)
(25.36345023348705 -1.778078661757467 0)
(24.88284408879239 0.1445291609015337 0)
(24.76091796141576 -0.8382307217779761 0)
(24.94052287692337 -1.627188774532148 0)
(25.29112359855426 -2.09436159531671 0)
(24.88770900966629 0.1311328672192263 0)
(24.67445274544506 -0.7120297731070554 0)
(24.7525740583804 -1.654951056945701 0)
(25.17872518693452 -2.489602681699138 0)
(24.90148937692079 0.1010180381852724 0)
(24.63263297087985 -0.5574791432345688 0)
(24.54953452744364 -1.608778438502382 0)
(24.99115120971553 -2.90579692860043 0)
(24.98787349759245 0.01055588726386273 0)
(24.87563914920295 -0.03529389480973487 0)
(24.07885317431314 -0.7464020075377857 0)
(23.38566931699812 -4.32312068226535 0)
(24.97236240747266 0.02426046391593541 0)
(24.77189973348044 -0.1155055340493922 0)
(24.09385233344191 -1.104404995466731 0)
(24.11421978278244 -4.173029286321402 0)
(24.95024614449221 0.04404439453693802 0)
(24.67953588366835 -0.241275263204186 0)
(24.19611141294264 -1.349493004694851 0)
(24.45809408087743 -3.766274537973042 0)
(24.92404996165936 0.07056270061835031 0)
(24.634210152765 -0.3945600067374835 0)
(24.38212830182099 -1.475564604492801 0)
(24.81732654378986 -3.316640444877249 0)
(22.33925119861625 -3.758416592982816 0)
(24.31834159969815 -0.4062601244067363 0)
(24.95441873747385 -0.008911136696579742 0)
(24.99747564217681 0.004522308843963482 0)
(21.88511312405579 -3.317366527111191 0)
(24.46164717957559 -0.2785212252135503 0)
(24.97714994442106 -0.00549343713330181 0)
(24.99925373090437 0.001529090223636247 0)
(21.98731733368793 -2.779776867318403 0)
(24.63017506467924 -0.0983953578448417 0)
(24.99019665325272 0.000353590189803236 0)
(24.99960660794801 0.0003640919407956801 0)
(21.98166318534036 -2.340711521240777 0)
(24.75585886536339 0.01080223921624465 0)
(24.99801873072122 0.0006931150318044648 0)
(24.99988402590382 6.196709737996057e-06 0)
(22.24429311222146 -1.746231647800151 0)
(24.9140765566408 0.06683492843920555 0)
(25.00017477417859 0.001107699553208024 0)
(24.99999314123308 1.184422191627393e-05 0)
(22.26854526655938 -1.335029867587105 0)
(24.92414574218328 -0.01073087643394974 0)
(24.99985588925349 -1.066992277214419e-05 0)
(24.99999953209123 9.29897669085913e-07 0)
(22.69016530521744 -0.6348522375357365 0)
(24.95164240988931 0.00636056283852753 0)
(24.99996304568864 1.867034681918823e-05 0)
(24.99999998004261 -8.823205129920669e-09 0)
(23.40263423368554 0.09542116822389765 0)
(24.9717103433774 0.0101984657559272 0)
(24.99999376793768 4.448843767316361e-06 0)
(25.00000001114298 4.117350347556552e-09 0)
(25.00000000000002 5.955440403889529e-12 0)
(24.99999998201898 1.215858349211999e-08 0)
(24.99829018742361 0.0005554004744615975 0)
(24.71735892342888 -0.007624813288548749 0)
(24.99999999997173 4.182637520937581e-11 0)
(24.99999994453042 7.037846876041585e-08 0)
(24.99747951012238 0.001722119946168001 0)
(24.63269185975863 0.1593361914242925 0)
(24.99999999962681 2.565054351614641e-10 0)
(24.99999976109916 2.872032282307659e-07 0)
(24.99514543453699 0.003584537074521152 0)
(24.51359687350394 0.2644846802676473 0)
(24.99999999828481 -1.026284918790662e-09 0)
(24.99999881823999 1.167906929727369e-06 0)
(24.98908560522973 0.0070168849031675 0)
(24.1372391121255 0.4137218395991776 0)
(24.52526947569754 1.098638139807953e-10 0)
(24.35979070186225 0.1495549695794171 0)
(23.97404080162036 0.1736327517595229 0)
(23.0385455486686 0.01871633596382512 0)
(24.3597907020795 -0.1495549693625579 0)
(24.08843034291786 4.096879648131746e-11 0)
(23.40956816856051 -0.06031104921313168 0)
(21.96065942165611 -0.4863807340002568 0)
(23.97404080206554 -0.1736327516666035 0)
(23.4095681689374 0.06031104928915969 0)
(22.1286127758458 6.329152468254282e-11 0)
(20.0309554240104 -0.5819754832710474 0)
(23.03854554903504 -0.0187163359844104 0)
(21.96065942226531 0.4863807339437585 0)
(20.03095542425448 0.5819754832238401 0)
(17.78918411511392 -2.400797136354828e-10 0)
(17.25878215311035 2.521584207779337 0)
(17.89934797974963 2.917348893757127 0)
(19.54339189851807 2.655843684332302 0)
(21.08693213594786 1.887816424566843 0)
(18.2449076588828 4.246787330407782 0)
(18.30812216908895 4.203001724542013 0)
(19.04065539586464 4.114780181790756 0)
(20.07397332647258 3.952546712143944 0)
(17.68385363454804 5.193198948187455 0)
(18.85057188206751 4.491072622795103 0)
(19.52792011593825 4.691878405072008 0)
(20.05233183647668 4.563749499065149 0)
(18.33524871779129 5.754217659042689 0)
(19.70555286873415 4.717192792944334 0)
(20.20571272871192 4.891231596658345 0)
(20.49069694046273 4.805573293010641 0)
(20.79096155179159 4.932704834092233 0)
(21.02925499692844 5.061730656024376 0)
(21.40434906166273 5.120578150182958 0)
(22.16084753241238 5.280347914105723 0)
(20.72899950538484 4.994246188152817 0)
(21.03868706489378 5.10156886826409 0)
(21.5383654992159 5.117411972703387 0)
(22.65128472417668 5.500670826316536 0)
(20.47284418728197 4.931257872006525 0)
(20.97343625118561 5.105921609248116 0)
(21.55536352585369 5.158189334889297 0)
(24.10136760402889 5.943006469218846 0)
(18.97616396676526 5.851118467801219 0)
(19.59932660374518 5.875945342132563 0)
(20.50317207030413 5.73475588587552 0)
(25.83118786793726 7.125897026454859 0)
(25.81525114083742 3.187582054601908 0)
(26.40945000245969 0.8090351640500295 0)
(25.72185492522168 0.4870796650639585 0)
(25.59509751928607 0.3820586106998577 0)
(28.37610395732384 2.198782674464219 0)
(28.69592355049646 0.3397479665399314 0)
(27.56802020473556 0.2832497794821419 0)
(26.89269656634259 0.3137577226591972 0)
(31.54901773535826 1.904715828714331 0)
(30.1499524245466 0.04577689917729265 0)
(28.75773982494668 0.05144593879058664 0)
(27.77933264838726 0.09386613597157804 0)
(25.07990630087686 1.987932004183023 0)
(24.21747653931886 0.6522757051770138 0)
(24.07232535837553 0.08970075549745163 0)
(24.15978746411881 -0.2164448206021315 0)
(25.66543254723561 0.3867732526522368 0)
(25.71344554988917 0.319812603907046 0)
(25.70096134846348 0.2051359517107174 0)
(25.65343808340625 0.1716664105596501 0)
(26.53712877477797 0.3417372953755544 0)
(26.22460796802898 0.2915138741752914 0)
(25.94663982234775 0.191593163303275 0)
(25.72127931316053 0.1306856670741187 0)
(27.15030770086681 0.1478463560680186 0)
(26.59225549620642 0.1471934372091827 0)
(26.09881685572391 0.09830210647520585 0)
(25.66599111744211 0.0851407963978822 0)
(24.13124735533239 -0.4622506054846097 0)
(23.90332850088794 -0.6207343843514499 0)
(23.70233092063993 -0.7154387782268231 0)
(23.36995194620905 -0.666249850485957 0)
(25.20551372776975 0.7717444792036957 0)
(20.0923310328405 5.098330364694651 0)
(13.71989266582005 3.924502029859027 0)
(9.345187459363888 1.059314581844423 0)
(24.62756899137192 1.255401656831948 0)
(16.07215908429083 4.951640569980698 0)
(8.863747557431726 2.740793551037819 0)
(4.471013065785763 -0.1764438491596871 0)
(23.43562618427901 1.295078864560856 0)
(11.69321553045074 3.634466882247532 0)
(3.139605884316643 2.029108344301694 0)
(-0.7690420506871199 0.2418316720839947 0)
(19.41387923306612 -0.7286262166348499 0)
(7.302725852923749 -0.7957739596513428 0)
(0.2336833161459745 0.5430097187220124 0)
(-2.595597004416647 0.1743914792776265 0)
(8.569141827174358 2.693891910629755 0)
(10.58536711669774 4.559500939609957 0)
(11.49761871162716 6.280357499091782 0)
(12.44952919442479 7.625636483323233 0)
(6.13666667798617 1.993680310374088 0)
(9.511366298760084 4.4110492228824 0)
(11.20129427498513 6.226232763814481 0)
(12.40432254562357 7.672156830003738 0)
(2.933298227184615 0.01197352967799459 0)
(7.44247073777963 3.33195786808415 0)
(10.26714171348567 6.036194042117335 0)
(12.02123635761631 7.596917450868217 0)
(0.2395560230656956 -0.1062632100021873 0)
(3.470274665312937 2.475979886768957 0)
(7.538042659858807 3.976180104803649 0)
(10.63466182745009 5.463973984089076 0)
(13.63849191197425 8.986500501854048 0)
(14.77053720376896 10.00815894229137 0)
(15.91945505932456 10.56578183717937 0)
(16.8135290377583 10.855990381666 0)
(13.55816851102622 8.921007219433337 0)
(14.71384249287478 9.954780140509522 0)
(15.82397028423738 10.54166840366583 0)
(16.69639568144095 10.88141681372355 0)
(13.23585613134655 8.764177108207258 0)
(14.51738041311101 9.775717298833907 0)
(15.74208996143689 10.47461864466473 0)
(16.62306424581647 10.96197393084302 0)
(13.11739345759017 6.748231050152406 0)
(14.67206941241979 8.448508900613815 0)
(15.766112649761 10.30178813242514 0)
(16.64565005662552 10.9392086922793 0)
(17.82791676048429 11.27568236845084 0)
(19.4233726513342 11.76984622573191 0)
(21.7750509479138 11.69323430363455 0)
(24.77798260339754 10.42097059555524 0)
(17.62277457980452 11.27975933715831 0)
(19.07491891768047 11.72984889394703 0)
(21.2115370728497 11.74952499806412 0)
(24.9758285742699 12.47348215755527 0)
(17.47369493984195 11.3688520666732 0)
(18.72296741702986 11.78345628681343 0)
(21.34547112793424 12.58553907036679 0)
(31.48516307355786 18.45884670131113 0)
(17.43734418817982 11.39311666763369 0)
(18.64011277611362 11.79210590004667 0)
(22.06806745550005 13.17483763139671 0)
(43.24395077582977 25.51574355857516 0)
(30.5938859108186 5.261220298277997 0)
(32.03813894526976 -3.582410363577531 0)
(12.65433800318187 8.691183301102759 0)
(7.857641833515329 30.8408689143663 0)
(32.23135994417975 4.900237341578453 0)
(26.4668288007798 -1.952406793276843 0)
(8.976500058950766 17.41677708305161 0)
(8.448145687164009 29.02689023970844 0)
(31.97401502940272 3.292521086119407 0)
(17.20849443323061 -4.302889907544372 0)
(3.828883776798755 21.3288925237689 0)
(4.61202006698499 29.02662383783263 0)
(20.30819331272284 -8.299018371853759 0)
(7.328080495658268 -0.5716351357505143 0)
(2.088254568067571 24.81812767828769 0)
(2.648166564515777 28.73399553895926 0)
(7.017333446001884 24.62074982416804 0)
(2.699636632152537 17.69723569326547 0)
(-0.773383424972416 14.87158784495866 0)
(-2.833080542247574 9.937964749547874 0)
(6.712229290249177 23.57250192038518 0)
(1.915129079636026 19.24751642228584 0)
(-0.45678317728532 14.98174487000972 0)
(-1.253566664564322 7.687195435970827 0)
(3.27822979360775 22.61478758440429 0)
(1.43043515019532 18.10669947716125 0)
(-0.3153668712064137 12.35863899342611 0)
(-0.815927119725433 4.900446901500759 0)
(0.7861846476101423 22.03878379758526 0)
(-0.454716207318458 17.36659174162583 0)
(-1.909241292605175 10.96806262135424 0)
(-1.738866406417569 3.285197125134232 0)
(-6.073858092491898 3.289767227073609 0)
(-2.016784277843011 0.2622092041810888 0)
(2.428934252345897 -2.420452409987901 0)
(4.456960879566592 -6.632180662040047 0)
(-6.81249367087564 3.051153895992974 0)
(-5.955825623908985 0.3487987048534391 0)
(-1.266832925203349 -0.7973056451990553 0)
(2.679095802867665 -5.575461617980818 0)
(-6.212947701073811 2.126716635611325 0)
(-7.80648172285309 0.6687524962326892 0)
(-4.517996174596073 0.3046848680847611 0)
(0.03235853807278374 -4.086196412632772 0)
(-4.585777117075936 2.184296941686544 0)
(-7.13668948264486 2.668634177534278 0)
(-5.229586873098694 3.072728672788997 0)
(-0.6500608487540233 -1.052220884103804 0)
(2.361345980420046 -6.935602730752656 0)
(2.293257833344622 -7.54110325927727 0)
(3.156894206702273 -7.215742202782113 0)
(4.462951777605257 -6.469096617772834 0)
(1.465726840558392 -6.80349098696977 0)
(1.926607051354383 -6.275206501988769 0)
(3.127005437605265 -5.840643715487833 0)
(3.89964873166716 -4.924320899316853 0)
(0.4567025417479306 -4.750719648773207 0)
(0.6584649261482748 -3.491273289937908 0)
(1.655303035954327 -3.003627070752645 0)
(2.137320977849326 -1.923637344803326 0)
(1.65880908862016 -1.986257084265588 0)
(1.311051130182338 -0.7524668985523034 0)
(1.876996857983704 -0.3122911856691191 0)
(1.653186416443746 0.6366977950675593 0)
(0.7800855370061889 1.147305176473684 0)
(-0.03297880330201895 1.284703630970505 0)
(-0.6586940032713747 0.9682792093690993 0)
(-0.9812854996284128 0.3366267025341901 0)
(1.586989040339885 -0.9804176747002489 0)
(0.5863019460397286 -0.4815229011571263 0)
(-0.2570262880531098 -0.05723172092917331 0)
(-0.6750479560666135 -0.02422058190611625 0)
(3.363709485726972 -3.805932303376975 0)
(2.444025636760713 -2.796805709154323 0)
(1.337998335648927 -1.704851470614315 0)
(0.606709852861295 -0.6385090469495323 0)
(5.10697703389465 -4.816615552357013 0)
(4.969813215407706 -3.302346764362031 0)
(4.187823287319022 -2.021996073558165 0)
(3.720924955149635 -0.7293571793707339 0)
(-0.981285499630701 -0.3366267025112996 0)
(-0.675047956066635 0.02422058191589646 0)
(0.6067098528614641 0.6385090469440774 0)
(3.720924955150937 0.7293571793512357 0)
(-0.658694003275887 -0.9682792093504654 0)
(-0.2570262880540102 0.0572317209386956 0)
(1.337998335653515 1.704851470612005 0)
(4.187823287346199 2.02199607353876 0)
(-0.03297880330582292 -1.284703630956664 0)
(0.586301946038479 0.4815229011644547 0)
(2.444025636758954 2.796805709151208 0)
(4.969813215429015 3.302346764363451 0)
(0.7800855370032279 -1.147305176462351 0)
(1.586989040342335 0.9804176747052561 0)
(3.363709485714853 3.805932303375736 0)
(5.10697703390082 4.816615552368632 0)
(4.46295177758148 6.469096617739694 0)
(3.156894206704008 7.215742202767607 0)
(2.293257833346141 7.541103259262123 0)
(2.361345980433021 6.935602730734827 0)
(3.899648731667432 4.924320899317578 0)
(3.127005437614107 5.84064371548154 0)
(1.926607051371614 6.275206501984307 0)
(1.465726840578863 6.803490986954377 0)
(2.137320977848516 1.923637344799523 0)
(1.65530303595578 3.003627070741759 0)
(0.6584649261595781 3.491273289940465 0)
(0.4567025417615958 4.750719648767123 0)
(1.65318641644421 -0.6366977950631553 0)
(1.876996857991372 0.3122911856734705 0)
(1.31105113019092 0.7524668985590388 0)
(1.658809088628786 1.986257084273493 0)
(-0.6500608487366071 1.052220884106195 0)
(-5.229586873059693 -3.072728672759534 0)
(-7.136689482608213 -2.66863417750334 0)
(-4.585777117048575 -2.184296941678054 0)
(0.03235853808809736 4.086196412630763 0)
(-4.517996174579357 -0.304684868062589 0)
(-7.8064817227962 -0.6687524962153105 0)
(-6.212947701000274 -2.126716635577484 0)
(2.679095802880891 5.575461617972374 0)
(-1.266832925171947 0.7973056452235839 0)
(-5.955825623838107 -0.3487987048276582 0)
(-6.812493670821429 -3.051153895940277 0)
(4.456960879579269 6.632180662035173 0)
(2.428934252370208 2.420452410009333 0)
(-2.016784277758449 -0.2622092041603785 0)
(-6.073858092382721 -3.289767226998524 0)
(-2.833080542240537 -9.937964749431186 0)
(-0.773383425030107 -14.87158784495976 0)
(2.699636632189229 -17.6972356935217 0)
(7.017333445718987 -24.62074982424401 0)
(-1.25356666456004 -7.687195435907102 0)
(-0.4567831772962119 -14.98174486997847 0)
(1.915129079724782 -19.24751642237091 0)
(6.712229290276678 -23.57250192036492 0)
(-0.8159271197269675 -4.900446901475639 0)
(-0.3153668712104971 -12.35863899337854 0)
(1.430435150222607 -18.10669947721566 0)
(3.278229793624739 -22.61478758440822 0)
(-1.738866406411923 -3.285197125140857 0)
(-1.909241292613596 -10.96806262138493 0)
(-0.454716207319626 -17.36659174162195 0)
(0.7861846476193308 -22.03878379757524 0)
(7.857641833144425 -30.84086891436068 0)
(12.65433800291041 -8.691183301405948 0)
(32.0381389452573 3.58241036362986 0)
(30.59388591088859 -5.261220298274732 0)
(8.448145687006372 -29.02689023968524 0)
(8.976500058904342 -17.41677708326686 0)
(26.46682880086449 1.952406793255149 0)
(32.23135994408735 -4.900237341545974 0)
(4.612020066998566 -29.02662383788942 0)
(3.828883776746186 -21.3288925238898 0)
(17.20849443315623 4.302889907481203 0)
(31.97401502932494 -3.292521086106372 0)
(2.648166564522057 -28.73399553903643 0)
(2.088254568046631 -24.81812767842419 0)
(7.328080495682219 0.5716351356863215 0)
(20.3081933127015 8.299018371821212 0)
(24.77798260338575 -10.42097059553485 0)
(21.77505094787432 -11.69323430359381 0)
(19.42337265138777 -11.76984622573765 0)
(17.82791676044111 -11.27568236842041 0)
(24.97582857431605 -12.47348215756575 0)
(21.21153707292397 -11.74952499808293 0)
(19.07491891767725 -11.72984889392843 0)
(17.62277457987607 -11.27975933719443 0)
(31.4851630734623 -18.45884670124402 0)