/*--------------------------------*- C++ -*----------------------------------*\
  =========                 |
  \\      /  F ield         | OpenFOAM: The Open Source CFD Toolbox
   \\    /   O peration     | Website:  https://openfoam.org
    \\  /    A nd           | Version:  11
     \\/     M anipulation  |
\*---------------------------------------------------------------------------*/
FoamFile
{
    format      ascii;
    class       volScalarField;
    location    "0.059";
    object      p;
}
// * * * * * * * * * * * * * * * * * * * * * * * * * * * * * * * * * * * * * //

dimensions      [0 2 -2 0 0 0 0];

internalField   nonuniform List<scalar> 
880
(
80
80
80
80.00000081277868
80
80
79.99999999999991
80.000035555848
80
79.99999999999999
80
80.00060487192005
80
80
79.99999999991569
80.00065695538694
80
80.00000000000001
79.99999999999994
80.00000000003833
79.99999999999999
80
79.99999999999983
80
79.99999999697648
79.99999998908679
80.00133658277896
79.99504255573821
80.28302732841244
81.46120870159733
82.71232952208645
83.3676171948991
80.00000015782295
80.0000002220095
80.00000025740978
80.00000009716132
80.00000854587547
80.00001315101584
80.00001578411994
80.00000701712391
80.01184650861609
80.01349039385546
80.01528187262058
80.01167494392146
83.76080938298878
84.21051862121715
84.44951793639136
84.72164133525064
84.53363703395971
83.33817070391959
82.03872722253217
80.91001088563631
80.0305712466553
80.03306703659072
80.02616557827463
80.01112721270277
80.00004662108549
80.00005021382137
80.00003883599159
80.00001624894995
80.00000087860492
80.00000082910341
80.00000051941348
80.0000001556224
80.00000001525906
80.00000000015011
80
80.00000000000001
80.00000267509115
80.00000011819915
79.99999999979534
79.99999999972714
80.00201128818719
80.0001069456797
80.00000088097259
79.99999986408221
80.21553126058069
80.01731305838712
80.00028128151824
79.99999623184428
79.99999767860247
79.99999994327412
80.00000000003485
80
79.99999770030372
79.99999981815085
79.99999999202564
80.00000000002115
80.00017361488929
80.00003953556947
80.00000196793147
80.00000003667985
80.11027879998878
79.99290738180916
79.99982837928086
79.99999987023405
79.99999978183077
79.99996911103366
80.0024619380886
85.60836392701083
80.00000057035604
80.00002951681093
80.03802448470204
92.66513023086686
80.00000150375317
80.00008812361951
80.07904381549301
97.73946826303219
80.00000202181
80.00011995906077
80.10264280177243
100.6946209299456
102.0208414330692
80.11932549825735
80.00014938553345
80.00000259379971
103.541705422246
80.14424681008907
80.00019642672032
80.00000345018582
104.7486448194257
80.16531665145341
80.0002390252198
80.00000438378309
106.5931646869694
80.2131468891573
80.00035385128118
80.0000066697523
80.00000595405982
80.00031492540147
80.22079012889617
108.7533680446227
80.00000724359735
80.00038359655319
80.25427563212384
109.8162249590958
80.00000950752353
80.00047173739375
80.27522981453096
108.1219439447894
80.00000648722538
80.00029590015906
80.12450465277404
97.70333654237697
79.99986683948039
80.00032465339279
80.25215985432806
85.89906941580077
79.99995204708284
79.99593893164516
79.84101032282119
73.37769034409743
79.9999922594842
79.99518304347094
79.44455518176645
63.58428396636342
79.99999234969368
79.99388678677724
78.93242347686319
55.88607215147299
56.16423785457042
79.26646825843046
79.99709970172063
79.99999510585525
56.47510458423621
79.35397379262947
79.99756980966318
79.99999619476635
59.70245783743054
79.58539938615412
79.99868265833652
79.99999802260992
58.9660363420922
79.51916061565609
79.99843781329373
79.99999773979792
66.99044583300648
79.85471700725229
79.99963617266307
79.99999945667385
74.44918797078446
79.97445393498026
79.99995487626136
79.99999994696157
78.23342125459419
79.99468546788506
79.99999157043781
79.99999999090198
79.05763523933858
79.99526314717683
79.99998932285362
79.99999998012605
76.5918369797643
79.9460953369187
79.99970659211695
79.99999931132761
76.62184017882647
79.94606329335316
79.99970646472296
79.99999930919154
76.67256926667437
79.94576332467095
79.99970467552123
79.99999929046164
76.88301573390092
79.94666707413811
79.99970536732695
79.99999927232138
79.05763523920446
79.99526314693898
79.99998932251324
79.99999998038582
78.23342125419688
79.99468546757883
79.99999156967088
79.99999999097641
74.44918797076727
79.97445393509675
79.99995487625981
79.99999994701551
66.99044583316392
79.85471700790589
79.9996361727187
79.99999945648167
79.99999510632468
79.9970997027026
79.26646825846539
56.164237854593
79.99999619513412
79.99756980982397
79.35397379296327
56.47510458427346
79.99999802216948
79.99868265879785
79.58539938619795
59.70245783806626
79.99999773989639
79.99843781343029
79.51916061637965
58.96603634166102
55.88607215079523
78.93242347650251
79.99388678620612
79.99999234956806
63.58428396579666
79.44455518131301
79.9951830427339
79.99999225859918
73.37769034396297
79.84101032223271
79.99593893164483
79.99995204648668
85.89906941595838
80.25215985416889
80.00032465317982
79.99986684042609
80.00000595383072
80.00031492591549
80.22079012919248
108.7533680451991
80.00000724371894
80.0003835967658
80.25427563212271
109.8162249590427
80.00000950801059
80.00047173739756
80.2752298141055
108.121943944738
80.0000064880944
80.00029590014564
80.12450465245782
97.70333654228619
106.5931646880522
80.21314688863947
80.0003538520326
80.00000666964296
104.7486448203885
80.16531665246323
80.00023902537694
80.00000438394318
103.5417054224164
80.14424681104664
80.00019642739292
80.00000345005415
102.0208414328678
80.11932549745738
80.00014938553929
80.00000259365203
79.99999978222185
79.99996911153711
80.00246193805911
85.60836392634363
80.00000056994766
80.00002951631615
80.03802448486492
92.66513023078957
80.00000150353139
80.00008812360565
80.07904381598676
97.73946826330355
80.0000020215429
80.00011995921814
80.1026428011324
100.694620930527
79.99999987014925
80.00000003683377
80.00000000001567
80
79.99982837861471
80.00000196783552
79.99999999244024
79.999999999976
79.9929073819559
80.00003953587294
79.99999981785746
79.9999999431306
80.11027879999895
80.00017361494399
79.99999770032643
79.99999767861341
79.99999999999991
79.99999999973529
79.99999986423265
79.99999623199317
80
79.99999999969752
80.00000088182547
80.00028128153868
80.00000000019183
80.00000011819979
80.00010694519999
80.01731305846378
80.00000001536444
80.00000267496428
80.00201128872577
80.21553126036669
80.00000087803404
80.00004662054771
80.03057124634077
84.53363703378855
80.00000082862404
80.0000502139318
80.03306703658284
83.33817070346629
80.00000051926675
80.0000388366776
80.02616557814797
82.03872722242455
80.00000015548309
80.00001624931588
80.01112721266172
80.9100108852891
84.72164133532638
80.01167494493438
80.00000701675781
80.00000009688749
84.44951793627257
80.0152818738178
80.00001578397853
80.00000025756474
84.21051862207128
80.01349039387615
80.00001315120876
80.00000022183887
83.76080938280722
80.01184650607453
80.00000854566362
80.00000015796827
83.36761719516093
79.99504255740169
80
80.00000000003962
82.71232952185859
80.00133658134453
80
79.99999999999999
81.46120870179301
79.99999998896561
80
79.99999999999999
80.28302732806553
79.99999999690407
80
79.99999999999989
80
79.99999999999997
80
80.00000082476997
80.00000000000003
80.00000000000001
79.99999999999999
80.00003555421502
80
80
80
80.00060487237664
80
80
79.99999999997071
80.00065695527783
79.99996068785607
79.99992985455285
80.00056072500152
80.07301085485309
79.99992987023518
79.99949778550737
79.99899344801118
80.29679046777353
80.0005607182345
79.99899343914365
80.10545736523878
83.0429340519991
80.07301085796276
80.29679046474895
83.04293405521165
98.93802970088316
128.6747603575964
106.7447291630837
95.83592701567842
86.10019375162798
126.1922070331655
120.141832286352
116.1147535619606
105.56715505785
123.2311837416482
122.1492069903613
121.755332717781
117.6479521624408
124.3261966072424
124.1927549590801
124.9771020297467
123.406609487527
126.2487750925717
126.8970803679155
127.1060859675698
129.9509827589646
127.6934990146562
128.6284163299165
128.8057060343662
132.9107566617279
125.9780194433299
126.6660795794817
126.8324556010084
131.5135469035685
126.4541872250103
127.3062767573102
127.5181919885643
128.8607183372904
109.7998113505265
90.63965533818924
83.93525609017341
82.0157557733898
97.83273130692459
79.1116041722985
80.39426725839844
81.09907047583114
85.76783096906138
76.45902235664425
80.42655771381804
81.80393011387356
73.16619873498342
77.06223054468545
80.84107697769589
81.60322818321703
80.70510048637652
80.08228292411833
80.00227786618714
79.99999594358067
80.65268675320219
80.11538942330603
80.00384503556823
80.00000257564815
81.10585172529136
80.21179056326372
80.00792377898813
80.00001995579998
80.46382317038851
79.98174552657198
79.99173678883592
79.99982132946153
79.99999738658613
79.9999969228998
80.00010245360593
89.97381064232803
79.99999775139266
79.99999772423755
80.00021185311356
97.64305600522707
79.99999552596489
79.99999816677735
80.00018641709985
103.4747676951023
79.99999708718015
79.99999903197336
80.00017824535924
106.1969475096964
175.8629724580226
188.4594468081124
200.1951402191041
208.0935721219195
204.0257375029104
201.1820053779815
205.9682720558748
214.9161751431174
206.8820314442157
199.4696765673083
205.3137986364755
214.367554538473
221.8102280401621
206.7507348958407
208.1436070362495
216.7403462964978
210.1216264713533
210.9542421891873
211.3016220823923
211.7579988885518
217.82824911033
218.3670369944906
218.419397589246
218.2563304426712
218.2757422007873
218.972083325815
219.0471910040239
218.8889519214996
221.585574697344
222.4744668110989
222.4885491805584
222.2123069431186
212.58044595185
211.0488059413606
199.1746411267797
164.504818959064
219.0568373537885
216.6554314671973
204.7068700373394
177.4447834560453
219.1992941488285
216.1492519784924
202.5144769703452
186.0451774808622
222.5665411126116
220.1906687063285
207.6407875622934
211.4599201957064
99.37353505076148
30.63307374083004
11.40050139960554
7.766685551264048
84.83501617630569
19.12690972980823
8.340965228902474
5.883119391262842
52.82670442671643
13.0882585315948
8.370380361809218
6.619983551663811
30.52174916892794
4.814194085144723
8.590373004954047
8.111744107163977
8.378882169849462
8.456459295289065
9.046164402469495
7.624687956957652
5.470074238856716
5.806527127587198
6.821683308028314
5.569343411672565
6.225575034944348
6.873281052086792
7.815535455670527
6.819656130299561
7.965731542707496
8.946896269197849
9.262327360306877
7.058368167937147
29.93539329323123
49.67248507908419
59.16763938369387
64.78428292005373
22.15712423633928
41.33586242522961
49.91529886234692
61.18619260668881
18.74410352114685
38.29809189205213
46.83203274411454
60.27732798367885
11.71323965399556
26.04323605539435
40.27758323018131
54.07033913118515
50.21249423414415
34.57774252465057
35.80997763683078
36.72631535044372
39.47380724851515
17.87496301076748
10.22995476928603
20.8634671998898
29.89041997892146
11.66534896376313
5.699413632163216
6.259370081913339
18.74749812874529
3.206849004755115
3.233856334510135
6.622629855059263
7.720917960581917
7.609514460118595
7.356689904768045
7.481742641769735
10.44517254980864
13.95838413621024
15.22243727417455
18.40863092243253
26.24716712543552
25.71247466909492
21.16412066847943
15.70647775578511
33.53790166889291
29.14400951557833
22.42410438045393
16.72510732640263
7.481742641762223
18.4086309224123
15.7064777557832
16.72510732638884
7.356689904770303
15.22243727413788
21.16412066847876
22.42410438045524
7.60951446011899
13.95838413620196
25.71247466902593
29.14400951547717
7.720917960589889
10.44517254982115
26.24716712538825
33.53790166873802
36.72631535026617
35.80997763662113
34.5777425245
50.21249423377553
20.86346719983503
10.22995476930933
17.87496301072816
39.47380724835068
6.259370081921818
5.699413632157099
11.66534896372121
29.89041997884596
6.622629855067486
3.2338563345113
3.206849004753012
18.74749812871702
54.0703391311302
40.2775832302618
26.04323605556692
11.71323965405342
60.27732798354231
46.8320327440877
38.29809189217536
18.74410352117857
61.18619260658299
49.91529886218352
41.33586242532969
22.15712423632514
64.78428291994024
59.16763938349381
49.67248507918218
29.93539329322186
7.624687956847162
9.046164402611149
8.456459295303468
8.378882169813373
5.569343411652312
6.82168330807136
5.806527127618232
5.470074238870426
6.8196561303052
7.815535455695843
6.873281052118208
6.22557503495988
7.058368167949208
9.262327360314291
8.94689626922716
7.965731542723151
7.766685551064915
11.40050139940089
30.63307374079744
99.37353505071822
5.883119391238582
8.340965228814095
19.12690972973579
84.83501617583593
6.619983551637291
8.37038036172161
13.0882585315831
52.82670442645512
8.111744107135104
8.5903730049189
4.814194085160603
30.52174916886131
164.504818958794
199.1746411268159
211.0488059413542
212.5804459524007
177.4447834557672
204.7068700373478
216.6554314675296
219.0568373546578
186.0451774806556
202.5144769704703
216.1492519789648
219.1992941493434
211.4599201956239
207.6407875625598
220.1906687068212
222.5665411130941
211.757998889284
211.3016220830776
210.9542421895088
210.1216264708644
218.2563304431478
218.4193975897519
218.3670369948717
217.8282491100435
218.8889519217586
219.0471910043351
218.9720833261146
218.2757422007603
222.2123069432931
222.4885491809331
222.4744668114452
221.5855746969752
208.0935721226944
200.1951402191607
188.4594468080059
175.8629724577751
214.9161751435796
205.9682720559873
201.1820053779279
204.0257375027316
214.3675545387714
205.3137986366166
199.4696765671528
206.8820314439448
216.7403462968883
208.143607036304
206.7507348956719
221.8102280398274
89.97381064233841
80.0001024534297
79.99999692276846
79.99999738663911
97.64305600515483
80.00021185288772
79.99999772413017
79.99999775147927
103.474767694983
80.00018641689739
79.99999816674575
79.99999552604437
106.1969475095662
80.00017824515733
79.99999903197335
79.9999970872783
79.99999594364598
80.00227786625126
80.08228292435864
80.70510048599537
80.00000257568371
80.0038450355536
80.11538942364132
80.65268675261797
80.00001995580342
80.00792377890653
80.21179056367613
81.10585172478864
79.99982132950664
79.99173678867771
79.98174552703472
80.46382316967527
82.01575577316871
83.9352560900867
90.6396553378403
109.7998113504818
81.09907047562989
80.39426725837258
79.11160417201417
97.83273130707421
81.80393011362192
80.42655771380903
76.45902235644041
85.76783096923158
81.60322818295786
80.84107697768432
77.06223054454225
73.16619873510584
129.9509827587762
127.1060859672919
126.8970803677096
126.2487750929203
132.910756661507
128.8057060342169
128.6284163297368
127.6934990149214
131.513546903436
126.8324556010182
126.6660795793256
125.9780194432211
128.8607183371879
127.5181919885128
127.306276757269
126.4541872251257
123.4066094877795
117.6479521620565
105.5671550583154
86.10019375146499
124.9771020299843
121.7553327174062
116.1147535622433
95.83592701684782
124.1927549596106
122.1492069900881
120.1418322866674
106.7447291633112
124.3261966075571
123.2311837414075
126.1922070332011
128.674760358048
78.96531943259841
79.99191310378984
79.99996769688867
79.99999993399362
78.41189619673078
79.98251256622714
79.99991674835198
79.99999981230422
77.83127638910135
79.96786164219337
79.99983004520533
79.99999958414807
76.46913410909397
79.94352437950117
79.99970878841448
79.99999929866821
79.99999931164209
79.99970659198269
79.94609533681084
76.59183697932971
79.99999930941694
79.99970646509479
79.9460632929167
76.62184017872876
79.99999929014987
79.99970467588447
79.9457633245346
76.67256926650334
79.99999927137122
79.99970536779749
79.94666707272997
76.88301573370855
79.99999929853709
79.99999958395912
79.99999981130108
79.99999993288498
79.99970878848735
79.99983004520239
79.99991674817907
79.99996769639259
79.94352437982604
79.96786164168586
79.9825125667127
79.99191310340836
76.46913410865265
77.83127638861599
78.41189619670367
78.96531943271275
)
;

boundaryField
{
    back
    {
        type            empty;
    }
    inlet
    {
        type            zeroGradient;
    }
    front
    {
        type            empty;
    }
    top
    {
        type            zeroGradient;
    }
    outlet
    {
        type            fixedValue;
        value           uniform 80;
    }
    bottom
    {
        type            zeroGradient;
    }
    wall
    {
        type            zeroGradient;
    }
}


// ************************************************************************* //
