/*--------------------------------*- C++ -*----------------------------------*\
  =========                 |
  \\      /  F ield         | OpenFOAM: The Open Source CFD Toolbox
   \\    /   O peration     | Website:  https://openfoam.org
    \\  /    A nd           | Version:  11
     \\/     M anipulation  |
\*---------------------------------------------------------------------------*/
FoamFile
{
    format      ascii;
    class       volScalarField;
    location    "0.006";
    object      rho;
}
// * * * * * * * * * * * * * * * * * * * * * * * * * * * * * * * * * * * * * //

dimensions      [0 0 0 0 0 0 0];

internalField   nonuniform List<scalar> 
880
(
0.3733250556165154
0.3733250556165154
0.3733250556165154
0.3733250556165154
0.3733250556165154
0.3733250556165154
0.3733250556165152
0.3733250556165154
0.3733250556165154
0.3733250556165153
0.3733250556165154
0.3733250556163585
0.3733250556165154
0.3733250556165154
0.3733250556165154
0.3733250555451095
0.3733250556165154
0.3733250556165155
0.3733250556165152
0.3733250556165154
0.3733250556165154
0.3733250556165154
0.3733250556165151
0.3733250556165154
0.3733250556165154
0.3733250556165154
0.3733250556165154
0.3733250556165154
0.373325058063571
0.3733250586730715
0.3733250583866951
0.3733250581431944
0.3733250556165154
0.3733250556165154
0.3733250556165152
0.3733250556165154
0.3733250556165154
0.3733250556165152
0.3733250556165154
0.3733250556165154
0.3733250556166606
0.3733250556165623
0.3733250556165701
0.3733250556165154
0.3733250574022727
0.3733250574137753
0.3733250574409985
0.3733250565276212
0.373325079127751
0.3733250636780139
0.3733250558876858
0.373325055617009
0.3733250556198556
0.3733250556177232
0.3733250556165724
0.3733250556165154
0.3733250556165154
0.3733250556165154
0.3733250556165153
0.3733250556165154
0.3733250556165154
0.3733250556165155
0.3733250556165154
0.3733250556165154
0.3733250556165152
0.3733250556165152
0.3733250556165154
0.3733250556165155
0.3733250556165154
0.3733250556165155
0.3733250556165154
0.3733250556165155
0.3733250556165151
0.3733250556165154
0.3733250556165151
0.3733250556165154
0.3733250556165152
0.3733250556165154
0.3733250556165152
0.3733250556165154
0.3733250556165154
0.3733250556165154
0.3733250556165154
0.3733250556165154
0.3733250556165154
0.3733250556165154
0.3733250556165154
0.3733250556165153
0.3733250556169204
0.3733250556165151
0.3733250556165154
0.3733250556165154
0.3733250535269667
0.373325055616306
0.3733250556165155
0.3733250556165153
0.3733250556165152
0.3733250556165153
0.3733250556165151
0.3733250556217965
0.3733250556165155
0.3733250556165154
0.3733250556165151
0.3733250556277362
0.3733250556165154
0.3733250556165154
0.3733250556165154
0.3733250556283259
0.3733250556165154
0.3733250556165154
0.3733250556165154
0.3733250556289545
0.3733250556296053
0.3733250556165154
0.3733250556165154
0.3733250556165154
0.3733250556303268
0.3733250556165152
0.3733250556165154
0.3733250556165154
0.3733250556311091
0.3733250556165154
0.3733250556165152
0.3733250556165154
0.3733250556315783
0.3733250556165154
0.3733250556165154
0.3733250556165154
0.3733250556165153
0.3733250556165154
0.3733250556165154
0.3733250556729997
0.3733250556165154
0.3733250556165154
0.3733250556165154
0.373325055669894
0.3733250556165154
0.3733250556165154
0.3733250556165154
0.3733250556921568
0.3733250556165154
0.3733250556164511
0.3733250555955819
0.3733250524238941
0.3733250556165151
0.3733250556280706
0.3733250994124339
0.3733589102372394
0.3733250556165154
0.3733250556257354
0.3733250982293394
0.3733685738417797
0.3733250556165154
0.3733250556221183
0.373325086574513
0.3733644076493667
0.3733250556165154
0.3733250556201359
0.3733250783577374
0.3733608998094973
0.3733733752017119
0.3733250862973526
0.3733250556230346
0.3733250556165154
0.3733732539947859
0.3733250823811528
0.3733250556216468
0.3733250556165154
0.3733696852663384
0.3733250776863904
0.3733250556203892
0.3733250556165154
0.3733672196291059
0.3733250762134216
0.3733250556199786
0.3733250556165154
0.3733265431294787
0.373325056014936
0.3733250556165165
0.3733250556165151
0.373325058342427
0.3733250556154432
0.3733250556165154
0.3733250556165154
0.3733250551980283
0.3733250556164075
0.3733250556165155
0.3733250556165154
0.3733250365859464
0.3733250556112472
0.3733250556165154
0.3733250556165154
0.3733261564270552
0.3733250561590318
0.3733250556165971
0.3733250556165151
0.3733261563646415
0.3733250561590827
0.3733250556165865
0.3733250556165154
0.3733261498423107
0.373325056156259
0.3733250556165177
0.3733250556165154
0.3733260832867841
0.3733250561306463
0.3733250556165135
0.3733250556165154
0.3733250365858671
0.3733250556112045
0.3733250556165154
0.3733250556165154
0.3733250551979289
0.3733250556163774
0.3733250556165152
0.3733250556165154
0.3733250583423834
0.3733250556154515
0.3733250556165154
0.3733250556165154
0.3733265431296222
0.3733250560150832
0.3733250556165163
0.3733250556165151
0.3733250556165154
0.3733250556231677
0.3733250862974298
0.3733733752017619
0.3733250556165154
0.3733250556216577
0.373325082381211
0.3733732539948524
0.3733250556165154
0.3733250556204674
0.3733250776863855
0.373369685266548
0.3733250556165154
0.3733250556199914
0.3733250762135962
0.373367219628951
0.3733608998093919
0.3733250783576643
0.3733250556200869
0.3733250556165153
0.373364407649183
0.3733250865744099
0.3733250556220012
0.3733250556165154
0.373368573841721
0.3733250982291877
0.3733250556257303
0.3733250556165154
0.3733589102372891
0.3733250994123796
0.3733250556280234
0.3733250556165155
0.3733250556165151
0.3733250556165156
0.3733250556165155
0.3733250556730998
0.3733250556165155
0.3733250556165154
0.3733250556165154
0.3733250556698533
0.3733250556165155
0.3733250556165154
0.3733250556165154
0.3733250556921329
0.3733250556165154
0.3733250556164299
0.373325055595525
0.3733250524239001
0.3733250556317442
0.3733250556165154
0.3733250556165154
0.3733250556165154
0.3733250556312409
0.3733250556165154
0.3733250556165154
0.3733250556165154
0.3733250556303285
0.3733250556165154
0.3733250556165154
0.3733250556165154
0.3733250556297037
0.3733250556165154
0.3733250556165154
0.3733250556165154
0.3733250556165154
0.3733250556165154
0.3733250556165154
0.3733250556216647
0.3733250556165154
0.3733250556165154
0.3733250556165154
0.3733250556277459
0.3733250556165154
0.3733250556165154
0.3733250556165154
0.3733250556283759
0.3733250556165154
0.3733250556165154
0.3733250556165151
0.3733250556289859
0.3733250556165154
0.3733250556165154
0.3733250556165154
0.3733250556165154
0.3733250556165154
0.3733250556165154
0.3733250556165154
0.3733250556165153
0.3733250556163093
0.3733250556165154
0.3733250556165154
0.3733250556165154
0.373325053526957
0.3733250556169204
0.3733250556165154
0.3733250556165154
0.3733250556165152
0.3733250556165154
0.3733250556165151
0.3733250556165154
0.3733250556165154
0.3733250556165153
0.3733250556165154
0.3733250556165153
0.3733250556165154
0.3733250556165154
0.3733250556165154
0.3733250556165154
0.3733250556165154
0.3733250556165153
0.3733250556165153
0.3733250556165154
0.3733250556165154
0.3733250556165154
0.373325055619793
0.3733250791277196
0.3733250556165153
0.3733250556165154
0.3733250556177325
0.3733250636778819
0.3733250556165153
0.3733250556165155
0.3733250556165201
0.3733250558876772
0.3733250556165154
0.3733250556165154
0.3733250556165154
0.3733250556169773
0.3733250565276737
0.3733250556165154
0.3733250556165153
0.3733250556165154
0.3733250574409547
0.3733250556166339
0.3733250556165154
0.3733250556165153
0.3733250574138737
0.3733250556165998
0.3733250556165154
0.3733250556165152
0.3733250574022403
0.3733250556165683
0.3733250556165154
0.3733250556165154
0.3733250581432727
0.3733250556165154
0.3733250556165154
0.3733250556165154
0.3733250583866565
0.3733250556165153
0.3733250556165154
0.3733250556165154
0.3733250586731596
0.3733250556165155
0.3733250556165154
0.3733250556165153
0.373325058063554
0.3733250556165154
0.3733250556165154
0.3733250556165151
0.3733250556165154
0.3733250556165154
0.3733250556165154
0.3733250556165154
0.3733250556165152
0.3733250556165155
0.3733250556165153
0.3733250556165154
0.3733250556165154
0.3733250556165154
0.3733250556165154
0.3733250556163428
0.3733250556165154
0.3733250556165154
0.3733250556165151
0.3733250555450373
0.3733250556165154
0.3733250556165337
0.3733250553647387
0.3733250381604213
0.3733250556163848
0.3733250556043053
0.3733250434687891
0.3733241946125145
0.3733250553647389
0.3733250434687972
0.3733251536870985
0.3734375727169232
0.373325038160492
0.3733241946125705
0.3734375727168633
0.3795747586043532
0.4540857497956814
0.3845685133594063
0.3736496082376241
0.3733260799119607
0.465677904854662
0.3877421008678159
0.37377814754051
0.3733265488344801
0.465885498238981
0.3877698185658433
0.3737794045221875
0.373326553152568
0.4659084775347836
0.3877468307060403
0.3737763860188431
0.3733265396774488
0.3733262382041725
0.373326232836397
0.3733262329119456
0.3733258029405801
0.3738134330628481
0.3738174404314221
0.3738174807252193
0.3738080956083615
0.3884852500695807
0.3885602076768537
0.3885615883634838
0.389538839846521
0.4690794049375405
0.4695788608229862
0.4695908969935491
0.4807635590361282
0.3733329562429195
0.3733273085805824
0.3733250979837689
0.37332505566725
0.373640711781405
0.3733431560029716
0.3733249352877179
0.3733250562587399
0.3748377191148479
0.3733044575145591
0.3733246638261138
0.3733250716371529
0.3756142906461564
0.3730991205280942
0.3733133798171835
0.3733250718011424
0.3733250556165176
0.3733250556165152
0.3733250556165154
0.3733250556165152
0.3733250556304265
0.3733250556163869
0.3733250556165154
0.3733250556165154
0.3733250561326455
0.3733250556167927
0.3733250556162847
0.3733250556165154
0.3733250609414093
0.3733250556764403
0.373325055615741
0.3733250556165151
0.3733250556165152
0.3733250556165152
0.3733250556165153
0.3733242073636995
0.3733250556165154
0.3733250556165154
0.3733250556165152
0.3731101219167236
0.3733250556165154
0.3733250556165154
0.3733250556165152
0.3678904761805709
0.3733250556165154
0.3733250556165154
0.3733250556165152
0.3478700848247789
0.3733250718686841
0.3733250757526652
0.3733250759577122
0.3733250759586364
0.3734595726547428
0.3734830444839631
0.373483877057528
0.3734838581642492
0.3985536315865698
0.4009637533607404
0.4009362711023125
0.4009307648881595
0.6369858512149674
0.6460407285809283
0.6442668923393108
0.6442202011469661
0.3733250759601456
0.3733250759622732
0.3733250759645751
0.373325076305583
0.3734838570148518
0.3734838570125218
0.3734838570127001
0.3734856753536304
0.4009307743171092
0.4009307775256212
0.4009307775194878
0.4009698340428254
0.6442206301503315
0.6442207057271384
0.6442207056445303
0.6442064069624033
0.3733251072638089
0.373325100995253
0.3733251142180922
0.3733253787812197
0.3734570712289394
0.3734438386324535
0.3734387115297881
0.3732649592181543
0.3983943195861064
0.3972086958910762
0.3958177167038734
0.3955629772682063
0.6305810079168479
0.6252522535076601
0.6195889131727149
0.6863230625947905
0.3737382297875641
0.373959902478985
0.3739625672379477
0.3740041011545931
0.3626435951853372
0.3573015167019606
0.3571248777234942
0.357199545361484
0.2643134982234299
0.230547350322733
0.2300293644197009
0.2297895925699203
0.1541543647406892
0.09334112680991077
0.09238239508158001
0.09211205615236628
0.374821668999833
0.3749076528616818
0.3748986308960136
0.3743649035658713
0.3557375841970511
0.355777238940415
0.3556544770503249
0.3449570099048827
0.2169900850443089
0.216595256323524
0.2166570788813356
0.1898226528361619
0.0906077447264427
0.09045869976171728
0.09083332336717985
0.07444592522713518
0.3735781619424648
0.3733278569284197
0.3733250107772515
0.3733184645031531
0.3735289258538652
0.3733755904983622
0.3733257003605215
0.3732411219135827
0.3693423991498714
0.3733914184236569
0.3732808837749618
0.3731746005670969
0.3487365137172
0.3730277300188884
0.3729956723194614
0.3817073010712961
0.3735281066815825
0.3736216231780949
0.3736261868848483
0.3736558801880782
0.3737682725690026
0.3741602972890255
0.3741902000301442
0.3743515818800515
0.3524962474394793
0.3522993161892225
0.3515335898915871
0.351430578265415
0.2220365030018941
0.1910124185132689
0.183905247308966
0.1818891153878647
0.1741764725995164
0.1727132812511678
0.1725001065890432
0.1724913796935126
0.3475546548930943
0.347323336712305
0.3472797097603251
0.3472762193808174
0.375187838655297
0.3754885180079542
0.3755037616806849
0.3755037620918499
0.3738885934601323
0.3739486382718544
0.3739520118508908
0.373952036526194
0.1724913796935102
0.3472762193807886
0.3755037620918965
0.3739520365261931
0.1725001065891571
0.3472797097602101
0.3755037616808971
0.3739520118508645
0.1727132812511292
0.3473233367123525
0.3754885180077422
0.3739486382718182
0.1741764725995251
0.3475546548932013
0.3751878386552235
0.3738885934600055
0.3736558801880188
0.373626186884793
0.3736216231780029
0.3735281066813791
0.3743515818798976
0.3741902000301507
0.3741602972892633
0.3737682725687867
0.3514305782654227
0.3515335898916363
0.3522993161892033
0.3524962474394728
0.1818891153878467
0.1839052473089691
0.1910124185132908
0.2220365030018999
0.381707301071304
0.3729956723194584
0.3730277300188884
0.3487365137171383
0.3731746005670881
0.3732808837749594
0.3733914184236569
0.3693423991498521
0.3732411219135788
0.3733257003602933
0.3733755904983513
0.3735289258538529
0.3733184645031372
0.3733250107772241
0.3733278569283897
0.3735781619424799
0.3743649035658402
0.3748986308959084
0.3749076528616168
0.3748216689997078
0.3449570099048631
0.355654477050395
0.3557772389405617
0.3557375841971518
0.1898226528362995
0.2166570788814082
0.2165952563235295
0.2169900850443122
0.07444592522706682
0.09083332336720652
0.09045869976169582
0.09060774472645554
0.374004101154318
0.3739625672380864
0.3739599024791599
0.3737382297876557
0.3571995453616981
0.3571248777235383
0.3573015167019908
0.362643595185296
0.2297895925698663
0.2300293644195913
0.2305473503228927
0.2643134982232757
0.09211205615244826
0.09238239508149022
0.09334112680981335
0.1541543647406843
0.3733253787812325
0.3733251142181744
0.3733251009951838
0.3733251072638791
0.3732649592179902
0.3734387115298745
0.3734438386324918
0.3734570712290661
0.395562977267984
0.3958177167038154
0.3972086958911214
0.3983943195859821
0.6863230625946979
0.6195889131725896
0.6252522535075148
0.6305810079166482
0.3733250763055541
0.3733250759647313
0.373325075962252
0.3733250759602866
0.3734856753535628
0.3734838570128483
0.3734838570127593
0.3734838570147592
0.4009698340425805
0.4009307775195058
0.4009307775256293
0.4009307743169976
0.6442064069620329
0.6442207056443611
0.6442207057270535
0.6442206301502703
0.3733250759584578
0.3733250759577998
0.3733250757526987
0.3733250718687389
0.3734838581642774
0.3734838770576712
0.3734830444837046
0.3734595726549932
0.4009307648880953
0.4009362711023872
0.4009637533607197
0.3985536315866258
0.6442202011468898
0.6442668923393051
0.6460407285807489
0.6369858512150821
0.373324207363696
0.3733250556165153
0.3733250556165152
0.3733250556165152
0.3731101219167177
0.3733250556165152
0.3733250556165154
0.3733250556165154
0.3678904761805861
0.3733250556165152
0.3733250556165154
0.3733250556165154
0.3478700848248094
0.3733250556165152
0.3733250556165154
0.3733250556165154
0.3733250556165152
0.3733250556165154
0.3733250556165152
0.3733250556165179
0.3733250556165154
0.3733250556165154
0.3733250556163869
0.3733250556304265
0.3733250556165154
0.3733250556162874
0.3733250556167927
0.3733250561326423
0.3733250556165151
0.373325055615741
0.3733250556764415
0.3733250609413958
0.3733250556672474
0.3733250979837689
0.3733273085805613
0.3733329562429106
0.3733250562587399
0.3733249352877179
0.3733431560029742
0.373640711781382
0.3733250716371544
0.3733246638261138
0.3733044575145566
0.3748377191148503
0.3733250718011424
0.3733133798171835
0.3730991205280867
0.3756142906461548
0.3733258029407125
0.3733262329119195
0.3733262328363458
0.3733262382043089
0.3738080956081307
0.3738174807252276
0.3738174404315158
0.3738134330629908
0.3895388398463709
0.3885615883634154
0.3885602076766487
0.3884852500696652
0.4807635590360269
0.4695908969933962
0.4695788608227391
0.4690794049375251
0.3733265396775681
0.3733265531525396
0.373326548834548
0.3733260799120991
0.3737763860186892
0.3737794045223424
0.3737781475403901
0.3736496082375774
0.3877468307060892
0.3877698185656402
0.3877421008677102
0.3845685133592815
0.4659084775346961
0.4658854982384381
0.4656779048543943
0.4540857497954675
0.3733258507835211
0.3733250560140167
0.3733250556165609
0.3733250556165154
0.3733260415680176
0.3733250560559611
0.3733250556165559
0.3733250556165156
0.373326041661842
0.3733250560524556
0.3733250556165548
0.3733250556165151
0.3733260797702449
0.373325056055927
0.373325055616567
0.3733250556165154
0.3733250556165154
0.3733250556165897
0.3733250561590619
0.3733261564270723
0.3733250556165154
0.3733250556166016
0.3733250561589436
0.3733261563647526
0.3733250556165154
0.373325055616586
0.3733250561563273
0.3733261498421337
0.3733250556165153
0.3733250556165828
0.3733250561302815
0.3733260832867512
0.3733250556165154
0.3733250556165154
0.3733250556165154
0.373325055616515
0.3733250556165716
0.3733250556165548
0.3733250556165527
0.3733250556165516
0.3733250560560534
0.3733250560522715
0.3733250560561555
0.3733250560138958
0.3733260797701548
0.3733260416616213
0.3733260415681077
0.3733258507835593
)
;

boundaryField
{
    back
    {
        type            empty;
    }
    inlet
    {
        type            calculated;
        value           nonuniform List<scalar> 
16
(
0.3733250556165154
0.3733250556165154
0.3733250556165154
0.3733250556165154
0.3733250556165154
0.3733250556165155
0.3733250556165152
0.3733250556165154
0.3733250556165154
0.3733250556165154
0.3733250556165154
0.3733250556165151
0.3733250556165154
0.3733250556165152
0.3733250556165154
0.3733250556165154
)
;
    }
    front
    {
        type            empty;
    }
    top
    {
        type            calculated;
        value           nonuniform List<scalar> 
40
(
0.3733250556165154
0.3733250556165154
0.3733250556165152
0.3733250556165154
0.3733250556165154
0.3733250556165155
0.3733250556165154
0.3733250556165154
0.3733250556165152
0.3733250556165152
0.3733250556165154
0.3733250556165155
0.3733250556165154
0.3733250556165154
0.3733250556165154
0.3733250556165154
0.3733250556165152
0.3733250556165155
0.3733250556165154
0.3733250556165154
0.3733250556165154
0.3733250556165154
0.3733250556165154
0.3733250556165154
0.3733250556165153
0.3733250556165154
0.3733250556165154
0.3733250556165154
0.3733250556165151
0.3733250556165154
0.3733250556165154
0.3733250556165154
0.3733250556165154
0.3733250556165154
0.3733250556165154
0.3733250556165154
0.3733250556165151
0.3733250556165154
0.3733250556165154
0.3733250556165154
)
;
    }
    outlet
    {
        type            calculated;
        value           uniform 0.3733250556165154;
    }
    bottom
    {
        type            calculated;
        value           nonuniform List<scalar> 
40
(
0.3733250556165154
0.3733250556165154
0.3733250556165154
0.3733250556165151
0.3733250556165154
0.3733250556165154
0.3733250556165154
0.3733250556165154
0.3733250556165154
0.3733250556165154
0.3733250556165154
0.3733250556165155
0.3733250556165151
0.3733250556165155
0.3733250556165155
0.3733250556165154
0.3733250556165154
0.3733250556165154
0.3733250556165154
0.3733250556165154
0.3733250556165154
0.3733250556165154
0.3733250556165154
0.3733250556165154
0.3733250556165154
0.3733250556165154
0.3733250556165154
0.3733250556165154
0.3733250556165152
0.3733250556165154
0.3733250556165154
0.3733250556165154
0.3733250556165154
0.3733250556165153
0.3733250556165154
0.3733250556165154
0.3733250556165154
0.3733250556165154
0.3733250556165153
0.3733250556165154
)
;
    }
    wall
    {
        type            calculated;
        value           nonuniform List<scalar> 
104
(
0.4540857497956814
0.465677904854662
0.465885498238981
0.4659084775347836
0.4690794049375405
0.4695788608229862
0.4695908969935491
0.4807635590361282
0.3756142906461564
0.3730991205280942
0.3733133798171835
0.3733250718011424
0.3733250609414093
0.3733250556764403
0.373325055615741
0.3733250556165151
0.3733250556165154
0.3733250556165154
0.3733250556165152
0.3478700848247789
0.6369858512149674
0.6460407285809283
0.6442668923393108
0.6442202011469661
0.6442206301503315
0.6442207057271384
0.6442207056445303
0.6442064069624033
0.6305810079168479
0.6252522535076601
0.6195889131727149
0.6863230625947905
0.1541543647406892
0.09334112680991077
0.09238239508158001
0.09211205615236628
0.0906077447264427
0.09045869976171728
0.09083332336717985
0.07444592522713518
0.3487365137172001
0.3730277300188884
0.3729956723194615
0.3817073010712961
0.2220365030018941
0.1910124185132689
0.183905247308966
0.1818891153878647
0.1741764725995164
0.1727132812511678
0.1725001065890432
0.1724913796935126
0.1724913796935102
0.1725001065891571
0.1727132812511292
0.1741764725995251
0.1818891153878467
0.1839052473089691
0.1910124185132908
0.2220365030018999
0.381707301071304
0.3729956723194584
0.3730277300188884
0.3487365137171383
0.07444592522706682
0.09083332336720652
0.09045869976169582
0.09060774472645554
0.09211205615244826
0.09238239508149022
0.09334112680981335
0.1541543647406843
0.6863230625946979
0.6195889131725896
0.6252522535075148
0.6305810079166482
0.6442064069620329
0.6442207056443611
0.6442207057270535
0.6442206301502703
0.6442202011468898
0.6442668923393051
0.6460407285807489
0.6369858512150821
0.3478700848248094
0.3733250556165152
0.3733250556165154
0.3733250556165154
0.3733250556165151
0.373325055615741
0.3733250556764415
0.3733250609413957
0.3733250718011424
0.3733133798171834
0.3730991205280867
0.3756142906461548
0.4807635590360269
0.4695908969933962
0.4695788608227391
0.4690794049375251
0.4659084775346961
0.4658854982384381
0.4656779048543943
0.4540857497954675
)
;
    }
}


// ************************************************************************* //
