/*--------------------------------*- C++ -*----------------------------------*\
  =========                 |
  \\      /  F ield         | OpenFOAM: The Open Source CFD Toolbox
   \\    /   O peration     | Website:  https://openfoam.org
    \\  /    A nd           | Version:  11
     \\/     M anipulation  |
\*---------------------------------------------------------------------------*/
FoamFile
{
    format      ascii;
    class       volScalarField;
    location    "0.0555";
    object      rho;
}
// * * * * * * * * * * * * * * * * * * * * * * * * * * * * * * * * * * * * * //

dimensions      [0 0 0 0 0 0 0];

internalField   nonuniform List<scalar> 
880
(
0.3733250556165154
0.3733250556165154
0.3733250556165154
0.3733250584494208
0.3733250556165154
0.3733250556165154
0.3733250556165152
0.3733250946910736
0.3733250556165154
0.3733250556165153
0.3733250556165154
0.3733265251364502
0.3733250556165154
0.3733250556165154
0.3733250556165331
0.3733292970269668
0.3733250556165154
0.3733250556165155
0.3733250556165152
0.3733250556165154
0.3733250556165154
0.3733250556165154
0.3733250556165151
0.3733250556165154
0.3733250556134481
0.3733250554891023
0.373327750115078
0.3733144876673661
0.3741251647086418
0.3773382000896752
0.3805766958856368
0.3821152625547892
0.373325055937839
0.3733250560589299
0.3733250561252135
0.3733250558111761
0.3733250742011388
0.3733250833834766
0.3733250885327875
0.3733250698604444
0.3733518613363282
0.3733549371118876
0.3733588395135402
0.3733495684188267
0.3830165993235682
0.3840669450514496
0.3847507286157796
0.3850805105142848
0.3850741808431065
0.3822188254592981
0.3786885205193012
0.3754711703919404
0.3733949338570941
0.3733969234381547
0.3733780909000454
0.3733451518850077
0.3733251561677253
0.3733251572541068
0.373325127902478
0.3733250819138677
0.3733250573960996
0.3733250572122197
0.3733250565131633
0.3733250558445758
0.3733250556340904
0.3733250556165289
0.3733250556165154
0.3733250556165155
0.3733250591095485
0.3733250557284625
0.3733250556136788
0.3733250556161692
0.3733279884131271
0.3733251660567325
0.3733250558256745
0.3733250553455345
0.3737219813575843
0.373346409767467
0.3733252282074633
0.3733250418985278
0.3733250493591989
0.3733250555206562
0.3733250556165154
0.3733250556165154
0.3733250477835488
0.373325055097307
0.373325055595997
0.3733250556165149
0.3733263273416706
0.3733252009267106
0.3733250607143254
0.3733250556846748
0.3732812048478824
0.3732988812259054
0.3733248095548631
0.3733250555034459
0.3733250554476027
0.373325020700072
0.3733303653630057
0.386565717126909
0.3733250568553512
0.3733251217901842
0.3734076055694278
0.4028529320372751
0.3733250585264148
0.3733252278530921
0.3734791955998896
0.412287206041997
0.3733250594591998
0.3733252829253371
0.3735180852111656
0.4175406600517892
0.4202103618814181
0.3735497818363403
0.373325339138572
0.373325060544419
0.4235916980851691
0.3735961308533003
0.3733254250196167
0.3733250621284076
0.4263675716164376
0.3736391679174307
0.3733255108333545
0.3733250639441928
0.430531277493717
0.3737263932578816
0.3733257162557449
0.3733250680979721
0.3733250664951089
0.373325630065193
0.3737337024658584
0.4350736823429414
0.3733250686183222
0.3733257433386487
0.3737891984833709
0.4373746013741823
0.3733250725232315
0.3733258954468034
0.373830331348646
0.4344503876973774
0.3733250668909312
0.3733256333903048
0.3735714376965372
0.4112550506981685
0.3733246513288012
0.3733225814030462
0.3736794924646275
0.3802044236443581
0.3733250280789888
0.373318204616288
0.3725216367393568
0.3359089187749305
0.3733250409664552
0.3733156324052897
0.3713467426267362
0.2996156159729397
0.3733250394536472
0.3733100924568345
0.3697243967895344
0.2712308292741321
0.2768950936405246
0.3710657297847505
0.3733178749040963
0.3733250447694719
0.2816427575110643
0.371354490631213
0.3733190183376764
0.3733250472139673
0.2941394678979634
0.3720449500328719
0.3733216893555294
0.3733250511321134
0.2882641333759383
0.3717853526397845
0.3733209986862926
0.3733250504257259
0.3261992628993439
0.3728918002570896
0.3733241402192413
0.373325054422201
0.3572077215842815
0.3732637903552153
0.3733249597140688
0.3733250555163304
0.369148137822416
0.3733142426671534
0.3733250398121374
0.3733250556005061
0.3707409098558997
0.3733132369034121
0.373325031346685
0.3733250555748727
0.3609669296062527
0.3731670513090883
0.3733243387688933
0.3733250542372085
0.3610423237658833
0.3731670118961061
0.373324338691185
0.3733250542309065
0.3612028687950918
0.3731661728845515
0.3733243345754486
0.3733250541771503
0.3617171863620671
0.3731678278868655
0.3733243367401442
0.3733250541126252
0.3707409098558823
0.3733132369028626
0.37332503134594
0.3733250555753889
0.3691481378212362
0.3733142426664496
0.3733250398103807
0.3733250556006483
0.3572077215838968
0.3732637903553211
0.373324959713928
0.3733250555165489
0.3261992628998781
0.3728918002584491
0.3733241402193644
0.3733250544218086
0.373325044770753
0.3733178749059005
0.3710657297851656
0.2768950936406641
0.3733250472145776
0.3733190183381808
0.3713544906318855
0.2816427575112609
0.3733250511310329
0.3733216893565598
0.3720449500328841
0.2941394678990318
0.3733250504260568
0.3733209986864017
0.3717853526417791
0.288264133374966
0.271230829272255
0.3697243967888205
0.3733100924562826
0.3733250394534692
0.2996156159711547
0.3713467426256884
0.3733156324034937
0.3733250409646894
0.3359089187744026
0.3725216367379103
0.3733182046162806
0.3733250280771109
0.3802044236447243
0.3736794924640948
0.3733225814025589
0.373324651330864
0.3733250664946939
0.3733256300662168
0.3737337024667499
0.435073682344296
0.3733250686186624
0.3733257433388964
0.3737891984832868
0.4373746013738153
0.3733250725243326
0.3733258954468459
0.3738303313475413
0.43445038769716
0.3733250668929525
0.3733256333902758
0.3735714376957854
0.4112550506979832
0.4305312774964448
0.373726393256634
0.3733257162573972
0.3733250680977217
0.4263675716189778
0.3736391679185797
0.3733255108340278
0.3733250639445997
0.4235916980861533
0.3735961308561804
0.3733254250207695
0.3733250621280962
0.4202103618804091
0.3735497818357408
0.3733253391389565
0.3733250605440568
0.3733250554484503
0.3733250207013156
0.3733303653629239
0.3865657171249514
0.373325056854275
0.3733251217890889
0.3734076055698607
0.4028529320375615
0.3733250585259361
0.373325227853105
0.3734791956011255
0.4122872060424024
0.373325059458596
0.3733252829255657
0.3735180852085556
0.4175406600537347
0.3733250555032759
0.3733250556850208
0.3733250556165079
0.3733250556165154
0.373324809553113
0.3733250607139894
0.3733250555971076
0.3733250556165153
0.3732988812262092
0.3733252009275929
0.3733250550965643
0.3733250555203064
0.3732812048478886
0.3733263273418381
0.37332504778359
0.3733250493591826
0.3733250556165152
0.3733250556161678
0.373325055345756
0.3733250418988555
0.3733250556165154
0.3733250556134981
0.3733250558275628
0.3733252282075288
0.373325055616535
0.3733250557284395
0.3733251660559971
0.3733464097676708
0.3733250556343007
0.3733250591090656
0.3733279884140204
0.3737219813572445
0.3733250573947647
0.373325156166316
0.3733949338562055
0.3850741808425941
0.3733250572111374
0.3733251572546127
0.3733969234383213
0.3822188254581041
0.3733250565129326
0.3733251279043745
0.3733780908997742
0.3786885205190836
0.3733250558443155
0.373325081914781
0.3733451518850916
0.3754711703911908
0.3850805105146186
0.3733495684205033
0.3733250698594254
0.373325055810541
0.3847507286152908
0.3733588395162243
0.3733250885323881
0.3733250561255913
0.3840669450531679
0.3733549371123628
0.3733250833838891
0.3733250560585801
0.3830165993232966
0.3733518613317955
0.3733250742007025
0.3733250559381363
0.3821152625554401
0.3733144876701881
0.3733250556165154
0.3733250556165154
0.38057669588509
0.3733277501120388
0.3733250556165154
0.3733250556165154
0.3773382000902212
0.3733250554889067
0.3733250556165154
0.3733250556165153
0.3741251647077065
0.3733250556131908
0.3733250556165154
0.3733250556165151
0.3733250556165154
0.3733250556165154
0.3733250556165154
0.3733250584948304
0.3733250556165152
0.3733250556165155
0.3733250556165153
0.3733250946853784
0.3733250556165154
0.3733250556165154
0.3733250556165154
0.373326525137604
0.3733250556165154
0.3733250556165154
0.3733250556165151
0.373329297026909
0.3733249093046197
0.373324690581229
0.3733261948654714
0.3735517807899669
0.3733246906333112
0.3733231163362905
0.3733214694757479
0.3741407067985499
0.3733261948520745
0.3733214694535772
0.3736282375713078
0.3824273291617182
0.3735517807985632
0.3741407067908151
0.3824273291673322
0.4298084225464566
0.5137619209850443
0.4517066234190013
0.4217470538551923
0.3920161992386603
0.5091749576136343
0.4924454722755471
0.4825001885292249
0.4509320173398319
0.5041693253213601
0.5014956183230657
0.5010081290998232
0.4888638696750877
0.5091264545365607
0.5100625540744698
0.512629301512566
0.5063750069783433
0.514174591311015
0.5155942721506331
0.5161118856495619
0.5244412961157919
0.5208534455137666
0.5227218596139225
0.5229914072949395
0.5353078988907041
0.5156940515845754
0.5168645372895654
0.5170311794010144
0.5330562912720435
0.515114261468686
0.5162663255991008
0.5164632488799866
0.5246073213748017
0.4653151855246383
0.4068650114726767
0.3860948773872523
0.3791634164292518
0.4291273662413891
0.3675116813728562
0.3730369668499341
0.3761626196966521
0.3869858481423745
0.3578666597524773
0.37269179939164
0.378356061594282
0.3518871057143239
0.3632877479184937
0.3743489527936493
0.3766328761348686
0.3748673761551161
0.3734399730325002
0.3733265235209194
0.3733250257832187
0.3748177224072133
0.373492828162627
0.3733273693296174
0.373325059782211
0.3759584342156801
0.3736459075170624
0.3733307045443307
0.3733250503771257
0.3738694000504468
0.3732210292917699
0.3733150031904796
0.3733249229276107
0.3733250486697441
0.3733250487078428
0.3733259805853719
0.4002461899868225
0.3733250560612643
0.3733250517568062
0.3733260635861501
0.4197575528583792
0.3733250548401309
0.3733250538222544
0.3733256135888521
0.4318051271730541
0.3733250527538065
0.3733250545407051
0.3733254004388634
0.4358914382653148
0.6269702482602588
0.6572857613367281
0.6809837262282787
0.6941196525456413
0.6975835197070644
0.6885963991154659
0.7034916977047584
0.7232609888458904
0.7023603388366495
0.6852185731608109
0.7008904441210365
0.7228591338310882
0.7355547892286926
0.7042800322704431
0.7134066487134783
0.7360325182682523
0.6968582886504363
0.6979003078505309
0.6981869272296833
0.698306230482135
0.7282969686747334
0.7289456656416918
0.7288907418552371
0.7283035259754085
0.7299491800733915
0.7309419212078893
0.7311262189303415
0.7307218825567864
0.7450465808006869
0.7461387424056208
0.7461619166050106
0.7455454313757909
0.6985159468216392
0.6962907120443166
0.6718055451033305
0.5939389140138581
0.7295266927606531
0.7260598559908071
0.6971865344615199
0.6212580287615223
0.7316466324368815
0.7259381145239711
0.69560525878391
0.6347244074154225
0.7458130595209332
0.7399679554196217
0.7037182592148364
0.7371379571879689
0.3974099630637535
0.1388466924286151
0.06914465190107845
0.05496476467619976
0.343308416328331
0.09849683424116017
0.0576296495927504
0.04807997377669142
0.2452589919227676
0.07597532748776738
0.0677415965926511
0.06368812263187719
0.1737664854830517
0.03775892288962369
0.07572962011846796
0.08405178185245507
0.05793163998962539
0.05856700122501384
0.06238287372536372
0.05617408745888556
0.04551144650945257
0.04770396820447104
0.05616253654021676
0.04875587439796464
0.06209385574079575
0.06700399167588389
0.07351265571213808
0.05798247419748499
0.08458648986143948
0.09188423206936158
0.09113868906661692
0.06047645570174554
0.1690293131516944
0.2639804581792337
0.3077513687657914
0.3255787039734047
0.1257343916729841
0.2209478806124738
0.2680062015945682
0.3108620434509594
0.1080574356112134
0.196907182277745
0.2452523290583649
0.302177401354544
0.07344005519471063
0.1405740906716345
0.2109610146837084
0.2777292853311897
0.2736060533551744
0.2177785668864622
0.2220408139142578
0.2113290127769625
0.2266388560795548
0.127536568781286
0.1039344917375689
0.1663063895251735
0.1844042706819542
0.09856035276044083
0.06092441255069456
0.07768573255808731
0.1369286182542761
0.04634067407449597
0.06118376334125918
0.08537296098319344
0.08632541856930344
0.08416474893710013
0.07832942947771683
0.06495851932726794
0.1149425285366635
0.1301512033631896
0.1270339065165578
0.109666548709149
0.1820471455883891
0.1659252733755537
0.1289540500412871
0.09325202629405442
0.1852947590942626
0.1575409153267608
0.1246372645621626
0.1056550908142481
0.06495851932719678
0.1096665487091413
0.09325202629403927
0.1056550908140485
0.07832942947761606
0.1270339065163943
0.1289540500412074
0.1246372645621326
0.08416474893706198
0.1301512033630508
0.1659252733753164
0.157540915326382
0.08632541856936402
0.1149425285366645
0.1820471455881649
0.1852947590937603
0.2113290127763431
0.2220408139134402
0.2177785668860549
0.2736060533541382
0.1663063895249538
0.1039344917377611
0.1275365687811777
0.2266388560790602
0.07768573255815199
0.06092441255070266
0.09856035276027104
0.1844042706817175
0.08537296098325246
0.06118376334123177
0.046340674074492
0.1369286182541459
0.2777292853310664
0.210961014683998
0.1405740906721488
0.07344005519491049
0.3021774013542144
0.2452523290582323
0.1969071822780374
0.1080574356113323
0.3108620434508257
0.2680062015940278
0.2209478806126932
0.125734391672999
0.325578703973264
0.3077513687651702
0.2639804581793634
0.1690293131517071
0.0561740874583902
0.0623828737259835
0.05856700122509081
0.0579316399894701
0.04875587439785347
0.05616253654040493
0.04770396820462148
0.04551144650954433
0.05798247419745912
0.07351265571228069
0.0670039916760317
0.06209385574084936
0.06047645570172846
0.09113868906664425
0.09188423206953923
0.0845864898613936
0.05496476467540142
0.06914465190018169
0.1388466924283208
0.3974099630636398
0.04807997377672061
0.057629649592316
0.09849683424089732
0.3433084163269109
0.06368812263176113
0.0677415965922001
0.07597532748783965
0.2452589919220185
0.08405178185198164
0.07572962011849942
0.0377589228898219
0.1737664854828181
0.5939389140129783
0.6718055451028971
0.696290712043879
0.698515946822159
0.6212580287607474
0.6971865344612967
0.7260598559910187
0.7295266927615407
0.634724407414875
0.6956052587839577
0.7259381145248042
0.7316466324381266
0.7371379571877918
0.7037182592152896
0.7399679554205143
0.7458130595215949
0.6983062304823312
0.6981869272320853
0.6979003078519324
0.6968582886476252
0.7283035259754773
0.7288907418567268
0.728945665643042
0.7282969686732805
0.730721882557346
0.7311262189312235
0.7309419212085273
0.7299491800731162
0.7455454313757799
0.7461619166057567
0.7461387424063541
0.7450465807998111
0.6941196525474699
0.6809837262283641
0.6572857613373096
0.6269702482595575
0.723260988846806
0.7034916977052108
0.6885963991155326
0.6975835197067471
0.7228591338314928
0.700890444121628
0.6852185731605125
0.7023603388361433
0.7360325182687548
0.7134066487138394
0.704280032269947
0.735554789228138
0.400246189986796
0.3733259805842644
0.3733250487073044
0.3733250486698579
0.4197575528581919
0.3733260635853034
0.3733250517564743
0.3733250560614561
0.4318051271728441
0.3733256135882995
0.3733250538221499
0.3733250548402121
0.4358914382650756
0.373325400438428
0.373325054540658
0.3733250527539862
0.3733250257833587
0.3733265235210787
0.3734399730331339
0.3748673761547218
0.3733250597822038
0.3733273693292786
0.3734928281639463
0.3748177224056179
0.3733250503770689
0.3733307045435763
0.3736459075190728
0.3759584342139583
0.3733249229276708
0.3733150031898166
0.3732210292937244
0.3738694000484185
0.3791634164288046
0.386094877386968
0.4068650114718166
0.4653151855244452
0.376162619696161
0.3730369668498494
0.3675116813722678
0.4291273662421667
0.3783560615935456
0.3726917993917472
0.3578666597519778
0.3869858481430135
0.376632876133856
0.3743489527938396
0.3632877479181932
0.3518871057148643
0.5244412961156697
0.5161118856485195
0.515594272149263
0.5141745913123326
0.5353078988903387
0.5229914072942471
0.5227218596129084
0.5208534455146563
0.5330562912719264
0.51703117940121
0.5168645372891659
0.5156940515840394
0.5246073213748835
0.5164632488802219
0.5162663255991818
0.515114261468295
0.5063750069788691
0.4888638696741023
0.4509320173409857
0.3920161992382493
0.5126293015131691
0.5010081290989205
0.4825001885298716
0.4217470538580637
0.5100625540762848
0.5014956183224407
0.4924454722760797
0.4517066234191732
0.5091264545381962
0.5041693253207767
0.5091749576136341
0.5137619209862413
0.370272812197993
0.3733035105089527
0.3733249779339539
0.3733250554793427
0.3681024678740522
0.3732747018592233
0.3733248465828148
0.3733250552214049
0.3652797442191752
0.3732274041475925
0.3733246223063431
0.3733250547142625
0.359978488006799
0.3731545057270138
0.3733243274088058
0.3733250541206046
0.3733250542379125
0.3733243387686362
0.3731670513085978
0.3609669296050907
0.373325054231412
0.3733243386920406
0.3731670118949768
0.3610423237654584
0.3733250541764978
0.3733243345761627
0.3731661728842935
0.3612028687948842
0.3733250541105127
0.3733243367411878
0.3731678278838025
0.3617171863614886
0.3733250541203261
0.3733250547139059
0.3733250552193073
0.3733250554768476
0.3733243274089857
0.3733246223063431
0.3733248465824264
0.3733249779328021
0.3731545057280486
0.373227404146285
0.3732747018604092
0.3733035105081421
0.3599784880059322
0.365279744217915
0.3681024678738591
0.3702728121983423
)
;

boundaryField
{
    back
    {
        type            empty;
    }
    inlet
    {
        type            calculated;
        value           nonuniform List<scalar> 
16
(
0.3733250556165154
0.3733250556165154
0.3733250556165154
0.3733250556165154
0.3733250556165154
0.3733250556165155
0.3733250556165152
0.3733250556165154
0.3733250556165155
0.3733250556165154
0.3733250556165154
0.3733250556165151
0.3733250556165154
0.3733250556165152
0.3733250556165154
0.3733250556165154
)
;
    }
    front
    {
        type            empty;
    }
    top
    {
        type            calculated;
        value           nonuniform List<scalar> 
40
(
0.373325055937839
0.3733250560589299
0.3733250561252135
0.3733250558111761
0.3733250573960996
0.3733250572122197
0.3733250565131633
0.3733250558445758
0.3733250556340904
0.3733250556165289
0.3733250556165154
0.3733250556165155
0.3733250556165154
0.3733250556165149
0.3733250556846748
0.3733250555034459
0.3733250554476027
0.3733250568553511
0.3733250585264148
0.3733250594591998
0.373325060544419
0.3733250621284076
0.3733250639441928
0.3733250680979721
0.3733250664951089
0.3733250686183222
0.3733250725232315
0.3733250668909312
0.3733246513288012
0.3733250280789888
0.3733250409664552
0.3733250394536472
0.3733250447694719
0.3733250472139673
0.3733250511321134
0.3733250504257259
0.3733250544222011
0.3733250555163304
0.3733250556005061
0.3733250555748728
)
;
    }
    outlet
    {
        type            calculated;
        value           uniform 0.3733250556165154;
    }
    bottom
    {
        type            calculated;
        value           nonuniform List<scalar> 
40
(
0.3733250555753889
0.3733250556006483
0.3733250555165489
0.3733250544218085
0.373325044770753
0.3733250472145776
0.3733250511310329
0.3733250504260568
0.3733250394534692
0.3733250409646894
0.3733250280771109
0.373324651330864
0.373325066494694
0.3733250686186624
0.3733250725243326
0.3733250668929526
0.3733250680977217
0.3733250639445997
0.3733250621280962
0.3733250605440568
0.3733250554484503
0.373325056854275
0.3733250585259361
0.373325059458596
0.3733250555032759
0.3733250556850208
0.3733250556165079
0.3733250556165154
0.3733250556165152
0.3733250556165154
0.373325055616535
0.3733250556343007
0.3733250573947647
0.3733250572111375
0.3733250565129326
0.3733250558443154
0.373325055810541
0.3733250561255913
0.3733250560585801
0.3733250559381363
)
;
    }
    wall
    {
        type            calculated;
        value           nonuniform List<scalar> 
104
(
0.5137619209850443
0.5091749576136343
0.5041693253213601
0.5091264545365607
0.515114261468686
0.5162663255991008
0.5164632488799866
0.5246073213748018
0.351887105714324
0.3632877479184937
0.3743489527936493
0.3766328761348685
0.3738694000504468
0.3732210292917699
0.3733150031904796
0.3733249229276106
0.3733250527538065
0.3733250545407051
0.3733254004388634
0.4358914382653148
0.7355547892286926
0.7042800322704431
0.7134066487134783
0.7360325182682523
0.7450465808006869
0.7461387424056208
0.7461619166050106
0.7455454313757909
0.7458130595209332
0.7399679554196217
0.7037182592148364
0.7371379571879689
0.1737664854830517
0.03775892288962369
0.07572962011846796
0.08405178185245507
0.08458648986143948
0.09188423206936158
0.09113868906661692
0.06047645570174553
0.07344005519471063
0.1405740906716345
0.2109610146837084
0.2777292853311897
0.1369286182542761
0.04634067407449597
0.06118376334125918
0.08537296098319344
0.08632541856930344
0.08416474893710013
0.07832942947771683
0.06495851932726794
0.06495851932719678
0.07832942947761606
0.08416474893706198
0.08632541856936402
0.08537296098325246
0.06118376334123177
0.046340674074492
0.1369286182541459
0.2777292853310664
0.210961014683998
0.1405740906721488
0.07344005519491049
0.06047645570172846
0.09113868906664425
0.09188423206953923
0.0845864898613936
0.08405178185198164
0.07572962011849942
0.0377589228898219
0.1737664854828181
0.7371379571877918
0.7037182592152896
0.7399679554205143
0.7458130595215949
0.7455454313757799
0.7461619166057567
0.7461387424063541
0.7450465807998111
0.7360325182687548
0.7134066487138394
0.704280032269947
0.735554789228138
0.4358914382650756
0.373325400438428
0.373325054540658
0.3733250527539862
0.3733249229276707
0.3733150031898166
0.3732210292937244
0.3738694000484184
0.376632876133856
0.3743489527938396
0.3632877479181932
0.3518871057148642
0.5246073213748835
0.5164632488802219
0.5162663255991818
0.515114261468295
0.5091264545381962
0.5041693253207767
0.5091749576136341
0.5137619209862413
)
;
    }
}


// ************************************************************************* //
