/*--------------------------------*- C++ -*----------------------------------*\
  =========                 |
  \\      /  F ield         | OpenFOAM: The Open Source CFD Toolbox
   \\    /   O peration     | Website:  https://openfoam.org
    \\  /    A nd           | Version:  11
     \\/     M anipulation  |
\*---------------------------------------------------------------------------*/
FoamFile
{
    format      ascii;
    class       volScalarField;
    location    "0.0325";
    object      T;
}
// * * * * * * * * * * * * * * * * * * * * * * * * * * * * * * * * * * * * * //

dimensions      [0 0 0 1 0 0 0];

internalField   nonuniform List<scalar> 
880
(
500
500
500.0000000014638
499.9999995009581
500.0000000000001
500
500.0000000033212
499.9999963863435
500
500
500.0000005923305
500.0005201421997
500.0000000000001
500
499.9999977036269
500.0153473936799
500
500
500.0000000000001
500.0000000001996
500
500
500.0000000004417
500.0000000039879
500.000110869209
500.000324715596
500.0005083566064
499.9997659062867
500.3762974533175
501.4936635841051
502.338603351998
502.444013968206
500.0000000160421
500.0000000206622
500.0000000227338
500.0000000204754
500.0000015087825
500.0000020199969
500.0000021985088
500.0000018727305
500.0031645709251
500.0034971389414
500.0036187087384
500.003784986416
502.5744301075235
502.764267196439
502.759344093129
503.1833545775635
502.4142044695762
501.206578840749
500.3278910451602
500.0327393278405
500.0058216732995
500.0035953488661
500.0011317468402
500.0001230393878
500.0000050027651
500.0000033660936
500.0000010886777
500.0000001125058
500.0000000546787
500.0000000342638
500.0000000085633
500.00000000054
499.9999999999877
500
500.0000000000001
500
500.0000000022197
500.0000000000078
500.0000000000001
500.0000000000001
500.0000026562947
500.0000000041613
499.9999999993836
499.999999999742
500.0007468221305
500.0000017979264
499.9999997020615
499.9999998950723
499.999999994455
500.0000000000985
500
500.0000000000001
499.9999971810288
499.9999999268643
499.9999999994128
500.0000000000001
500.0020154650164
500.0000135579457
500.0000000284966
500.0000000004877
499.8300415477593
499.9943120939406
499.9999942378457
499.9999999976491
500.0000000250757
500.0000026532315
500.0053555380713
506.6619346668751
500.0000000860912
500.0000098473964
500.0184650092858
513.4444982661842
500.0000001178366
500.0000134743165
500.0242829590877
516.0957683133286
500.0000001499346
500.0000166906242
500.0281183958466
517.0348227171896
517.9035919764015
500.0326230187686
500.0000208139789
500.0000001924075
518.8908134598288
500.0382748583964
500.0000263400501
500.0000002503342
519.9146839775401
500.0448833971039
500.000033298512
500.0000003269907
521.2115228249087
500.0548624087328
500.0000447961143
500.0000004564493
500.0000003796996
500.000037336442
500.0525757451738
521.8049974831583
500.0000004503004
500.0000432099787
500.0562061711611
521.4618676814823
500.000000550471
500.0000483631979
500.0555993997895
518.996225499359
500.0000001950391
500.0000175234026
500.0250028415384
508.9130973202113
499.9999957618276
499.9985646215088
499.9982206670589
504.3074646544943
499.9999993862812
499.9993541222331
499.8561796448554
497.3602979879658
499.9999995608351
499.9995497332784
499.8266637974129
491.2225152986081
499.9999996913634
499.9995582066426
499.7746614325774
487.3935121621655
491.8182528516805
499.8994647604301
499.9997430300413
499.9999996806005
491.5116798856247
499.9057623963405
499.9997910745889
499.9999997682776
493.5186929587077
499.9358416247524
499.9998631520817
499.9999998532025
491.912535407257
499.9203030990425
499.9998476586794
499.999999847521
495.5331122722314
499.9833881311077
499.999972565888
499.999999970768
499.075202492485
499.9984705160191
499.9999983633825
499.9999999988065
499.7498353403996
499.9993539443087
499.9999991468146
499.9999999992513
499.5369354988373
499.9986678408911
499.999998063665
499.999999998035
499.0166661953542
499.9922274409351
499.9999799348805
499.9999999781273
499.0163932234232
499.9922334336857
499.9999799477835
499.9999999780969
499.0098436775492
499.9922354521932
499.9999799297308
499.999999977227
499.0316216033353
499.9923646819339
499.9999801524019
499.9999999756238
499.5369354988363
499.9986678408678
499.9999980636347
499.9999999980355
499.749835340422
499.9993539442512
499.9999991467584
499.9999999992719
499.0752024924592
499.9984705159699
499.9999983633674
499.9999999988029
495.5331122722467
499.9833881310605
499.999972565892
499.9999999707674
499.9999996806258
499.9997430300771
499.8994647605498
491.8182528515542
499.9999997682668
499.9997910745735
499.9057623962981
491.5116798854923
499.9999998532133
499.9998631520693
499.9358416246957
493.51869295861
499.9999998475245
499.9998476587475
499.9203030990679
491.9125354073587
487.3935121621007
499.7746614325706
499.9995582066228
499.9999996913708
491.222515298577
499.8266637974145
499.9995497332864
499.9999995608244
497.3602979879282
499.8561796449075
499.9993541222406
499.9999993862953
504.3074646544803
499.9982206669919
499.9985646214455
499.999995761877
500.000000379673
500.0000373364573
500.0525757452744
521.8049974831963
500.0000004503073
500.0000432099864
500.0562061711749
521.4618676816293
500.0000005504304
500.0000483632148
500.0555993997868
518.9962254993403
500.0000001950532
500.0000175233691
500.0250028415313
508.9130973202108
521.2115228249828
500.0548624086864
500.0000447961289
500.0000004565157
519.9146839776026
500.0448833970385
500.0000332985244
500.0000003269982
518.8908134598847
500.0382748584609
500.000026340048
500.0000002503374
517.9035919763967
500.0326230187437
500.0000208139836
500.0000001924167
500.000000025089
500.000002653256
500.0053555380416
506.661934666892
500.0000000861334
500.0000098474427
500.0184650092888
513.4444982661876
500.0000001178605
500.000013474311
500.0242829590572
516.0957683133009
500.0000001499304
500.0000166906427
500.0281183959187
517.0348227172082
499.999999997653
500.0000000004813
499.9999999999999
500.0000000000001
499.9999942377951
500.000000028477
499.9999999994071
500
499.9943120938912
500.0000135579738
499.9999999268398
500.0000000000958
499.830041547725
500.0020154650113
499.9999971810578
499.999999994452
500
500.0000000000001
499.9999999997444
499.9999998950807
500.0000000000001
500.0000000000001
499.9999999993919
499.9999997020946
500
500.0000000000073
500.0000000041421
500.000001797897
499.9999999999901
500.0000000022287
500.0000026563105
500.0007468221106
500.0000000546616
500.0000050027259
500.0058216733103
502.4142044696338
500.0000000342128
500.000003366137
500.0035953488895
501.2065788407304
500.0000000085835
500.0000010886343
500.0011317468184
500.3278910450967
500.0000000005373
500.0000001125009
500.0001230394005
500.0327393278325
503.1833545775522
500.0037849863786
500.000001872722
500.0000000205229
502.7593440930934
500.0036187087863
500.0000021984799
500.0000000227323
502.7642671964423
500.003497138982
500.0000020199457
500.0000000206316
502.5744301075097
500.00316457092
500.0000015087394
500.0000000160796
502.4440139681851
499.9997659062957
500.0000000039977
500.0000000002102
502.3386033519816
500.0005083565994
500.0000000003989
500
501.4936635840946
500.0003247155863
500
500
500.3762974533036
500.0001108691799
500.0000000000001
499.9999999999999
500.0000000000001
500
500.0000000014743
499.999999500956
500
500
500.000000003323
499.9999963863567
500
500
500.000000592334
500.0005201422109
500
500.0000000000001
499.9999977036083
500.0153473936088
499.9999991616258
499.9999838863426
500.0052833224742
500.269403056363
499.9999838863303
499.9998776231307
500.0475458835164
501.7635496523491
500.0052833224804
500.047545883521
501.113073629412
508.7845965611364
500.2694030564352
501.7635496524247
508.7845965612617
530.5886549378206
556.1423791577811
534.1940639923988
522.387833419121
509.7518652366355
555.3924647983268
549.5017917513233
545.128849106016
532.5619990190246
555.8651130497701
556.4674867104744
555.0437819402181
546.9335920225551
557.5203662134256
559.90980765468
558.6173836581786
550.6661149655939
551.980962041632
552.2650432068657
552.4331623924513
555.6886372487445
559.3920476089257
559.4706577495665
559.5650287028287
564.3962772297389
560.5899931853606
560.6582983341254
560.7300649381689
563.437926432077
557.7794776177113
557.7372451551083
557.7306254673884
554.1249004440302
530.5867119245548
512.9209560889517
502.9288983370977
500.242808396217
528.6538619581349
510.5250067029293
502.8952893762412
500.3169572557842
510.1943168817361
505.9418942345846
503.0694324220479
500.4078208491276
490.2464672577859
499.807662895129
500.7546441607208
500.0641945981625
500.0052214649958
499.9999978970462
499.9999923144337
499.999998130681
500.0075345275116
499.9999937565134
499.9999909482244
499.9999978893681
500.0105409426955
499.9999695413786
499.9999901009477
499.9999986211187
499.9984349291894
499.9997530451096
499.9999945811916
499.9999993176906
499.9999997948009
500.0000000630129
500.0667286955913
508.3679262466317
499.9999998415223
500.0000000485002
500.1292709802454
523.5226196295804
499.9999999142401
500.0000000225182
500.1803219964826
538.0369545887231
499.9999999441364
500.0000000112173
500.1593602044768
538.5647879549209
609.0004859483906
632.9154000346938
641.5735717495312
642.7225652370463
630.0622638177243
640.5692226537927
649.8568238479738
651.2837904273974
630.5915962898371
634.3746544449682
643.425619440968
645.4543691562837
638.1276906985934
630.1061548949758
635.5189575463768
638.0096793587536
642.9472314744429
643.1668511623558
643.3396120870708
643.4119223975954
651.3116785679659
651.2993635521399
651.2418536499092
650.9852055981521
645.5340935824643
645.5321797508724
645.4987587587138
645.3611292729173
638.2093238431119
638.2364245030046
638.2511503675199
638.0656806350561
641.6869377947128
638.5420409097015
625.902330256963
583.4456039398976
650.4024881836449
647.7709303325157
637.0702956969324
617.8085977407592
645.7471402685076
644.1477239586652
634.5708201016924
633.4864807760283
638.196055662423
637.3920767298796
632.0541291184803
625.3162036451237
537.2758167588182
490.9899696290687
386.4015716302935
356.0137227042474
551.4624566073228
459.828505528568
339.9596976170721
301.3461133398675
537.2099721736765
433.3414847977956
318.7779405805326
283.2935470199397
403.4296690157274
352.0265018953591
302.3750530621801
284.4059906017929
357.7785736217935
358.8591138332526
360.9690537619445
347.500226530953
297.3338264537484
300.0644749592778
312.6640767144281
311.1842326984843
281.2032394946883
284.4431107690889
299.0862658771032
316.975925015038
283.7595955282566
287.5163306951778
300.7427964140893
308.4157127470265
455.3017504237179
483.6634475015691
490.4475666490953
483.8746314018293
437.1628109767984
467.6212282838016
477.2865709805014
478.9170935362628
407.8969507745014
459.6758390518068
467.1078865861755
482.5715073975605
349.6156668005817
432.4087247614694
458.9003921594587
469.9120896209989
487.3664579381093
473.9201502743248
459.8562230595709
442.0676308574995
462.0566916691138
447.3714359593502
428.7494918262753
396.0873374620757
389.8257867936021
378.3690107596356
402.6899945325258
387.1013056517056
342.9400658167901
232.3856118837886
253.5775305683773
291.7484665744342
296.8942966703655
276.6194906075099
240.9602141107604
230.9735041154273
352.3759315604882
315.0929672547626
297.660212534221
294.9590107694319
363.1211232602096
345.6494578034912
341.2592089040476
340.6281557600043
428.9792739739185
424.4936975059262
423.3721587937673
423.1208036574761
230.9735041154347
294.9590107694229
340.6281557599905
423.1208036573977
240.960214110784
297.6602125342125
341.2592089040333
423.372158793733
276.6194906075293
315.0929672547216
345.6494578035006
424.4936975060126
296.8942966704121
352.3759315604776
363.1211232602188
428.9792739739586
442.0676308575436
459.8562230596186
473.92015027437
487.3664579381134
396.0873374620966
428.749491826269
447.3714359593141
462.0566916690794
387.1013056517133
402.6899945325061
378.3690107596752
389.8257867936127
291.7484665744905
253.5775305684395
232.3856118838648
342.940065816791
469.9120896209979
458.9003921594492
432.4087247614659
349.6156668006782
482.5715073975499
467.1078865861618
459.6758390517974
407.8969507746157
478.9170935362534
477.2865709804993
467.6212282837959
437.1628109768407
483.8746314018222
490.4475666491013
483.6634475015631
455.3017504236928
347.5002265309916
360.969053761865
358.8591138331369
357.7785736216772
311.1842326985816
312.6640767144328
300.0644749592802
297.3338264537224
316.9759250151624
299.0862658771554
284.4431107691387
281.203239494698
308.4157127471475
300.742796414191
287.5163306952857
283.7595955282831
356.0137227042422
386.4015716296015
490.9899696285895
537.2758167588521
301.3461133398811
339.9596976166458
459.8285055282465
551.4624566073187
283.2935470199199
318.777940580234
433.3414847975552
537.2099721737327
284.4059906017475
302.375053062023
352.0265018953051
403.4296690158461
583.4456039398605
625.9023302569295
638.542040909704
641.6869377947693
617.8085977407396
637.0702956969166
647.7709303324808
650.4024881836377
633.4864807760291
634.5708201016843
644.1477239586145
645.7471402684243
625.3162036451637
632.0541291184744
637.3920767298463
638.1960556623447
643.4119223976118
643.3396120871092
643.1668511623691
642.9472314744381
650.9852055981333
651.2418536499341
651.2993635521387
651.3116785679566
645.3611292728858
645.4987587587535
645.5321797509225
645.5340935824798
638.0656806350389
638.2511503675404
638.2364245030856
638.2093238431569
642.7225652371143
641.5735717495232
632.9154000347222
609.0004859485164
651.2837904274436
649.8568238479323
640.5692226538198
630.0622638177933
645.4543691562534
643.4256194409257
634.3746544449684
630.5915962897824
638.0096793587367
635.5189575463193
630.1061548949605
638.1276906984891
508.3679262466155
500.0667286955872
500.0000000628863
499.9999997948046
523.5226196295731
500.129270980235
500.0000000484271
499.999999841531
538.0369545887133
500.1803219964725
500.0000000224909
499.9999999142491
538.5647879549014
500.1593602044664
500.0000000112046
499.9999999441404
499.9999981306859
499.9999923144584
499.9999978970416
500.0052214650093
499.999997889376
499.9999909482202
499.9999937564941
500.0075345275342
499.999998621129
499.9999901009292
499.999969541343
500.0105409427231
499.9999993177004
499.9999945811857
499.9997530450447
499.9984349292208
500.2428083962292
502.9288983370255
512.9209560889277
530.5867119246033
500.3169572557603
502.8952893762045
510.5250067029112
528.6538619581596
500.4078208490968
503.0694324220344
505.9418942346056
510.194316881745
500.0641945981272
500.7546441607054
499.8076628951388
490.2464672578055
555.6886372487407
552.4331623924871
552.2650432068989
551.9809620416498
564.3962772297001
559.5650287028484
559.4706577496149
559.3920476089357
563.4379264320019
560.7300649381593
560.6582983341428
560.5899931853824
554.124900443943
557.7306254673462
557.7372451551189
557.7794776177349
550.6661149655212
546.9335920224983
532.5619990191136
509.7518652366796
558.6173836581549
555.0437819402067
545.128849106054
522.3878334190991
559.9098076546819
556.4674867104828
549.5017917513327
534.1940639923024
557.5203662134687
555.8651130498736
555.3924647983965
556.1423791577552
499.7329469090813
499.9986007778607
499.9999970237949
499.9999999966374
499.3809069652298
499.9964717131336
499.999991935976
499.9999999901333
498.9948863858281
499.9934467273054
499.9999844642557
499.9999999806964
498.5384606083886
499.9905877765397
499.9999783966702
499.9999999740699
499.9999999781645
499.9999799348829
499.9922274409343
499.0166661953084
499.9999999780709
499.9999799477989
499.9922334336958
499.0163932233912
499.9999999772326
499.9999799297029
499.9922354521931
499.0098436775523
499.9999999756425
499.9999801523993
499.9923646819586
499.0316216033327
499.9999999740274
499.9999999807191
499.9999999901424
499.9999999966167
499.9999783966359
499.9999844642469
499.9999919359861
499.999997023825
499.9905877765227
499.9934467272903
499.9964717131735
499.998600777855
498.5384606083404
498.9948863857993
499.3809069652592
499.7329469090936
)
;

boundaryField
{
    back
    {
        type            empty;
    }
    inlet
    {
        type            zeroGradient;
    }
    front
    {
        type            empty;
    }
    top
    {
        type            zeroGradient;
    }
    outlet
    {
        type            fixedValue;
        value           uniform 500;
    }
    bottom
    {
        type            zeroGradient;
    }
    wall
    {
        type            zeroGradient;
    }
}


// ************************************************************************* //
