/*--------------------------------*- C++ -*----------------------------------*\
  =========                 |
  \\      /  F ield         | OpenFOAM: The Open Source CFD Toolbox
   \\    /   O peration     | Website:  https://openfoam.org
    \\  /    A nd           | Version:  11
     \\/     M anipulation  |
\*---------------------------------------------------------------------------*/
FoamFile
{
    format      ascii;
    class       volScalarField;
    location    "0.094";
    object      T;
}
// * * * * * * * * * * * * * * * * * * * * * * * * * * * * * * * * * * * * * //

dimensions      [0 0 0 1 0 0 0];

internalField   nonuniform List<scalar> 
880
(
300
300
300
300.0001135687381
300
300
300.0000000004108
300.0008051342177
300
300
300.0000000002879
300.0037232322392
300.0000000000001
300
300.0000000361617
300.0011208380811
300
300
299.9999999999999
300.000000000417
300
300
299.9999999999997
300
299.9999994049077
300.000011449489
300.0210901019685
299.9509898330512
300.8195707632038
303.7587014854142
306.3800977035913
307.5841606717414
300.0000030283223
300.0000082075265
300.0000095620036
300.0000048502083
300.0000845824735
300.0002098274215
300.0003717394587
300.0002156767939
300.0674937462631
300.1157232116855
300.1602820798201
300.1477967741758
309.0793179681453
310.6434885817828
311.8203867525174
313.1458510913594
312.151631380305
309.6527595660781
307.1456000596015
305.01053275102
300.2678545233551
300.4109325081374
300.5115436711935
300.4171369540666
300.0007727826892
300.0016156572746
300.0026515930078
300.0024369276003
300.0000253053403
300.0000497195505
300.0000717032173
300.0000597037123
300.000026624313
300.0000049499848
300.0000002787941
300.0000000030798
300.0014651926058
300.0004687044167
300.0000657042904
300.0000030115407
300.2493290126039
300.0951111250982
300.0212074566014
300.0018597602216
303.2293538791237
301.8005181854979
300.7150476835023
300.1475559404568
300.0106369827201
300.000041236653
300.0000000327661
300.0000000004567
300.0008462556526
300.0000077570257
299.9999999859896
299.9999999979349
299.9965157702272
299.9998529921507
300.0000015559283
300.0000004077039
301.7613883410587
300.003051583975
299.9996562839509
299.9999825573258
299.9999773154464
299.9998372830838
300.0451961891947
317.5435940061971
299.9999963956413
300.0002294976568
300.2505101026771
331.9984586487944
300.0000381140905
300.0012128415993
300.5833607160853
341.6245535767732
300.000084609325
300.0030310914194
301.0755849369444
350.8789277504972
357.9136116754437
301.4104408041113
300.0038296703843
300.0001119692632
363.5740599928732
301.8985138688176
300.0062998185868
300.0001737171654
366.4894288573612
302.114132722623
300.0067279545513
300.000194291704
369.6743207329239
302.7284318910183
300.0115245368297
300.0003433319932
300.0003535381236
300.0119164589287
303.215723410673
374.0058530757295
300.000506092669
300.0174022500189
304.0998498276414
375.6542315582954
300.0008056695985
300.0235492235256
304.4056340466408
370.3783282098351
299.9999964164516
300.005579865119
302.3526959611892
351.031690980614
300.0016790553283
300.0588529558599
303.6069971886296
331.616130114052
300.0003239802042
300.0804969281573
302.8294260015026
315.3187428110035
299.998847219676
300.0089192322523
301.6092915004755
310.2096521088395
299.9991177830521
299.9236028605891
299.7919971144455
307.9932433942898
301.1785783921713
298.7689549173652
299.9276889384742
299.999765274961
293.6557002332983
298.5991257261563
299.961780119159
299.9998630071493
286.2349429746121
298.5885552817458
299.9805724059577
299.9999454000465
285.9633033465266
298.6809171844171
299.9811113052729
299.999943875774
285.9039983874326
299.4282951667723
299.9949130025516
299.9999832258391
286.3010589251284
299.7589064301202
299.9987376777735
299.9999966317795
288.2858273343457
299.8665224607691
299.9995209664102
299.9999990348113
292.6776618183675
299.9399449269297
299.9998045406724
299.9999993403232
297.2514112656858
299.814149297044
299.9964338978554
299.999978046775
297.5588851320264
299.8172543267175
299.9964196119525
299.9999780337398
297.8839065043569
299.8147898642868
299.9963502980286
299.9999779404072
299.1116094152699
299.8296349817816
299.9961850976289
299.9999780451729
292.6776618177234
299.9399449263163
299.9998045396591
299.9999993417694
288.2858273338637
299.866522460114
299.9995209643906
299.9999990349947
286.3010589251003
299.7589064309478
299.9987376780764
299.9999966318671
285.9039983878515
299.4282951687958
299.9949130027019
299.9999832252185
299.9997652750429
299.927688940163
298.7689549175068
301.1785783919493
299.9998630090446
299.9617801195183
298.5991257263864
293.6557002333593
299.9999453990234
299.9805724072813
298.5885552809561
286.2349429754041
299.9999438758765
299.9811113059289
298.6809171863991
285.9633033459122
307.9932433932944
299.7919971132832
299.9236028586667
299.9991177818457
310.209652107436
301.6092914992716
300.0089192306676
299.9988472168754
315.3187428109821
302.8294260004037
300.0804969285742
300.0003239808438
331.6161301144101
303.6069971882961
300.0588529549387
300.0016790581608
300.0003535372175
300.0119164609224
303.2157234116052
374.0058530764781
300.0005060926885
300.0174022513382
304.099849828274
375.654231558436
300.000805670914
300.0235492235675
304.4056340456311
370.3783282099076
299.9999964190545
300.0055798652854
302.3526959602485
351.0316909804316
369.674320734229
302.7284318904692
300.0115245391044
300.0003433319635
366.4894288586442
302.1141327278423
300.0067279533508
300.0001942921393
363.5740599920177
301.8985138670885
300.0062998233674
300.0001737165347
357.9136116760949
301.4104408008385
300.0038296678234
300.0001119687464
299.9999773166642
299.9998372840907
300.0451961893846
317.5435940051852
299.9999963949558
300.00022949636
300.2505101030948
331.9984586486565
300.000038113297
300.0012128406083
300.5833607158324
341.6245535767218
300.000084608313
300.0030310933413
301.0755849390097
350.8789277513811
299.99998255705
300.0000004082487
299.9999999979043
300.0000000003172
299.9996562828612
300.0000015559701
299.9999999871407
300.0000000321345
300.0030515843187
299.9998529924009
300.0000077562779
300.0000412363111
301.7613883412065
299.9965157706256
300.0008462556531
300.0106369827648
300.0000000021462
300.0000030116431
300.0018597614077
300.1475559410175
300.0000002784857
300.0000657038102
300.0212074590855
300.7150476833849
300.0000049509068
300.0004687046539
300.0951111233693
301.8005181852758
300.0000266245897
300.0014651926242
300.2493290140489
303.2293538784357
300.000025303761
300.00077278139
300.2678545236661
312.1516313801073
300.0000497179745
300.0016156571961
300.4109325084103
309.6527595651531
300.0000717024549
300.0026515943055
300.5115436710121
307.1456000591438
300.000059703052
300.002436928542
300.4171369538121
305.0105327502716
313.1458510918534
300.147796776943
300.0002156760376
300.0000048494803
311.8203867532118
300.160282081948
300.0003717392599
300.000009562235
310.643488582988
300.1157232090554
300.0002098279951
300.0000082071857
309.0793179677589
300.0674937422343
300.0000845817453
300.0000030288389
307.5841606723862
299.9509898382933
300
300.0000000006085
306.3800977030224
300.0210900966824
300
300.0000000000001
303.7587014859218
300.0000114491452
300
300
300.8195707628987
299.9999994045176
300
299.9999999999999
300
299.9999999999999
300
300.0001135682645
300.0000000000002
300
300.0000000003358
300.0008051251572
300
300
300.0000000004796
300.0037232314828
300
300
300.000000035542
300.0011208378868
300.0001862972887
300.0008450410302
300.0054351876237
300.1822420935981
300.0008450541386
300.0008721357049
300.0017632443351
300.7415796736374
300.0054351843722
300.0017632249022
300.2704174472354
305.3062459248267
300.1822420879802
300.7415796785209
305.3062460110642
324.4564103992336
353.5173021562979
334.0050214408992
320.8556865778065
309.3567049832154
349.4302558642145
344.6049889758293
340.0576196829737
331.1268173535651
345.904244382071
344.1751984854828
342.3894630214753
338.2227141234768
344.662348670926
343.2590777862632
342.3491596959371
340.4487847301916
343.3744830760724
344.8951296150578
345.8219977556481
348.2801350059099
343.2824738348781
344.5199077688247
345.392624642169
348.4972984597312
343.2040102659219
343.6720645181352
344.6495305186447
346.6355960113564
343.2248235786105
343.0979000812156
344.1242435632674
342.3795497059212
331.6692010138932
315.0029743671766
306.625229983015
303.3168256812621
322.9446099967001
306.8054501910786
304.4991258905597
304.089288795715
312.6352451895061
300.4756317106481
304.8805114961405
305.1950691322073
287.9038224319569
292.2233276216908
302.9550397777285
304.321091719251
303.1399154808147
302.7897162314569
301.4913367728644
300.4619523675119
303.618099015332
302.9007260309025
301.4647828444209
300.4953523871703
304.3655879200803
303.3344352784815
301.7143195059922
300.6331618627526
303.552503908385
302.9341057181996
301.3187968109754
300.3035327742234
300.0743401430963
300.0041600235206
299.9986229109989
325.6462468031456
300.0976170226597
300.0070757321236
299.9986047221913
341.4119855337568
300.1371414158377
300.0103655331069
299.999960230777
350.5761482750689
300.0242756527803
299.9975418576099
299.9998389077194
353.9757749077156
399.9492460295946
413.6047538178059
418.721496445523
424.6919388587676
416.1369597994233
419.2495580431686
418.5518159503412
421.2429819324918
421.6335335779086
416.1889434127486
416.0350850295964
416.3736041800631
431.8476049590229
420.9273938470056
414.6424801925832
414.1418804219019
430.3441020423449
435.3374253963741
436.5045652897628
436.9977978456515
424.4315817719859
428.3494217448637
429.3625851755748
429.8435787103942
417.6050460574824
420.550191501891
421.9148602472207
422.4429717818963
414.8250019997344
417.3157374188211
418.7421666554613
419.3066613397027
436.240215005468
432.2605723737628
421.5566460115206
400.8898413143652
429.2320046918941
425.6512472862464
416.4090527032926
414.9657850669865
422.0303624785592
419.0015484463444
413.7311538224149
425.1439665322534
418.8081023795911
417.1301869680796
416.5610879759993
406.3463877851083
359.4016527357276
298.8321998760622
223.8457493849351
213.6423966733269
346.7160943164593
262.1317919845395
205.2257205952788
187.3250345763207
309.9667972262842
223.4533889584016
178.9964816293915
162.5969741133665
239.1786837841095
168.0086854682956
176.5544283110397
153.865365761966
216.2243945153503
216.3594527609806
215.2034521979774
211.0560668375082
186.9153662811539
184.8935053281655
185.3591879311921
190.5023690175204
158.1983549067909
156.1837368727497
162.4804713809604
194.703923921895
145.9978583771827
143.6301282178288
152.4371552312349
199.556300166899
258.3789127890882
257.8542140419166
259.3498671366925
269.198069162601
275.7881639567141
269.5525425026343
261.5762343177138
272.5941764289067
268.9513541920553
284.8538794106645
278.2287406378409
284.0697870815441
242.4454060892086
272.5588721649596
283.1377675888373
296.7960589172057
246.7448929541075
217.6169776146577
178.3791321937828
180.1132939842438
247.4902011906314
214.4473857379166
179.1905801182353
133.3140875090937
240.1521520601157
192.2536350094191
130.4381312488128
112.1131925032054
210.9096082136368
132.6388786890993
85.07436270967565
104.1893901468514
131.2060125443932
157.0347534387312
181.5597127673971
192.3179092704519
145.8095721666917
172.7707659302905
193.7719709907837
202.948724409895
165.5276305508396
203.5978244500705
218.8969776438375
226.1443631701209
239.1345452454662
271.5089541802393
268.2264360950181
264.8163216192327
192.3179092705128
202.9487244098607
226.144363170078
264.8163216190887
181.5597127676726
193.771970990711
218.8969776437953
268.2264360946949
157.0347534389409
172.7707659303546
203.5978244498396
271.5089541798688
131.2060125445043
145.8095721667679
165.5276305507529
239.1345452442393
180.1132939833697
178.3791321933412
217.616977613975
246.7448929532504
133.3140875092202
179.1905801186708
214.4473857382209
247.4902011901677
112.1131925033167
130.4381312483796
192.2536350088601
240.1521520599445
104.1893901467746
85.07436270955623
132.638878688945
210.9096082133775
296.7960589169448
283.1377675886527
272.5588721647231
242.4454060880861
284.0697870813977
278.2287406378782
284.8538794107612
268.9513541910671
272.594176428679
261.5762343176898
269.5525425026065
275.7881639560169
269.1980691621884
259.3498671365192
257.8542140415595
258.3789127883514
211.0560668371012
215.2034521989026
216.3594527610657
216.2243945150072
190.5023690174171
185.3591879322708
184.8935053286217
186.9153662808398
194.7039239220082
162.4804713816646
156.1837368731979
158.1983549066606
199.5563001667482
152.4371552316647
143.630128218196
145.997858377214
213.6423966722004
223.8457493835884
298.8321998760122
359.4016527358971
187.3250345748886
205.2257205939696
262.1317919842076
346.7160943158324
162.5969741123364
178.9964816280765
223.4533889586242
309.96679722607
153.865365761483
176.5544283094684
168.0086854674928
239.1786837839048
400.889841314391
421.5566460116355
432.2605723738264
436.2402150055277
414.9657850670978
416.409052703422
425.651247286442
429.2320046922725
425.1439665323341
413.7311538226024
419.0015484468209
422.0303624792596
406.3463877850412
416.5610879764247
417.130186968633
418.8081023805066
436.997797845514
436.5045652888338
435.3374253977057
430.3441020421753
429.8435787106517
429.3625851750821
428.349421745302
424.4315817718864
422.4429717825444
421.9148602470966
420.5501915016813
417.6050460579938
419.3066613406573
418.742166655362
417.315737418238
414.8250020005514
424.6919388598509
418.7214964446154
413.6047538174927
399.9492460289692
421.2429819340102
418.5518159490486
419.2495580436812
416.1369597987835
416.3736041815465
416.0350850278682
416.1889434132764
421.6335335771868
414.141880424084
414.6424801903746
420.9273938476578
431.8476049580854
325.6462468022079
299.9986229055354
300.0041600246973
300.0743401431938
341.4119855327575
299.9986047193229
300.0070757332228
300.0976170227995
350.5761482738366
299.999960229803
300.010365533927
300.1371414160044
353.9757749063876
299.9998389068351
299.9975418586516
300.0242756530041
300.4619523675188
301.4913367723119
302.7897162315414
303.1399154806448
300.4953523870541
301.464782844128
302.9007260306398
303.6180990149545
300.6331618626296
301.7143195058823
303.3344352779534
304.365587919561
300.3035327739532
301.318796810729
302.934105717733
303.5525039078661
303.3168256807524
306.6252299825107
315.0029743664872
331.6692010134754
304.089288795152
304.4991258901553
306.8054501904207
322.944609996415
305.1950691315973
304.8805114958103
300.4756317100087
312.6352451893143
304.321091718465
302.955039777481
292.2233276209255
287.9038224315877
348.280135004944
345.8219977553535
344.8951296166424
343.3744830781837
348.4972984588455
345.39262464222
344.5199077702944
343.2824738361761
346.6355960106869
344.6495305184084
343.6720645188014
343.204010266787
342.3795497053933
344.1242435630351
343.0979000819123
343.2248235792129
340.4487847279008
338.2227141238578
331.1268173546466
309.3567049848085
342.3491596951596
342.389463021616
340.0576196850724
320.855686570433
343.2590777861027
344.1751984860784
344.6049889770167
334.0050214296156
344.6623486706403
345.9042443813033
349.4302558633145
353.517302160259
296.1526533067252
299.9342330461463
299.999513179939
299.9999981560886
296.0725574933148
299.9139671619947
299.9991235235709
299.9999957357139
298.125417128868
299.898822934314
299.9984154977952
299.9999912668293
299.4441262226676
299.859539753661
299.9968382363522
299.9999829528501
299.9999780476759
299.9964338977567
299.8141492965984
297.2514112653575
299.999978034387
299.9964196129321
299.8172543254226
297.5588851323416
299.9999779393868
299.9963502991956
299.8147898633261
297.8839065031739
299.999978042185
299.9961850989873
299.829634978668
299.1116094145019
299.9999829520951
299.9999912657188
299.9999957319266
299.9999981526772
299.9968382367221
299.9984154977707
299.9991235231168
299.9995131786454
299.8595397535082
299.8988229334068
299.913967162989
299.9342330452762
299.4441262221003
298.1254171275601
296.0725574929331
296.152653306822
)
;

boundaryField
{
    back
    {
        type            empty;
    }
    inlet
    {
        type            zeroGradient;
    }
    front
    {
        type            empty;
    }
    top
    {
        type            zeroGradient;
    }
    outlet
    {
        type            fixedValue;
        value           uniform 300;
    }
    bottom
    {
        type            zeroGradient;
    }
    wall
    {
        type            zeroGradient;
    }
}


// ************************************************************************* //
