/*--------------------------------*- C++ -*----------------------------------*\
  =========                 |
  \\      /  F ield         | OpenFOAM: The Open Source CFD Toolbox
   \\    /   O peration     | Website:  https://openfoam.org
    \\  /    A nd           | Version:  11
     \\/     M anipulation  |
\*---------------------------------------------------------------------------*/
FoamFile
{
    format      ascii;
    class       surfaceScalarField;
    location    "11.1";
    object      phi;
}
// * * * * * * * * * * * * * * * * * * * * * * * * * * * * * * * * * * * * * //

dimensions      [0 3 -1 0 0 0 0];

internalField   nonuniform List<scalar> 
10792
(
0.071214919
-0.043150608
-0.071746512
0.0436822
0.070518839
-0.041010282
0.041706362
0.069769934
-0.038864211
0.039613116
0.068967644
-0.036651217
0.037453507
0.068227454
-0.034541858
0.035282047
0.06733577
-0.03218874
0.033080425
0.066498459
-0.029824216
0.030661527
0.065632528
-0.027464757
0.028330687
0.064812033
-0.02503971
0.025860205
0.064007626
-0.022574918
0.023379324
0.063205631
-0.019982942
0.020784937
0.062610109
-0.017601273
0.018196795
0.061888373
-0.014877776
0.015599511
0.061476576
-0.01243147
0.012843267
0.060925769
-0.0096691719
0.010219979
0.060597586
-0.0071420088
0.0074701918
0.060272715
-0.0042588988
0.0045837696
0.060123999
-0.0017935016
0.0019422172
0.0011083131
0.060336786
-0.0013211001
0.075268475
-0.042488772
-0.07593031
0.074537828
-0.040279635
0.073786718
-0.038113102
0.073084287
-0.035948786
0.072291767
-0.033749337
0.071427788
-0.031324762
0.070626972
-0.0290234
0.069785487
-0.026623272
0.068959366
-0.024213588
0.068114522
-0.021730075
0.067456496
-0.019324916
0.066722687
-0.016867464
0.066107355
-0.014262445
0.065636486
-0.011960602
0.065101098
-0.0091337833
0.064875554
-0.0069164649
0.06461294
-0.0039962848
0.064562672
-0.0017432341
0.0012003558
0.064470629
0.079975583
-0.041891835
-0.08057252
0.079346526
-0.039650579
0.078727292
-0.037493867
0.077983334
-0.035204829
0.0770862
-0.032852202
0.076269675
-0.030508238
0.075419885
-0.02817361
0.074509897
-0.025713284
0.073628569
-0.02333226
0.072878046
-0.020979553
0.072142371
-0.018589241
0.0713808
-0.016105892
0.070858744
-0.013740389
0.070244219
-0.011346078
0.069872914
-0.0087624782
0.069509706
-0.0065532572
0.069269256
-0.0037558352
0.069114663
-0.0015886407
0.0012555698
0.069059449
0.084652307
-0.041264506
-0.085279636
0.08405492
-0.039053193
0.083238535
-0.036677482
0.082356147
-0.034322441
0.081522876
-0.032018932
0.080709902
-0.029695263
0.079832122
-0.02729583
0.079016065
-0.024897227
0.078282957
-0.022599152
0.077518264
-0.02021486
0.076776237
-0.017847215
0.076174749
-0.015504405
0.075566464
-0.013132104
0.075047372
-0.010826986
0.074661971
-0.0083770773
0.074251613
-0.0061428997
0.07408442
-0.0035886427
0.073868476
-0.0013726965
0.0012092216
0.073914824
0.090109092
-0.040544848
-0.09082875
0.089327251
-0.038271351
0.088530405
-0.035880637
0.087773891
-0.033565927
0.086987392
-0.031232432
0.086174829
-0.028882701
0.085321059
-0.02644206
0.084587297
-0.024163465
0.08377652
-0.021788376
0.082990133
-0.019428472
0.082287732
-0.017144814
0.081578811
-0.014795484
0.080927405
-0.012480698
0.080317908
-0.010217488
0.079874639
-0.007933809
0.079483792
-0.0057520523
0.079253296
-0.0033581475
0.079127525
-0.0012469251
0.0012176798
0.079119066
0.095437089
-0.039709123
-0.096272814
0.094719514
-0.037553777
0.093931248
-0.03509237
0.093170416
-0.032805095
0.09228543
-0.030347447
0.09144645
-0.028043721
0.09065129
-0.025646899
0.089818525
-0.0233307
0.088948571
-0.020918422
0.088222732
-0.018702634
0.087438609
-0.016360691
0.086743363
-0.014100238
0.086108424
-0.01184576
0.085562303
-0.0096713668
0.085176113
-0.0075476195
0.08480889
-0.0053848288
0.084650161
-0.0031994191
0.084488714
-0.0010854779
0.0011315365
0.084574857
0.10173934
-0.03905319
-0.10239527
0.1009478
-0.036762231
0.10011378
-0.034258359
0.099310074
-0.032001384
0.098533867
-0.029571241
0.097770252
-0.027280106
0.096894355
-0.024771002
0.096029836
-0.022466182
0.095188778
-0.020077363
0.094391541
-0.017905397
0.093587726
-0.015556876
0.092926792
-0.013439305
0.092264891
-0.011183859
0.091761021
-0.0091674965
0.091326028
-0.0071126264
0.090988376
-0.0050471769
0.090780224
-0.0029912674
0.090626854
-0.00093210869
0.0010637557
0.090694635
0.10802008
-0.038249995
-0.10882328
0.1070853
-0.035827451
0.1062629
-0.033435955
0.10543123
-0.03116972
0.1045545
-0.028694511
0.10368032
-0.02640592
0.10278351
-0.023874194
0.10190683
-0.021589504
0.10106446
-0.019234988
0.10026109
-0.01710203
0.099567626
-0.014863414
0.098941914
-0.012813593
0.098313226
-0.010555171
0.097802239
-0.0086565102
0.09729895
-0.0066093376
0.097003643
-0.00475187
0.096752295
-0.00273992
0.096673013
-0.00085282706
0.0010285412
0.096708228
0.11512718
-0.037477896
-0.11589928
0.11426599
-0.034966263
0.11346547
-0.03263543
0.11254023
-0.030244486
0.1116722
-0.027826477
0.11073065
-0.025464374
0.10982146
-0.022965004
0.10896565
-0.020733694
0.10814024
-0.018409573
0.10737555
-0.016337347
0.10661211
-0.014099973
0.10588786
-0.012089342
0.10523014
-0.0098974457
0.10469065
-0.0081170258
0.10422412
-0.006142803
0.10395671
-0.0044844683
0.10377411
-0.0025573157
0.10377665
-0.00085536494
0.0010212599
0.10378393
0.12257627
-0.036337121
-0.12371704
0.12147184
-0.033861837
0.12046274
-0.031626327
0.11939145
-0.029173192
0.1184764
-0.026911427
0.11752623
-0.024514211
0.11672263
-0.022161404
0.11588236
-0.019893419
0.11507415
-0.017601366
0.11425976
-0.01552296
0.11352115
-0.013361362
0.11282674
-0.011394933
0.11224559
-0.0093162949
0.11171037
-0.0075818047
0.11125098
-0.0056834176
0.11093271
-0.0041661944
0.11071249
-0.0023370956
0.1106966
-0.00083947185
0.00093943728
0.11077842
0.13066455
-0.035170055
-0.13183162
0.12967628
-0.032873566
0.12867308
-0.030623122
0.12766489
-0.02816501
0.1267277
-0.02597423
0.12571874
-0.023505252
0.12482421
-0.021266876
0.12386525
-0.018934455
0.12301722
-0.016753335
0.1221933
-0.014699044
0.12149381
-0.012661879
0.1208267
-0.010727814
0.12028365
-0.0087732459
0.11974701
-0.007045167
0.1193252
-0.0052616085
0.11894533
-0.0037863294
0.11875942
-0.0021511806
0.11867181
-0.00075186118
0.00080705244
0.11880419
0.13916753
-0.033865692
-0.14047189
0.13810643
-0.031812469
0.13689224
-0.029408927
0.13593445
-0.027207219
0.13491894
-0.024958718
0.13395761
-0.022543925
0.13300723
-0.020316494
0.13202134
-0.017948573
0.13111142
-0.015843416
0.13020077
-0.013788395
0.12942821
-0.011889315
0.12868583
-0.0099854291
0.12814726
-0.0082346758
0.1276326
-0.006530508
0.12726867
-0.0048976867
0.12694844
-0.0034660932
0.12679332
-0.0019960587
0.1267434
-0.0007019481
0.00061286777
0.12693759
0.14887666
-0.032620113
-0.15012224
0.14766576
-0.030601563
0.14628152
-0.028024692
0.14512573
-0.026051432
0.14389864
-0.02373163
0.14294471
-0.02158999
0.14198881
-0.019360593
0.14115554
-0.017115305
0.1402965
-0.014984382
0.13947266
-0.012964545
0.13867406
-0.011090719
0.13794027
-0.0092516375
0.13735964
-0.0076540473
0.13676087
-0.0059317369
0.13636431
-0.0045011293
0.13600797
-0.0031097511
0.13582239
-0.0018104844
0.13575889
-0.00063844559
0.00046410661
0.13590765
0.15866408
-0.03130762
-0.15997657
0.15737061
-0.029308093
0.15627477
-0.026928858
0.15513896
-0.024915614
0.15388437
-0.022477041
0.15276942
-0.020475048
0.15164477
-0.01823594
0.15074388
-0.016214413
0.14981749
-0.014057997
0.14898866
-0.012135711
0.14812815
-0.010230212
0.14737929
-0.0085027699
0.14671895
-0.0069937074
0.14617416
-0.0053869504
0.14575415
-0.0040811198
0.14545149
-0.0028070904
0.14528231
-0.0016413068
0.1452612
-0.00061733447
0.00032771985
0.14539758
0.16986407
-0.029709985
-0.17146171
0.16807723
-0.027521255
0.16675472
-0.025606346
0.16541742
-0.023578312
0.16428046
-0.021340083
0.16312707
-0.019321662
0.16198747
-0.017096336
0.1609454
-0.015172348
0.15993628
-0.013048873
0.15907638
-0.011275811
0.15824708
-0.0094009142
0.15753454
-0.0077902256
0.15683153
-0.0062907032
0.15628064
-0.0048360585
0.15581275
-0.0036132316
0.15550425
-0.0024985921
0.15531731
-0.0014543606
0.15532106
-0.00062109283
0.00020876461
0.15544002
0.18164722
-0.028302111
-0.1830551
0.1800526
-0.025926636
0.17858307
-0.024136808
0.17693708
-0.021932325
0.17566734
-0.020070341
0.17432467
-0.017978998
0.1732104
-0.015982068
0.17208266
-0.014044606
0.17115924
-0.012125454
0.17027335
-0.010389922
0.16945273
-0.0085802933
0.16875724
-0.0070947365
0.16811216
-0.0056456141
0.16761634
-0.0043402431
0.16717105
-0.0031679441
0.16686234
-0.0021898757
0.16665496
-0.0012469812
0.16661763
-0.00058376969
0.00015334839
0.16667305
0.19385528
-0.026503456
-0.19565393
0.19229717
-0.024368529
0.19074288
-0.022582517
0.18920363
-0.02039308
0.18778478
-0.018651487
0.18632829
-0.016522505
0.18514456
-0.014798343
0.18389145
-0.01279149
0.18289264
-0.011126643
0.18179707
-0.009294359
0.18097171
-0.0077549347
0.18015946
-0.0062824871
0.17951302
-0.0049991685
0.17898148
-0.0038087006
0.17854729
-0.0027337561
0.17823936
-0.0018819443
0.1780479
-0.0010555291
0.17797656
-0.00051242376
6.5924895e-05
0.17806398
0.2072926
-0.024592671
-0.20920339
0.20563881
-0.022714739
0.20391286
-0.020856566
0.20242744
-0.018907653
0.20092244
-0.01714649
0.19953174
-0.015131811
0.19822221
-0.013488814
0.19701885
-0.011588129
0.19596922
-0.010077011
0.19495283
-0.0082779649
0.1941478
-0.0069499123
0.19330763
-0.0054423123
0.19270524
-0.0043967765
0.1921337
-0.0032371639
0.19174801
-0.0023480643
0.19139913
-0.0015330638
0.19125965
-0.00091604854
0.19119931
-0.00045208266
-2.2578729e-05
0.19128781
0.22123465
-0.022768326
-0.223059
0.21952388
-0.02100397
0.21784627
-0.019178956
0.21631339
-0.017374767
0.2147424
-0.015575508
0.21333894
-0.013728346
0.21195491
-0.012104782
0.21075726
-0.010390485
0.2095415
-0.0088612449
0.20853691
-0.0072733748
0.20753476
-0.0059477655
0.20668558
-0.0045931342
0.20597728
-0.0036884728
0.20537637
-0.002636257
0.20497481
-0.0019465093
0.20461616
-0.0011744104
0.20444168
-0.00074156871
0.20430676
-0.00031716282
-0.00011599804
0.20440018
0.23687951
-0.020664905
-0.23898293
0.23489158
-0.019016043
0.2330702
-0.017357577
0.23136788
-0.015672452
0.22977009
-0.013977717
0.22831986
-0.012278115
0.22696643
-0.010751352
0.22575291
-0.0091769668
0.22460185
-0.0077101772
0.22363181
-0.0063033386
0.2226689
-0.0049848519
0.22190344
-0.0038276811
0.22113832
-0.0029233478
0.22058862
-0.0020865596
0.22015123
-0.0015091177
0.21988694
-0.00091011939
0.21970544
-0.00056006884
0.2195859
-0.00019762449
-7.3621574e-05
0.21954352
0.25314719
-0.018778705
-0.25503339
0.25122509
-0.017093946
0.24934146
-0.015473944
0.24753926
-0.013870251
0.24583695
-0.012275407
0.24423835
-0.010679517
0.24276023
-0.0092732261
0.2414222
-0.007838944
0.24022837
-0.0065163404
0.23915618
-0.005231151
0.23821616
-0.0040448313
0.23740929
-0.0030208089
0.23663704
-0.0021510999
0.23607331
-0.0015228342
0.23561491
-0.0010507127
0.23536967
-0.00066487813
0.23520081
-0.00039120953
0.23522832
-0.00022513474
-8.5560156e-05
0.23524025
0.2703795
-0.016547679
-0.27261053
0.26839028
-0.015104721
0.26650343
-0.013587094
0.2647504
-0.012117227
0.26306475
-0.010589753
0.26152245
-0.0091372193
0.26008582
-0.0078365928
0.25877305
-0.0065261725
0.25763237
-0.0053756614
0.2565899
-0.004188683
0.25572387
-0.0031788006
0.25495895
-0.0022558886
0.25427043
-0.0014625844
0.2536441
-0.00089649858
0.25316049
-0.00056710966
0.25280917
-0.00031355599
0.25261498
-0.00019701454
0.25254349
-0.0001536439
-0.00011618381
0.25257411
0.28927762
-0.014086146
-0.29173915
0.28701257
-0.012839669
0.28492813
-0.011502653
0.2830047
-0.0101938
0.281274
-0.0088590486
0.27968613
-0.0075493552
0.27821277
-0.0063632321
0.27688265
-0.0051960502
0.27572233
-0.0042153448
0.27478189
-0.0032482414
0.27393044
-0.0023273483
0.27325346
-0.0015789086
0.27268651
-0.00089563591
0.27222409
-0.00043408075
0.27183046
-0.00017347885
0.27152461
-7.7067818e-06
0.27136368
-3.608798e-05
0.27124119
-3.1150841e-05
-0.0001432088
0.27126822
0.30962334
-0.011533808
-0.31217568
0.3072427
-0.010459021
0.3050301
-0.0092900537
0.30300949
-0.0081731921
0.30115645
-0.0070060061
0.29953919
-0.0059320998
0.29806743
-0.0048914718
0.29676455
-0.0038931742
0.29562089
-0.0030716858
0.29459939
-0.0022267344
0.29381886
-0.0015468192
0.29315591
-0.00091595689
0.29265985
-0.00039958371
0.29222614
-3.7069158e-07
0.29186641
0.00018625984
0.29161227
0.00024642899
0.29138284
0.00019334184
0.29128276
6.8926553e-05
-0.00013161114
0.29127116
0.33193575
-0.0082748054
-0.33519475
0.32900666
-0.0075299314
0.3263991
-0.0066824934
0.32410466
-0.0058787494
0.3220781
-0.0049794439
0.32033058
-0.0041845893
0.31883391
-0.0033947936
0.31759301
-0.002652275
0.31656421
-0.00204289
0.31571223
-0.001374756
0.31507777
-0.00091236043
0.31460346
-0.00044164294
0.31432932
-0.00012544081
0.31417952
0.00014943061
0.31402795
0.00033781996
0.31391155
0.0003628363
0.31376872
0.0003361644
0.31368696
0.00015069056
-4.362096e-05
0.31359897
0.35654853
-0.0044248936
-0.36039844
0.35307168
-0.004053077
0.35004215
-0.0036529655
0.34735298
-0.0031895832
0.34507709
-0.0027035532
0.34313759
-0.0022450867
0.34153251
-0.0017897087
0.34026329
-0.0013830594
0.33923107
-0.0010106735
0.3385154
-0.00065908168
0.33799206
-0.00038901729
0.33768446
-0.00013405116
0.33750759
5.1432166e-05
0.33747008
0.00018694203
0.33752034
0.00028756372
0.33751755
0.00036562256
0.33755227
0.00030144178
0.33748849
0.00021447397
4.087846e-05
0.33740399
0.38409561
-0.3885205
0.38004253
0.37638956
0.37319998
0.37049643
0.36825134
0.36646163
0.36507857
0.3640679
0.36340882
0.3630198
0.36288575
0.36293718
0.36312412
0.36341168
0.36377731
0.36407875
0.36429322
0.3643341
0.060278941
0.0037856864
-0.0037278416
0.06070514
0.0065722586
-0.0069984583
0.06115623
0.0091878395
-0.0096389292
0.062025443
0.012017897
-0.01288711
0.062945246
0.014659651
-0.015579455
0.064243629
0.017539944
-0.018838328
0.065649792
0.020160787
-0.02156695
0.067365411
0.02315554
-0.024871159
0.069186555
0.025773991
-0.027595135
0.071281342
0.028624741
-0.030719529
0.073653231
0.031225223
-0.033597112
0.076166668
0.034057294
-0.036570731
0.078973288
0.036781898
-0.039588519
0.082001943
0.039476315
-0.042504971
0.085330826
0.041951245
-0.045280128
0.089041025
0.044672018
-0.048382217
0.093248832
0.046843709
-0.051051516
0.097854948
0.049440263
-0.054046379
0.051593197
0.10307984
-0.056818089
0.064573076
0.00368324
0.064948936
0.0061963977
0.065559183
0.0085775928
0.066508034
0.011069046
0.067623092
0.013544593
0.069080838
0.016082198
0.07067223
0.018569395
0.072600225
0.021227545
0.074615107
0.023759109
0.076968256
0.026271591
0.079438069
0.02875541
0.08222275
0.031272613
0.085170068
0.033834581
0.088481529
0.036164854
0.092026964
0.03840581
0.095860599
0.040838383
0.10029101
0.042413296
0.10491851
0.044812762
0.046149047
0.11036266
0.069166483
0.0035762057
0.069448016
0.0059148649
0.070200994
0.0078246143
0.071021245
0.010248796
0.072337079
0.012228759
0.073700218
0.014719059
0.075494638
0.016774976
0.077372542
0.019349642
0.079704016
0.021427635
0.082090662
0.023884945
0.084873586
0.025972485
0.087761316
0.028384883
0.091141652
0.030454245
0.094677306
0.032629201
0.098555518
0.034527597
0.10270606
0.036687839
0.10724226
0.037877098
0.11213908
0.039915942
0.040702268
0.11758586
0.074021413
0.0034696165
0.074460232
0.0054760458
0.075218001
0.0070668454
0.07623294
0.0092338563
0.077621429
0.01084027
0.079124325
0.013216164
0.081059259
0.014840041
0.083078846
0.017330056
0.085547032
0.018959449
0.087992579
0.021439398
0.090912116
0.023052947
0.093883086
0.025413913
0.097391893
0.026945438
0.10093936
0.029081737
0.10500527
0.030461682
0.10920134
0.032491769
0.11381919
0.033259247
0.11867177
0.035063365
0.035330237
0.1240438
0.07926477
0.0033239125
0.079766485
0.0049743306
0.080518379
0.0063149511
0.081624061
0.0081281748
0.082901557
0.0095627737
0.084568276
0.011549445
0.08639324
0.013015077
0.088592972
0.015130323
0.091003359
0.016549061
0.093655379
0.018787377
0.096621874
0.020086452
0.099847138
0.022188649
0.10322444
0.023568139
0.10695878
0.025347395
0.11081728
0.02660318
0.11506859
0.028240462
0.11935131
0.028976522
0.1240224
0.030392278
0.030517697
0.12883494
0.084742621
0.003156148
0.085310602
0.0044063495
0.086139296
0.0054862568
0.087318064
0.0069494068
0.088726886
0.0081539522
0.090554459
0.0097218715
0.092485236
0.011084301
0.094917179
0.01269838
0.097307159
0.014159081
0.10016746
0.015927077
0.10306835
0.017185558
0.10624968
0.019007323
0.10957852
0.020239294
0.11312375
0.02180217
0.11674107
0.022985859
0.12069811
0.024283418
0.12446773
0.025206903
0.12862284
0.026237175
0.026809769
0.13233076
0.090795741
0.0030550414
0.091460531
0.0037415596
0.092265722
0.0046810657
0.093573271
0.0056418583
0.095016432
0.0067107913
0.096893104
0.0078451993
0.098875982
0.0091014229
0.10129472
0.010279645
0.10368701
0.011766791
0.10664333
0.012970752
0.10939853
0.014430362
0.11263501
0.015770842
0.11569334
0.01718096
0.11902906
0.018466454
0.12226617
0.019748746
0.1255803
0.020969287
0.12876639
0.022020811
0.13168182
0.023321748
0.024255483
0.13423611
0.097012222
0.0027510467
0.097687603
0.0030661789
0.098538932
0.003829736
0.099918324
0.0042624664
0.10137317
0.0052559416
0.10336711
0.0058512625
0.10540141
0.0070671211
0.1078889
0.0077921621
0.11032654
0.0093291411
0.1131695
0.010127795
0.1158013
0.011798564
0.11887486
0.012697284
0.12159457
0.014461252
0.12466434
0.015396676
0.12714509
0.017268005
0.12996493
0.018149438
0.13192158
0.020064168
0.13378012
0.021463204
0.023148191
0.13488741
0.10412289
0.0024120831
0.10459278
0.0025962902
0.10561215
0.0028103625
0.10690027
0.0029743545
0.10851232
0.0036438904
0.11052255
0.0038410266
0.11263288
0.0049567987
0.1150486
0.0053764336
0.11743531
0.0069424335
0.12007318
0.0074899228
0.1224753
0.0093964425
0.12512608
0.010046508
0.12735083
0.012236503
0.12972039
0.013027113
0.13129054
0.015697853
0.13297703
0.016462948
0.13343632
0.019604882
0.13415843
0.020741098
0.024045922
0.1332607
0.1112638
0.0019267006
0.11180707
0.0020530251
0.11304076
0.0015766705
0.11419945
0.0018156674
0.11601806
0.0018252763
0.1178195
0.0020395889
0.12001543
0.0027608636
0.12220764
0.0031842292
0.12456825
0.0045818163
0.12688317
0.0051750014
0.12915256
0.0071270609
0.13129312
0.0079059404
0.13296634
0.010563284
0.13443517
0.011558284
0.1351839
0.01494912
0.13551115
0.016135707
0.13457562
0.020540405
0.13332169
0.021995025
0.027208054
0.13015956
0.1191228
0.0016080876
0.11976292
0.0014129115
0.12091156
0.00042803178
0.12207276
0.00065446976
0.12397027
-7.2234571e-05
0.12557176
0.00043809243
0.12782466
0.00050797017
0.12959046
0.0014184225
0.13178745
0.0023848306
0.13358136
0.0033810912
0.13548948
0.0052189339
0.13670692
0.006688505
0.13769256
0.0095776455
0.13793241
0.011318433
0.1377056
0.01517593
0.1365193
0.017322007
0.1344559
0.022603807
0.13134156
0.025109364
0.031939925
0.12660969
0.1272126
0.0013330705
0.12806992
0.00055559589
0.12905836
-0.00056040736
0.1304702
-0.00075737518
0.1321333
-0.0017353305
0.1337884
-0.0012170061
0.13591096
-0.0016145907
0.13747943
-0.00015004888
0.1395356
0.00032865998
0.14079019
0.0021265023
0.14215603
0.0038530958
0.14260542
0.0062391106
0.14283451
0.0093485519
0.14182668
0.012326268
0.14028361
0.016719001
0.13745047
0.02015515
0.1341453
0.025908976
0.12962208
0.029632583
0.037178378
0.12438362
0.13617914
0.0010615797
0.13702782
-0.00029308568
0.13794068
-0.0014732603
0.13949116
-0.0023078572
0.14084541
-0.0030895854
0.14253421
-0.0029058074
0.14413388
-0.0032142517
0.14556197
-0.0015781471
0.14699306
-0.0011024303
0.14755602
0.0015635484
0.14827322
0.0031358935
0.14775795
0.0067543776
0.14705912
0.010047387
0.14505893
0.014326459
0.14265787
0.019120057
0.13885237
0.023960647
0.13464114
0.03012021
0.12940401
0.034869712
0.042904666
0.12367772
0.14569043
0.0007687365
0.14653625
-0.0011389035
0.14748997
-0.0024269837
0.14891854
-0.0037364306
0.15007545
-0.0042464914
0.15171001
-0.0045403693
0.15285684
-0.0043610801
0.15422663
-0.0029479397
0.15500098
-0.0018767768
0.1552283
0.0013362208
0.15487994
0.0034842591
0.15325586
0.0083784588
0.15169668
0.01160656
0.14867246
0.017350682
0.14556896
0.022223559
0.14094074
0.028588868
0.13645445
0.034606497
0.1305263
0.040797867
0.048899325
0.12453164
0.15583933
0.00036942873
0.15656636
-0.0018659318
0.15749154
-0.0033521647
0.15875567
-0.0050005684
0.15984122
-0.0053320378
0.16122388
-0.0059230245
0.16196277
-0.0050999699
0.16298113
-0.0039663084
0.16298602
-0.0018816574
0.16277833
0.0015439106
0.1614088
0.0048537867
0.15962961
0.010157647
0.15720111
0.014035056
0.15339916
0.021152635
0.14955435
0.026068365
0.14430201
0.033841215
0.13965977
0.039248732
0.13353378
0.046923856
0.054158175
0.12827493
0.16711975
-7.7269909e-05
0.16773726
-0.0024834492
0.16868638
-0.0043012814
0.16973082
-0.0060450116
0.17072696
-0.0063281783
0.17169797
-0.0068940342
0.17205474
-0.0054567365
0.17236441
-0.0042759806
0.17150456
-0.0010218018
0.17062553
0.0024229344
0.16855405
0.0069252668
0.16650849
0.012203215
0.16299518
0.01754836
0.15920031
0.024947503
0.15505668
0.030211999
0.15041254
0.038485357
0.14658675
0.04307452
0.14214855
0.051362055
0.055666085
0.14064064
0.17855108
-0.00056437187
0.17912691
-0.0030592793
0.17995763
-0.0051320014
0.18071669
-0.0068040723
0.1816515
-0.0072629884
0.18224261
-0.0074851394
0.18236964
-0.0055837694
0.18207156
-0.0039779022
0.1808915
0.00015826234
0.17959434
0.0037200959
0.17700851
0.0095110911
0.17432588
0.014885854
0.17027375
0.021600489
0.16705841
0.028162845
0.16325124
0.034019167
0.1606521
0.041084494
0.15902583
0.044700788
0.15940554
0.050982347
0.050221841
0.16484978
0.19172081
-0.00099737572
0.19225636
-0.0035948249
0.19279933
-0.0056749742
0.19316183
-0.0071665678
0.19367598
-0.0077771447
0.19365982
-0.0074689807
0.19341922
-0.0053431638
0.19246913
-0.0030278166
0.19104391
0.0015834901
0.18917264
0.0055913638
0.18639362
0.012290107
0.18365308
0.017626395
0.18039545
0.024858123
0.17850126
0.030057034
0.17666485
0.035855571
0.17774638
0.040002966
0.18037648
0.042070686
0.18751982
0.04383901
0.039249417
0.19849224
0.20472707
-0.0013242697
0.20520435
-0.0040721052
0.20575579
-0.0062264128
0.20620653
-0.0076173019
0.20638767
-0.0079582888
0.20589632
-0.006977633
0.20537465
-0.0048214884
0.20402814
-0.0016813043
0.20250495
0.0031066824
0.20007681
0.0080195005
0.19747337
0.014893549
0.19519382
0.019905941
0.19356952
0.026482419
0.19355914
0.030067422
0.19494013
0.034474574
0.19990354
0.035039562
0.20672166
0.03525256
0.21772759
0.032833084
0.02813359
0.22884342
0.21972538
-0.0015061224
0.22005972
-0.0044064502
0.22034296
-0.0065096556
0.22048645
-0.0077607862
0.22030451
-0.0077763509
0.21972865
-0.006401773
0.21881296
-0.0039058002
0.21710628
2.5376053e-05
0.21545968
0.0047532883
0.21302057
0.010458605
0.21162121
0.016292916
0.21064057
0.020886576
0.21144302
0.025679971
0.21392069
0.027589755
0.21881123
0.029584026
0.22630566
0.027545138
0.23495714
0.026601078
0.24536076
0.022429466
0.020741857
0.25275249
0.23543716
-0.0017030287
0.23556027
-0.0045295547
0.2355893
-0.0065386901
0.2353905
-0.007561981
0.23478737
-0.0071732228
0.23385553
-0.0054699314
0.23251926
-0.0025695299
0.23095778
0.001586849
0.22916712
0.0065439533
0.227551
0.012074726
0.22749603
0.016347884
0.22809882
0.020283784
0.23135116
0.022427633
0.23591129
0.023029621
0.24275927
0.022736052
0.25036746
0.01993695
0.25818612
0.01878241
0.26481373
0.015801865
0.018181619
0.26737397
0.25273004
-0.0018589589
0.25259232
-0.0043918307
0.25248477
-0.0064311421
0.25203331
-0.0071105198
0.25141622
-0.0065561328
0.25052257
-0.0045762835
0.24924559
-0.0012925513
0.24784645
0.0029859919
0.24655853
0.0078318707
0.24657647
0.012056789
0.24779311
0.015131244
0.25055419
0.017522709
0.25521733
0.017764486
0.26049331
0.017753642
0.26726351
0.015965858
0.2731054
0.014095052
0.27777559
0.014112226
0.27932702
0.014250435
0.020213744
0.27729489
0.27112004
-0.0017107807
0.2708371
-0.0041088979
0.2703022
-0.0058962381
0.26932455
-0.0061328706
0.26806113
-0.0052927064
0.2665866
-0.0031017609
0.26546198
-0.00016792484
0.26453673
0.0039112415
0.26448406
0.007884542
0.26578995
0.010750898
0.26822317
0.01269802
0.27246499
0.013280893
0.27724175
0.012987721
0.28268723
0.012308163
0.28786142
0.010791675
0.29053574
0.011420726
0.29152681
0.013121156
0.28932646
0.016450789
0.023828057
0.28571214
0.29122039
-0.0016600087
0.29099146
-0.0038799683
0.29036496
-0.0052697327
0.28967084
-0.0054387524
0.28873991
-0.0043617749
0.28771798
-0.0020798334
0.2868212
0.0007288572
0.2866959
0.0040365469
0.28773432
0.0068461203
0.2899109
0.0085743131
0.29313992
0.0094690082
0.29692157
0.0094992394
0.30086543
0.009043855
0.30493318
0.0082404178
0.30682717
0.0088976897
0.30681931
0.01142858
0.30577839
0.014162077
0.3033975
0.018831679
0.023778017
0.30344754
0.31316556
-0.0012266012
0.31225718
-0.0029715869
0.31089584
-0.0039083933
0.30913919
-0.0036821035
0.30743445
-0.0026570306
0.3064322
-0.0010775858
0.30611996
0.0010411028
0.30684492
0.0033115909
0.30875255
0.0049384851
0.31159289
0.0057339702
0.31514745
0.0059144513
0.31902204
0.0056246486
0.32263793
0.005427971
0.32500957
0.0058687762
0.32579328
0.008113982
0.32689352
0.010328331
0.32778045
0.013275149
0.33074138
0.015870753
0.017086619
0.33743278
0.33708805
-0.00091066743
0.33614051
-0.0020240442
0.33492313
-0.002691014
0.33380014
-0.0025591097
0.33299503
-0.0018519173
0.33277237
-0.00085492922
0.33338182
0.00043165228
0.33507962
0.0016137948
0.33739834
0.0026197622
0.34009373
0.0030385814
0.34268392
0.0033242625
0.34485135
0.0034572239
0.34608669
0.0041926294
0.34699965
0.004955815
0.34875548
0.0063581497
0.35194685
0.007136959
0.35655326
0.0086687446
0.36436563
0.0080583785
0.0075024727
0.37394978
0.36342343
0.36139939
0.35870838
0.35614927
0.35429735
0.35344242
0.35387407
0.35548787
0.35810763
0.36114621
0.36447047
0.3679277
0.37212033
0.37707614
0.38343429
0.39057125
0.39924
0.40729837
0.41480085
0.10185134
0.060726378
-0.059497879
0.1010481
0.063172038
-0.062368798
0.10029991
0.065807783
-0.065059596
0.100104
0.067605579
-0.067409664
0.10012838
0.070689126
-0.070713508
0.1006334
0.072373903
-0.07287892
0.10163913
0.074737358
-0.075743091
0.10325942
0.076345404
-0.077965691
0.10528768
0.079119164
-0.081147424
0.10820135
0.079659853
-0.082573528
0.11151738
0.081361192
-0.084677221
0.11459551
0.082631291
-0.085709419
0.11809278
0.081832248
-0.085329517
0.12097206
0.081327636
-0.084206923
0.12288604
0.07876235
-0.08067633
0.12282777
0.075265147
-0.075206876
0.12064207
0.069024352
-0.066838645
0.11500978
0.062095491
-0.056463209
0.053524385
0.10579243
-0.044307028
0.10907067
0.062018366
0.10808787
0.06415484
0.10746731
0.066428343
0.10736864
0.067704256
0.10769268
0.070365078
0.10823435
0.071832239
0.10961596
0.073355746
0.11130646
0.0746549
0.1138488
0.076576831
0.11639238
0.077116271
0.119886
0.077867567
0.12420181
0.078315483
0.12746329
0.078570773
0.1311783
0.077612623
0.13358626
0.076354391
0.13482777
0.074023635
0.13401319
0.069838934
0.13071493
0.065393745
0.060199714
0.1240396
0.1161282
0.063476028
0.11475016
0.065532877
0.11384907
0.067329433
0.11342892
0.068124405
0.11352078
0.070273223
0.11406059
0.071292423
0.11550625
0.071910086
0.11709823
0.073062926
0.11943971
0.074235349
0.12201463
0.074541348
0.12525104
0.074631156
0.12917683
0.074389695
0.13229578
0.075451819
0.13587638
0.07403203
0.13888679
0.073343974
0.14143452
0.071475906
0.14158592
0.069687533
0.13938497
0.067594703
0.0650362
0.13454848
0.12232691
0.065192918
0.12076932
0.067090471
0.11981759
0.068281155
0.1188701
0.069071901
0.11855988
0.070583438
0.1189458
0.070906513
0.1198453
0.071010579
0.12110493
0.0718033
0.12309574
0.072244541
0.12554262
0.072094468
0.12845418
0.071719595
0.13154635
0.071297527
0.13442963
0.072568537
0.1372931
0.071168559
0.14035593
0.07028114
0.14251472
0.06931712
0.14358045
0.068621805
0.14292327
0.068251875
0.067737037
0.14022244
0.12656338
0.067464478
0.1249511
0.068702747
0.12369472
0.069537543
0.1226393
0.070127311
0.12219565
0.071027093
0.1220693
0.07103286
0.12246877
0.070611111
0.12309173
0.071180344
0.12459817
0.070738099
0.12694564
0.069747
0.12945636
0.069208875
0.13179122
0.068962665
0.13507327
0.069286486
0.13875795
0.06748388
0.14218647
0.066852615
0.14469628
0.066807316
0.14598977
0.067328308
0.14610222
0.06813943
0.069016003
0.14482325
0.12983048
0.069964765
0.12752182
0.071011406
0.12578209
0.071277268
0.12406264
0.071846768
0.1231336
0.071956124
0.12274555
0.071420915
0.12238316
0.0709735
0.12293855
0.070624959
0.12454857
0.069128073
0.12609364
0.068201936
0.12810602
0.067196485
0.13129015
0.065778545
0.13563274
0.064943891
0.1394844
0.063632221
0.14272646
0.063610556
0.14593611
0.063597667
0.14931204
0.063952379
0.15311878
0.06433269
0.066891789
0.15524299
0.13113032
0.073070555
0.12846159
0.073680131
0.12591671
0.073822149
0.12370328
0.074060199
0.12226112
0.073398285
0.12073418
0.072947853
0.12010616
0.071601524
0.12043414
0.070296981
0.12078508
0.068777125
0.12237074
0.066616284
0.12563379
0.063933436
0.12899778
0.06241455
0.13303401
0.060907665
0.13840302
0.058263203
0.14589773
0.056115853
0.15498923
0.054506161
0.1639814
0.05496021
0.17191115
0.056402945
0.061173396
0.17762954
0.1306429
0.077315064
0.12706404
0.077258997
0.12343116
0.077455025
0.12080527
0.076686089
0.11787216
0.076331396
0.11599463
0.074825386
0.11446574
0.073130411
0.1135956
0.071167124
0.11447721
0.067895513
0.11646659
0.064626904
0.11820336
0.062196664
0.12192552
0.058692389
0.13017696
0.052656226
0.14090071
0.047539453
0.15203438
0.044982184
0.16258572
0.043954819
0.1724491
0.045096836
0.18086198
0.047990064
0.053340226
0.18869515
0.12819906
0.0823767
0.12328135
0.082176703
0.1186975
0.08203888
0.11427134
0.081112248
0.1101587
0.080444038
0.10673309
0.07825099
0.10322808
0.076635421
0.10166129
0.072733919
0.10020769
0.069349115
0.098853405
0.065981187
0.099880723
0.061169346
0.10570457
0.052868543
0.11383426
0.044526538
0.12036307
0.041010644
0.12480235
0.040542899
0.12906955
0.039687622
0.13492176
0.039244623
0.14227959
0.040632237
0.043582167
0.15203765
0.12384225
0.088694016
0.1174238
0.08859515
0.11134392