/*--------------------------------*- C++ -*----------------------------------*\
  =========                 |
  \\      /  F ield         | OpenFOAM: The Open Source CFD Toolbox
   \\    /   O peration     | Website:  https://openfoam.org
    \\  /    A nd           | Version:  11
     \\/     M anipulation  |
\*---------------------------------------------------------------------------*/
FoamFile
{
    format      ascii;
    class       volVectorField;
    location    "11.1";
    object      U;
}
// * * * * * * * * * * * * * * * * * * * * * * * * * * * * * * * * * * * * * //

dimensions      [0 1 -1 0 0 0 0];

internalField   nonuniform List<vector> 
5472
(
(10.513608 2.6776129 1.6502212e-18)
(10.697008 2.6783149 -1.718339e-18)
(10.9108 2.6390335 -1.7316194e-18)
(11.094316 2.6097822 -1.7606683e-18)
(11.305579 2.5425485 5.4621845e-18)
(11.522309 2.4681551 -3.551376e-20)
(11.67052 2.3798855 -2.8804265e-18)
(11.897308 2.2722583 1.0059274e-18)
(12.031925 2.1497542 0)
(12.24137 2.0155613 0)
(12.345686 1.8701844 0)
(12.524125 1.7108899 -3.1230455e-18)
(12.64303 1.5398758 1.603507e-18)
(12.746367 1.3678704 -2.3735136e-20)
(12.889009 1.1732751 1.0820933e-18)
(12.922547 0.97684172 -5.5604025e-19)
(13.06171 0.78972557 -8.3312328e-19)
(13.054984 0.5579066 2.8631231e-19)
(13.153829 0.40287326 0)
(10.468609 2.4527329 -1.5108093e-18)
(10.650006 2.4419223 3.1169171e-18)
(10.815067 2.4302759 -1.6080691e-18)
(11.028112 2.3908817 -1.6150243e-18)
(11.234496 2.3328028 2.4734872e-20)
(11.396213 2.2793269 0)
(11.595418 2.1900908 1.7274181e-18)
(11.762413 2.1118514 -3.5257684e-18)
(11.945174 1.9857949 4.5533124e-18)
(12.091286 1.8777385 9.2927265e-19)
(12.232692 1.7459177 0)
(12.40921 1.580681 1.9288142e-18)
(12.486723 1.4547746 0)
(12.655793 1.2493715 4.8642724e-19)
(12.724895 1.11896 -5.0316319e-19)
(12.836452 0.89236304 0)
(12.926043 0.74548314 0)
(12.966661 0.53820743 -2.5219263e-19)
(13.033906 0.35358335 0)
(10.45352 2.2762333 0)
(10.618159 2.2934239 1.4213037e-18)
(10.816089 2.2758976 1.4552682e-18)
(11.004467 2.2684475 0)
(11.165638 2.2187413 -2.0136934e-20)
(11.337558 2.171975 -2.6551183e-20)
(11.511826 2.1086167 -1.5966441e-18)
(11.696036 2.0179282 0)
(11.820075 1.9309064 -1.6361378e-18)
(11.992632 1.8254374 -4.1883102e-18)
(12.154372 1.679824 1.2573352e-20)
(12.27325 1.5732732 -8.4812808e-19)
(12.407523 1.4086031 -8.7549011e-19)
(12.546027 1.251652 1.7951112e-18)
(12.618256 1.0975958 1.353087e-18)
(12.7658 0.89721634 4.5639317e-19)
(12.782021 0.76521179 2.277735e-19)
(12.897639 0.53242174 -3.4425789e-19)
(12.900952 0.40406045 1.1483809e-19)
(10.420068 2.0785714 0)
(10.607368 2.1008899 -1.2828418e-18)
(10.751316 2.1023366 -1.3120851e-18)
(10.900653 2.076183 2.6745053e-18)
(11.041186 2.0474534 -1.4067679e-18)
(11.227508 2.0054074 0)
(11.385584 1.9374491 -1.4448176e-18)
(11.534755 1.8974199 1.4536038e-18)
(11.704149 1.791904 -1.5068172e-18)
(11.88718 1.6862113 -2.0502281e-20)
(12.0065 1.5872477 -1.5567292e-18)
(12.166926 1.4535089 0)
(12.300639 1.3080727 0)
(12.414942 1.1535951 -7.9916097e-19)
(12.536829 1.0076062 -8.0699482e-19)
(12.613871 0.82467674 0)
(12.689271 0.67155629 -2.0538258e-19)
(12.761687 0.48122023 1.0402945e-19)
(12.78098 0.32086156 2.0725198e-19)
(10.446402 1.940653 0)
(10.575756 1.956717 0)
(10.696568 1.9482415 0)
(10.854277 1.9499685 -2.4249685e-18)
(11.012399 1.9102791 1.2621164e-18)
(11.182801 1.8913907 -3.8137296e-18)
(11.310269 1.8547748 5.2118198e-18)
(11.502084 1.7820035 -2.6562932e-18)
(11.651345 1.7076026 2.7367583e-21)
(11.796385 1.6407191 1.3670086e-18)
(11.942889 1.523608 1.3884952e-18)
(12.087184 1.4087527 -2.8371188e-18)
(12.199186 1.2921125 2.1592937e-18)
(12.310591 1.1484783 -7.2991313e-19)
(12.412173 1.004569 0)
(12.494487 0.83548756 7.4212223e-19)
(12.580786 0.6898685 -3.7297454e-19)
(12.624333 0.50280605 1.8537943e-19)
(12.692095 0.34516814 -1.8445212e-19)
(10.387785 1.7880394 0)
(10.51684 1.787501 -4.2050059e-18)
(10.641736 1.7982132 2.1707025e-18)
(10.795506 1.7937109 2.2147568e-18)
(10.914581 1.7869703 1.1245496e-18)
(11.075366 1.7589354 -1.1424935e-18)
(11.215866 1.710388 2.3708128e-18)
(11.385384 1.6710798 1.1910624e-18)
(11.502973 1.6033831 2.4243674e-18)
(11.675154 1.5166592 -2.484091e-18)
(11.795445 1.4121178 1.711994e-20)
(11.938856 1.3247147 2.5555433e-18)
(12.042275 1.1898816 0)
(12.170947 1.0618683 -6.5675109e-19)
(12.265822 0.9183449 6.5545795e-19)
(12.365846 0.76220937 -1.6524832e-18)
(12.437602 0.61346422 6.6402311e-19)
(12.50356 0.43382421 -1.663351e-19)
(12.549836 0.29177954 3.9164796e-22)
(10.406125 1.6319209 3.7281345e-18)
(10.526623 1.6354589 3.8003801e-18)
(10.637725 1.6639944 0)
(10.761509 1.6607541 -6.0182932e-21)
(10.894241 1.6548122 -4.0735654e-18)
(11.049529 1.6399781 4.1817534e-18)
(11.174177 1.6145266 0)
(11.335316 1.5689721 -1.0858675e-18)
(11.447996 1.5107949 -4.3848794e-18)
(11.611944 1.4369622 2.2504102e-18)
(11.70479 1.3652671 1.1264255e-18)
(11.866378 1.2601367 -1.1560128e-18)
(11.952333 1.1539094 0)
(12.098101 1.0339584 5.8212974e-19)
(12.176594 0.88601615 0)
(12.292876 0.7554621 -5.9165089e-19)
(12.344386 0.59729445 8.9520117e-19)
(12.424443 0.45451977 9.9938584e-22)
(12.448313 0.28334562 -9.6397642e-22)
(10.368964 1.4887098 1.671633e-18)
(10.458359 1.5108351 -3.4215366e-18)
(10.570316 1.5333849 -3.4862464e-18)
(10.694305 1.5244569 3.5908663e-18)
(10.80982 1.5316374 -1.843248e-18)
(10.939325 1.5058918 -1.8650735e-18)
(11.059171 1.496489 0)
(11.192464 1.4609928 2.8992529e-18)
(11.310825 1.4128144 -1.3375184e-20)
(11.45643 1.3487224 -3.0036553e-18)
(11.567659 1.2640828 3.0709938e-18)
(11.729039 1.1779069 0)
(11.81695 1.0785995 0)
(11.968101 0.95320319 1.0448041e-18)
(12.024826 0.82601766 -5.3602095e-19)
(12.150124 0.68714953 -1.0627492e-18)
(12.182045 0.55186821 2.6905397e-19)
(12.282515 0.39995661 2.7089322e-19)
(12.284809 0.24626892 6.6040271e-20)
(10.371296 1.3359591 -1.5001507e-18)
(10.475864 1.3726993 4.5969085e-18)
(10.58455 1.3950867 -4.7376565e-18)
(10.682812 1.3989547 3.2202291e-18)
(10.796301 1.4033272 0)
(10.910657 1.3933536 1.6694929e-18)
(11.01934 1.3896832 -1.722457e-18)
(11.145891 1.3554572 0)
(11.266137 1.3190274 8.7999687e-19)
(11.405621 1.2511371 -1.8187393e-18)
(11.518314 1.1930085 -9.0678915e-19)
(11.647904 1.1040806 -9.6715225e-21)
(11.738733 1.0262317 -2.7981639e-18)
(11.863823 0.91320859 4.811159e-19)
(11.936077 0.79760114 -4.6616305e-19)
(12.052939 0.66252171 9.5248155e-19)
(12.100105 0.52628348 -4.7418562e-19)
(12.204239 0.3870022 2.4263611e-19)
(12.207753 0.23824162 2.3757871e-19)
(10.355492 1.2176096 -2.7029025e-18)
(10.427118 1.2667243 0)
(10.506561 1.2760873 1.4090655e-18)
(10.590267 1.2891485 -4.3146615e-18)
(10.684965 1.298669 1.4854299e-18)
(10.788193 1.2935475 -1.5076829e-18)
(10.909154 1.2876574 1.5254383e-18)
(11.035258 1.2559316 -1.5691899e-18)
(11.156476 1.2246747 0)
(11.276817 1.1720238 8.0068391e-19)
(11.389413 1.1123195 0)
(11.514191 1.0356532 8.190879e-19)
(11.617824 0.95714441 -3.1274864e-22)
(11.740889 0.84118291 -4.1597907e-19)
(11.818054 0.73904944 4.1840399e-19)
(11.917581 0.59837875 4.2110475e-19)
(11.966234 0.48816228 -2.6076855e-21)
(12.048679 0.34041795 -6.3569622e-19)
(12.070204 0.21557009 0)
(10.336836 1.1125382 0)
(10.41991 1.1445711 1.2348665e-18)
(10.501647 1.1486113 0)
(10.594598 1.1755543 1.2786076e-18)
(10.695432 1.1646513 -3.9573161e-18)
(10.791328 1.1760491 4.0435484e-18)
(10.892069 1.1712657 -1.3533047e-18)
(10.991144 1.1593349 4.1988135e-18)
(11.100015 1.1358746 0)
(11.208895 1.0831259 7.2021012e-19)
(11.32822 1.0361648 0)
(11.440245 0.965527 -1.4597883e-18)
(11.555074 0.89636506 2.9603156e-18)
(11.658593 0.80150451 -7.9000508e-21)
(11.750201 0.70130751 -3.7619711e-19)
(11.833758 0.57385452 0)
(11.895219 0.45323865 0)
(11.960791 0.31389712 0)
(11.988442 0.18979069 -4.7113917e-20)
(10.302289 1.012379 4.2989856e-18)
(10.377763 1.034182 -5.5261158e-18)
(10.439609 1.0540661 2.2484763e-18)
(10.519889 1.0804151 -8.3410436e-21)
(10.604545 1.0834951 0)
(10.706079 1.0985977 -2.3885966e-18)
(10.806313 1.0807263 1.2350509e-18)
(10.910113 1.0737128 -1.2379006e-18)
(11.007142 1.0407451 0)
(11.106909 1.0028776 -6.3634659e-19)
(11.218836 0.95334267 1.2857953e-18)
(11.311255 0.892694 -1.3086493e-20)
(11.426112 0.82610046 -1.3217782e-18)
(11.520389 0.73748945 -2.6408513e-18)
(11.617692 0.64947474 2.3286397e-18)
(11.693564 0.53337428 -1.3343687e-18)
(11.769511 0.42402539 8.3807057e-19)
(11.816207 0.29512488 1.6782449e-19)
(11.872231 0.16723507 4.1351137e-20)
(10.310467 0.91293023 -6.7321678e-18)
(10.393072 0.91841287 3.9444136e-18)
(10.438629 0.95393265 0)
(10.520199 0.95510478 -5.1204119e-18)
(10.581998 0.96473093 4.2055713e-18)
(10.668811 0.98042068 1.0694585e-18)
(10.749104 0.982815 3.2530498e-18)
(10.85272 0.98808749 -2.2178136e-18)
(10.947791 0.96593224 -2.7921586e-18)
(11.05556 0.93577126 1.7109579e-18)
(11.162647 0.88342108 2.283572e-18)
(11.258773 0.82823619 -3.4790252e-18)
(11.37103 0.75525465 2.3330215e-18)
(11.452337 0.68128006 -5.9451715e-19)
(11.542521 0.58974522 2.9118844e-19)
(11.61082 0.48821098 -4.1052361e-21)
(11.683435 0.3791928 -7.4063618e-19)
(11.720771 0.25713669 -1.4714002e-19)
(11.777729 0.13361765 -3.6965165e-20)
(10.269053 0.81493415 2.578035e-18)
(10.333809 0.83530584 3.4949601e-18)
(10.380373 0.88010268 -3.5877412e-18)
(10.475507 0.87987595 9.1409311e-19)
(10.540247 0.89936868 -2.7802895e-18)
(10.631415 0.89136185 2.8592307e-18)
(10.706476 0.89100538 9.5925694e-19)
(10.800123 0.88482037 -4.900694e-18)
(10.886855 0.87490821 3.4738909e-18)
(10.981657 0.85272808 -1.5191074e-18)
(11.070764 0.81983091 0)
(11.166151 0.77473061 -5.1431499e-19)
(11.260148 0.70568503 -1.5461151e-18)
(11.346962 0.64333664 5.2943404e-19)
(11.430775 0.55431867 1.5671495e-18)
(11.500349 0.46178611 5.2071324e-19)
(11.572191 0.35908423 -1.0460725e-18)
(11.612576 0.2460905 2.6324999e-19)
(11.668153 0.12306557 2.9306169e-19)
(10.284994 0.72464972 -3.8050709e-18)
(10.335923 0.73980031 3.1204063e-18)
(10.375884 0.7566799 0)
(10.441744 0.77420085 -8.1037158e-19)
(10.490693 0.80572854 3.297816e-18)
(10.578135 0.80806657 -6.7284134e-18)
(10.647099 0.81769885 8.7961179e-19)
(10.73566 0.80469531 3.4894301e-18)
(10.809493 0.80114621 2.6428708e-18)
(10.899461 0.77306477 -4.4602264e-19)
(10.989054 0.74442483 0)
(11.085827 0.699384 2.2565794e-18)
(11.170912 0.64105995 -9.2018123e-19)
(11.256261 0.58000716 9.1662004e-19)
(11.328288 0.49827894 -1.3833665e-18)
(11.398461 0.41059744 -2.3131915e-19)
(11.458291 0.31441343 0)
(11.505355 0.20650722 0)
(11.548638 0.093995171 -2.8798072e-20)
(10.256994 0.6477683 6.5710768e-19)
(10.294158 0.68947236 -6.2298828e-18)
(10.362692 0.69193099 2.8140752e-18)
(10.412252 0.70321737 -3.6002938e-18)
(10.468899 0.71166002 -7.3129922e-19)
(10.543042 0.72269844 0)
(10.599151 0.73677453 -3.7706288e-18)
(10.681085 0.73140024 2.3129959e-18)
(10.751727 0.72746946 -7.7855805e-19)
(10.845735 0.70377353 -1.7981697e-21)
(10.926851 0.68421044 0)
(11.018907 0.64457879 0)
(11.104034 0.59607115 -4.0084704e-19)
(11.189103 0.53859169 -4.0259015e-19)
(11.262715 0.46731738 2.01913e-19)
(11.330968 0.38398915 1.2157542e-18)
(11.387053 0.295646 -8.1498636e-19)
(11.433581 0.18981369 1.0188543e-19)
(11.464416 0.086978773 2.5158959e-20)
(10.248404 0.55194656 4.19495e-18)
(10.274627 0.59476228 -4.2956544e-18)
(10.328052 0.60422664 0)
(10.364055 0.63802408 6.355381e-19)
(10.43679 0.63659763 0)
(10.487366 0.65358362 6.5839034e-19)
(10.56278 0.64929875 6.6850033e-19)
(10.623417 0.65297045 0)
(10.694912 0.64495723 3.4165069e-18)
(10.768789 0.63077501 -2.4346913e-18)
(10.842066 0.61398687 1.7428925e-18)
(10.928102 0.57406462 -1.4132791e-18)
(11.003686 0.53463043 1.4110479e-18)
(11.082134 0.47936411 -9.9593216e-21)
(11.152196 0.41844833 -1.4311866e-18)
(11.214021 0.34229199 -1.7792304e-19)
(11.270941 0.26238757 -1.791887e-19)
(11.311606 0.16589981 -8.8921757e-20)
(11.339342 0.069849822 0)
(10.210977 0.49360848 4.7910803e-18)
(10.253927 0.5161712 0)
(10.295272 0.53379981 0)
(10.334099 0.56040156 5.6225146e-19)
(10.397802 0.57168098 0)
(10.443186 0.59200135 -5.797504e-19)
(10.521536 0.58937322 -5.8796395e-19)
(10.570669 0.59842268 -2.37904e-18)
(10.655732 0.58143256 2.4208239e-18)
(10.714869 0.58205305 0)
(10.807272 0.54972062 -2.7568536e-18)
(10.877492 0.52843192 2.1739585e-18)
(10.95933 0.48139677 1.2401127e-18)
(11.030292 0.43469846 -2.4986149e-18)
(11.101202 0.37749322 2.5051923e-18)
(11.158192 0.30713723 -1.8832673e-18)
(11.21372 0.23435421 6.278982e-19)
(11.253708 0.14520997 0)
(11.281127 0.058838302 0)
(10.175506 0.41027788 7.5179185e-18)
(10.222011 0.43460411 -3.8364525e-18)
(10.254842 0.4552303 3.8938439e-18)
(10.312331 0.47294872 -4.4681998e-18)
(10.36159 0.48465102 -4.0212037e-18)
(10.416679 0.50493575 4.0978245e-18)
(10.475213 0.50963484 2.0676801e-18)
(10.531304 0.51782873 -1.062766e-20)
(10.597682 0.5125967 -2.1275662e-18)
(10.65512 0.50958359 0)
(10.735145 0.49075247 0)
(10.791818 0.47145332 2.7098235e-19)
(10.874071 0.42811929 0)
(10.929998 0.3910239 1.0922727e-18)
(11.000659 0.33396458 -1.1015417e-18)
(11.051906 0.27905183 -5.4822561e-19)
(11.104055 0.20483701 6.8806232e-19)
(11.138291 0.12932876 -3.4297281e-19)
(11.162618 0.045805334 2.7390234e-19)
(10.161412 0.34859232 0)
(10.196482 0.37098192 0)
(10.221399 0.39251357 3.4342711e-18)
(10.268316 0.41410262 -3.499815e-18)
(10.306434 0.43405382 3.9841411e-18)
(10.371543 0.4488309 -4.0538426e-18)
(10.422674 0.45231479 0)
(10.493669 0.45723335 4.6125563e-19)
(10.548864 0.45408849 1.8572496e-18)
(10.621085 0.45000327 -1.8839269e-18)
(10.688911 0.43541487 1.8870104e-18)
(10.755466 0.41807847 -1.1527191e-20)
(10.828808 0.38138238 -3.8253341e-18)
(10.885443 0.34668112 1.9246615e-18)
(10.952133 0.29504196 0)
(11.002798 0.24489128 -9.5963961e-19)
(11.054583 0.17909638 1.5044123e-18)
(11.082983 0.11282195 -6.613177e-19)
(11.108721 0.032862232 2.3955218e-19)
(10.136501 0.27320477 1.1349996e-17)
(10.171162 0.29677114 -5.9649809e-18)
(10.205514 0.31596993 0)
(10.244993 0.33630334 -3.8445625e-19)
(10.288709 0.35334205 -3.8957307e-19)
(10.33632 0.37282078 3.9466244e-19)
(10.381851 0.38098962 0)
(10.439633 0.38992494 -4.0373666e-19)
(10.489352 0.39130586 3.2567106e-18)
(10.558276 0.38675938 -3.3003065e-18)
(10.613955 0.38093837 0)
(10.685858 0.36143725 0)
(10.742428 0.33699025 2.0942533e-19)
(10.808 0.30125953 1.0501858e-19)
(10.858678 0.25997952 -1.0519969e-19)
(10.916643 0.21474002 0)
(10.95709 0.16015181 -4.7205129e-19)
(10.993704 0.10405415 4.2089539e-19)
(11.017899 0.040314218 0)
(10.099898 0.20732927 -1.032328e-17)
(10.124143 0.23391415 1.0819442e-17)
(10.158274 0.25788066 -1.1946776e-20)
(10.196091 0.27750516 -5.0720537e-18)
(10.244202 0.29732257 0)
(10.293791 0.31156222 2.7665713e-18)
(10.350266 0.31972309 -5.7811975e-18)
(10.402629 0.32748627 2.8375715e-18)
(10.459466 0.32956758 0)
(10.520209 0.33326753 -2.8724325e-18)
(10.581421 0.3253472 2.9052901e-18)
(10.647177 0.3129599 1.4517917e-18)
(10.708427 0.29013712 -1.4645331e-18)
(10.766731 0.25734162 1.2771313e-18)
(10.81785 0.21501749 -1.3786043e-18)
(10.869566 0.1685403 0)
(10.901654 0.1208412 -4.5916588e-20)
(10.939235 0.064528333 -1.3681473e-19)
(10.950161 0.013648039 1.9391684e-19)
(10.078362 0.14507358 2.8390612e-19)
(10.104952 0.16388105 -5.7644742e-19)
(10.128324 0.18720042 4.6735802e-18)
(10.163603 0.20724069 2.8509527e-19)
(10.201269 0.22893858 -3.1399203e-19)
(10.247469 0.24707512 -4.8653302e-18)
(10.29641 0.2566238 1.5327808e-19)
(10.350463 0.26534338 2.6277859e-18)
(10.406579 0.26625036 -2.5035382e-18)
(10.466966 0.26801749 -1.5739337e-19)
(10.528202 0.26876568 0)
(10.586887 0.26207594 2.6948365e-18)
(10.651973 0.2530829 -2.7165546e-18)
(10.703471 0.23356641 -1.1955844e-18)
(10.761696 0.20331941 8.6274229e-20)
(10.804537 0.16930804 1.9221684e-18)
(10.843865 0.12416305 -6.0129651e-19)
(10.874631 0.08194384 -5.9773028e-20)
(10.889552 0.032122494 -9.9091553e-21)
(10.047138 0.093230584 0)
(10.073407 0.11107208 2.5298855e-19)
(10.100161 0.12901246 4.100294e-18)
(10.137436 0.14865425 -4.5507053e-18)
(10.173128 0.16640882 4.3318491e-18)
(10.220485 0.18367999 -4.2581328e-18)
(10.264994 0.19628365 1.3430708e-19)
(10.317918 0.20549992 -1.352282e-19)
(10.370674 0.20803012 2.0405091e-18)
(10.429331 0.20672778 -2.0632599e-18)
(10.488954 0.20166218 2.0618421e-18)
(10.5519 0.19067847 -2.2883583e-18)
(10.61174 0.17661788 0)
(10.668378 0.15605927 1.1080889e-18)
(10.719916 0.13128462 -1.253544e-18)
(10.759962 0.10256994 5.5450498e-19)
(10.796906 0.067489218 -5.2167036e-19)
(10.816352 0.031618134 -2.4222976e-19)
(10.831069 -0.0063193223 2.8097357e-19)
(10.035255 0.044443093 -6.501035e-21)
(10.048577 0.057837247 -7.1057252e-18)
(10.066497 0.076872624 1.1244197e-19)
(10.093992 0.090894438 -1.1608435e-22)
(10.126587 0.10967991 1.1495276e-19)
(10.169603 0.12379689 0)
(10.216699 0.13749617 3.7467748e-18)
(10.266755 0.15064706 -3.9075708e-18)
(10.321471 0.15694141 1.1890247e-19)
(10.377946 0.16731561 -1.8524159e-18)
(10.434105 0.16824857 3.9104253e-18)
(10.497701 0.17014057 -3.8636197e-18)
(10.554314 0.16499397 1.9411053e-18)
(10.616705 0.15560305 0)
(10.670689 0.14051086 -9.3610274e-19)
(10.717508 0.11802129 9.7032334e-19)
(10.757369 0.092863932 -1.5031657e-20)
(10.782038 0.062273197 3.637196e-23)
(10.799409 0.029844403 -3.7468128e-21)
(10.014804 0.02033051 6.1891974e-18)
(10.026619 0.027763495 -6.2170262e-18)
(10.045318 0.034515307 6.2017032e-18)
(10.067325 0.043236315 9.945237e-20)
(10.099033 0.052284224 0)
(10.138823 0.058964549 0)
(10.185084 0.064947735 -5.1003623e-20)
(10.238313 0.06778067 -3.2394868e-18)
(10.295823 0.068798555 3.3751418e-18)
(10.355759 0.068946651 3.2990454e-18)
(10.419035 0.065292161 -1.6058531e-18)
(10.480604 0.061217939 -1.7594718e-18)
(10.540718 0.054275873 0)
(10.599423 0.046439038 2.6305917e-20)
(10.648555 0.03756256 2.6242506e-20)
(10.693262 0.026453666 8.2412296e-19)
(10.7266 0.014564619 -8.5278937e-19)
(10.747765 -0.0015140502 1.8918449e-19)
(10.759495 -0.01692701 -2.08596e-19)
(10.00667 0.005731671 -4.1698591e-20)
(10.013491 0.0089647087 5.3816978e-18)
(10.026113 0.013788463 -4.5471029e-21)
(10.045034 0.019730239 -6.5170233e-21)
(10.070952 0.026312111 -5.5653937e-18)
(10.104352 0.033295996 0)
(10.145226 0.04026428 2.7802419e-18)
(10.193088 0.047068017 -2.8072022e-18)
(10.246967 0.05308016 -4.4632799e-20)
(10.305897 0.057938691 -2.2409605e-20)
(10.368633 0.061396826 -2.2476708e-20)
(10.432999 0.063278124 2.2527293e-20)
(10.495428 0.064213448 0)
(10.555867 0.064700248 1.4247588e-18)
(10.612269 0.062901796 -1.4580489e-18)
(10.66213 0.06162029 -7.1408823e-19)
(10.707448 0.051682338 7.2834253e-19)
(10.734036 0.044611523 3.6761757e-19)
(10.76002 0.031192921 -3.6122378e-19)
(13.153195 0.1535741 -1.3684031e-19)
(13.175177 0.0085678296 -5.470244e-19)
(13.227477 -0.21925449 5.3371983e-19)
(13.173814 -0.35475883 0)
(13.221111 -0.57486127 -1.0005034e-18)
(13.134933 -0.6890943 -1.9337049e-18)
(13.159742 -0.90280582 0)
(13.082081 -0.99805499 -2.1612221e-20)
(13.05023 -1.2031005 3.3077555e-18)
(12.974935 -1.3069137 1.575703e-18)
(12.935159 -1.4953396 -1.4807462e-18)
(12.867892 -1.6097927 2.7954554e-18)
(12.833147 -1.7666827 -2.6139071e-18)
(12.764755 -1.8955735 0)
(12.717187 -2.0539603 1.1713057e-18)
(12.670532 -2.1941347 -1.0873562e-18)
(12.612979 -2.3570435 -2.0628829e-18)
(12.598294 -2.5328612 1.9360079e-18)
(12.576827 -2.7036401 -9.0782281e-19)
(13.048176 0.17157736 -1.1841376e-19)
(13.080625 -0.051151607 7.0868344e-19)
(13.075114 -0.22489314 -4.6442257e-19)
(13.063524 -0.44004103 0)
(13.060759 -0.60589536 -8.8243517e-19)
(12.985559 -0.78958873 2.537615e-18)
(12.998198 -0.9616945 0)
(12.898992 -1.1149818 0)
(12.892397 -1.2759839 0)
(12.783114 -1.4200743 0)
(12.75483 -1.5782491 2.6349301e-18)
(12.662054 -1.7004386 -3.7491645e-18)
(12.63971 -1.8499888 -3.5610795e-18)
(12.54333 -1.9654682 2.2207586e-18)
(12.506002 -2.147842 -2.1021787e-18)
(12.423737 -2.2437694 1.9995448e-18)
(12.349196 -2.4556692 -1.2460388e-20)
(12.299494 -2.5732767 -1.7628739e-18)
(12.234619 -2.803747 1.6792261e-18)
(12.962046 0.15966713 0)
(12.949935 -0.012954906 -4.1361654e-19)
(12.967448 -0.23528708 -8.1072517e-19)
(12.944818 -0.40968108 -4.2836351e-21)
(12.910017 -0.61086872 -7.8187919e-21)
(12.869521 -0.77797563 1.5045103e-18)
(12.815164 -0.95894563 -2.8621733e-18)
(12.764612 -1.10985 1.3612745e-18)
(12.692008 -1.2716101 1.5832284e-20)
(12.633344 -1.435599 0)
(12.534694 -1.577216 3.5529922e-18)
(12.477364 -1.7406507 8.4301971e-21)
(12.393688 -1.8581867 2.1268983e-18)
(12.323084 -2.0346308 2.0289884e-18)
(12.248382 -2.1673413 2.854863e-18)
(12.17591 -2.3093746 -3.5837904e-18)
(12.054643 -2.50419 -5.7945228e-21)
(11.989456 -2.6249593 3.2175824e-18)
(11.881195 -2.8602343 1.5372862e-18)
(12.84207 0.10545291 3.5915242e-19)
(12.827848 -0.06616036 -7.16883e-19)
(12.85368 -0.30635488 1.0561789e-18)
(12.807335 -0.46047005 0)
(12.801385 -0.69278969 2.0162888e-18)
(12.722026 -0.82529356 -3.255151e-18)
(12.68377 -1.0434032 2.5183866e-18)
(12.601565 -1.1596458 -3.7266612e-21)
(12.535247 -1.3626883 1.7470112e-20)
(12.443655 -1.4724447 -1.1169982e-18)
(12.341386 -1.654302 0)
(12.274688 -1.7584168 -9.9811755e-19)
(12.136851 -1.9331969 9.7693784e-19)
(12.085617 -2.0477839 -1.8007294e-18)
(11.939001 -2.2104026 0)
(11.887998 -2.3365553 0)
(11.705368 -2.5149464 -1.5352028e-18)
(11.641454 -2.6562681 0)
(11.436311 -2.8465244 1.3835764e-18)
(12.709187 0.14512197 3.1138755e-19)
(12.748595 -0.068000845 -3.094778e-19)
(12.73496 -0.27180223 4.0714552e-21)
(12.720901 -0.45373617 -6.0043239e-19)
(12.669219 -0.6697585 5.7899924e-19)
(12.603541 -0.81589005 -2.3329641e-21)
(12.537275 -1.0223033 -1.1014133e-18)
(12.444234 -1.1440583 0)
(12.359077 -1.3436099 -2.0533439e-18)
(12.26291 -1.4504854 9.7745789e-19)
(12.149987 -1.6287809 0)
(12.065733 -1.7465447 0)
(11.932244 -1.9007151 -1.7013558e-18)
(11.832499 -2.0233284 -1.6431507e-18)
(11.67896 -2.1754272 1.5640319e-18)
(11.591467 -2.2849435 2.9627366e-18)
(11.383695 -2.4666034 1.431673e-18)
(11.278939 -2.5621885 -1.3178298e-18)
(11.046631 -2.7719714 -2.4169735e-20)
(12.579463 0.071167344 0)
(12.608073 -0.10866644 2.7016525e-19)
(12.590888 -0.3326502 -1.3279855e-18)
(12.567243 -0.52096529 5.2343848e-19)
(12.511092 -0.70820363 1.5364529e-18)
(12.457958 -0.88009746 -1.008286e-18)
(12.361821 -1.0562317 -1.951554e-18)
(12.291499 -1.2069423 1.8714367e-18)
(12.166556 -1.3729921 -9.2219909e-19)
(12.098241 -1.4911056 1.7371565e-18)
(11.923061 -1.6537672 0)
(11.85658 -1.7685776 0)
(11.662023 -1.8966937 -1.5437576e-18)
(11.573645 -2.0247106 4.3943479e-18)
(11.36578 -2.129705 -5.5726876e-18)
(11.252618 -2.2592733 2.6604561e-18)
(11.038135 -2.3643955 -5.1040565e-18)
(10.874648 -2.4829825 1.2204442e-18)
(10.637899 -2.6123685 2.3248755e-18)
(12.505757 0.10256222 5.8830384e-20)
(12.500313 -0.10836453 2.3509903e-19)
(12.505636 -0.32362209 -4.6032877e-19)
(12.467915 -0.49936434 0)
(12.421746 -0.70501181 -8.9780386e-19)
(12.340907 -0.87072709 2.6221456e-18)
(12.251805 -1.0425316 -1.6944971e-18)
(12.146531 -1.2021109 8.3176442e-19)
(12.02784 -1.339879 -1.607733e-18)
(11.918954 -1.4850913 4.6395642e-18)
(11.752605 -1.6129411 -2.9595091e-18)
(11.661223 -1.7305393 0)
(11.448938 -1.8457831 1.3602253e-18)
(11.337175 -1.9538837 2.6356854e-18)
(11.0995 -2.0469786 -3.7525725e-18)
(10.963827 -2.150204 3.6296547e-18)
(10.686622 -2.2245302 -3.4692024e-18)
(10.535678 -2.3224862 -2.2326625e-18)
(10.208833 -2.3576277 -1.0765952e-18)
(12.368719 0.060917041 1.523729e-19)
(12.336176 -0.16444 2.0241319e-19)
(12.373545 -0.34939509 -3.9948791e-19)
(12.286286 -0.55503219 0)
(12.26613 -0.72723565 1.5542617e-18)
(12.143544 -0.90625668 -7.6699173e-19)
(12.077137 -1.0638611 0)
(11.930398 -1.2211806 -1.4511734e-18)
(11.845163 -1.3481596 7.0859051e-19)
(11.667884 -1.4893256 0)
(11.547266 -1.5898402 -1.3247771e-18)
(11.367075 -1.7117548 1.2770351e-18)
(11.203666 -1.7841858 1.2289887e-18)
(11.036797 -1.8888543 -2.3584703e-18)
(10.805302 -1.9383737 2.2472808e-18)
(10.640947 -2.0176268 -1.0755847e-18)
(10.364551 -2.0466184 -1.0483414e-18)
(10.205349 -2.0811815 -1.0067707e-18)
(9.8747857 -2.075737 -9.6748871e-19)
(12.299706 0.053304229 3.5116642e-19)
(12.239461 -0.15547546 -1.7408711e-19)
(12.281974 -0.34815279 0)
(12.172949 -0.5518759 0)
(12.161731 -0.71986291 -1.3528443e-18)
(12.016487 -0.90751276 1.3300365e-18)
(11.967955 -1.0454119 0)
(11.788981 -1.2100516 6.3247546e-19)
(11.707539 -1.3138201 -6.1555147e-19)
(11.499929 -1.4533244 0)
(11.383373 -1.5282197 1.1575776e-18)
(11.149372 -1.6405858 1.3726866e-20)
(11.000123 -1.6858805 1.3463334e-20)
(10.752619 -1.775358 0)
(10.575353 -1.7691668 -4.0583542e-18)
(10.296593 -1.844143 3.8764181e-18)
(10.06584 -1.7830575 4.694945e-18)
(9.8537767 -1.8098735 -6.3252956e-18)
(9.5479821 -1.7147462 4.3275969e-18)
(12.152204 0.021995613 0)
(12.115651 -0.16951668 1.660755e-21)
(12.153658 -0.37630636 0)
(12.04061 -0.56449139 0)
(12.025411 -0.73518643 5.850402e-19)
(11.857704 -0.91544487 6.4265379e-21)
(11.799735 -1.0477303 -5.7228363e-19)
(11.603796 -1.1992665 -1.6800693e-18)
(11.510091 -1.2882324 2.1650522e-18)
(11.290909 -1.4155395 0)
(11.169422 -1.459563 -1.0342427e-18)
(10.933062 -1.5637972 -6.0022574e-18)
(10.78116 -1.5610908 2.8855601e-18)
(10.523707 -1.6299766 0)
(10.349682 -1.5709772 -3.624482e-18)
(10.074841 -1.6098244 4.3460963e-18)
(9.8874473 -1.4810247 -3.376351e-18)
(9.5888495 -1.484705 4.0482993e-18)
(9.3743418 -1.2888454 0)
(12.052483 -0.0024304588 -2.6314672e-19)
(12.020357 -0.1714374 1.3202634e-19)
(12.031792 -0.39668134 0)
(11.928048 -0.55000931 -1.0376448e-18)
(11.892613 -0.74855363 1.5332882e-18)
(11.719316 -0.89004583 -5.0197809e-19)
(11.655626 -1.0351571 -1.5025882e-18)
(11.435212 -1.1534083 3.4146517e-18)
(11.32835 -1.2428436 -1.8986434e-18)
(11.081495 -1.3354913 0)
(10.953326 -1.378926 9.0179433e-19)
(10.688519 -1.4383226 5.3056695e-18)
(10.541462 -1.4115895 -3.407558e-18)
(10.250371 -1.4396625 0)
(10.0916 -1.3461676 0)
(9.8145442 -1.3390062 -1.5536721e-18)
(9.6720254 -1.1537436 7.5409871e-19)
(9.419453 -1.1109317 -2.1788749e-18)
(9.2753063 -0.83568068 0)
(11.904873 -0.0014583151 -2.2766926e-19)
(11.904888 -0.18636227 6.8203392e-19)
(11.887103 -0.3989725 -6.7783131e-19)
(11.808152 -0.54715696 0)
(11.74037 -0.74949862 1.342675e-18)
(11.58243 -0.86124467 -1.7490569e-18)
(11.491371 -1.0218101 0)
(11.287092 -1.0886114 8.5556924e-19)
(11.169168 -1.1909017 8.3934967e-19)
(10.917762 -1.2413229 0)
(10.785372 -1.2753359 0)
(10.522798 -1.2763771 -7.7377436e-19)
(10.387901 -1.2425683 -2.2789863e-18)
(10.105391 -1.2038074 -2.4273426e-20)
(9.9631214 -1.0953666 2.1258741e-18)
(9.6693152 -1.0128872 1.3813962e-18)
(9.5723676 -0.82333514 -6.6651987e-19)
(9.3309261 -0.71203983 1.2890774e-18)
(9.298253 -0.41518561 0)
(11.79127 -0.021773124 0)
(11.804558 -0.20852248 -7.8689332e-19)
(11.751858 -0.39355428 1.5627572e-18)
(11.700304 -0.55736627 -1.1649283e-18)
(11.592303 -0.73335718 0)
(11.455258 -0.84286753 0)
(11.311919 -0.9904692 0)
(11.123863 -1.0289053 -7.3937663e-19)
(10.974704 -1.1312017 -7.2697481e-19)
(10.724002 -1.1244368 0)
(10.57688 -1.1571631 -7.0378364e-19)
(10.30992 -1.1104959 -6.8711249e-19)
(10.186071 -1.0545444 -6.6428496e-19)
(9.9271972 -0.95639556 2.606741e-18)
(9.8398019 -0.83002925 -2.5189693e-18)
(9.5944779 -0.69483293 -6.1037256e-19)
(9.5476721 -0.49749702 3.5674953e-18)
(9.3568703 -0.34514025 -5.7293716e-18)
(9.3919824 -0.063058219 3.3316043e-18)
(11.679698 -0.017294014 -4.2725257e-20)
(11.692809 -0.2107194 8.5283352e-20)
(11.635399 -0.38500375 8.4633426e-19)
(11.585595 -0.55306242 -2.0242568e-18)
(11.452454 -0.69193761 9.9633991e-19)
(11.337789 -0.80862473 0)
(11.156987 -0.91734899 0)
(11.00168 -0.95498232 6.500874e-19)
(10.824335 -1.0249024 -2.5632817e-18)
(10.623679 -0.98735918 -6.5198623e-19)
(10.445923 -1.0100797 5.9022495e-19)
(10.19965 -0.89658789 2.9933275e-18)
(10.066695 -0.84362956 5.8865451e-19)
(9.8295978 -0.69559491 0)
(9.7713122 -0.56963265 1.6702465e-18)
(9.5816477 -0.38505574 0)
(9.6010126 -0.19804407 -3.1546404e-18)
(9.4671505 -0.018228598 9.1351469e-18)
(9.5632304 0.26354548 -7.862718e-18)
(11.567295 -0.035563012 7.349767e-20)
(11.568641 -0.22439779 -7.3066194e-20)
(11.511538 -0.38150069 0)
(11.444588 -0.54743621 -8.786286e-19)
(11.311326 -0.66281284 2.790624e-19)
(11.190593 -0.78353965 1.1450505e-18)
(10.988502 -0.85641156 0)
(10.844011 -0.8991159 -2.8263281e-18)
(10.637006 -0.91989179 1.6560145e-18)
(10.479548 -0.86946963 -3.837047e-21)
(10.292021 -0.83762704 0)
(10.119739 -0.69998164 0)
(9.980677 -0.64351972 -5.1362808e-19)
(9.8145196 -0.44496038 0)
(9.7702034 -0.32495766 2.9936679e-21)
(9.6375713 -0.09445775 9.5265596e-19)
(9.7002584 0.055775667 -2.7789241e-18)
(9.6256488 0.28951902 7.1715255e-18)
(9.824584 0.51120518 -3.4734874e-18)
(11.491271 -0.038625921 2.2226556e-19)
(11.477742 -0.21649134 -1.8998545e-19)
(11.429375 -0.36613925 0)
(11.348737 -0.51779167 0)
(11.225331 -0.61408098 0)
(11.090064 -0.72503206 0)
(10.90031 -0.76091934 -1.9877257e-18)
(10.743631 -0.80315646 1.9504992e-18)
(10.520675 -0.77603341 2.4266992e-18)
(10.377532 -0.72488222 -9.4646739e-19)
(10.179049 -0.64764032 0)
(10.060501 -0.52585727 3.6955321e-18)
(9.9222405 -0.42203827 -6.7609551e-18)
(9.8528274 -0.20847326 3.515421e-18)
(9.8151391 -0.092105554 -4.2999638e-18)
(9.7862511 0.15489694 2.5048076e-18)
(9.883695 0.26301569 -8.1307109e-19)
(9.9015995 0.50692023 -7.8873242e-19)
(10.183564 0.6460955 7.6667617e-19)
(11.367991 -0.05393111 2.1913322e-19)
(11.350785 -0.21414678 -7.1160004e-19)
(11.304245 -0.36202659 4.3583523e-19)
(11.196266 -0.49875032 -8.7326357e-19)
(11.081554 -0.58802456 8.6413893e-19)
(10.935651 -0.67539604 0)
(10.775236 -0.68473282 -4.3007177e-19)
(10.60963 -0.70527634 1.7085006e-18)
(10.424722 -0.6382183 -1.6758955e-18)
(10.299173 -0.58772008 -4.1408058e-19)
(10.128222 -0.4721608 -3.2821324e-18)
(10.044691 -0.35528108 3.204173e-18)
(9.9272914 -0.20142198 -3.9323634e-19)
(9.9269636 -0.022883773 2.3161002e-18)
(9.9012796 0.1082036 -2.2519128e-18)
(9.9880437 0.31590217 0)
(10.087932 0.38667013 -5.7103891e-18)
(10.241035 0.58832312 6.2412351e-18)
(10.517467 0.55732323 0)
(11.301976 -0.05846843 -3.7800442e-19)
(11.288498 -0.20438496 3.7771424e-19)
(11.235113 -0.33456101 -7.55129e-19)
(11.1144 -0.45056452 7.4967205e-19)