/*--------------------------------*- C++ -*----------------------------------*\
  =========                 |
  \\      /  F ield         | OpenFOAM: The Open Source CFD Toolbox
   \\    /   O peration     | Website:  https://openfoam.org
    \\  /    A nd           | Version:  11
     \\/     M anipulation  |
\*---------------------------------------------------------------------------*/
FoamFile
{
    format      ascii;
    class       volScalarField;
    location    "0.3";
    object      rho;
}
// * * * * * * * * * * * * * * * * * * * * * * * * * * * * * * * * * * * * * //

dimensions      [0 0 0 0 0 0 0];

internalField   nonuniform List<scalar> 
880
(
0.2239950333699092
0.2239950334796475
0.2240052154271782
0.2264815911146932
0.2239950333699283
0.2239950335467484
0.2240108290796732
0.2278849882554536
0.2239950333699114
0.2239950340176865
0.2240277671921584
0.2296666600889587
0.2239950333747752
0.223995036711787
0.2240700789954914
0.2324054797039563
0.2239950332979611
0.2239950332725398
0.2239950371041295
0.223995230653826
0.2239950588544402
0.2239950888203941
0.2239963240648646
0.223996508229647
0.2241747194653907
0.2242998394173516
0.2245157119338144
0.2246365984013214
0.2375886438319224
0.2427066649879282
0.2468642576487884
0.2486021370214228
0.2239953255725551
0.2239973326993412
0.224000386595973
0.2240189133940833
0.2240130785129754
0.2240540391244375
0.2241162066345443
0.2242372038701361
0.2258065474171521
0.2267864274838821
0.2279269035808736
0.2295081126387972
0.2506292427539202
0.2538953290043184
0.254756933430905
0.2543355211847683
0.2427246652188429
0.2366009549876102
0.2340598218253124
0.2317144086985725
0.2327577984297162
0.233779965092767
0.2344975850820323
0.2346282711096915
0.2247752760840566
0.2253598532817812
0.2260458727740478
0.226640069553356
0.2240803806564876
0.2242173100624998
0.2244380343009187
0.2247318171935776
0.2250435194975925
0.2253462740063455
0.2255653652513408
0.2256202247157754
0.2270543744162038
0.2273470196526649
0.2275486071111263
0.2276316673793485
0.2343736924383135
0.2338676115505819
0.2330343328093728
0.2324362241830448
0.2300456588787544
0.2290539528654142
0.2277593431032434
0.2279839664855889
0.2276814200356837
0.231760181949833
0.2277387696494961
0.225587140427097
0.2315286306699373
0.2311644063285954
0.2277066602638401
0.2254266979313241
0.2595408346151248
0.2323540362849228
0.2270733132391827
0.2250725481697946
0.3296381741194571
0.2400976572549432
0.2272541898070959
0.2248946688736916
0.2243940671571452
0.2275157000140658
0.2530317359543285
0.3740849807573393
0.2243083477858889
0.2281426148299481
0.2659039109235993
0.3772601486112225
0.2244814467531338
0.2301428456065081
0.2845445254025769
0.3847335735040081
0.2250551606695426
0.2342649765478941
0.3035061517854176
0.3848207667737575
0.3803227467816737
0.3229995000657386
0.2420126369360266
0.2263092551537649
0.3710051208663599
0.3359786054942961
0.2537762798114185
0.228774439105058
0.3569666704380701
0.3366913652258266
0.2673786613276448
0.232749572868308
0.3405841807453914
0.3322413830885241
0.278089181699348
0.2386852353710491
0.2461524949612953
0.280466621463535
0.3122638741841829
0.3217908276139703
0.2472366610126491
0.2688136221559464
0.2885910807120708
0.2980546691975021
0.2457817664478969
0.257678563201082
0.2656476959414698
0.2693647081545369
0.2431688576402918
0.2474631763158867
0.24318315911496
0.2367555858468613
0.2411769273987029
0.23873199126636
0.2246682633959878
0.1918281520752287
0.2366774227165948
0.2305397505061866
0.2112779767601727
0.134378545682375
0.232821528982232
0.2266145679762732
0.2015110486553298
0.08766499891100026
0.2297271288499726
0.2250305200562877
0.1925948418308129
0.06756197442057031
0.08254491262353249
0.1906532633315864
0.2232943955728074
0.2271114926779016
0.08515631996299297
0.1885350797732413
0.221870316117882
0.2254561515094062
0.08295228678944747
0.185203971260133
0.2207894664739155
0.2244831255271264
0.07729511840699388
0.1809433195190779
0.2197848910405205
0.2240887801386412
0.09065982975241796
0.1853288314103458
0.2191258486234197
0.2237433632760832
0.1092397249378061
0.1925713386992655
0.2192210678037229
0.223695495434645
0.128170292503211
0.2003282946724635
0.2202013899302308
0.2237949208884869
0.1483305032819278
0.2055357220399532
0.2213969166324164
0.2238693137279007
0.1352765451589497
0.1886654816208046
0.218227686495132
0.2236629263586898
0.1372003798932911
0.189923086772947
0.2180556919899512
0.2236389150197739
0.1407034237452096
0.1920747552561001
0.2179412555207417
0.2236120982974824
0.1474192103895648
0.1955818166084498
0.2180653896304784
0.2235990024133863
0.1483305032817419
0.2055357220396898
0.2213969166324226
0.2238693137270385
0.1281702925031371
0.200328294672018
0.2202013899299868
0.2237949208876786
0.1092397249377648
0.1925713386988866
0.2192210678032525
0.2236954954338981
0.0906598297524937
0.1853288314098856
0.2191258486232291
0.2237433632759523
0.227111492677793
0.2232943955729263
0.1906532633316114
0.08254491262306654
0.225456151509271
0.2218703161178384
0.1885350797730503
0.08515631996263599
0.2244831255273485
0.2207894664738856
0.1852039712593366
0.0829522867891781
0.2240887801387489
0.219784891040802
0.180943319518675
0.07729511840699999
0.06756197442018248
0.1925948418306633
0.2250305200561117
0.2297271288496981
0.0876649989106852
0.2015110486552854
0.2266145679764122
0.2328215289818699
0.1343785456821819
0.2112779767603852
0.2305397505064702
0.236677422716715
0.1918281520754372
0.224668263396105
0.2387319912659973
0.241176927399055
0.2461524949617421
0.2804666214647156
0.3122638741849613
0.3217908276137302
0.2472366610125533
0.2688136221562812
0.2885910807123931
0.2980546691976002
0.245781766447099
0.2576785632018585
0.2656476959418007
0.2693647081546455
0.2431688576402933
0.2474631763158041
0.2431831591152683
0.2367555858472482
0.340584180745134
0.3322413830884928
0.2780891816996375
0.2386852353726859
0.3569666704377231
0.3366913652260227
0.2673786613279733
0.2327495728685043
0.3710051208658737
0.3359786054944555
0.2537762798113249
0.2287744391055402
0.3803227467812168
0.3229995000659056
0.2420126369368317
0.2263092551540634
0.2243940671572709
0.2275157000140649
0.253031735954061
0.3740849807568293
0.2243083477868667
0.2281426148305217
0.2659039109236052
0.3772601486104012
0.224481446754484
0.2301428456078994
0.2845445254030647
0.3847335735036119
0.22505516067009
0.2342649765468836
0.3035061517850301
0.3848207667735161
0.2248946688735942
0.225072548169749
0.2254266979318102
0.2255871404271637
0.2272541898060409
0.2270733132389291
0.2277066602636584
0.2277387696493721
0.2400976572543289
0.2323540362848762
0.2311644063280585
0.2317601819495928
0.3296381741187795
0.2595408346148593
0.2315286306700122
0.2276814200357339
0.2256202247160933
0.2276316673797196
0.2324362241835444
0.2279839664859603
0.2255653652511034
0.2275486071114084
0.2330343328097166
0.2277593431032554
0.2253462740062931
0.2273470196526383
0.2338676115504132
0.2290539528644933
0.2250435194970936
0.2270543744156624
0.2343736924386154
0.2300456588787005
0.2240803806562908
0.2247752760834972
0.2327577984301459
0.2427246652191061
0.2242173100618405
0.2253598532813363
0.233779965093497
0.2366009549877344
0.2244380343012017
0.2260458727735671
0.2344975850819711
0.2340598218243046
0.2247318171931902
0.2266400695528801
0.2346282711102615
0.2317144086977807
0.2543355211845929
0.2295081126389731
0.2242372038697378
0.2240189133946281
0.254756933430772
0.2279269035810664
0.2241162066338646
0.2240003865959374
0.2538953290046291
0.2267864274838554
0.2240540391232211
0.2239973326988583
0.2506292427539112
0.2258065474168399
0.224013078512598
0.2239953255734194
0.2486021370212474
0.2246365984014858
0.2239965082297747
0.2239952306546584
0.2468642576485914
0.2245157119335872
0.2239963240641027
0.2239950371043643
0.2427066649879004
0.2242998394171127
0.2239950888200427
0.2239950332723572
0.2375886438321947
0.2241747194652632
0.2239950588543913
0.2239950332991161
0.2239950333699092
0.223995033480382
0.224005215427252
0.2264815911068042
0.2239950333699094
0.2239950335460181
0.2240108290796204
0.227884988250064
0.223995033370267
0.2239950340172785
0.2240277671920684
0.2296666600862265
0.2239950333753333
0.2239950367113666
0.2240700789953229
0.2324054797044202
0.2287882390820786
0.2312752548188423
0.2354225797886689
0.2444223250678972
0.2312752548155937
0.2344635579154786
0.2414576668913739
0.2549811849110782
0.235422579787963
0.2414576668887822
0.2529299736685093
0.269765173130815
0.2444223250663074
0.2549811849103451
0.2697651731335219
0.2881083336682886
0.3063914040731203
0.2907760287796083
0.2842265286899491
0.2694897257824938
0.3027511783166918
0.2983357847264924
0.2989599949921917
0.2916317450954335
0.3033500601580413
0.3018860633915428
0.3012142240006809
0.29847592024565
0.2994890770309218
0.2987572443445682
0.2984938634377653
0.296642948779012
0.2919954858768762
0.2901514779284664
0.2844503702790621
0.2771769819845024
0.2929870609204813
0.2904597474791167
0.2849132757753881
0.2778570863771384
0.293537055277457
0.2909816960054148
0.2851849613528199
0.2785771086271359
0.2939741857728974
0.2908122879869564
0.2852096821223923
0.2754838811297574
0.2273375811352159
0.2060886449352368
0.2044789351025411
0.2058461967283647
0.2122969606449713
0.1996853215847781
0.202027838729865
0.2039609344700475
0.1999065007035578
0.199372637496444
0.2029998766953625
0.2048175127692919
0.1814655957351871
0.1946430284132773
0.2010185140616665
0.2032028018730643
0.2071894928839648
0.2085795849579357
0.2100138095163277
0.2124410317999431
0.2056208891105233
0.2074391523027503
0.2093479175777267
0.2120329066493032
0.2061219368173212
0.2077637205090855
0.2097488808881393
0.2117187772866028
0.2047983699695468
0.2068127765820032
0.2090611040426335
0.2117877127465423
0.2155468656663002
0.2525955393388908
0.3248666720565966
0.3777240977668324
0.2160793671395709
0.2638610328765801
0.3303835736702107
0.3586639178029651
0.2165259640180624
0.2669467254801824
0.330669071323147
0.3530960851541798
0.217005601270455
0.2734629206575326
0.3354570394502915
0.3495877844857213
0.4408769373141704
0.4272637993388556
0.422958860693535
0.4175857155712759
0.436719970660609
0.4271603706868154
0.4210058932540159
0.4182358992114043
0.4306166255524728
0.4254385097147053
0.4193844470706298
0.4178699635069537
0.4220075683548341
0.427044610007322
0.4188683960003611
0.4179078134859618
0.4043409416774392
0.3872549800189796
0.3680735682085524
0.3480654760842483
0.4053759995096455
0.3879360395263265
0.3696140948764732
0.348395288626047
0.406216111804953
0.3883955079762189
0.3707440407833167
0.3492859918887602
0.4079736599725168
0.3913122031938384
0.3753750062604507
0.3523285340472538
0.3311231132432363
0.3134729552007501
0.2933460131217481
0.2615107063885007
0.3313169419291944
0.3155960822191524
0.2953838585558116
0.2686500504762254
0.3320377543820066
0.3165180531676757
0.2939164304000149
0.2674546577990676
0.3345331168663878
0.3203632827342244
0.2941662522652171
0.306270694051539
0.1732289501858068
0.04960909340164328
0.01262211453177941
0.00841665955014391
0.1353388518944062
0.03483707145849015
0.01477385136972269
0.01303737884682935
0.1020451817784865
0.02630381266961364
0.01672129240555806
0.01551566179633747
0.07281642187336919
0.0179150777160951
0.01706684290557363
0.01684701922057736
0.01463268163133514
0.02122061729679321
0.02636754467537862
0.03562575193374178
0.01927697499083167
0.02602639042038588
0.03210256963369724
0.04147200761140621
0.02268562400715324
0.0297399352366726
0.0373131544467031
0.04733660150270206
0.02481381658070798
0.03267369891107082
0.04224214498557148
0.05162580658208458
0.045222022619426
0.06317986123418236
0.08163443744918865
0.1044735199322065
0.04807666604019949
0.06347846029232093
0.08163840114295282
0.1022380941279103
0.05074515384298941
0.06450932435141284
0.07896058257398034
0.09949381826153701
0.0494720142782399
0.06028969299337593
0.07109390215840421
0.09824204174247328
0.1123272849534551
0.1113994680494716
0.1085331124221478
0.1040207261543307
0.09734472505632827
0.09930885415789735
0.09839694234905851
0.09687878494259226
0.08455166400704808
0.09155521001807314
0.09200841972929381
0.09194291774415644
0.06953156256442937
0.07853054450851039
0.08394164922436277
0.08987122396198456
0.09692524755696781
0.1031641854820442
0.1074901056998851
0.1092519239334522
0.09568386272353702
0.1006146738286351
0.1054317439645982
0.1081099942325249
0.09849318966248308
0.1017777250106707
0.106043541121737
0.108609854517793
0.1029331891002603
0.1049678606277346
0.1077988814647169
0.1096824759634141
0.1092519239334732
0.1081099942325532
0.1086098545178061
0.1096824759634237
0.1074901056999472
0.1054317439646834
0.1060435411217765
0.107798881464726
0.1031641854821583
0.1006146738287463
0.1017777250107156
0.1049678606277309
0.0969252475571014
0.09568386272362342
0.09849318966250663
0.1029331891002569
0.1040207261543528
0.108533112422197
0.1113994680494907
0.1123272849533882
0.09687878494261662
0.09839694234908274
0.09930885415792789
0.09734472505631625
0.09194291774422342
0.09200841972934679
0.09155521001812637
0.08455166400707084
0.08987122396210388
0.083941649224457
0.07853054450860683
0.06953156256449781
0.09824204174257711
0.07109390215861049
0.06028969299361447
0.04947201427850146
0.09949381826155269
0.07896058257412371
0.06450932435162493
0.05074515384322606
0.1022380941278879
0.08163840114309312
0.06347846029250805
0.04807666604045725
0.1044735199321295
0.08163443744922479
0.06317986123435113
0.04522202261967217
0.0356257519339619
0.02636754467550269
0.0212206172967686
0.01463268163126637
0.04147200761164267
0.03210256963385561
0.02602639042044915
0.01927697499082372
0.04733660150293274
0.03731315444688104
0.02973993523676584
0.02268562400715834
0.05162580658232653
0.04224214498578673
0.03267369891120053
0.02481381658073554
0.008416659550135807
0.01262211453165661
0.04960909340138308
0.1732289501858447
0.01303737884682305
0.01477385136969708
0.03483707145844111
0.1353388518943898
0.01551566179631282
0.01672129240550341
0.02630381266962059
0.1020451817785118
0.01684701922055517
0.01706684290553539
0.01791507771610944
0.07281642187339191
0.2615107063887022
0.2933460131216321
0.3134729552006426
0.3311231132429134
0.2686500504764349
0.2953838585557612
0.3155960822191637
0.3313169419292527
0.267454657799279
0.293916430400089
0.3165180531677807
0.3320377543822019
0.3062706940517386
0.2941662522654478
0.3203632827344736
0.3345331168666134
0.3480654760840262
0.3680735682082354
0.3872549800186082
0.4043409416772709
0.3483952886260601
0.3696140948764271
0.3879360395260666
0.405375999509427
0.3492859918889346
0.3707440407832601
0.3883955079759321
0.4062161118046773
0.3523285340473105
0.3753750062603892
0.3913122031934869
0.4079736599722282
0.4175857155712565
0.4229588606938381
0.4272637993382082
0.4408769373136036
0.4182358992115067
0.4210058932546275
0.4271603706861912
0.4367199706601403
0.4178699635071293
0.419384447071271
0.4254385097141308
0.4306166255521168
0.4179078134860905
0.4188683960009966
0.4270446100067643
0.4220075683545399
0.3777240977663627
0.324866672056146
0.2525955393388743
0.2155468656667373
0.358663917802577
0.3303835736698256
0.2638610328766169
0.2160793671399686
0.3530960851537965
0.330669071322803
0.2669467254801995
0.2165259640183938
0.349587784485359
0.3354570394499308
0.2734629206574978
0.2170056012707925
0.212441031800276
0.210013809516031
0.2085795849569321
0.2071894928838089
0.2120329066495858
0.2093479175773804
0.2074391523018341
0.2056208891103873
0.2117187772868609
0.2097488808877539
0.2077637205082919
0.2061219368171853
0.211787712746837
0.2090611040422389
0.2068127765811619
0.2047983699695133
0.2058461967275276
0.204478935101733
0.2060886449354486
0.2273375811355046
0.2039609344691218
0.2020278387290608
0.1996853215850921
0.2122969606451965
0.2048175127683586
0.2029998766946224
0.1993726374968218
0.1999065007037277
0.2032028018720562
0.2010185140607947
0.1946430284136078
0.1814655957352943
0.2771769819844632
0.2844503702792321
0.2901514779291394
0.2919954858771557
0.2778570863770854
0.2849132757755499
0.2904597474798011
0.2929870609208104
0.2785771086270695
0.2851849613531948
0.2909816960061042
0.2935370552777057
0.2754838811298699
0.2852096821229119
0.2908122879877273
0.2939741857731711
0.2966429487785558
0.2984759202452109
0.2916317450950508
0.269489725783163
0.2984938634373783
0.3012142240002562
0.2989599949915136
0.2842265286898543
0.2987572443441586
0.3018860633911168
0.2983357847258149
0.2907760287786584
0.299489077030512
0.3033500601576608
0.302751178315978
0.3063914040715725
0.1634064424934573
0.2056447869971077
0.2211545435262163
0.2238609495830102
0.1636011438890645
0.2034111886811835
0.2203065819487127
0.2237884598398818
0.1618446161879457
0.2015682199180159
0.219533800443913
0.2237042830493303
0.1547509393472603
0.198665938140858
0.2187199758717188
0.2236362288435822
0.2236629263588996
0.2182276864954424
0.1886654816208434
0.1352765451589102
0.2236389150197795
0.2180556919902265
0.1899230867728979
0.1372003798931909
0.2236120982974824
0.217941255520464
0.1920747552560207
0.1407034237450859
0.2235990024134795
0.218065389630057
0.1955818166084287
0.1474192103894767
0.2236362288433411
0.2237042830490158
0.2237884598397079
0.2238609495823371
0.2187199758711868
0.2195338004437345
0.2203065819484174
0.2211545435260895
0.1986659381408039
0.2015682199179688
0.20341118868135
0.2056447869971388
0.1547509393471299
0.1618446161878784
0.1636011438890592
0.1634064424933637
)
;

boundaryField
{
    back
    {
        type            empty;
    }
    inlet
    {
        type            calculated;
        value           nonuniform List<scalar> 
16
(
0.2239950333699092
0.2239950333699283
0.2239950333699114
0.2239950333747752
0.2239950332979611
0.2239950332725398
0.2239950371041295
0.223995230653826
0.2239952306546584
0.2239950371043642
0.2239950332723573
0.2239950332991161
0.2239950333699092
0.2239950333699094
0.223995033370267
0.2239950333753333
)
;
    }
    front
    {
        type            empty;
    }
    top
    {
        type            calculated;
        value           nonuniform List<scalar> 
40
(
0.2239953255725551
0.2239973326993412
0.224000386595973
0.2240189133940832
0.2240803806564876
0.2242173100624998
0.2244380343009187
0.2247318171935776
0.2250435194975925
0.2253462740063455
0.2255653652513408
0.2256202247157754
0.2255871404270971
0.2254266979313241
0.2250725481697946
0.2248946688736916
0.2243940671571452
0.2243083477858889
0.2244814467531338
0.2250551606695425
0.2263092551537649
0.228774439105058
0.232749572868308
0.2386852353710491
0.2461524949612953
0.2472366610126491
0.2457817664478969
0.2431688576402918
0.2411769273987029
0.2366774227165948
0.232821528982232
0.2297271288499725
0.2271114926779016
0.2254561515094062
0.2244831255271265
0.2240887801386412
0.2237433632760832
0.223695495434645
0.2237949208884869
0.2238693137279006
)
;
    }
    outlet
    {
        type            calculated;
        value           uniform 0.2239950333699093;
    }
    bottom
    {
        type            calculated;
        value           nonuniform List<scalar> 
40
(
0.2238693137270385
0.2237949208876786
0.2236954954338981
0.2237433632759523
0.227111492677793
0.225456151509271
0.2244831255273485
0.2240887801387489
0.2297271288496981
0.2328215289818698
0.236677422716715
0.241176927399055
0.2461524949617421
0.2472366610125534
0.245781766447099
0.2431688576402933
0.2386852353726859
0.2327495728685043
0.2287744391055402
0.2263092551540634
0.2243940671572709
0.2243083477868667
0.2244814467544841
0.22505516067009
0.2248946688735942
0.225072548169749
0.2254266979318102
0.2255871404271637
0.2256202247160933
0.2255653652511034
0.2253462740062931
0.2250435194970936
0.2240803806562908
0.2242173100618405
0.2244380343012017
0.2247318171931903
0.2240189133946281
0.2240003865959374
0.2239973326988583
0.2239953255734194
)
;
    }
    wall
    {
        type            calculated;
        value           nonuniform List<scalar> 
104
(
0.3063914040731203
0.3027511783166918
0.3033500601580413
0.2994890770309218
0.2939741857728974
0.2908122879869564
0.2852096821223923
0.2754838811297574
0.1814655957351871
0.1946430284132774
0.2010185140616665
0.2032028018730643
0.2047983699695468
0.2068127765820032
0.2090611040426335
0.2117877127465423
0.217005601270455
0.2734629206575326
0.3354570394502915
0.3495877844857213
0.4220075683548341
0.427044610007322
0.4188683960003611
0.4179078134859618
0.4079736599725168
0.3913122031938384
0.3753750062604507
0.3523285340472538
0.3345331168663878
0.3203632827342244
0.2941662522652171
0.306270694051539
0.07281642187336919
0.0179150777160951
0.01706684290557363
0.01684701922057736
0.02481381658070798
0.03267369891107082
0.04224214498557148
0.05162580658208458
0.0494720142782399
0.06028969299337594
0.07109390215840421
0.09824204174247328
0.06953156256442937
0.07853054450851039
0.08394164922436277
0.08987122396198456
0.09692524755696781
0.1031641854820442
0.1074901056998851
0.1092519239334522
0.1092519239334732
0.1074901056999472
0.1031641854821583
0.0969252475571014
0.08987122396210388
0.083941649224457
0.07853054450860683
0.06953156256449781
0.09824204174257711
0.07109390215861049
0.06028969299361447
0.04947201427850146
0.05162580658232653
0.04224214498578673
0.03267369891120053
0.02481381658073554
0.01684701922055517
0.01706684290553539
0.01791507771610944
0.07281642187339191
0.3062706940517386
0.2941662522654478
0.3203632827344736
0.3345331168666134
0.3523285340473105
0.3753750062603892
0.3913122031934869
0.4079736599722282
0.4179078134860905
0.4188683960009966
0.4270446100067643
0.4220075683545399
0.349587784485359
0.3354570394499308
0.2734629206574978
0.2170056012707925
0.2117877127468371
0.2090611040422388
0.2068127765811619
0.2047983699695133
0.2032028018720563
0.2010185140607947
0.1946430284136079
0.1814655957352943
0.2754838811298699
0.2852096821229119
0.2908122879877273
0.2939741857731711
0.299489077030512
0.3033500601576608
0.302751178315978
0.3063914040715725
)
;
    }
}


// ************************************************************************* //
