/*--------------------------------*- C++ -*----------------------------------*\
  =========                 |
  \\      /  F ield         | OpenFOAM: The Open Source CFD Toolbox
   \\    /   O peration     | Website:  https://openfoam.org
    \\  /    A nd           | Version:  11
     \\/     M anipulation  |
\*---------------------------------------------------------------------------*/
FoamFile
{
    format      ascii;
    class       volScalarField;
    location    "0.3";
    object      T;
}
// * * * * * * * * * * * * * * * * * * * * * * * * * * * * * * * * * * * * * //

dimensions      [0 0 0 1 0 0 0];

internalField   nonuniform List<scalar> 
880
(
500
500.0000000980822
500.0091051630741
502.2216634805914
500.0000000000373
500.0000001569797
500.0141406528027
503.4644230632886
500.0000000000521
500.0000005703058
500.0293786210033
505.0237764694283
500.0000000041127
500.0000028911477
500.0678322882222
507.4069941213687
499.9999999388351
499.9999999919742
500.0000020898445
500.0001617629631
500.0000216780384
500.000038247248
500.0010748147661
500.0015550319527
500.1659834855855
500.292585391397
500.524662576148
500.5726477715856
512.5925956212725
518.5237862452701
523.5656626070011
525.9884782806211
500.0002511602636
500.0020510925878
500.004781189934
500.0213415390215
500.0162245952225
500.0542280751466
500.1149437195587
500.2287244412772
501.7772821532959
502.8390957762311
504.0813183714364
505.6352810751575
528.3118844746843
531.3323041195649
532.2291353386605
531.8245002394461
522.0219577499875
517.3433425121921
515.6996394750206
514.0244279376175
509.1872899414277
510.6674210147553
511.6851648720128
511.9320275856721
500.7393590354411
501.2999872822382
501.9388718943483
502.5139141340892
500.0762617667073
500.1983038254043
500.394391202915
500.6541178960157
500.9281356008368
501.1922633674632
501.3781198943367
501.4177614522425
502.9277686943056
503.2068949434673
503.3786878001622
503.3746972814098
511.6588804423317
511.1004832533869
510.1962719114878
509.4442188437457
512.6942786494494
511.7798261969766
510.4383807291294
510.1033551287666
508.7772436375338
508.5380956613242
503.4277765699431
501.385723407168
511.8367001809648
507.3836115392016
503.3219803674161
501.242604406553
537.7963703700125
508.2640383026209
502.7212583315719
500.9349417148123
594.2029132437841
514.9854953394223
502.9130739482824
500.7852475326245
500.3442078527668
503.1712325341171
526.619117511008
625.3385666092802
500.2722287584745
503.8325268277473
538.5821705423203
627.2523877419211
500.4288059746239
505.8759960122707
555.2091584772812
633.2321418942458
500.942900899376
510.0963109640513
571.7765197600189
635.621985762283
633.5414277390358
587.7987198232996
517.9953103340662
502.0616508093718
629.195550325514
598.4830921568683
529.7095064729072
504.2660609505504
622.0056501817538
601.0044359399554
542.600151352894
507.8717388155225
613.0835823379208
599.4359874327216
552.8521515271754
513.3326849323914
520.3049943742351
554.9067459303712
586.6428262985115
602.0025867573776
520.8962410143596
545.1235764510925
569.0498912653539
586.1403984688394
519.3952228691724
535.1931502996543
550.4001552425389
564.3934444065829
516.5906851593833
525.0410805929803
530.2270828963763
535.277189566981
515.327490071268
517.50441271515
515.4097908504052
502.0533065452568
511.6226933326951
510.0818439234729
499.7577800501526
463.2832490971696
508.2139977028053
505.2427010568918
496.1930081421993
421.5263831736876
505.5048509506026
505.011236806536
500.4378469533577
419.4986537141384
487.8846353360966
502.2191287212967
503.6013761695424
503.1175955922415
527.7404670007004
504.3220093615647
502.3756347914758
501.5460884957783
548.4329811450262
506.2588114432207
501.4597556800408
500.5770766219227
545.0191303612048
509.5888961908423
500.510283965575
500.0865775758352
534.9581763277725
507.0707418164646
498.6125563016816
499.548524000409
516.9421483297061
501.5630515983801
497.7644617588212
499.5138421251078
500.3204570984481
497.7114397639588
497.9423890839041
499.7380746023876
489.9191789962038
494.7228759842491
498.3174507720111
499.8838306371959
449.3678178127543
477.8095493391846
495.6565039392059
499.6784283946345
450.0074290629832
478.6875487509706
495.5445198458599
499.6693446988677
450.2518210945843
479.695791717883
495.4135495855277
499.6587144051525
455.5847094746878
481.590275917582
495.3779610463921
499.647974728958
489.9191789963181
494.7228759843786
498.3174507724795
499.8838306367743
500.3204570984963
497.7114397636056
497.9423890837833
499.7380746017238
516.9421483295479
501.5630515978276
497.7644617580785
499.513842124413
534.9581763276549
507.0707418157173
498.6125563014103
499.5485240001889
503.1175955920348
503.6013761697361
502.2191287218931
487.8846353359019
501.5460884955705
502.3756347914651
504.3220093617337
527.7404670005377
500.577076622096
501.459755680058
506.2588114424058
548.4329811449836
500.0865775759254
500.5102839659426
509.5888961899225
545.0191303611522
419.4986537140701
500.4378469538295
505.0112368066455
505.5048509503746
421.5263831736896
496.1930081423745
505.2427010572692
508.2139977025209
463.2832490973462
499.7577800503303
510.0818439237404
511.6226933327069
502.053306545637
515.4097908503912
517.5044127147631
515.3274900713682
520.3049943743641
554.9067459311152
586.6428262992252
602.002586757721
520.8962410140289
545.1235764512541
569.0498912656321
586.1403984693216
519.3952228683497
535.1931503001028
550.4001552427296
564.3934444069595
516.590685159224
525.0410805926402
530.2270828963959
535.2771895674474
613.0835823380969
599.4359874328629
552.852151527189
513.3326849333621
622.0056501819345
601.0044359400798
542.6001513530202
507.8717388154088
629.195550325762
598.4830921571281
529.709506472763
504.2660609506536
633.5414277393302
587.7987198235587
517.9953103346911
502.0616508093132
500.3442078527931
503.1712325341565
526.6191175109411
625.3385666091355
500.2722287591173
503.832526828211
538.582170542454
627.252387741518
500.4288059755423
505.8759960134487
555.2091584778193
633.2321418942174
500.9429008995814
510.0963109632645
571.7765197600635
635.6219857626817
500.785247532413
500.9349417146638
501.2426044069394
501.3857234072777
502.9130739474753
502.7212583312875
503.3219803672632
503.4277765698121
514.9854953390077
508.2640383025547
507.3836115387188
508.5380956611625
594.202913243313
537.7963703697601
511.8367001811245
508.7772436377565
501.4177614525692
503.3746972817144
509.4442188441939
510.1033551290983
501.3781198943127
503.3786878005581
510.1962719118935
510.4383807291433
501.1922633675626
503.2068949436486
511.1004832533293
511.7798261964205
500.9281356005083
502.9277686940547
511.6588804425724
512.6942786493963
500.0762617663201
500.7393590353261
509.1872899418525
522.021957750295
500.19830382472
501.2999872821499
510.6674210155157
517.3433425123858
500.3943912031102
501.9388718941909
511.6851648720645
515.6996394742247
500.6541178956739
502.5139141339278
511.9320275861151
514.0244279371004
531.8245002394467
505.6352810752952
500.228724441246
500.0213415393127
532.2291353387182
504.0813183715572
500.1149437191905
500.004781189747
531.3323041199842
502.8390957762246
500.0542280740893
500.0020510919994
528.3118844749239
501.7772821531548
500.0162245947894
500.0002511608919
525.9884782806547
500.5726477718701
500.0015550320689
500.0001617636921
523.5656626070297
500.5246625761195
500.0010748144551
500.0000020901197
518.523786245387
500.2925853912892
500.0000382470019
499.999999992064
512.5925956215984
500.1659834855527
500.0000216778517
499.9999999388926
500.0000000000005
500.0000000986159
500.0091051630395
502.2216634735834
500.0000000000009
500.0000001564624
500.0141406527859
503.4644230584705
500.000000000261
500.0000005700643
500.0293786209878
505.0237764669415
500.0000000045001
500.0000028908755
500.0678322881632
507.4069941217512
504.2748584520868
506.4566721318274
510.0732984924231
518.0322727061022
506.4566721290261
509.2043849644651
515.2132201058986
527.0854655218466
510.073298491982
515.213220103956
524.9608137050252
539.9489820107175
518.0322727049473
527.085465521629
539.9489820131907
556.6839987180407
574.535379943365
560.8953944607949
553.5025758457466
540.7495598402029
572.3942450270262
568.2543707010929
566.8476555337463
560.7316267700952
572.8061293688761
571.5722216493771
570.8087972862212
568.7316309991447
569.9110617789396
569.3708658789639
569.2411805134855
568.2457233606749
565.5879707369555
564.2580873261558
559.9013918642431
553.9501958720845
565.4768998904716
563.8939062610972
559.8000126317954
554.5251228334826
565.5325042118701
563.9905571458219
559.8516714237559
555.0991418421113
565.7641745591097
563.7935111959882
559.9314226595494
551.024648118542
513.4559374208322
494.4111906626925
491.8709073922795
492.7623099320666
502.9823500618048
490.1411339191027
492.1205044998575
493.3501863263357
492.679095455202
489.9851042857831
493.6383943985286
495.0588850509565
470.5975843958132
485.2498090747571
492.1054158296973
493.7174134392438
493.5276417444316
494.5988560642845
495.8277064965797
497.439813441053
494.0790836492796
494.9783885757763
496.1209010391183
497.8467828608809
495.4348918876531
496.0171039565835
497.0478149418558
498.2415652602582
494.3692232229349
495.3141433133754
496.5850670993852
498.5514595901911
499.4146665654727
533.981084786329
601.7948309536605
649.9545582017588
500.7168036890279
546.540416641978
612.8279025837782
645.8180696046147
502.2633023074731
553.3657956155653
617.5839407389326
647.4821211375815
503.4505845828141
560.8397029666534
621.8666251676567
646.5952324894561
686.1658868115366
674.9888264203989
671.2376574305258
667.5479119692168
694.5390899684463
682.9027580574843
675.357491679668
672.2608443638736
701.7758362483264
690.9980738932284
680.1090290743176
676.0567518377023
700.6223576911758
695.9567435995394
682.4422223815948
677.7406292777968
658.1591660683779
646.9467381149816
635.0750820436497
623.365407846743
662.5229377851587
650.4611014183486
638.4018254307177
625.0805770337269
666.5951998650766
653.9835220134481
642.1751522637095
627.8849441357576
669.2640348695958
657.4207936898512
646.9518917676844
631.2713617292371
614.0207330827428
604.034130552212
588.8914499363889
566.9615444921799
614.5342470953427
603.8335329687826
590.4921594303489
593.8088467687456
615.3572079180866
603.2253514806978
597.4172848836033
619.7182924298843
617.2564553622678
606.4352056329498
609.1612089204048
602.2983544966733
524.8663367585641
454.7340138802465
351.3555490937317
275.7496582858961
511.3800687111909
412.8919621516812
275.685606145712
243.6922544531275
468.7225765779497
361.1974824568416
247.4422957880087
237.917572073161
368.8067788557174
283.3780497055537
232.790883838652
244.8838560626263
368.7394134476588
431.3507450511296
475.040648743312
509.6115529559701
327.6544949414734
389.693410485564
435.3195843427196
470.688797496717
305.6116262758315
353.3569923360583
394.3110131991681
428.328150562825
306.5845498740006
350.215018928293
390.983524774357
416.9455429426866
491.619560508525
501.5379442137194
489.5781138101233
481.1185566735563
447.1125201000771
475.7587999919002
482.9947793700455
486.3071545969442
410.7106472961677
443.8794847476893
469.1403853833353
503.3250196434439
392.3601674723549
418.7008209029313
450.7328938153275
525.2320625704722
473.935662244587
465.171697232233
457.6216727385606
450.2382425356872
474.9091396279478
478.7541736388753
477.9436974074316
473.7046972594831
477.6481586657045
494.7992310907124
493.1494948810214
482.7109803168087
460.5050475307503
480.6444195953697
479.1472925172797
469.0639509549323
450.4877627718522
433.7604268820971
425.35168497489
423.3986306140226
467.3997412649492
449.904678012257
437.5708226038477
433.6478665254978
470.2323365218458
464.5563003880754
456.0729013049
451.4422350176247
451.5403121042422
455.7603830491615
458.0173370975749
459.1576801420968
423.3986306140177
433.6478665255005
451.4422350176516
459.1576801421841
425.3516849748068
437.5708226037319
456.0729013048795
458.0173370977977
433.7604268818983
449.9046780120547
464.5563003880192
455.7603830493631
450.4877627715988
467.3997412647686
470.2323365217705
451.5403121042633
450.2382425355024
457.6216727383604
465.171697232324
473.9356622446274
473.7046972594147
477.9436974074413
478.7541736389788
474.9091396279876
482.7109803167439
493.1494948810807
494.7992310907847
477.6481586657127
469.0639509547993
479.1472925173244
480.6444195954908
460.5050475307895
525.2320625704238
450.7328938156172
418.700820903398
392.3601674730042
503.3250196434264
469.140385383491
443.8794847480267
410.710647296755
486.3071545969764
482.994779370145
475.758799992074
447.1125201006975
481.1185566736311
489.5781138101639
501.5379442137535
491.6195605087786
509.6115529562293
475.0406487437392
431.3507450513383
368.7394134473648
470.6887974972939
435.3195843434611
389.6934104859916
327.6544949414453
428.3281505634668
394.3110131999163
353.3569923365967
305.6116262759778
416.9455429433035
390.9835247751286
350.2150189290073
306.5845498744109
275.7496582858984
351.3555490923877
454.7340138804948
524.8663367590175
243.692254453202
275.6856061452132
412.8919621518509
511.3800687115096
237.9175720734327
247.442295787749
361.197482457324
468.7225765784966
244.8838560630627
232.7908838385248
283.3780497061236
368.806778856404
566.9615444926544
588.8914499368182
604.0341305527496
614.0207330833135
593.8088467692388
590.4921594306994
603.8335329691847
614.5342470957528
619.7182924303049
597.4172848839261
603.2253514809107
615.3572079182164
602.2983544972174
609.1612089207007
606.4352056331924
617.2564553622866
623.3654078471316
635.0750820439634
646.946738115331
658.1591660687595
625.0805770340631
638.4018254310676
650.4611014186335
662.5229377854541
627.8849441359941
642.1751522639235
653.9835220136985
666.5951998653499
631.2713617293041
646.9518917678001
657.4207936900575
669.264034869921
667.5479119695499
671.2376574307658
674.9888264200298
686.1658868112653
672.2608443641707
675.3574916799674
682.9027580569954
694.5390899680956
676.0567518379773
680.1090290744609
690.9980738925527
701.7758362478432
677.7406292780822
682.4422223816133
695.9567435987972
700.6223576906613
649.9545582013956
601.7948309532891
533.9810847865349
499.414666565927
645.818069604274
612.8279025833796
546.5404166419971
500.7168036894417
647.4821211371456
617.583940738523
553.3657956154331
502.2633023077493
646.5952324889686
621.8666251672228
560.8397029664441
503.4505845830404
497.4398134415923
495.8277064966499
494.5988560637288
493.527641744282
497.8467828612815
496.1209010389768
494.9783885751048
494.0790836491449
498.2415652604884
497.0478149415476
496.0171039559596
495.4348918875084
498.5514595903978
496.5850670990504
495.3141433126801
494.3692232228613
492.7623099314309
491.8709073916447
494.4111906629249
513.4559374212297
493.3501863254673
492.1205044991818
490.1411339194644
502.9823500620914
495.0588850498922
493.6383943979304
489.9851042862203
492.6790954553764
493.7174134381023
492.1054158289813
485.2498090751491
470.5975843959135
553.9501958723112
559.9013918646399
564.2580873269072
565.5879707374015
554.5251228335908
559.8000126320914
563.8939062617859
565.4768998909283
555.0991418421269
559.8516714240795
563.990557146466
565.5325042122237
551.0246481186231
559.9314226599134
563.7935111966582
565.7641745594482
568.245723360481
568.7316309989588
560.7316267699583
540.7495598406346
569.2411805132958
570.8087972859872
566.8476555333202
553.5025758454528
569.3708658787777
571.5722216490916
568.2543707003495
560.8953944597449
569.9110617787353
572.8061293685661
572.3942450261999
574.5353799418366
489.047759728023
493.0306166048435
498.0743018853742
499.879185947246
483.3596968216981
488.5768320027946
497.0914979845165
499.8112348107615
476.1665736201636
485.5309670486466
496.2409453023189
499.7320271551488
465.9583614045402
483.1763371476918
495.6778076753668
499.674714270658
499.6784283945697
495.6565039395026
477.8095493391756
449.367817812772
499.6693446986784
495.5445198462639
478.6875487507281
450.0074290631675
499.6587144052069
495.4135495856879
479.6957917175585
450.2518210948348
499.6479747291329
495.3779610463481
481.5902759173822
455.5847094747308
499.6747142705716
499.7320271548459
499.8112348111411
499.879185947357
495.6778076751056
496.2409453020876
497.091497984188
498.0743018855517
483.1763371477181
485.5309670488265
488.5768320032417
493.030616605318
465.9583614042903
476.1665736198726
483.3596968215111
489.0477597280486
)
;

boundaryField
{
    back
    {
        type            empty;
    }
    inlet
    {
        type            zeroGradient;
    }
    front
    {
        type            empty;
    }
    top
    {
        type            zeroGradient;
    }
    outlet
    {
        type            fixedValue;
        value           uniform 500;
    }
    bottom
    {
        type            zeroGradient;
    }
    wall
    {
        type            zeroGradient;
    }
}


// ************************************************************************* //
