/*--------------------------------*- C++ -*----------------------------------*\
  =========                 |
  \\      /  F ield         | OpenFOAM: The Open Source CFD Toolbox
   \\    /   O peration     | Website:  https://openfoam.org
    \\  /    A nd           | Version:  11
     \\/     M anipulation  |
\*---------------------------------------------------------------------------*/
FoamFile
{
    format      ascii;
    class       volScalarField;
    location    "0.35923815";
    object      T;
}
// * * * * * * * * * * * * * * * * * * * * * * * * * * * * * * * * * * * * * //

dimensions      [0 0 0 1 0 0 0];

internalField   nonuniform List<scalar> 
880
(
500.0000000000027
500.000000292371
500.0240613714557
503.3408350933142
500.0000000004407
500.0000008570672
500.0298650046902
504.8871748902587
500.0000000016358
500.0000033381324
500.0553425043862
506.7157020433669
500.0000000211684
500.0000146212919
500.1147635122485
509.4284605583282
499.9999999006574
500.000000075423
500.0000101670542
500.0001636979598
500.0000671601608
500.0002571022412
500.0016144447646
500.0023566457893
500.2633664383471
500.4347056321578
500.7186609478552
500.9607717515387
514.9178928298344
521.1126270603221
526.3743463186802
529.0292749308321
500.0004089490994
500.0033847364445
500.0128254387508
500.0397787731701
500.0227917535555
500.0985677780112
500.200511065636
500.4220273705589
502.4155970301866
503.6984165631644
505.2861865590789
507.2307665354568
531.257384451756
533.8984706437797
534.3926479083348
533.1640544643475
522.8402053029306
517.6389056766391
515.4439715864692
513.9695304978577
511.047564543624
512.6642360898613
513.5779979934413
513.7076106919399
501.1772518520828
502.0603325883088
503.0083498270074
503.7666192635677
500.1411488712814
500.3406037271465
500.6412631992245
501.0639316955065
501.5574624644037
502.0499189640682
502.5356361765544
502.8872839807624
504.3928781162339
504.7490578317636
504.9505145057283
504.9006217563973
513.0679382612934
512.1692623614862
510.9866275891657
509.7491259764043
512.2219281239225
511.0323168338779
510.2808449277166
509.5129664899168
508.9400273510946
508.8784240791605
504.7598201642501
503.0953580836222
519.1991038489151
508.0402997100068
504.3860543655351
503.0561316443924
571.3196298113512
510.4334363361207
503.9292305778853
502.6034870978275
620.3444839156119
523.8959761396173
504.7805587218613
502.4449252966608
502.3966310204293
506.0675066124606
539.6776978163027
637.4094895044439
501.5159233010949
508.590480396287
556.3033749608678
635.1893499206404
501.8919104368084
514.4424713566546
576.6110392959266
636.1938223824504
503.3247330933904
524.8678640294246
594.748308614903
633.4376582433056
628.3165581111203
604.8055220416539
539.8162813273315
506.4866539653094
621.8128060562174
607.4544170388992
554.998673265373
512.1642939186459
614.4984191814111
605.2838330842835
566.9951884253935
521.1595823581144
606.6426614531406
594.2586266730882
569.0870609182567
532.0901972203715
541.2926530663439
563.5994116734666
579.7590772696129
597.1535730984009
539.8333167655138
552.0560476641609
562.8276220921133
582.20937853541
535.8356690422804
540.3215553086923
544.5104563243226
560.5778076481694
530.6375141398948
529.8356431737428
525.3121628151833
530.4061979891472
526.7525856678291
520.4505411648524
508.4950416267455
495.53156880959
520.59131949609
511.2780391893896
491.9679750539121
459.8349480784776
515.7631480045131
506.0172729464549
477.9297179631645
425.1207037640365
511.5883609282839
504.5831848825454
477.6773479488856
399.8659921996227
410.5386301965978
486.8255191432527
503.26095257661
507.7684873677712
477.9388735524083
493.0366841454349
502.4041453946892
505.169898125909
517.2606571043326
495.7342357327136
500.8734483107339
503.3599707435899
530.1716584939699
500.4057251590536
500.2272305804394
502.2905769182624
539.0028866034472
504.3268388431723
498.9655148753967
500.3929814758993
533.7939621348736
504.2973433635162
497.6634768442551
499.2219118196246
525.7956533754411
503.4850775718344
497.2753569164648
499.1942276630928
517.707608734782
499.1157305238081
497.0793756237089
499.4038829056246
479.7742225763242
469.4021762926525
488.9352477035004
498.6805067468127
474.2564157572702
471.2941789643256
489.4244084874825
498.6803496903839
465.2311212377198
473.4181813242237
490.3267653035296
498.6945254354808
459.503018360267
476.250054018363
491.3789583943333
498.7838751980375
517.7076087348186
499.1157305234134
497.0793756239285
499.4038829053463
525.795653375439
503.4850775710889
497.2753569162239
499.1942276619233
533.7939621348636
504.2973433629283
497.6634768431032
499.2219118188337
539.0028866035691
504.3268388420184
498.9655148751386
500.3929814755114
507.7684873679914
503.2609525771774
486.8255191433316
410.5386301955906
505.1698981257079
502.4041453947602
493.0366841455665
477.9388735511982
503.3599707437762
500.8734483112789
495.7342357318801
517.2606571042305
502.2905769183405
500.2272305809399
500.4057251584597
530.1716584943052
399.8659922036925
477.6773479491947
504.5831848830391
511.5883609285636
425.1207037639333
477.9297179629398
506.0172729469539
515.7631480041537
459.834948078204
491.9679750552456
511.2780391896042
520.5913194964116
495.5315688102041
508.4950416265018
520.450541163972
526.7525856679869
541.2926530662843
563.599411674072
579.7590772702392
597.1535730989084
539.83331676503
552.0560476638176
562.8276220923768
582.2093785360278
535.8356690415717
540.3215553084168
544.510456324358
560.5778076485159
530.637514139701
529.8356431732336
525.3121628147026
530.4061979895993
606.642661453549
594.2586266736608
569.0870609185506
532.0901972213001
614.4984191819944
605.2838330848524
566.9951884255007
521.1595823580028
621.8128060567419
607.4544170394672
554.998673265056
512.1642939187949
628.3165581116338
604.8055220420418
539.8162813277713
506.4866539651234
502.3966310201522
506.0675066123186
539.6776978162045
637.4094895047904
501.5159233017843
508.5904803965989
556.3033749609701
635.1893499209391
501.8919104377007
514.442471357892
576.6110392965182
636.1938223825957
503.3247330933925
524.8678640294445
594.7483086156215
633.4376582433753
502.4449252965217
502.6034870975457
503.0561316450133
503.0953580837774
504.7805587211639
503.9292305775249
504.3860543658665
504.7598201640319
523.895976138839
510.4334363359909
508.0402997093232
508.8784240790015
620.3444839158096
571.3196298109417
519.1991038491811
508.940027350971
502.8872839812939
504.9006217568222
509.7491259767713
509.5129664900584
502.5356361763525
504.950514505985
510.9866275890419
510.280844927765
502.0499189640608
504.749057831964
512.1692623618867
511.0323168332362
501.5574624639882
504.3928781158157
513.0679382613085
512.2219281241789
500.1411488706122
501.177251851673
511.0475645438473
522.8402053031335
500.3406037266785
502.0603325879895
512.6642360902265
517.6389056764768
500.6412631999072
503.0083498263248
513.5779979939117
515.4439715854745
501.0639316951259
503.7666192635578
513.7076106919559
513.969530497404
533.164054464389
507.2307665358076
500.4220273705583
500.0397787733218
534.3926479084337
505.2861865592321
500.2005110652939
500.0128254386069
533.8984706440402
503.698416562972
500.0985677767812
500.0033847363206
531.2573844520052
502.4155970296731
500.022791753174
500.0004089493871
529.0292749305556
500.9607717519763
500.0023566459411
500.0001636986358
526.3743463181872
500.7186609478906
500.0016144446755
500.0000101675487
521.1126270597007
500.4347056321053
500.0002571021767
500.0000000750825
514.9178928294242
500.2633664380983
500.0000671591577
499.999999901189
500.0000000001753
500.0000002925185
500.0240613713877
503.3408350930778
500.0000000005271
500.0000008567644
500.0298650049729
504.8871748899927
500.0000000018922
500.0000033379117
500.0553425043747
506.7157020438536
500.0000000219067
500.0000146210755
500.1147635123376
509.4284605586557
506.2254869149229
508.9279277271835
513.2492806357876
521.8956530279124
508.9279277275699
512.3868331801201
518.7556264676351
531.3321887328427
513.249280636048
518.7556264676701
528.8806953668714
544.0769369201137
521.8956530280109
531.3321887325773
544.0769369206997
560.2596168417979
577.2417000340907
564.2360296901832
557.3545657232326
544.9499714425434
575.456214825758
571.5457245329364
570.3315326097329
564.6289593614179
575.3922348747953
574.3218108007266
573.7614486725164
572.0574364951497
571.980013971491
571.5451226856011
571.6840378868934
570.9797574089814
567.8989219777486
565.5535718969368
560.4613078489839
553.2864493095007
567.5583932107064
565.1532799012621
560.239518285602
553.9644294253014
567.574790148745
564.9925242780359
559.9824229200698
554.5583620000438
567.6371199959136
564.7359250120566
560.1860041655523
550.9724912810772
512.3813417518329
492.8098593127677
489.9498878818366
490.4502600794004
501.826442079882
488.7084022109253
489.9704188914538
491.0967026745545
491.5797850157191
488.8777715534757
491.5592860272229
492.8373352947137
469.9266842946433
484.123310137998
489.9012374508574
491.5986850478045
490.793112340378
491.8104172705308
493.3326817984149
494.8469472977799
491.0038180814507
491.4807113047597
492.8626397539049
494.8615363219008
492.3163391273909
492.3385254936408
493.2672393541442
494.7356395988351
491.2482067604302
491.4193972664514
492.7257710506518
494.8403260800801
505.0248081301153
567.6810952624797
639.3630064794077
664.543703824148
510.9457523498494
581.1673018214443
642.0088315741159
660.2514833630737
516.4251394742691
589.4982825690023
641.9788937954254
660.9497790890479
520.234438496968
597.7659729787309
642.183297457378
661.3628433607707
694.3008153627096
681.4450740844617
670.1394619086619
656.8745696673192
702.7509565229054
690.0066177102431
676.8978725364417
662.5487946290493
708.7285808596062
697.4716320801792
683.0147644446905
668.0402649095075
706.6523660638217
701.293726637041
687.1938839067527
671.834864782851
643.6154201085476
633.0265282226405
623.217970876119
618.9682979539357
648.7137881573287
637.1067969425908
625.9492806167298
621.0677407861573
653.8772960433508
640.6171058169016
629.5055885059735
623.1776341361458
658.2960566010398
643.6918491475728
632.9964215795588
625.5983387636766
615.0674117373147
607.6462176204233
590.9805159309882
565.0079289983072
616.8448925245013
609.2347844037632
593.7783372218693
592.6504065349822
617.8390653364745
610.154628474367
602.7703227927594
620.415583829473
619.7335303753862
614.0058751662164
616.3506105790817
603.9811542257623
522.5289210324482
460.1972363271709
422.6704449288997
426.5856633567624
512.0670332577608
421.9835578194633
305.5301482009884
252.9732643006679
468.7317407447383
368.101348827036
252.1787215258991
231.8539343603626
368.0076004686836
282.5858277656109
227.8297957331253
239.5910065025124
376.1370876635186
403.9246928293969
471.0868660502067
522.9238456389942
306.4937876374972
380.3599703726403
441.8185036574799
491.7074116097036
291.6669313195152
350.9016843521325
404.4016098170616
445.1317099500816
298.9375591598172
351.4329942658099
402.1242693732292
431.1508470781748
487.0607211353262
510.3458627882559
509.2800865175211
509.6876775453239
435.7734161712375
473.9286471698114
492.6753734035108
510.5678259233206
407.3534703172007
432.9142432161248
470.5548408298608
514.1748275457093
392.4924063888754
408.2737798972123
445.0625598041593
512.9333333222867
491.8267007776521
470.6137339133899
459.3929642912362
459.7039016497981
495.1789037045199
486.0225001935556
482.0173748154918
475.8954742736272
504.2375449204567
507.4085903190378
501.610305950015
488.6175693795119
503.6022113747371
508.6044910371913
498.7249974528023
484.0919255978315
465.9309196120097
450.6269511071782
442.2368415631727
439.8950894445835
471.5287879653303
455.6883184469101
444.4200046482817
441.0561123928954
469.7953337896625
461.295326995627
452.6144517268499
448.9979833652317
462.8010857208824
460.2201286010179
455.4788623260291
452.3442438353843
439.8950894445476
441.0561123928601
448.9979833652539
452.3442438354775
442.236841563034
444.4200046481379
452.6144517268537
455.4788623262728
450.6269511068781
455.6883184466519
461.2953269954899
460.2201286012142
465.9309196115485
471.5287879651349
469.7953337894864
462.801085721063
459.7039016498813
459.3929642912273
470.6137339136758
491.8267007778462
475.8954742736697
482.0173748155874
486.0225001939016
495.1789037047022
488.6175693792438
501.6103059497455
507.4085903191971
504.2375449205209
484.0919255975519
498.7249974527127
508.6044910370497
503.6022113747057
512.933333322408
445.0625598045696
408.2737798978234
392.492406389484
514.1748275458117
470.5548408303773
432.9142432167154
407.3534703179485
510.5678259234898
492.6753734038858
473.9286471703576
435.7734161721255
509.6876775454598
509.2800865177135
510.345862788839
487.0607211358574
522.9238456387683
471.0868660501571
403.9246928278861
376.1370876730417
491.7074116096854
441.8185036577401
380.3599703719947
306.493787638145
445.1317099503753
404.4016098177764
350.901684351605
291.6669313194056
431.1508470785586
402.1242693736996
351.4329942662241
298.9375591602644
426.5856633788696
422.6704449308563
460.1972363269477
522.5289210323739
252.9732643049214
305.5301482007013
421.9835578186086
512.0670332584422
231.8539343608806
252.1787215254416
368.1013488280562
468.7317407455097
239.5910065025384
227.8297957324111
282.5858277661885
368.0076004695908
565.0079289986766
590.9805159313875
607.6462176209907
615.0674117374818
592.6504065352935
593.7783372220622
609.2347844040009
616.8448925251107
620.4155838301189
602.7703227927716
610.1546284739892
617.8390653366959
603.9811542269082
616.3506105790111
614.005875165879
619.7335303756448
618.9682979546113
623.2179708764429
633.0265282223829
643.6154201086192
621.0677407867245
625.9492806166653
637.1067969424478
648.7137881571934
623.1776341362149
629.5055885062613
640.6171058164309
653.8772960428375
625.5983387641639
632.9964215796838
643.6918491472667
658.2960566011238
656.874569667233
670.13946190809
681.44507408404
694.3008153622876
662.5487946290318
676.897872536334
690.0066177098744
702.7509565221841
668.0402649089579
683.0147644442668
697.4716320793647
708.7285808599814
671.834864782398
687.1938839065208
701.2937266371637
706.6523660629018
664.5437038241326
639.3630064791435
567.6810952624372
505.0248081305605
660.2514833629299
642.0088315738344
581.1673018213496
510.9457523504163
660.9497790888144
641.9788937950847
589.498282568795
516.4251394748386
661.3628433613411
642.1832974570447
597.7659729785064
520.234438497529
494.8469472984339
493.3326817983052
491.8104172697953
490.7931123396462
494.8615363225492
492.8626397538129
491.4807113037948
491.0038180810378
494.7356395994767
493.2672393538954
492.3385254926504
492.3163391268649
494.8403260807207
492.7257710502907
491.4193972653986
491.2482067593992
490.4502600786076
489.9498878812111
492.8098593131903
512.3813417522026
491.0967026738012
489.9704188906066
488.7084022114495
501.8264420801754
492.8373352939396
491.5592860262489
488.877771553928
491.5797850159327
491.5986850469952
489.9012374496906
484.1233101383702
469.9266842948663
553.2864493096113
560.4613078490961
565.5535718977856
567.898921977514
553.9644294256904
560.2395182855827
565.1532799019878
567.5583932103821
554.5583619995936
559.9824229199091
564.9925242786863
567.5747901484398
550.9724912809926
560.1860041656835
564.7359250120627
567.6371199956872
570.9797574080754
572.0574364941098
564.6289593603672
544.9499714426638
571.6840378859866
573.7614486708273
570.3315326079844
557.3545657227684
571.5451226845221
574.3218107989584
571.5457245299735
564.2360296884258
571.9800139705106
575.3922348729413
575.4562148223205
577.2417000304067
505.1319094299329
497.2539857034714
496.8135577407667
499.4842058720816
485.4159025810207
492.0362899403477
495.3926232733422
499.3453888750417
470.3696138141333
486.3990265566156
493.9790877473857
499.1480205866845
460.1374111849883
480.4284422501536
492.4954503652144
498.9410521437384
498.6805067462955
488.935247703552
469.4021762925175
479.7742225763951
498.6803496899714
489.4244084876319
471.2941789640448
474.2564157576175
498.6945254353006
490.3267653039467
473.4181813237871
465.2311212380516
498.78387519793
491.3789583946351
476.250054018054
459.5030183604406
498.9410521431728
499.1480205866549
499.3453888749419
499.4842058720302
492.4954503649586
493.9790877471916
495.3926232726199
496.8135577402929
480.4284422504661
486.3990265568681
492.0362899409251
497.2539857038955
460.1374111848169
470.3696138138708
485.4159025810303
505.1319094299577
)
;

boundaryField
{
    back
    {
        type            empty;
    }
    inlet
    {
        type            zeroGradient;
    }
    front
    {
        type            empty;
    }
    top
    {
        type            zeroGradient;
    }
    outlet
    {
        type            fixedValue;
        value           uniform 500;
    }
    bottom
    {
        type            zeroGradient;
    }
    wall
    {
        type            zeroGradient;
    }
}


// ************************************************************************* //
