/*--------------------------------*- C++ -*----------------------------------*\
  =========                 |
  \\      /  F ield         | OpenFOAM: The Open Source CFD Toolbox
   \\    /   O peration     | Website:  https://openfoam.org
    \\  /    A nd           | Version:  11
     \\/     M anipulation  |
\*---------------------------------------------------------------------------*/
FoamFile
{
    format      ascii;
    class       volVectorField;
    location    "0.35923815";
    object      U;
}
// * * * * * * * * * * * * * * * * * * * * * * * * * * * * * * * * * * * * * //

dimensions      [0 1 -1 0 0 0 0];

internalField   nonuniform List<vector> 
880
(
(24.99999999999999 -2.806476175837868e-12 0)
(24.99999998203183 -1.217534215067742e-08 0)
(24.99829018490835 -0.000555400325783127 0)
(24.71735872650267 0.007624823237086044 0)
(24.99999999998872 -2.831620489871434e-11 0)
(24.99999994445427 -7.040213697304104e-08 0)
(24.99747950694024 -0.001722121601445906 0)
(24.63269162655439 -0.1593362046152054 0)
(24.99999999963697 -2.437994298722219e-10 0)
(24.99999976102305 -2.872001998377334e-07 0)
(24.99514542941413 -0.003584540113921821 0)
(24.51359658336669 -0.2644846921979355 0)
(24.99999999829957 1.052179556197644e-09 0)
(24.9999988181946 -1.167896512677288e-06 0)
(24.98908559591498 -0.007016890119812994 0)
(24.13723875519585 -0.4137218385787502 0)
(25.0000000111903 -4.114174319727132e-09 0)
(24.99999998001881 8.777728849685458e-09 0)
(24.99999953213299 -9.298903216130565e-07 0)
(24.99999314126271 -1.18442001566142e-05 0)
(24.9999937677143 -4.448838165196844e-06 0)
(24.99996304569785 -1.867036515386547e-05 0)
(24.99985588916729 1.066978855037999e-05 0)
(25.00017477415291 -0.001107700303600877 0)
(24.97171032370936 -0.01019847126231322 0)
(24.95164238061771 -0.006360569722601739 0)
(24.92414569624025 0.01073087057711466 0)
(24.91407649028404 -0.06683495556785511 0)
(23.40263381522866 -0.09542111844030809 0)
(22.69016483089793 0.6348523335702165 0)
(22.26854471016514 1.335030015008564 0)
(22.24429257070351 1.74623180644385 0)
(24.99988402574229 -6.196644119967577e-06 0)
(24.99960660753077 -0.0003640922508615773 0)
(24.99925372958829 -0.001529092132197654 0)
(24.99747563904875 -0.004522312722224942 0)
(24.99801872886915 -0.0006931157178589622 0)
(24.99019664476316 -0.0003535923444922771 0)
(24.97714992514092 0.005493438002029173 0)
(24.95441869893456 0.00891113845467391 0)
(24.75585875859226 -0.01080225164679089 0)
(24.63017490633087 0.09839537923745269 0)
(24.46164695654075 0.27852128434051 0)
(24.31834131456227 0.4062602325278776 0)
(21.98166265561574 2.340711705563499 0)
(21.98731681243892 2.779777128934362 0)
(21.88511262057285 3.317366761466792 0)
(22.33925076220047 3.758416966051676 0)
(23.38566895404118 4.323121026515667 0)
(24.11421955609486 4.173029663974779 0)
(24.45809385355098 3.76627493154596 0)
(24.81732639763938 3.31664076399945 0)
(24.07885285201116 0.7464021506697998 0)
(24.09385205006696 1.104405094659928 0)
(24.19611105136991 1.349493209815332 0)
(24.38212802433002 1.475564744315116 0)
(24.8756390610468 0.0352939076067488 0)
(24.77189956956204 0.1155055782383089 0)
(24.67953567869596 0.2412753511805465 0)
(24.63420992509973 0.3945601423384431 0)
(24.98787348535418 -0.01055589637064476 0)
(24.97236238160572 -0.02426048037465342 0)
(24.95024610037443 -0.04404441546411905 0)
(24.92404989098682 -0.07056272789570012 0)
(24.90148927937947 -0.1010180731988092 0)
(24.88770889244336 -0.1311329223280889 0)
(24.8828439636236 -0.1445292545467608 0)
(24.88832512738244 -0.137983751244279 0)
(24.63263273216006 0.5574793176453678 0)
(24.67445249788124 0.7120300026965845 0)
(24.76091770216566 0.8382310436420186 0)
(24.87668726932814 0.8925763386178197 0)
(24.54953424786815 1.608778663340095 0)
(24.75257378571237 1.654951364060705 0)
(24.94052266610517 1.627189106522313 0)
(25.09322980296858 1.555473649227616 0)
(24.99115121332164 2.905797205500748 0)
(25.17872503912968 2.489602921752379 0)
(25.29112358063047 2.094361802505381 0)
(25.36345005854585 1.778078836925481 0)
(25.42831110698031 1.377475983864336 0)
(25.24434810671739 1.453739291615171 0)
(24.99915626276763 0.912747228537144 0)
(24.89607326336412 -0.1212278872804937 0)
(24.54801264065403 1.55950729208909 0)
(25.34338259706649 1.28932626177705 0)
(25.14340123038486 0.8617877390001752 0)
(24.90333165572871 -0.09618446000900031 0)
(19.1543465997131 1.728678931896702 0)
(25.15903806571476 1.297226895625035 0)
(25.25814600445782 0.7517691385308117 0)
(24.91621872635178 -0.08053583616058553 0)
(14.12709598311283 2.095967098832289 0)
(23.70230874400158 1.628812597549144 0)
(25.27711632685543 0.774751119325208 0)
(24.94896213907935 -0.09185219198221065 0)
(24.95453348397612 -0.06679782502025555 0)
(25.21733167017616 0.718234117265672 0)
(22.05144988124387 2.269369267380422 0)
(12.48982185886675 3.860313725472844 0)
(24.83136344225928 -0.08883073534330026 0)
(24.99459316307803 0.8082524867667945 0)
(20.60596425327725 3.314581800953445 0)
(12.79855911874337 5.640558984985957 0)
(24.78950240333178 -0.1158533962686999 0)
(24.4744385690395 1.156922086826472 0)
(18.82492133098872 4.649505194944973 0)
(12.64750715117779 7.078643264015796 0)
(24.69831027780711 -0.1634688926759221 0)
(23.59932272257725 1.928845879372632 0)
(17.58772381210079 6.058393589702049 0)
(13.13582726478686 8.144171611862015 0)
(14.04754617776448 8.855717158823801 0)
(16.96790452448903 7.293810201515522 0)
(22.43000178594776 3.156670248410872 0)
(24.51830701264936 -0.1864961715523501 0)
(15.13573369915048 9.393282558385037 0)
(17.24086575618124 8.219387581671041 0)
(21.2172627595139 4.641984619844004 0)
(24.19843147257938 -0.07129180975605942 0)
(16.37659411475275 9.684253179306461 0)
(18.11055361731999 8.754312850666507 0)
(20.70752841339729 5.995960829535839 0)
(23.69385953328667 0.2364327795764828 0)
(17.54806678362781 9.756778478389545 0)
(19.39763738050464 8.854119469195215 0)
(20.87608183765786 7.036006627214273 0)
(23.19624986718354 0.722939415092979 0)
(22.91095808463123 0.8509833865698937 0)
(22.04902822888462 7.091156920017683 0)
(21.12110204076102 8.806646738748947 0)
(18.96386419898424 9.89778824153429 0)
(23.45620523418053 0.6464013049727064 0)
(23.50851112551538 6.648126585819766 0)
(23.10799059039061 8.415240468733879 0)
(20.90707010349349 9.810493595163214 0)
(24.03999900741972 0.3441306723105 0)
(24.93162638234909 5.875079098433048 0)
(25.19364725001855 7.620149192211755 0)
(23.44736351641257 9.238279578225725 0)
(24.51868853555908 -0.249433196191787 0)
(26.06333381959008 4.60685143175135 0)
(27.16639151099301 6.226688812930222 0)
(26.40060601440495 7.616393514465586 0)
(24.88420176708717 -0.3075604791275101 0)
(26.92927333062985 3.628091944873984 0)
(29.0498091038518 4.804324649113107 0)
(30.68347673227867 4.759036209480674 0)
(25.30047864777808 -0.4989526492989247 0)
(27.49767334553532 2.601740857760522 0)
(30.11087122539502 3.390625064916786 0)
(34.0025303309782 0.7046304624536485 0)
(25.54328489545275 -0.5425624822785182 0)
(27.54997887849112 1.647315695229065 0)
(30.83480408284154 1.256059712864735 0)
(36.34819099070129 -4.253899587058585 0)
(25.65370472897845 -0.5437433143028331 0)
(27.22447468679758 1.022788571176281 0)
(30.3124194649484 -0.3107857461948172 0)
(37.77960316348357 -9.252059939257128 0)
(34.01916501269407 -7.328163174330764 0)
(29.13043006750446 -1.417323795798988 0)
(26.94234716894611 0.3554846479365915 0)
(25.69372658902304 -0.5467565847721126 0)
(25.63460259242401 -3.21504074181396 0)
(28.24648203832055 -1.93657657992545 0)
(26.64812685079508 -0.1001478026251433 0)
(25.62906688013673 -0.4720636131896023 0)
(23.08910283407582 -3.612727458727784 0)
(27.75007950875291 -2.841734710665768 0)
(26.39351453474407 -0.5594359157782874 0)
(25.50627926082249 -0.3592992049703866 0)
(19.90317647993387 -3.659491720620485 0)
(26.97784650557264 -3.450134733238025 0)
(26.04932386700035 -0.95324270639584 0)
(25.38980890188321 -0.2751142724077574 0)
(18.08533725879849 -4.760128532454991 0)
(25.72431597928009 -4.391146115788154 0)
(25.48603108671692 -1.289834570586279 0)
(25.18022560437524 -0.2156766056547466 0)
(15.43328807450138 -6.813571098884004 0)
(24.08651174318753 -4.635074539471976 0)
(24.89652699930239 -1.125750526990032 0)
(25.00123782366477 -0.1079297602446964 0)
(14.37829291260989 -6.976622413113748 0)
(23.02533311870166 -4.048563861053489 0)
(24.65192881767715 -0.7359217743306481 0)
(24.97081048361061 -0.04913710215199641 0)
(14.33664059002898 -5.861263206968225 0)
(22.80032894596441 -3.600501961536652 0)
(24.67303426601602 -0.6014658799120179 0)
(24.97608424157245 -0.03608049116901076 0)
(14.22222852072366 -0.6632456833893569 0)
(20.34300505557217 -0.1132561079254619 0)
(23.64823180089584 0.01057880250939445 0)
(24.85558878922971 0.001982489757308628 0)
(14.20380413974208 -1.755726824316115 0)
(20.33964908297351 -0.537824717075214 0)
(23.66314575212409 0.0006273185724766461 0)
(24.85253197625352 0.00436500668209419 0)
(14.41811890102343 -3.256044048595766 0)
(20.34756206974524 -0.9879368981836562 0)
(23.70247000716546 -0.07176375246411955 0)
(24.8517822019988 0.0002500268483987143 0)
(14.46992452094669 -4.649572003463148 0)
(20.55616207220404 -1.352471893244748 0)
(23.80220796419167 -0.1947261949262965 0)
(24.86016912527257 -0.01139122458376456 0)
(14.33664059003206 5.861263206943146 0)
(22.80032894597163 3.60050196152634 0)
(24.67303426615145 0.6014658798654762 0)
(24.97608424168533 0.03608049114964751 0)
(14.37829291259614 6.976622413067409 0)
(23.02533311880854 4.048563861110236 0)
(24.65192881777591 0.7359217743165209 0)
(24.9708104837758 0.04913710219827825 0)
(15.43328807453427 6.813571098898961 0)
(24.08651174319845 4.635074539508846 0)
(24.89652699929236 1.125750527034271 0)
(25.00123782367102 0.1079297602949458 0)
(18.0853372588313 4.760128532459107 0)
(25.72431597944943 4.391146115868961 0)
(25.48603108674351 1.289834570621143 0)
(25.18022560433553 0.21567660570245 0)
(25.69372658899271 0.5467565847137382 0)
(26.94234716891917 -0.3554846479703195 0)
(29.13043006754462 1.417323795791956 0)
(34.01916501262175 7.328163174459235 0)
(25.62906688015529 0.4720636131385705 0)
(26.64812685079892 0.1001478026178328 0)
(28.24648203842687 1.936576579934448 0)
(25.63460259253514 3.215040741922739 0)
(25.50627926072971 0.3592992049236812 0)
(26.39351453462238 0.5594359158021064 0)
(27.75007950883806 2.841734710798385 0)
(23.08910283398417 3.61272745876789 0)
(25.3898089017525 0.2751142723866131 0)
(26.04932386691329 0.9532427063669284 0)
(26.97784650558749 3.45013473331435 0)
(19.90317648004466 3.659491720656647 0)
(37.7796031634089 9.252059939371964 0)
(30.31241946489962 0.3107857461890264 0)
(27.22447468675561 -1.022788571181335 0)
(25.65370472893607 0.5437433142549378 0)
(36.34819099071447 4.253899587108225 0)
(30.83480408290465 -1.25605971282435 0)
(27.54997887850956 -1.647315695234426 0)
(25.54328489551157 0.5425624822923517 0)
(34.00253033102523 -0.704630462412742 0)
(30.11087122522678 -3.390625064885509 0)
(27.4976733455257 -2.601740857733559 0)
(25.30047864762355 0.498952649367186 0)
(30.68347673219141 -4.759036209453813 0)
(29.04980910388029 -4.804324649081432 0)
(26.92927333079371 -3.628091944854085 0)
(24.88420176692658 0.3075604792148458 0)
(22.91095808455596 -0.8509833865511 0)
(22.04902822883042 -7.091156920022847 0)
(21.12110204070764 -8.806646738747679 0)
(18.96386419901663 -9.897788241541473 0)
(23.45620523418415 -0.6464013049287991 0)
(23.5085111255259 -6.648126585816307 0)
(23.10799059030729 -8.415240468703324 0)
(20.9070701035517 -9.810493595185791 0)
(24.0399990074358 -0.3441306722899851 0)
(24.93162638237294 -5.875079098441334 0)
(25.19364724994936 -7.620149192176056 0)
(23.44736351641119 -9.238279578213026 0)
(24.51868853550826 0.2494331962612924 0)
(26.06333381967923 -4.606851431732533 0)
(27.16639151105108 -6.226688812908455 0)
(26.4006060143575 -7.616393514447033 0)
(17.54806678365331 -9.75677847839818 0)
(19.39763738057678 -8.854119469239137 0)
(20.87608183761856 -7.03600662721159 0)
(23.19624986706202 -0.7229394151096313 0)
(16.37659411479753 -9.684253179331767 0)
(18.11055361738431 -8.754312850693621 0)
(20.70752841338133 -5.995960829544448 0)
(23.69385953327561 -0.2364327795734418 0)
(15.13573369916067 -9.393282558398267 0)
(17.24086575627599 -8.219387581691684 0)
(21.2172627595488 -4.641984619821626 0)
(24.19843147246197 0.07129180976299124 0)
(14.04754617779708 -8.855717158826586 0)
(16.96790452450021 -7.293810201486787 0)
(22.43000178586008 -3.156670248376711 0)
(24.51830701265215 0.1864961715540626 0)
(24.95453348403206 0.06679782504303561 0)
(25.21733167022185 -0.718234117240611 0)
(22.05144988123509 -2.269369267390595 0)
(12.4898218589295 -3.860313725485494 0)
(24.83136344217579 0.08883073534161709 0)
(24.99459316308329 -0.8082524867234706 0)
(20.60596425330484 -3.314581800954075 0)
(12.79855911879135 -5.640558985012307 0)
(24.78950240320363 0.1158533962621925 0)
(24.47443856887267 -1.156922086760752 0)
(18.82492133107835 -4.649505194931004 0)
(12.64750715122283 -7.078643264030866 0)
(24.69831027775884 0.1634688926791074 0)
(23.59932272253044 -1.928845879290801 0)
(17.58772381219213 -6.058393589687402 0)
(13.13582726478694 -8.144171611857127 0)
(24.94896213905085 0.09185219199600865 0)
(24.91621872640013 0.0805358361732577 0)
(24.90333165564041 0.09618446003860695 0)
(24.89607326335472 0.1212278872768561 0)
(25.27711632693277 -0.7747511193266389 0)
(25.25814600452823 -0.7517691385218216 0)
(25.14340123023791 -0.8617877389848375 0)
(24.9991562627668 -0.9127472285536394 0)
(23.70230874410995 -1.628812597569209 0)
(25.15903806574624 -1.29722689563024 0)
(25.3433825971372 -1.289326261790487 0)
(25.24434810674997 -1.453739291608299 0)
(14.12709598320502 -2.095967098839839 0)
(19.15434659977945 -1.728678931892356 0)
(24.54801264057011 -1.559507292059889 0)
(25.42831110697185 -1.377475983838746 0)
(24.88832512732665 0.1379837512514733 0)
(24.87668726924274 -0.8925763385959302 0)
(25.09322980295876 -1.555473649202504 0)
(25.36345005865456 -1.778078836880852 0)
(24.88284396369795 0.14452925452757 0)
(24.76091770215043 -0.838231043635578 0)
(24.94052266623168 -1.627189106506997 0)
(25.29112358070134 -2.094361802467989 0)
(24.88770889242608 0.1311329223187443 0)
(24.67445249787662 -0.7120300026445622 0)
(24.75257378565766 -1.654951364066056 0)
(25.17872503918146 -2.489602921752133 0)
(24.90148927943338 0.1010180731179069 0)
(24.63263273223516 -0.5574793176247639 0)
(24.54953424793601 -1.608778663339818 0)
(24.99115121331601 -2.905797205489911 0)
(24.98787348536262 0.01055589628551205 0)
(24.87563906116435 -0.03529390751293477 0)
(24.07885285206872 -0.7464021506634365 0)
(23.38566895410348 -4.32312102650526 0)
(24.9723623815894 0.024260480258666 0)
(24.77189956962605 -0.1155055781669013 0)
(24.09385205012971 -1.104405094626998 0)
(24.11421955620859 -4.173029663992856 0)
(24.9502461002432 0.0440444154371614 0)
(24.67953567888851 -0.2412753511103041 0)
(24.19611105140313 -1.3494932098155 0)
(24.45809385371927 -3.766274931603603 0)
(24.92404989099227 0.07056272782753656 0)
(24.63420992509659 -0.3945601422845421 0)
(24.38212802445481 -1.475564744282583 0)
(24.81732639769142 -3.316640764024703 0)
(22.33925076222502 -3.758416966039341 0)
(24.31834131451322 -0.4062602325302979 0)
(24.95441869899113 -0.00891113835985855 0)
(24.99747563907635 0.004522312708967117 0)
(21.8851126206145 -3.317366761452651 0)
(24.46164695652676 -0.2785212843445214 0)
(24.97714992521614 -0.005493437964053979 0)
(24.9992537296196 0.001529092101169686 0)
(21.98731681254466 -2.779777128932105 0)
(24.6301749063985 -0.09839537924342208 0)
(24.99019664492704 0.0003535923514988434 0)
(24.9996066074407 0.0003640921291989857 0)
(21.98166265557044 -2.340711705541789 0)
(24.75585875867557 0.01080225163929431 0)
(24.99801872894568 0.0006931157330105813 0)
(24.99988402583376 6.196658384961397e-06 0)
(22.24429257069389 -1.746231806430429 0)
(24.91407649025577 0.06683495557231682 0)
(25.00017477420516 0.001107700322887514 0)
(24.99999314123308 1.184424338946574e-05 0)
(22.26854471011448 -1.335030014995544 0)
(24.92414569625229 -0.01073087058029441 0)
(24.99985588917063 -1.066978938815754e-05 0)
(24.99999953209123 9.29899591687404e-07 0)
(22.69016483074327 -0.6348523335789599 0)
(24.95164238064496 0.00636056971370973 0)
(24.99996304566755 1.867035590653289e-05 0)
(24.99999998004261 -8.823147456138672e-09 0)
(23.40263381497954 0.0954211183932224 0)
(24.97171032379443 0.01019847125703278 0)
(24.9999937679285 4.448851221951921e-06 0)
(25.00000001114298 4.117344004969859e-09 0)
(25.00000000000002 5.955471176392451e-12 0)
(24.99999998201898 1.215863257261664e-08 0)
(24.99829018489987 0.0005554003078856126 0)
(24.71735872646732 -0.007624823080366507 0)
(24.99999999997173 4.182649763547789e-11 0)
(24.99999994453042 7.037866450182265e-08 0)
(24.99747950684067 0.001722121579062809 0)
(24.6326916264351 0.1593362046861338 0)
(24.99999999962681 2.565063164574893e-10 0)
(24.99999976109916 2.872038985815419e-07 0)
(24.99514542944816 0.003584540100568652 0)
(24.51359658300639 0.2644846921284581 0)
(24.99999999828481 -1.026287688167325e-09 0)
(24.99999881823999 1.167909167340709e-06 0)
(24.98908559592045 0.007016890109524658 0)
(24.13723875489746 0.4137218385228362 0)
(24.52526914982971 1.098633482859247e-10 0)
(24.35979030278336 0.1495549783342381 0)
(23.97404027529825 0.1736327414657896 0)
(23.03854488859015 0.01871627297235884 0)
(24.35979030300067 -0.1495549781173843 0)
(24.08842983980147 4.0969026726757e-11 0)
(23.40956753901155 -0.06031106186543972 0)
(21.96065866322693 -0.4863807964776228 0)
(23.97404027574394 -0.1736327413728706 0)
(23.40956753938986 0.06031106194147397 0)
(22.12861204754493 6.329189461437914e-11 0)
(20.03095465807506 -0.5819754998638929 0)
(23.03854488895551 -0.01871627299294204 0)
(21.96065866383995 0.4863807964212069 0)
(20.0309546583176 0.5819754998166442 0)
(17.78918342766594 -2.400801007439657e-10 0)
(17.25878156672265 2.521584144177138 0)
(17.89934735011036 2.91734879741753 0)
(19.5433911904758 2.655843649684918 0)
(21.08693143541003 1.88781649922745 0)
(18.24490707772695 4.246787239664417 0)
(18.30812157854355 4.203001610930071 0)
(19.04065478638302 4.114780059130107 0)
(20.07397267818337 3.952546648403546 0)
(17.68385298049973 5.193198753516841 0)
(18.85057135187384 4.491072548364746 0)
(19.52791953616953 4.691878331339479 0)
(20.05233119904409 4.563749462450596 0)
(18.33524804284881 5.754217459544159 0)
(19.70555235917963 4.717192657209656 0)
(20.20571219971781 4.891231468993413 0)
(20.49069638534338 4.80557317850556 0)
(20.79096102286755 4.932704730999819 0)
(21.02925457712478 5.061730614606925 0)
(21.40434869978969 5.120578049807278 0)
(22.1608473170901 5.28034785876146 0)
(20.72899902088807 4.994246071896248 0)
(21.03868669561654 5.101568778898149 0)
(21.53836518291419 5.117411870205768 0)
(22.65128450540479 5.500670757590112 0)
(20.47284371595351 4.931257758534313 0)
(20.97343591138475 5.105921502779479 0)
(21.5553632008194 5.158189213658498 0)
(24.10136739637196 5.943006424896097 0)
(18.9761633401616 5.851118327369194 0)
(19.59932616869291 5.875945112136397 0)
(20.50317179161733 5.734755641497228 0)
(25.83118771838442 7.125896946868442 0)
(25.81525086489697 3.187582057001162 0)
(26.40944986160186 0.809035185880819 0)
(25.72185478619518 0.4870797179645551 0)
(25.59509744692132 0.3820586202827061 0)
(28.37610373623606 2.198782693095497 0)
(28.69592357951128 0.3397479921746293 0)
(27.56802025567288 0.2832497855805668 0)
(26.89269655517211 0.3137577094752871 0)
(31.5490174645831 1.904715868746224 0)
(30.14995255514448 0.04577692487087655 0)
(28.75774002996881 0.05144594024420876 0)
(27.77933269974228 0.09386612223797236 0)
(25.07990627435874 1.987931879246186 0)
(24.21747669465312 0.6522760849254007 0)
(24.07232542522411 0.08970059256110509 0)
(24.15978753940901 -0.2164448353408538 0)
(25.66543285128993 0.3867732334936749 0)
(25.71344589631616 0.3198125535396255 0)
(25.70096160166225 0.2051357643493928 0)
(25.65343834854594 0.171666233898898 0)
(26.53712910760542 0.3417372502817375 0)
(26.2246084337108 0.2915138404621285 0)
(25.94664018539494 0.1915930267146607 0)
(25.72127962642636 0.1306855810356671 0)
(27.1503080788145 0.1478463522132276 0)
(26.59225605008357 0.1471934324266912 0)
(26.09881726470174 0.09830199141508038 0)
(25.66599158330406 0.08514071175256545 0)
(24.13124785933392 -0.4622506329987827 0)
(23.90332902823816 -0.6207344288632489 0)
(23.70233144611666 -0.7154388052228714 0)
(23.3699525369618 -0.6662499722862852 0)
(25.20551187318727 0.771746647848302 0)
(20.09232349822483 5.09833336011781 0)
(13.71988712676152 3.924499364681399 0)
(9.345185044955748 1.059313613165505 0)
(24.62756571566458 1.255404609705097 0)
(16.07214897417048 4.951642452856786 0)
(8.863741815587343 2.740790529872577 0)
(4.471010865017828 -0.1764444284112115 0)
(23.43562065521898 1.295081290839479 0)
(11.69320395043743 3.634467574300363 0)
(3.139599925494283 2.029105765835897 0)
(-0.7690434061363067 0.2418317524331577 0)
(19.41387114650502 -0.7286270020817013 0)
(7.302716282254359 -0.7957726727354808 0)
(0.2336798670962653 0.5430107615963132 0)
(-2.595597814777156 0.174391082347875 0)
(8.569140347704113 2.69389136767697 0)
(10.5853676072198 4.559501126846274 0)
(11.49761967983921 6.280358252828852 0)
(12.44952991392987 7.62563670751427 0)
(6.136664681881392 1.993679366517324 0)
(9.511365645322302 4.41104894637219 0)
(11.20129498393966 6.226233544246901 0)
(12.40432342611444 7.672156832609108 0)
(2.93329617686932 0.01197264503886442 0)
(7.442469055234012 3.331956918890884 0)
(10.26714140084118 6.036193846580247 0)
(12.02123702463899 7.596917308275435 0)
(0.2395554427949154 -0.1062641781935104 0)
(3.470273025124325 2.475978966998075 0)
(7.538041262436985 3.976178679367526 0)
(10.63466223294618 5.463973207594586 0)
(13.63849217514062 8.986501605350773 0)
(14.77053734931922 10.0081596741361 0)
(15.9194554394995 10.56578154620553 0)
(16.81352890131357 10.85599022035472 0)
(13.55816897375212 8.921007731901614 0)
(14.71384387424621 9.954779830057364 0)
(15.82397054151007 10.54166810325191 0)
(16.69639536222103 10.88141645023891 0)
(13.23585601269665 8.764177386240107 0)
(14.51738054026782 9.775716915048514 0)
(15.74208967437004 10.47461800668029 0)
(16.62306363267572 10.96197336137919 0)
(13.11739460891627 6.748230816645404 0)
(14.67207207222416 8.448505367984154 0)
(15.76611225322976 10.30178693783897 0)
(16.64564929123444 10.93920821629018 0)
(17.82791637336764 11.27568212345176 0)
(19.42337231648361 11.76984599007892 0)
(21.7750512225611 11.69323488870388 0)
(24.777982876238 10.42097127704575 0)
(17.62277401667316 11.27975887120534 0)
(19.07491851310752 11.72984847399867 0)
(21.21153714771662 11.74952512302432 0)
(24.97582886504896 12.47348275118893 0)
(17.47369415907845 11.36885147735915 0)
(18.7229668997139 11.78345585852928 0)
(21.34547090541198 12.58553906729343 0)
(31.48516365834716 18.45884729523882 0)
(17.43734329345754 11.39311606169609 0)
(18.64011229226413 11.79210536299914 0)
(22.06806731109958 13.17483749163118 0)
(43.24395160311254 25.51574416343566 0)
(30.59388649672557 5.261221099633774 0)
(32.03814053817867 -3.582410576447128 0)
(12.65433827407317 8.691177237161307 0)
(7.857634613598492 30.84087347770933 0)
(32.23136061530676 4.900237875210443 0)
(26.46683077181265 -1.952407944423803 0)
(8.976498375412401 17.41677630776446 0)
(8.448141297101262 29.02689485798149 0)
(31.97401551972412 3.292521282039471 0)
(17.20849649936785 -4.302891966719612 0)
(3.828881985555708 21.32889462349494 0)
(4.612021833749572 29.02662942058444 0)
(20.30819334381279 -8.299018109898414 0)
(7.32808185765558 -0.5716358206923479 0)
(2.088253001585596 24.81813232743157 0)
(2.648167188498843 28.7340006066423 0)
(7.017316392421452 24.62075668280209 0)
(2.699644231132729 17.69724985791532 0)
(-0.7733807277909489 14.87159329234284 0)
(-2.833078899265046 9.93796649436697 0)
(6.712232264134842 23.57250341732738 0)
(1.9151360453284 19.24752340015596 0)
(-0.4567793240836433 14.9817490998444 0)
(-1.253565192856835 7.687197539045428 0)
(3.278232066424943 22.61479070046416 0)
(1.430437977838689 18.10670229614984 0)
(-0.3153641158084005 12.35864199071801 0)
(-0.8159271419585135 4.900448216083967 0)
(0.7861853636013141 22.03878734851605 0)
(-0.4547157210739823 17.36659381697023 0)
(-1.909241317392284 10.96806492571329 0)
(-1.738867030848878 3.285197945784769 0)
(-6.073861879750754 3.289769424496052 0)
(-2.016790509045357 0.2622137714312681 0)
(2.428928492683493 -2.420448233387139 0)
(4.456956982899102 -6.632178961472668 0)
(-6.812498802565186 3.051156723718326 0)
(-5.955832621014354 0.3488034349146862 0)
(-1.266840203986046 -0.7973011242288125 0)
(2.679091203563749 -5.57545810565617 0)
(-6.212952457880273 2.126718621766555 0)
(-7.806488271202084 0.6687554784636665 0)
(-4.51800445678168 0.3046871469449418 0)
(0.03235026060495076 -4.086194520839302 0)
(-4.585779933494504 2.184298221117392 0)
(-7.136694091349592 2.668638658591999 0)
(-5.229596124984392 3.072729829462381 0)
(-0.6500735949153748 -1.05222013897342 0)
(2.361342540778627 -6.935603210205339 0)
(2.293254511336718 -7.541103028255766 0)
(3.1568912575445 -7.215740089860425 0)
(4.462948847290209 -6.469091898871924 0)
(1.465723992620159 -6.803488967727786 0)
(1.92660403716757 -6.275203485642592 0)
(3.127002551057245 -5.840639914286881 0)
(3.899645834189744 -4.924315871346775 0)
(0.4566989717578276 -4.750715337539458 0)
(0.6584608325131227 -3.491270057041025 0)
(1.655299189739565 -3.003624947247913 0)
(2.137318659812098 -1.923635052769777 0)
(1.658802163812112 -1.986248469599821 0)
(1.311045994310123 -0.7524635875088437 0)
(1.876992185701194 -0.3122910289970112 0)
(1.653185149543706 0.6366964040933312 0)
(0.780086319932933 1.14730396292398 0)
(-0.03297729736152245 1.284702694374179 0)
(-0.658692214066203 0.968278702843223 0)
(-0.9812835695658769 0.3366266388121185 0)
(1.586987703358357 -0.9804155196692842 0)
(0.5863011157586613 -0.4815219488943444 0)
(-0.2570258532882738 -0.05723141816878709 0)
(-0.6750466820020526 -0.02422027389077789 0)
(3.363706471347116 -3.805927117450886 0)
(2.444022692790076 -2.796801449771201 0)
(1.337995157658898 -1.704849392048388 0)
(0.6067079494482448 -0.6385082170802432 0)
(5.106973895505623 -4.816610369174097 0)
(4.969808698601453 -3.302342792597378 0)
(4.187818114645222 -2.021995374792147 0)
(3.720922665655794 -0.7293567738420569 0)
(-0.9812835695681635 -0.3366266387892283 0)
(-0.6750466820020923 0.02422027390055855 0)
(0.6067079494483989 0.6385082170747765 0)
(3.720922665657095 0.7293567738225614 0)
(-0.658692214070779 -0.9682787028246878 0)
(-0.2570258532891795 0.05723141817830957 0)
(1.337995157663527 1.704849392046085 0)
(4.187818114672345 2.021995374772725 0)
(-0.03297729736532461 -1.28470269436029 0)
(0.5863011157574214 0.481521948901691 0)
(2.444022692788167 2.796801449767958 0)
(4.969808698622911 3.302342792598898 0)
(0.780086319929958 -1.147303962912638 0)
(1.586987703360791 0.9804155196742763 0)
(3.363706471334586 3.805927117449141 0)
(5.106973895512183 4.816610369186053 0)
(4.462948847266282 6.469091898838166 0)
(3.156891257546128 7.215740089845678 0)
(2.293254511338062 7.541103028240356 0)
(2.361342540791832 6.935603210187577 0)
(3.899645834190054 4.924315871347564 0)
(3.127002551066104 5.840639914280628 0)
(1.926604037184868 6.275203485638386 0)
(1.46572399264059 6.803488967712103 0)
(2.137318659811191 1.923635052765871 0)
(1.655299189740818 3.003624947236657 0)
(0.6584608325244651 3.491270057043755 0)
(0.4566989717714944 4.750715337533371 0)
(1.653185149544152 -0.6366964040889328 0)
(1.876992185708869 0.3122910290013642 0)
(1.311045994318697 0.7524635875155633 0)
(1.658802163820738 1.986248469607729 0)
(-0.6500735948979658 1.052220138975828 0)
(-5.229596124945266 -3.072729829432864 0)
(-7.13669409131293 -2.668638658561084 0)
(-4.585779933467134 -2.1842982211089 0)
(0.03235026062026435 4.086194520837299 0)
(-4.518004456765513 -0.3046871469228024 0)
(-7.806488271145227 -0.6687554784462826 0)
(-6.212952457806166 -2.126718621732511 0)
(2.679091203576974 5.575458105647727 0)
(-1.266840203954724 0.7973011242533841 0)
(-5.955832620943461 -0.3488034348889062 0)
(-6.812498802510798 -3.051156723665561 0)
(4.456956982911794 6.632178961467783 0)
(2.428928492707791 2.420448233408575 0)
(-2.016790508960906 -0.2622137714105719 0)
(-6.073861879640941 -3.289769424420606 0)
(-2.833078899257795 -9.937966494249656 0)
(-0.7733807278486524 -14.87159329234399 0)
(2.699644231169308 -17.69724985817091 0)
(7.017316392138391 -24.62075668287762 0)
(-1.253565192852546 -7.687197538981669 0)
(-0.4567793240945316 -14.98174909981298 0)
(1.915136045417154 -19.24752340024102 0)
(6.712232264161678 -23.57250341730488 0)
(-0.8159271419600381 -4.900448216058814 0)
(-0.3153641158125 -12.35864199067117 0)
(1.430437977866065 -18.1067022962053 0)
(3.278232066441892 -22.61479070046769 0)
(-1.738867030843194 -3.285197945791304 0)
(-1.909241317400878 -10.96806492574498 0)
(-0.4547157210751345 -17.3665938169658 0)
(0.7861853636104061 -22.03878734850336 0)
(7.8576346132269 -30.84087347770111 0)
(12.65433827380135 -8.691177237464268 0)
(32.0381405381705 3.582410576499918 0)
(30.59388649679903 -5.261221099631013 0)
(8.448141296942872 -29.02689485795551 0)
(8.976498375366351 -17.41677630798043 0)
(26.46683077190083 1.952407944402372 0)
(32.23136061521262 -4.900237875177647 0)
(4.612021833762926 -29.0266294206398 0)
(3.828881985503212 -21.3288946236165 0)
(17.2084964992902 4.302891966655673 0)
(31.97401551964319 -3.29252128202615 0)
(2.648167188505197 -28.73400060672 0)
(2.088253001564709 -24.81813232756863 0)
(7.328081857679617 0.5716358206281656 0)
(20.30819334378925 8.299018109864962 0)
(24.77798287622621 -10.42097127702535 0)
(21.77505122252069 -11.69323488866267 0)
(19.42337231653787 -11.76984599008537 0)
(17.82791637332404 -11.27568212342054 0)
(24.97582886509611 -12.47348275119995 0)
(21.21153714779323 -11.74952512304437 0)
(19.07491851310417 -11.72984847398003 0)
(17.62277401674586 -11.27975887124229 0)
(31.48516365824862 -18.45884729516983 0)