/*--------------------------------*- C++ -*----------------------------------*\
  =========                 |
  \\      /  F ield         | OpenFOAM: The Open Source CFD Toolbox
   \\    /   O peration     | Website:  https://openfoam.org
    \\  /    A nd           | Version:  11
     \\/     M anipulation  |
\*---------------------------------------------------------------------------*/
FoamFile
{
    format      ascii;
    class       volScalarField;
    location    "1.2";
    object      p;
}
// * * * * * * * * * * * * * * * * * * * * * * * * * * * * * * * * * * * * * //

dimensions      [0 2 -2 0 0 0 0];

internalField   nonuniform List<scalar> 
5472
(
103.33883
101.47046
99.618784
97.785497
95.984778
94.230226
92.521642
90.875259
89.30168
87.804598
86.40814
85.10286
83.910137
82.814174
81.811967
80.894256
80.057519
79.306807
78.649114
103.57603
101.84052
100.10496
98.368308
96.658002
94.968233
93.306235
91.695265
90.137784
88.651618
87.24593
85.921632
84.688892
83.536199
82.477827
81.503063
80.613885
79.808179
79.084966
103.75882
102.15706
100.53277
98.905559
97.290089
95.666535
94.059793
92.483083
90.94618
89.470103
88.050746
86.705494
85.430907
84.241826
83.134222
82.104121
81.158875
80.294468
79.495782
103.87931
102.40418
100.90365
99.395793
97.865084
96.311147
94.765817
93.230212
91.721718
90.249746
88.823187
87.458349
86.156494
84.934619
83.781744
82.70475
81.706033
80.781252
79.914843
103.94831
102.59597
101.21636
99.812829
98.358017
96.883945
95.40518
93.919734
92.439645
90.978771
89.554386
88.181577
86.862004
85.613095
84.419908
83.303668
82.252645
81.270837
80.341753
103.98332
102.74001
101.45717
100.13987
98.773499
97.392996
95.984981
94.555434
93.110896
91.667832
90.256118
88.878858
87.552934
86.278557
85.050806
83.896811
82.797549
81.765531
80.777157
103.95719
102.8006
101.60997
100.38755
99.126537
97.838675
96.499782
95.130585
93.72469
92.31414
90.917131
89.543161
88.21135
86.909283
85.667659
84.476258
83.339664
82.2562
81.217191
103.8716
102.81358
101.72715
100.6024
99.438406
98.223251
96.95582
95.6439
94.288118
92.920698
91.537341
90.179628
88.836939
87.528748
86.270236
85.046228
83.879346
82.745372
81.667008
103.7641
102.80433
101.80828
100.76862
99.679748
98.538297
97.346575
96.098838
94.801543
93.476712
92.123152
90.777447
89.433122
88.131434
86.845482
85.606024
84.40489
83.239015
82.115148
103.62635
102.75157
101.83876
100.88122
99.872097
98.808229
97.685648
96.500209
95.260126
93.982516
92.664907
91.339835
90.014817
88.707996
87.410089
86.156848
84.92531
83.73446
82.564881
103.46457
102.6684
101.83717
100.96434
100.03381
99.041225
97.983573
96.857446
95.672764
94.436754
93.158299
91.862085
90.554122
89.252538
87.958049
86.689216
85.440593
84.227803
83.027133
103.29408
102.56468
101.80412
101.00107
100.14495
99.225254
98.233786
97.170374
96.043683
94.856359
93.620704
92.352708
91.060008
89.769798
88.481991
87.203211
85.944268
84.710794
83.491323
103.12173
102.4592
101.76512
101.02768
100.23597
99.378465
98.447245
97.441714
96.368925
95.230031
94.043486
92.813169
91.547897
90.268286
88.986056
87.705212
86.439428
85.192752
83.956297
102.92992
102.33537
101.70841
101.03343
100.30271
99.504575
98.633453
97.687477
96.664197
95.568081
94.423144
93.231288
92.002305
90.742556
89.470434
88.195916
86.930986
85.675552
84.431572
102.75773
102.21149
101.64046
101.02024
100.34647
99.603065
98.788031
97.898368
96.928128
95.8828
94.775425
93.614051
92.421226
91.186197
89.932305
88.663799
87.404113
86.145081
84.905232
102.60117
102.10589
101.58758
101.01333
100.38532
99.688917
98.920637
98.075395
97.157141
96.168749
95.114673
93.997136
92.828248
91.616469
90.382092
89.124978
87.87344
86.617863
85.38252
102.45505
102.00105
101.5301
101.00739
100.4253
99.767816
99.041734
98.242405
97.365463
96.413764
95.40299
94.327593
93.19784
92.018262
90.80245
89.567889
88.329422
87.083472
85.857361
102.32771
101.91391
101.48493
101.00529
100.45791
99.837524
99.157776
98.406506
97.572316
96.662323
95.685972
94.641177
93.549415
92.400664
91.208192
89.995564
88.771772
87.541605
86.332545
102.25284
101.87534
101.4711
101.01873
100.49774
99.907741
99.257728
98.540109
97.754512
96.896046
95.958993
94.948055
93.880126
92.757955
91.590396
90.402012
89.195561
87.983876
86.797514
102.17958
101.84504
101.4712
101.04919
100.566
100.01325
99.385554
98.691242
97.932998
97.101755
96.203689
95.239818
94.206611
93.10441
91.959327
90.791511
89.601618
88.415029
87.245204
102.15955
101.8407
101.48484
101.08501
100.63074
100.10724
99.517771
98.866562
98.132967
97.31896
96.436548
95.502131
94.504355
93.434487
92.31409
91.163088
89.995277
88.835523
87.689058
102.1783
101.89139
101.55611
101.17581
100.73581
100.22276
99.655878
99.030414
98.333123
97.565735
96.707307
95.77408
94.785168
93.735476
92.634814
91.498567
90.34458
89.203194
88.075859
102.18757
101.93565
101.63573
101.2869
100.87073
100.3888
99.843795
99.224144
98.54541
97.804275
96.978928
96.083021
95.116687
94.078381
92.99293
91.865699
90.724308
89.595614
88.484829
102.23944
102.01261
101.74173
101.41555
101.02633
100.57642
100.05217
99.4482
98.77132
98.01929
97.193222
96.300511
95.329051
94.298292
93.222132
92.105845
90.975053
89.854053
88.756634
102.29098
102.10988
101.87192
101.57403
101.22258
100.81371
100.3398
99.794099
99.168428
98.455663
97.654474
96.768475
95.798946
94.751228
93.648157
92.509361
91.360498
90.219312
89.108812
102.35044
102.21346
102.01384
101.74631
101.40369
100.98907
100.50441
99.940042
99.296296
98.572939
97.763323
96.877336
95.90504
94.856028
93.756971
92.622141
91.469503
90.331378
89.226709
102.40129
102.34704
102.23206
102.05149
101.80867
101.49166
101.09451
100.60962
100.03724
99.369246
98.582573
97.660673
96.624121
95.504918
94.333448
93.118916
91.892775
90.663533
89.470906
78.018779
77.414924
76.815
76.225604
75.591596
74.86667
74.014099
73.016071
71.861692
70.492052
68.874377
66.93178
64.579917
61.733201
58.356279
54.349583
49.625852
44.071181
37.586596
78.383951
77.696014
76.999918
76.29772
75.528585
74.63905
73.604223
72.385302
70.988768
69.355644
67.432889
65.173609
62.477212
59.322375
55.621439
51.318021
46.33907
40.576432
33.867999
78.712801
77.910729
77.101864
76.252673
75.328459
74.270435
73.03318
71.59718
69.91764
67.983762
65.725849
63.095394
60.047723
56.527009
52.501162
47.949437
42.751304
36.913603
30.383413
79.041762
78.120726
77.187561
76.197289
75.108584
73.876037
72.453425
70.809361
68.90946
66.706796
64.18882
61.281582
57.984299
54.288994
50.127296
45.58911
40.576957
35.081058
29.334175
79.380487
78.33602
77.278565
76.14751
74.918733
73.517284
71.933093
70.101025
68.014838
65.628219
62.921033
59.898422
56.511327
52.855818
48.895659
44.668303
40.376969
35.849641
31.379287
79.730544
78.564371
77.388095
76.118458
74.756015
73.213217
71.481772
69.511747
67.282001
64.792777
62.012924
59.006678
55.782847
52.377838
48.960903
45.483565
42.224196
39.183902
36.511976
80.079019
78.805755
77.507918
76.122386
74.627895
72.970446
71.118904
69.04892
66.757461
64.235455
61.545362
58.692734
55.842938
52.979437
50.328479
47.93569
45.940308
44.412796
43.448743
80.440999
79.065979
77.645551
76.150761
74.556373
72.799694
70.874811
68.750673
66.474299
64.024957
61.550522
59.060587
56.741359
54.652
52.940608
51.696561
50.998938
50.884405
51.395168
80.822693
79.339089
77.812097
76.216614
74.546089
72.721693
70.767871
68.659925
66.47545
64.236955
62.09894
60.135418
58.495562
57.266305
56.557501
56.420052
56.894478
57.981811
59.671784
81.215728
79.61432
78.010175
76.346322
74.617617
72.768427
70.837142
68.820647
66.818479
64.906429
63.232954
61.888016
61.006373
60.648902
60.877312
61.713124
63.167765
65.189764
67.695011
81.612729
79.922434
78.253104
76.542755
74.784987
72.958157
71.102323
69.258077
67.531393
66.038737
64.906326
64.230055
64.094472
64.54003
65.58146
67.217672
69.401959
72.038617
74.961913
82.020757
80.27801
78.553388
76.818552
75.065562
73.305461
71.583827
69.984517
68.607711
67.59257
67.031516
67.006697
67.553407
68.68715
70.388834
72.611319
75.238232
78.128255
81.051991
82.440029
80.657401
78.903956
77.176545
75.461017
73.818261
72.287703
70.988432
70.009934
69.494746
69.492091
70.052882
71.1868
72.887771
75.067531
77.626311
80.39648
83.210458
85.859546
82.879837
81.077194
79.310852
77.619399
75.978209
74.497085
73.197959
72.236036
71.678026
71.640648
72.147497
73.223795
74.841484
76.946452
79.376584
82.006751
84.651623
87.198546
89.482809
83.329976
81.526333
79.776068
78.142157
76.611319
75.325796
74.287946
73.679309
73.540187
73.946663
74.906386
76.418196
78.388226
80.710824
83.184788
85.698081
88.083535
90.289688
92.193384
83.799959
82.00184
80.290239
78.730468
77.348795
76.276182
75.52002
75.266217
75.518949
76.314376
77.648135
79.475002
81.627243
83.970912
86.334226
88.622281
90.714083
92.573841
94.128505
84.281165
82.496471
80.847149
79.390895
78.176514
77.321747
76.870868
76.948511
77.548495
78.698283
80.328143
82.343682
84.556721
86.82663
89.009594
91.018325
92.782636
94.291747
95.517438
84.769801
83.006344
81.424388
80.08985
79.063915
78.435128
78.269323
78.640719
79.553301
80.988245
82.801337
84.872579
87.013382
89.10627
91.038922
92.759759
94.251687
95.495442
96.467537
85.258889
83.538384
82.040327
80.826687
79.99489
79.609369
79.719148
80.370416
81.553282
83.170977
85.093311
87.161355
89.192448
91.08861
92.777273
94.235085
95.447161
96.424332
97.173501
85.730763
84.051214
82.64081
81.570214
80.926726
80.72982
81.060396
81.975339
83.375717
85.108927
87.046136
89.012449
90.874119
92.554526
94.015548
95.256887
96.268111
97.058846
97.653682
86.199798
84.574433
83.263192
82.348583
81.904474
81.931761
82.50194
83.634306
85.196092
86.999105
88.910043
90.766399
92.45814
93.921509
95.152218
96.164279
96.976779
97.591218
98.038807
86.611935
85.033294
83.799427
83.011408
82.690747
82.882534
83.698825
85.00768
86.643609
88.446043
90.294403
92.021413
93.529526
94.825169
95.938272
96.825059
97.485006
97.983294
98.369182
87.039718
85.513581
84.392045
83.762344
83.644405
84.075979
85.102431
86.587022
88.316272
90.122203
91.883366
93.437577
94.753301
95.858838
96.736625
97.41202
97.939595
98.344478
98.647057
87.329514
85.837512
84.785399
84.238918
84.215159
84.792831
85.972169
87.531996
89.261013
91.047712
92.728292
94.181974
95.419602
96.460953
97.287719
97.895614
98.352049
98.695827
98.961292
87.661254
86.19194
85.234537
84.8702
85.102414
86.004535
87.467537
89.196804
91.003615
92.737525
94.254521
95.507743
96.523986
97.31623
97.90934
98.337169
98.66401
98.91578
99.101337
87.792047
86.339003
85.451098
85.104535
85.369184
86.331204
87.838569
89.606417
91.428159
93.140245
94.63116
95.887041
96.90255
97.681475
98.242353
98.669928
99.01518
99.278516
99.464556
87.909528
86.422289
85.567873
85.466204
86.214174
87.711034
89.623467
91.608906
93.45677
95.0554
96.344439
97.30989
98.016556
98.51332
98.866016
99.113986
99.285219
99.362381
99.334625
30.124984
21.746698
12.966483
3.7402874
-5.7700605
-15.021886
-24.001376
-31.887071
-39.072857
-44.617627
-47.364675
-48.499054
-47.360602
-44.583005
-41.213358
-37.22323
-33.221428
-29.990099
-28.268907
26.185082
17.742987
8.8438228
-0.39766185
-9.9565697
-19.265751
-28.396433
-36.267885
-42.742466
-47.425827
-49.721623
-50.401463
-49.088336
-46.004641
-41.982925
-37.327365
-32.823718
-29.213224
-26.938914
22.94635
14.901617
6.3616475
-2.7625069
-11.975446
-20.781566
-29.18764
-36.36738
-42.151501
-46.425971
-48.692564
-48.742015
-46.573764
-42.700432
-37.853836
-32.561343
-27.629259
-23.608753
-21.084007
22.863801
15.578576
7.8176236
-0.55584187
-9.245381
-17.214382
-24.584867
-30.950332
-35.74935
-38.876633
-39.990854
-39.024561
-36.352389
-32.258566
-27.104402
-22.211839
-17.574808
-13.302585
-10.641952
26.490354
20.658104
13.971379
6.9033454
-0.54938071
-7.6835079
-13.959648
-19.21665
-22.98723
-25.130255
-25.55381
-24.35573
-21.804253
-18.088555
-13.638622
-8.9693536
-3.8361862
1.2181177
4.3430442
33.350564
29.101174
23.99424
18.373681
12.590964
6.7396915
1.341865
-3.3148616
-6.9045336
-9.1879411
-10.109949
-9.4777666
-7.1514916
-3.0736036
2.0612674
8.1654553
14.773355
20.70691
24.752122
42.099632
39.326345
35.756994
31.806335
27.753176
23.683829
19.703821
16.08626
13.085183
11.170632
10.692703
11.92483
14.882959
19.522026
25.48224
32.259717
39.209102
45.140999
49.34334
51.643838
50.159273
47.817967
45.476607
43.246377
41.182719
39.372677
37.81757
36.672281
36.3979
37.351144
39.622342
43.255829
47.998671
53.561928
59.410391
65.362742
70.324713
74.016276
61.170509
60.719182
59.378337
58.320274
57.609528
57.21986
57.149837
57.429781
58.109441
59.26909
61.055877
63.792811
67.49399
71.931513
76.899818
82.095267
86.929159
91.112005
94.187829
70.007254
70.24855
69.705401
69.591981
69.944077
70.709105
71.747537
73.093355
74.767478
76.967659
79.711533
82.819654
86.427368
90.545287
95.085899
99.670184
104.00767
107.84084
110.82704
77.60747
78.235335
78.228619
78.697039
79.647701
80.987549
82.604721
84.48791
86.664931
89.228399
92.291817
95.762927
99.555063
103.65131
108.01724
112.32603
116.18652
119.19357
121.12341
83.589411
84.422102
84.748706
85.509222
86.735754
88.255075
90.025835
91.997663
94.225663
96.755054
99.598942
102.8046
106.27345
109.90927
113.59166
117.13032
120.13661
122.57119
123.97533
88.101521
89.015892
89.515941
90.38463
91.668184
93.138466
94.824277
96.653968
98.659469
100.88713
103.32323
106.03191
108.905
111.88912
114.88335
117.76595
120.21529
122.08234
123.13891
91.382284
92.292857
92.873022
93.740669
94.929061
96.256813
97.749504
99.339004
101.06449
102.92342
104.91628
107.08154
109.31758
111.61195
113.88254
116.04924
117.88751
119.26197
120.01227
93.743574
94.573703
95.160558
95.960375
97.003506
98.158142
99.406131
100.7273
102.14569
103.62738
105.21126
106.88526
108.57886
110.28452
111.95264
113.53174
114.87923
115.88771
116.41334
95.37234
96.087465
96.622625
97.327548
98.214319
99.181205
100.20147
101.2924
102.43227
103.6009
104.83752
106.1099
107.37929
108.63293
109.83069
110.94896
111.895
112.60384
112.94947
96.454614
97.079833
97.586859
98.178407
98.900611
99.679847
100.4956
101.36323
102.24569
103.15341
104.10017
105.05267
105.99229
106.89685
107.73818
108.5159
109.1611
109.64533
109.86692
97.182006
97.69335
98.133767
98.625528
99.210771
99.833606
100.49149
101.17607
101.85699
102.56223
103.26976
103.97203
104.65883
105.30885
105.91483
106.46955
106.92856
107.27568
107.42213
97.725464
98.12244
98.469555
98.870559
99.335215
99.824042
100.34447
100.87278
101.40017
101.94203
102.47223
103.00735
103.52513
104.01706
104.47164
104.87628
105.21065
105.4671
105.56507
98.078997
98.401169
98.689751
99.013565
99.376969
99.763918
100.16714
100.57189
100.98197
101.396
101.8033
102.21471
102.60444
102.97378
103.30664
103.59614
103.83257
104.01162
104.08629
98.366806
98.612855
98.83124
99.080518
99.362032
99.664713
99.978162
100.2918
100.61208
100.93221
101.24717
101.56132
101.85671
102.13049
102.37654
102.58574
102.7565
102.8853
102.94489
98.652839
98.824995
98.982314
99.176893
99.398087
99.625884
99.860309
100.10193
100.34654
100.58547
100.82317
101.0533
101.26935
101.47152
101.65285
101.80294
101.92425
102.02039
102.06369
98.862272
99.006948
99.125415
99.259439
99.416982
99.591941
99.773507
99.955012
100.1366
100.31834
100.49547
100.65979
100.8182
100.96754
101.09723
101.20548
101.2881
101.35958
101.37892
99.146384
99.229892
99.291536
99.378759
99.489848
99.611102
99.735224
99.864578
99.996248
100.12309
100.24909
100.37038
100.48558
100.59257
100.68723
100.76499
100.81979
100.88311
100.88345
99.232638
99.31593
99.380744
99.453265
99.53866
99.628392
99.722635
99.817652
99.906638
99.994568
100.08669
100.17454
100.25589
100.33131
100.39902
100.45679
100.49626
100.54114
100.53339
99.600043
99.58653
99.572416
99.600511
99.654077
99.716457
99.779837
99.836256
99.88966
99.946314
100.00302
100.05551
100.10426
100.14901
100.1911
100.22757
100.24811
100.28323
100.26427
99.36753
99.470002
99.589244
99.681416
99.746849
99.795824
99.833446
99.864109
99.895214
99.925624
99.951426
99.976396
100.00058
100.02034
100.03869
100.05767
100.06718
100.09214
100.09032
-28.313501
-30.090579
-33.451603
-37.528257
-41.524984
-45.258404
-48.834094
-49.797757
-49.339917
-46.940907
-41.31641
-34.659504
-26.943397
-18.35878
-9.4406384
-0.072528719
9.0446369
17.853739
26.092065
-26.496605
-27.942636
-31.027872
-35.045771
-39.139492
-42.961987
-46.22534
-47.52403
-47.350278
-45.327176
-41.187987
-35.269605
-27.821395
-19.551208
-10.906074
-1.8237543
7.1652875
15.732896
23.637845
-20.280438
-21.343267
-24.072769
-27.719752
-31.745886
-35.871883
-39.201449
-41.38694
-41.802645
-39.983374
-36.570366
-31.604113
-25.177427
-17.823397
-9.8482351
-1.2349497
7.1212905
14.932455
22.194016
-9.6088138
-10.301214
-12.668339
-15.643258
-19.008398
-22.616156
-25.803156
-28.160441
-29.160262
-28.519189
-26.303825
-22.525039
-17.454248
-11.270098
-4.1666507
3.5308776
10.796123
17.626215
23.873708
5.6040224
5.0122579
2.5970709
-0.48151666
-3.4609732
-6.5367706
-9.1544424
-11.351799
-12.5481
-12.754179
-11.387105
-8.5552879
-4.459114
0.79364465
6.7420178
12.819062
18.676523
24.212937
28.953079
26.566322
25.885129
22.882161
18.608705
14.212095
10.332068
6.9462863
4.8765303
4.2286215
4.6594176
6.2808333
8.8161475
12.310184
16.462774
20.803451
25.212455
29.520295
33.528743
36.74497
51.384446
51.187116
48.763507
44.63805
39.665412
34.85954
30.74072
27.701023
25.968836
25.576402
26.472869
28.153755
30.619581
33.197182
35.85789
38.59002
41.341518
44.055949
45.903178
75.933042
76.01312
74.170222
70.887463
66.689509
62.30728
57.912481
54.079079
51.098697
49.290021
48.571232
48.430299
48.828289
49.447178
50.355566
51.537744
53.005028
54.708163
55.421405
96.405563
97.177314
95.809967
93.016842
88.876549
84.46358
80.01207
75.983435
72.539554
69.877036
67.684256
65.961732
64.814807
63.956823
63.489347
63.404383
63.82801
64.660585
64.593779
112.91979
113.46525
112.04571
109.13842
105.21696
100.74942
96.256475
92.092994
88.335378
84.971385
82.034801
79.70053
77.701236
76.007826
74.66468
73.671957
73.32342
73.48252
72.9096
121.97637
121.81639
120.37814
117.75112
114.26794
110.20876
106.0155
101.95592
98.197213
94.806098
91.83811
89.263088
86.980163
84.999451
83.286667
81.880732
81.078604
80.781762
79.865418
124.54691
124.2318
122.92849
120.65122
117.54356
114.00639
110.30825
106.72987
103.38757
100.3482
97.650718
95.22365
93.036217
91.106407
89.364828
87.913252
86.922776
86.278819
85.197643
123.30638
122.95542
121.76639
119.80149
117.23014
114.35371
111.36243
108.46888
105.7265
103.19569
100.8909
98.772582
96.840405
95.081978
93.463501
92.119553
91.103417
90.297315
89.185912
120.10944
119.75335
118.76518
117.19595
115.20302
113.00566
110.73445
108.51679
106.37489
104.35322
102.46347
100.68765
99.054338
97.527058
96.097253
94.898018
93.942592
93.153104
92.149281
116.42241
116.09938
115.30889
114.1076
112.63022
111.00675
109.33654
107.67462
106.03778
104.46435
102.97143
101.54058
100.19935
98.936506
97.732777
96.690352
95.8404
95.11124
94.239805
112.92567
112.67145
112.07165
111.19396
110.1289
108.96204
107.74265
106.50666
105.26429
104.04952
102.88167
101.74549
100.65725
99.62836
98.642994
97.757159
97.023546
96.399659
95.666635
109.83012
109.63388
109.19262
108.58272
107.82968
107.01184
106.13336
105.22314
104.29348
103.36643
102.46759
101.58722
100.73059
99.911578
99.123763
98.398193
97.785965
97.254857
96.628921
107.37342
107.21377
106.87972
106.43842
105.89784
105.30829
104.67437
104.011
103.32716
102.63374
101.94494
101.26618
100.59283
99.942526
99.317239
98.731911
98.229458
97.768609
97.248661
105.49493
105.39237
105.13471
104.80937
104.40983
103.96446
103.4874
102.98109
102.46372
101.94269
101.41245
100.89229
100.37128
99.86031
99.373009
98.908479
98.501404
98.135165
97.728554
104.02618
103.96176
103.77015
103.53431
103.24445
102.9165
102.55908
102.17243
101.77706
101.37576
100.96567
100.56184
100.16239
99.765112
99.380366
99.016969
98.69157
98.39857
98.070986
102.90432
102.85983
102.71582
102.54158
102.33193
102.08657
101.81935
101.52523
101.21259
100.90307
100.59228
100.27516
99.96405
99.653374
99.353568
99.076612
98.827202
98.606795
98.359584
102.05346
102.01368
101.9054
101.77916
101.62827
101.44372
101.24569
101.03258
100.80006
100.56732
100.33121
100.08728
99.849348
99.616442
99.383837
99.159216
98.969429
98.818447
98.641298
101.39697
101.36632
101.28975
101.19959
101.08668
100.95344
100.80674
100.64985
100.48148
100.30633
100.12747
99.944797
99.763474
99.585954
99.413597
99.256572
99.121138
99.001009
98.852692
100.93115
100.89393
100.8387
100.77445
100.69146
100.59389
100.48648
100.36963
100.24668
100.12057
99.99299
99.860091
99.727466
99.601995
99.48206
99.370547
99.284048
99.223821
99.140677
100.58157
100.55079
100.51545
100.46612
100.40498
100.33482
100.25651
100.17317
100.0846
99.993816
99.906405
99.81789
99.724043
99.62897
99.538375
99.450907
99.378776
99.319684
99.238951
100.31942
100.29646
100.26778
100.23759
100.20013
100.15779
100.11162
100.06076
100.00496
99.946731
99.889933
99.836629
99.781173
99.719107
99.658338
99.606214
99.57714
99.586176
99.598403
100.12267
100.09141
100.07862
100.06796
100.05292
100.03701
100.02171
100.00304
99.982399
99.958333
99.927499
99.894569
99.860983
99.821034
99.769797
99.703579
99.613388
99.498792
99.391359
33.265471
39.496342
44.85003
49.463124
53.403045
56.745362
59.572703
61.942646
63.937888
65.628015
67.078272
68.310936
69.383037
70.310189
71.127495
71.860138
72.548147
73.223088
73.906464
30.770516
37.040029
42.4231
47.164089
51.276457
54.82865
57.907007
60.544792
62.792022
64.740647
66.413874
67.866201
69.140333
70.225945
71.195846
72.047175
72.843382
73.60387
74.372077
28.826457
34.61943
39.909192
44.700296
48.89997
52.669147
56.002571
58.897904
61.447962
63.663731
65.592567
67.280425
68.735034
70.008737
71.126069
72.121047
73.049118
73.926239
74.808095
29.301733
34.168713
38.916409
43.304861
47.366392
51.143758
54.525046
57.583183
60.316203
62.723386
64.857303
66.715829
68.347988
69.784483
71.051448
72.194632
73.245438
74.250925
75.24608
32.789711
36.240391
39.846029
43.394423
47.003569
50.444146
53.686787
56.727756
59.493252
62.012369
64.264602
66.260212
68.038901
69.608866
71.016012
72.283558
73.454069
74.583709
75.693777
38.860886
40.584799
42.711974
45.166624
47.908049
50.716426
53.608889
56.393326
59.061099
61.570519
63.858494
65.943777
67.814501
69.498553
71.015354
72.402473
73.690218
74.930145
76.157346
46.31676
46.470323
47.182551
48.394415
50.04934
52.039116
54.307556
56.65495
59.081219
61.431808
63.68445
65.778078
67.699543
69.460108
71.069069
72.556936
73.951878
75.290698
76.627483
54.426978
53.282547
52.718413
52.724859
53.289546
54.334055
55.806952
57.576323
59.581156
61.655015
63.767794
65.788904
67.724882
69.513486
71.187387
72.744782
74.239875
75.673397
77.112617
62.604627
60.458657
58.845389
57.804138
57.346702
57.44588
58.082889
59.158754
60.608036
62.292459
64.145827
66.020799
67.893021
69.668498
71.374502
72.981923
74.558966
76.080963
77.614722
70.29029
67.512477
65.130517
63.251611
61.933537
61.183213
61.003571
61.350055
62.171766
63.371017
64.864887
66.509792
68.23593
69.954048
71.65177
73.286508
74.911033
76.509008
78.128161
77.086089
74.058373
71.221608
68.751964
66.754252
65.287277
64.383416
64.033115
64.21344
64.870976
65.928551
67.267858
68.78431
70.389723
72.029648
73.662085
75.303985
76.959039
78.653883
82.687868
79.773919
76.804116
74.020903
71.556197
69.534428
68.021978
67.055174
66.634083
66.740342
67.320296
68.294325
69.543583
70.983143
72.523011
74.120463
75.759024
77.445316
79.19267
87.052861
84.47086
81.655027
78.832803
76.131489
73.737042
71.74589
70.263861
69.313027
68.897911
68.99567
69.569582
70.506953
71.730948
73.128607
74.662157
76.274762
77.964841
79.735134
90.349038
88.126656
85.614992
82.975283
80.2833
77.7276
75.419326
73.52826
72.119631
71.242668
70.892786
71.058002
71.654349
72.630339
73.848921
75.280478
76.843185
78.527113
80.298772
92.777502
90.941574
88.788124
86.429716
83.908673
81.371013
78.920387
76.750295
74.972706
73.694269
72.937784
72.707522
72.95792
73.663452
74.672355
75.976198
77.460304
79.115806
80.874485
94.489089
92.996765
91.198347
89.153497
86.885287
84.501616
82.081355
79.792121
77.761592
76.163297
75.055715
74.46272
74.376411
74.799692
75.587225
76.735443
78.121126
79.725654
81.463924
95.727098
94.543086
93.075047
91.351999
89.380552
87.211912
84.915487
82.62136
80.457294
78.614017
77.191365
76.282747
75.888338
76.01428
76.576808
77.551748
78.820057
80.344852
82.062466
96.563606
95.635253
94.438296
92.984017
91.286081
89.364513
87.255256
85.062301
82.893992
80.917527
79.266794
78.079707
77.413777
77.275786
77.613189
78.391285
79.530136
80.974644
82.662272
97.198411
96.478438
95.529821
94.346454
92.915038
91.244524
89.357358
87.295889
85.160956
83.116182
81.315448
79.899599
78.97829
78.584556
78.68183
79.258836
80.269766
81.618313
83.25563
97.641735
97.066596
96.300422
95.309635
94.09029
92.634524
90.947716
89.066485
87.052542
85.026879
83.151291
81.552528
80.395475
79.798714
79.72212
80.11844
80.985054
82.235275
83.822804
98.026586
97.578834
96.966738
96.164406
95.159836
93.944948
92.491822
90.788893
88.896475
86.918963
84.996986
83.272526
81.919064
81.09835
80.815673
81.011633
81.71368
82.857367
84.379939
98.351769
97.972449
97.476957
96.814893
95.930099
94.810897
93.50579
91.983349
90.224435
88.321739
86.429392
84.654839
83.1612
82.122593
81.673298
81.749508
82.333382
83.401245
84.868375
98.629558
98.330332
97.925752
97.397211
96.718298
95.838875
94.730475
93.400799
91.822078
90.016089
88.131606
86.283409
84.630471
83.39159
82.726089
82.60875
83.022049
83.962689
85.368451
98.944007
98.68492
98.340328
97.877767
97.264311
96.430712
95.384181
94.115795
92.630118
90.908157
89.053496
87.223115
85.520063
84.150822
83.346662
83.130846
83.466692
84.348403
85.713741
99.095928
98.90857
98.657129
98.328597
97.896537
97.295995
96.487287
95.468181
94.187494
92.62729
90.835455
88.9386
87.083877
85.447645
84.326057
83.860006
84.004971
84.767847
86.096909
99.454446
99.264886
99.00285
98.654086
98.2205
97.651735
96.86513
95.840418
94.563995
93.032434
91.260236
89.354046
87.466508
85.798259
84.625334
84.119086
84.238356
84.952232
86.262224
99.346135
99.367275
99.285443
99.111291
98.863917
98.504492
97.99649
97.278649
96.307118
94.994242
93.348356
91.427948
89.343091
87.290556
85.593257
84.590314
84.447012
85.084835
86.404444
74.616432
75.383882
76.233547
77.174717
78.202967
79.301215
80.49391
81.795398
83.203167
84.705684
86.305664
87.9862
89.741015
91.555849
93.417358
95.32742
97.26675
99.226654
101.18905
75.15326
75.978096
76.881461
77.869543
78.947144
80.11036
81.35997
82.698049
84.124812
85.634662
87.224912
88.88752
90.607144
92.374862
94.16618
95.986156
97.825671
99.665666
101.49955
75.676909
76.564698
77.525083
78.565335
79.690908
80.900117
82.190987
83.564567
85.016168
86.537416
88.118197
89.758883
91.4411
93.155203
94.879239
96.598061
98.327327
100.0476
101.75417
76.206606
77.154017
78.169824
79.262056
80.433307
81.682708
83.008346
84.406295
85.876148
87.406233
88.978589
90.590002
92.227839
93.881146
95.536409
97.162321
98.769579
100.36266
101.94018
76.743295
77.748307
78.816257
79.954703
81.169106
82.453926
83.805983
85.221972
86.696051
88.223896
89.784082
91.364969
92.950234
94.531843
96.107897
97.654301
99.155644
100.62569
102.07171
77.287344
78.349384
79.464494
80.645876
81.895102
83.214747
84.585713
86.012945
87.486258
89.00012
90.54173
92.083603
93.614913
95.117816
96.599498
98.057219
99.472346
100.84642
102.17134
77.836594
78.950202
80.10943
81.328511
82.603503
83.940874
85.335901
86.766267
88.239438
89.73224
91.243015
92.740758
94.210094
95.642777
97.026058
98.381328
99.695741
100.97997
102.21908
78.398148
79.551828
80.754044
82.002114
83.309987
84.654586
86.060544
87.488051
88.949638
90.424833
91.888012
93.340319
94.743557
96.106231
97.41179
98.671631
99.884619
101.06193
102.20508
78.964213
80.150895
81.388318
82.659155
83.987404
85.349983
86.747548
88.181117
89.618361
91.069244
92.484276
93.87734
95.21419
96.497947
97.729436
98.908642
100.03963
101.1212
102.16196
79.535397
80.755069
82.014822
83.310825
84.646946
86.026034
87.417573
88.836616
90.250317
91.658202
93.027347
94.358452
95.630043
96.841271
97.995697
99.096194
100.14242
101.13795
102.08725
80.115229
81.362536
82.638245
83.94994
85.290337
86.664981
88.050821
89.447046
90.831959
92.197911
93.520292
94.793531
96.003905
97.148625
98.229381
99.248932
100.20645
101.11667
101.98445
80.699127
81.958591
83.247708
84.567385
85.913046
87.276258
88.648079
90.024634
91.377228
92.699811
93.97134
95.181752
96.328354
97.40605
98.410929
99.350327
100.23407
101.07063
101.86815
81.279979
82.552857
83.847681
85.169607
86.515306
87.867708
89.224785
90.570706
91.883925
93.153686
94.373187
95.528427
96.615613
97.628704
98.566778
99.438367
100.25513
101.02233
101.74934
81.871197
83.145228
84.443779
85.759852
87.094094
88.433224
89.766858
91.073339
92.344783
93.569072
94.740796
95.843987
96.872711
97.823574
98.697626
99.503713
100.25533
100.95279
101.60712
82.460559
83.722923
85.017208
86.323656
87.6462
88.964639
90.269968
91.537708
92.775216
93.958451
95.079866
96.126856
97.095522
97.986153
98.80217
99.548146
100.23969
100.87733
101.47966
83.047857
84.299496
85.584403
86.878076
88.18528
89.479757
90.759876
91.999905
93.188254
94.315421
95.381082
96.370433
97.289246
98.129029
98.896231
99.592993
100.23569
100.81829
101.3673
83.628071
84.864054
86.136197
87.4122
88.694518
89.962545
91.208546
92.40456
93.546296
94.628208
95.656055
96.598954
97.467959
98.265917
98.98725
99.635277
100.22403
100.75851
101.2614
84.204884
85.418924
86.668958
87.92718
89.182524
90.423724
91.631736
92.791119
93.899707
94.940644
95.922853
96.825474
97.641564
98.388402
99.06971
99.676271
100.21967
100.70935
101.16703
84.766074
85.953054
87.177417
88.413938
89.642608
90.856406
92.031358
93.161752
94.236066
95.234444
96.163129
97.01753
97.795089
98.503742
99.154121
99.734877
100.24409
100.70282
101.12561
85.302765
86.468543
87.664949
88.878766
90.084161
91.272851
92.424465
93.515902
94.541192
95.499792
96.393728
97.216252
97.968945
98.654277
99.265501
99.806545
100.28264
100.70556
101.08222
85.829081
86.966478
88.132562
89.320088