/*--------------------------------*- C++ -*----------------------------------*\
  =========                 |
  \\      /  F ield         | OpenFOAM: The Open Source CFD Toolbox
   \\    /   O peration     | Website:  https://openfoam.org
    \\  /    A nd           | Version:  11
     \\/     M anipulation  |
\*---------------------------------------------------------------------------*/
FoamFile
{
    format      ascii;
    class       volScalarField;
    location    "0.024";
    object      p;
}
// * * * * * * * * * * * * * * * * * * * * * * * * * * * * * * * * * * * * * //

dimensions      [0 2 -2 0 0 0 0];

internalField   nonuniform List<scalar> 
880
(
80
80
80
79.99999998688271
80
80
79.99999999999991
79.99999998165697
80
79.99999999999999
80
79.99999822851069
80
80
80
80.00000208423667
80
80.00000000000001
79.99999999999994
80
79.99999999999999
80
79.99999999999983
80
80
80.00000000000045
80.00000016251335
79.99999808654412
80.01190699187737
80.04724928163152
80.06115957357409
80.05628354496646
80.00000000000136
79.9999999999966
79.99999999999369
80
80.00000000433671
80.00000000524966
80.00000000584056
80.00000000099695
80.00001959652511
80.00002177271332
80.00002306050636
80.00001054103997
80.06212766140271
80.06843457924593
80.07030811901845
80.05794713376753
80.12207119399329
80.05231128621364
80.00767417757459
80.00024761299058
80.00009015147396
80.00004730712838
80.0000085908537
80.00000036530029
80.00000003766297
80.00000002163739
80.0000000040951
80.00000000009409
80.0000000001678
80.00000000013395
79.99999999999818
80
79.99999999999996
79.99999999999997
80
80.00000000000001
80
80.00000000000001
80.00000000000001
80.00000000000001
79.99999999963838
79.99999999967643
79.99999999994412
80
79.99999725257679
79.9999992216443
79.99999996012149
79.99999999980807
79.99999999995174
80
79.99999999999999
80
79.99999992144566
79.99999999915006
80
79.99999999999999
80.00007239240912
80.00000082503735
80.00000000025923
79.99999999999999
79.91711998525055
79.99993716743867
79.99999997400781
79.99999999999999
79.99999999999991
80.00000000004459
80.00000158911141
80.01447459033939
80
80.00000000244809
80.00001494954479
80.09202737142867
80
80.00000000311441
80.00001825611626
80.10422842989787
80
80.00000000369579
80.000020788803
80.10864119936807
80.11393328055192
80.00002391767879
80.0000000046132
80.00000000000193
80.11999346719504
80.00002775798791
80.00000000574418
79.99999999999734
80.12645923211551
80.00003233319983
80.00000000718953
79.99999999999956
80.13805105993232
80.00003977719588
80.00000000971262
80.00000000001521
79.99999999999993
80.00000000490857
80.00002219648329
80.09280750566407
80.00000000000036
80.0000000043986
80.00001823314278
80.06780114321796
80.00000000449246
80.00000000421647
80.0000159287828
80.05140674067474
79.9999999775083
80.00000001253889
80.00000892349536
80.01889162880812
80.00000013312857
79.99998713387748
79.98925620781399
79.16766895665516
80.00000012850251
79.99997897348251
79.97575943055723
75.63767223575972
80.00000009829193
79.9999811713236
79.9736197184706
74.04839624240051
80.0000000756939
79.99998683421551
79.97540261999622
73.69290048215544
75.38049816187872
79.98540011356579
79.99998854708679
80.0000000522254
75.57509698388692
79.98749784011123
79.99999143170581
80.00000004825213
75.99594249367586
79.99025509255789
79.99999397583819
80.00000004239378
74.92949924584066
79.98743415106981
79.99999224416548
80.00000002355092
79.17570193135356
79.99900274598934
79.9999995344034
80.00000000357979
79.97436831522165
79.99998723226926
80.00000001497131
80.00000000043265
79.99764075355012
79.99999730997837
79.99999999942791
80
79.97928245862099
79.999974065598
79.99999998378813
79.99999999996005
79.86727605728198
79.99983593967465
80.00000195881334
80.00000002684409
79.8672963958025
79.99983464858587
80.00000194175691
80.00000002698329
79.86676427654785
79.999821325876
80.00000173532763
80.00000002637796
79.86613099885213
79.99979185481855
80.0000012499578
80.00000002368438
79.97928245848448
79.99997406549076
79.99999998365418
79.99999999996177
79.99764075336623
79.99999730986362
79.99999999916307
79.99999999999993
79.97436831515681
79.99998723228616
80.00000001496892
80.00000000044892
79.17570193157808
79.99900274626435
79.99999953441338
80.00000000351562
80.00000005241249
79.99998854738807
79.98540011369671
75.38049816196711
80.00000004836198
79.99999143175812
79.98749784023275
75.57509698389082
80.00000004223307
79.99999397601174
79.99025509256175
75.99594249400047
80.00000002358236
79.99999224421261
79.98743415135424
74.92949924565019
73.6929004818992
79.97540261983809
79.99998683411508
80.00000007565282
74.04839624212653
79.97361971829766
79.99998117102074
80.0000000980214
75.63767223566374
79.97575943030863
79.99997897347221
80.00000012826817
79.16766895673034
79.98925620772319
79.9999871337729
80.00000013345115
79.9999999999999
80.00000000501653
80.00002219661033
80.09280750589799
79.99999999999989
80.00000000443387
80.00001823314459
80.06780114315869
80.00000000462693
80.0000000041948
80.00001592864459
80.05140674064269
79.99999997774179
80.00000001252964
80.00000892338633
80.0188916288068
80.13805106038062
80.00003977702754
80.0000000098607
80.00000000000381
80.12645923247923
80.00003233345961
80.00000000723344
79.99999999999555
80.11999346715896
80.00002775827923
80.00000000585133
79.99999999999919
80.113933280739
80.00002391749041
80.00000000462308
80.00000000000011
80
80.00000000010979
80.00000158909195
80.01447458998526
80
80.00000000237021
80.00001494963757
80.0920273714527
80
80.00000000311954
80.00001825615793
80.10422843007018
79.99999999999999
80.00000000372702
80.00002078865599
80.10864119941036
80
80
80
80
79.99999997381022
80.00000000026294
79.99999999999942
80.00000000000001
79.99993716747986
80.00000082519641
79.99999999906967
80
79.91711998525744
80.0000723924164
79.9999999214577
79.999999999954
79.99999999999991
80
79.99999999999989
79.99999999983494
80
79.99999999999999
79.99999999998528
79.99999996012137
79.99999999999999
80
79.99999999962442
79.99999922165901
80
79.99999999999999
79.99999999973453
79.99999725254517
80.00000000012302
80.0000000374668
80.00009015131162
80.12207119394483
80.00000000002257
80.00000002167464
80.00004730714139
80.05231128600219
79.99999999999999
80.00000000429687
80.00000859077805
80.0076741775526
80
80.00000000010363
80.00000036532481
80.00024761282917
80.05794713385843
80.00001054130196
80.00000000094606
79.99999999999999
80.07030811893034
80.00002306094048
80.00000000580779
79.9999999999942
80.06843457951008
80.00002177291462
80.00000000527345
79.99999999999635
80.06212766133157
80.00001959596757
80.00000000429401
80.00000000000132
80.056283545111
79.99999808657461
80
80
80.06115957349286
80.00000016228691
80
79.99999999999999
80.0472492817763
79.99999999999997
80
79.99999999999999
80.01190699184325
80
80
79.99999999999989
80
79.99999999999997
80
79.99999998780716
80.00000000000003
80.00000000000001
79.99999999999999
79.99999998178322
80
80
80
79.99999822846752
80
80
79.99999999999989
80.00000208412632
79.99999894412953
79.99998058340084
79.99970328272146
80.00329235928652
79.99998058334296
79.99982417113984
79.99461102608653
79.96505866419166
79.99970328271935
79.99461102613751
80.00125909551613
80.95237468201887
80.00329235938518
79.96505866424164
80.95237468210769
92.19487102467383
123.4500415390585
96.92530872489712
87.79251958039555
81.12418119093563
135.1697161112162
114.0714027878659
103.5024729573564
85.3811598722711
139.0426165603319
119.8784491660688
109.9270083821801
87.69251079437436
139.745213008497
120.5759399606135
110.506161931431
87.77615175785957
88.51035056801913
88.98151942247887
89.07081329645018
88.87103958051735
111.5409633066759
112.1597988610171
112.3047974250443
116.1870662953949
121.1022720424913
121.3432712530804
121.4503255032436
128.6355712147026
140.5699371197572
140.6647359773772
140.7362490138695
151.7263052168758
87.83308708351865
82.21981945192906
80.19979180571057
80.00298394024036
97.59526031135752
83.35583114414017
80.22820665037528
79.99638925165608
94.25914135391028
82.24913548625949
80.08251490221191
79.98891690934497
80.43281283078817
79.29860274274469
79.87638638753991
79.96549728103081
79.99967004185081
79.99995738671582
79.99999898648821
80.00000000063822
79.99935227126784
79.99998284428295
79.99999992019241
80.00000001498023
79.9991815529031
79.99999736362396
80.00000002699322
80.00000001764261
79.99589280315128
79.99988623765843
79.99999956332159
80.00000001314244
80.00000000064648
80.00000000170786
80.0000015005398
74.98607951889394
80.00000000457408
80.00000000053687
80.0000005354144
69.16140024969474
80.00000000702603
80.00000000056889
80.00000004857148
69.49708605711731
80.00000000905261
80.00000000082792
80.00000000689391
87.61859708314687
88.76869849511802
105.9405482072028
107.5531246250394
107.4642340846697
146.2962165965778
185.7150860612566
188.0777546748247
187.870833026003
187.2688435584888
215.0428840109229
216.941557031818
216.8058119767443
223.6140182187265
253.3818131294218
256.0969819967377
256.0560170528045
107.4365245377403
107.4463677617642
107.4596838704133
107.8607468394595
187.7759900738801
187.7756876190053
187.7854125706181
187.9498383860187
216.7134140357778
216.7008724605906
216.6998838471637
216.6066135003412
255.9092846456162
255.8752279746154
255.8732815108452
255.7109669876786
100.6520713614966
96.1443637053637
92.7229517179116
85.10734898162964
179.1532241903005
172.06945902972
164.858020404425
142.3097084576793
212.8980812497977
209.611537299872
204.5115680634366
198.3135467677237
254.3816455520303
255.1887975302724
251.2890124182726
264.3292874670986
74.6222340484203
41.98202910406768
19.97917446549893
18.56453808073965
71.41644885101867
28.95163222211119
11.1101987743828
9.666530760788962
66.66237010772828
16.07692787837427
6.023936517841042
5.291180436441063
45.89077441912285
5.968351650428668
2.868827628532077
2.642400594466638
18.21616224901236
18.37126081854163
18.37267797373484
13.45602052399807
9.73230359742535
9.7854361390247
10.34225354884334
8.644176472756916
4.975821026876088
4.997092169181424
5.656027461326947
6.623239341441119
2.354763487971902
2.33512599583257
2.822545791801319
4.018780419660411
56.50618021463166
77.99243823845083
79.78765572789025
78.2766712020365
41.49816114851465
72.66812784865567
78.54166469715109
76.41279378285141
33.56450015184674
65.29497086927896
74.7790099188785
76.05086991230222
23.48409078284919
56.19836920000506
70.29910121853435
72.0339536318664
77.08594015676532
72.15220397893705
66.13750854582487
63.67105688878333
65.06774820832958
53.57329226717539
40.25867061543127
33.55023883833039
43.83693357302212
33.32260135678726
20.78574295185702
12.41378376125482
25.74133820128878
15.28082878995341
10.36214943654221
4.577084387560758
3.511154307786272
3.454870924094673
3.384714010590185
3.332546064969586
10.88439712581236
10.59833830879771
10.27612361904595
10.08392119325797
31.95606584098887
31.6974002349735
31.39030895993615
31.20903905529001
62.30616031114027
62.16326118864021
62.05118944622451
62.00502491857203
3.332546064970427
10.08392119325981
31.20903905534639
62.00502491930013
3.384714010594669
10.27612361907572
31.39030895992113
62.05118944621542
3.454870924091592
10.59833830881358
31.69740023495198
62.16326118860876
3.511154307797174
10.88439712580785
31.95606584093975
62.30616031104622
63.67105688871396
66.13750854573338
72.15220397878937
77.0859401565198
33.55023883824948
40.25867061546713
53.57329226730609
65.06774820823001
12.41378376126946
20.78574295188581
33.32260135678175
43.83693357299968
4.577084387567621
10.36214943654576
15.28082878995522
25.7413382012834
72.03395363180967
70.29910121840959
56.1983692000346
23.48409078284039
76.0508699122512
74.77900991882788
65.29497086927941
33.56450015184681
76.41279378283217
78.54166469697607
72.66812784860926
41.49816114854681
78.27667120197695
79.78765572777921
77.99243823840874
56.50618021469575
13.45602052397653
18.37267797370596
18.37126081850657
18.21616224894134
8.644176472754097
10.34225354883784
9.78543613904723
9.732303597436394
6.623239341472416
5.656027461337223
4.997092169203899
4.975821026897647
4.018780419665733
2.822545791808928
2.3351259958367
2.354763487982733
18.56453808060713
19.97917446548341
41.98202910402762
74.62223404841137
9.666530760818985
11.11019877437516
28.95163222201582
71.416448850826
5.291180436474214
6.023936517823453
16.07692787835287
66.66237010757764
2.64240059449478
2.868827628507675
5.968351650394021
45.89077441905178
85.10734898156548
92.72295171795669
96.14436370524746
100.6520713614736
142.3097084572481
164.8580204043479
172.0694590296461
179.1532241902443
198.3135467674572
204.5115680633453
209.6115372998737
212.8980812497163
264.3292874669908
251.2890124182312
255.1887975302784
254.3816455520731
107.8607468393118
107.4596838706193
107.4463677617885
107.4365245377249
187.949838385741
187.7854125707614
187.7756876190945
187.7759900738485
216.6066135000111
216.6998838472071
216.7008724606041
216.7134140357089
255.7109669874388
255.873281510871
255.87522797458
255.9092846456102
107.464234084508
107.5531246252603
105.940548207043
88.76869849531889
187.870833025866
188.0777546750376
185.7150860609888
146.2962165968891
216.8058119766385
216.9415570319348
215.0428840107666
187.2688435586351
256.0560170527212
256.0969819968201
253.3818131292799
223.6140182187436
74.98607951887969
80.00000150053323
80.00000000169987
80.00000000064595
69.16140024971557
80.00000053541156
80.00000000053427
80.00000000457344
69.49708605714511
80.0000000485723
80.00000000056902
80.00000000702586
87.618597083202
80.00000000689411
80.00000000082821
80.00000000905135
80.00000000064328
79.99999898653419
79.99995738671964
79.99967004187164
80.00000001498086
79.99999992023932
79.99998284429068
79.99935227125562
80.00000001763701
80.00000002704704
79.99999736362703
79.99918155287573
80.00000001313818
79.99999956335397
79.99988623766104
79.99589280312611
80.00298394017912
80.1997918056969
82.21981945183778
87.83308708345328
79.99638925162878
80.22820665037234
83.35583114409526
97.59526031133043
79.98891690932722
80.08251490221161
82.24913548623049
94.25914135391564
79.9654972809863
79.87638638754466
79.29860274272191
80.43281283079395
88.8710395804838
89.0708132963598
88.98151942244114
88.51035056816303
116.1870662951435
112.3047974249203
112.1597988609168
111.5409633068315
128.6355712145083
121.450325503107
121.3432712528019
121.1022720425959
151.7263052167461
140.7362490137207
140.6647359770884
140.5699371198808
87.77615175788738
87.69251079423317
85.3811598723877
81.12418119103728
110.5061619313434
109.9270083819158
103.5024729573659
87.7925195803987
120.5759399606639
119.8784491657515
114.0714027877991
96.92530872481875
139.7452130086121
139.0426165601807
135.1697161111953
123.4500415391039
79.96772822638206
79.99995320242324
80.00000020006728
80.00000000507747
79.90444158548958
79.99985743390037
80.00000061683572
80.00000001546482
79.83034810450711
79.99973175473552
80.00000061237007
80.00000001875291
79.79950403578219
79.99969742782744
80.00000079570599
80.00000002217178
80.00000002691401
80.00000195874374
79.99983593972971
79.86727605730246
80.00000002702727
80.00000194190386
79.99983464834747
79.86729639591383
80.00000002632574
80.00000173547406
79.99982132590985
79.86676427629166
80.00000002350272
80.00000125012129
79.99979185421667
79.86613099884561
80.00000002214882
80.00000001873164
80.00000001526806
80.00000000485331
80.00000079574501
80.0000006123695
80.00000061677497
80.00000019989007
79.99969742801025
79.99973175444397
79.99985743420312
79.99995320223283
79.79950403557216
79.8303481042238
79.90444158558941
79.96772822643236
)
;

boundaryField
{
    back
    {
        type            empty;
    }
    inlet
    {
        type            zeroGradient;
    }
    front
    {
        type            empty;
    }
    top
    {
        type            zeroGradient;
    }
    outlet
    {
        type            fixedValue;
        value           uniform 80;
    }
    bottom
    {
        type            zeroGradient;
    }
    wall
    {
        type            zeroGradient;
    }
}


// ************************************************************************* //
