/*--------------------------------*- C++ -*----------------------------------*\
  =========                 |
  \\      /  F ield         | OpenFOAM: The Open Source CFD Toolbox
   \\    /   O peration     | Website:  https://openfoam.org
    \\  /    A nd           | Version:  11
     \\/     M anipulation  |
\*---------------------------------------------------------------------------*/
FoamFile
{
    format      ascii;
    class       surfaceScalarField;
    location    "0.355";
    object      phi;
}
// * * * * * * * * * * * * * * * * * * * * * * * * * * * * * * * * * * * * * //

dimensions      [0 3 -1 0 0 0 0];

internalField   nonuniform List<scalar> 
1652
(
1.706212168242976
0.5337381654483704
-1.414424133372449e-13
1.172474003650049
0.5337381592410195
9.534595335480844e-13
0.6387446572002007
0.5335625685784162
5.300204719560497e-13
0.529167582014207
-9.811262913217433e-12
0.105704879962168
1.706212168247462
1.067476330878974
1.172474005529683
1.067476305741551
0.6387511167385719
1.067119137502302
1.053463565819618
0.1084857469710135
1.706212168245027
1.601214496300182
1.172474012770622
1.601214396554521
0.6388062280615985
1.600497468737478
1.575002740078905
0.108914441009158
1.706212168314664
2.134952661525622
1.172474040867211
2.134952259447383
0.6388917191803445
2.133533429167165
2.097235702395901
0.1052750944148443
2.651191214870773
1.723711780184487
3.167429764455649
1.723711778943533
3.683668117164089
1.723711845773751
1.723712851882188
4.199907102843992
2.651189557052759
1.207473388866927
3.167421486388075
1.207473157551551
3.6836480422131
1.207475836143011
1.207510731602679
4.199823671542728
2.649623338859132
0.6900208111618094
3.166087961172595
0.6888709340623955
3.682748591611908
0.6873443958466414
0.6887505617885084
4.194627167138233
2.650504424681729
0.1170314585590677
3.273366833009456
0.04183533525682659
3.912113361277334
0.01830639676419349
4.553309304362372
0.01132414683519528
4.164891993214703
0.03501571067853571
4.129864025724619
0.03500272676870364
4.094850199322326
0.03485975340543346
0.03478564152823527
4.059719686956465
4.164995117401872
0.06971733134279201
4.130356463289573
0.06895833428283649
4.09632292889116
0.06755448152974503
0.06576237604412172
4.062483893463919
4.174699140655931
0.0826072918604549
4.159932311628124
0.07438214034187124
4.152376822483026
0.06191113687749233
0.05345508969504986
4.147035253169165
4.601772569291892
0.006256264474397866
4.646346956747593
0.005303711748341378
4.67972565743962
0.006591755715773528
4.712206377481308
0.007744501819698879
4.669988055963623
0.1040839920619511
-0.06869411955130994
4.585756122351771
0.1011446071262974
-0.01836395288515161
4.504806800893059
0.09627446183280447
-0.008925155647616562
0.0876575656581875
4.432431314993746
-0.00680405873556833
4.218991865609603
0.01339473900633698
4.274090641247812
0.02612327455098262
4.313330505216327
0.03693599108004797
0.04506219532960398
4.337213311413208
4.068682054867033
0.001051555815460459
4.080954194930608
0.002910570851495708
4.098266123589529
0.00559047243671329
0.009845262889209394
4.11763131182271
4.059579409459391
4.059943865611153
4.06124552381734
4.06437360243244
4.069621559627216
-0.01536932180165573
4.077325094466477
-0.02143041898954934
4.086891159317806
-0.0277084675951087
-0.03160966744241944
4.095458121333539
4.13787902302952
-0.05329865727687583
4.157767834811867
-0.05948232940728326
4.175927335771336
-0.06267311164245287
-0.06094379454498172
4.189863711866519
4.346729625328157
-0.07836088355314774
4.345640471485214
-0.06810565701882271
4.333784164985046
-0.05385997826503108
-0.04770027930185866
4.319658151023043
4.36651204010562
-0.007562518252481581
4.318272718288886
-0.005995519705948027
4.275693422812727
-0.003749853298214645
4.247596120249029
-0.002977356841549733
0.04237268540576927
4.231377700944644
-0.015318223246582
0.05705562883716664
4.309393834474855
0.03382564244348407
4.198851398245308
4.099509195886839
0.03965846338052093
4.257662790751398
-0.1409694356701501
0.046776286968776
4.302818814410535
0.03298008751322679
4.205233132033877
4.10006884215059
0.07380942041179511
4.004729780485897
-0.1436423596325808
0.04470949192001766
4.309881805994043
0.02743307404003825
4.209559481875547
4.095258530056991
0.1697113563287502
3.702183427330579
-0.04335572504874186
0.06408984281676194
4.317832417306769
0.02716223194019685
4.22334047423208
4.095772503046036
0.07116382331149551
3.975806910478034
0.1261293096684854
4.127454230825323
0.08357622612566107
4.220164558205731
3.577532860317028
0.1482876346569708
0.06767978996067392
3.874769095720513
0.09358832718622395
4.037064059239048
0.01266286534705008
4.101307642630597
3.450477318637364
0.1119643011487608
0.05525597517240999
3.783452174810315
0.0258399963478313
3.948600616988927
-0.06547109118227923
3.9450463626024
3.345830714016583
0.05856616398544445
0.02594982745891616
3.703470268227969
-0.07909383653277646
3.85409319763827
-0.1174585952038525
3.753661533371817
3.246384323137461
0.02676534782881346
0.1420558151136484
3.159068489762944
0.004633886187013547
0.181179026969926
3.589957245789471
0.02677025154952639
3.730047408931538
3.638844312579572
0.1502157648948174
3.080385066306715
-0.005262302778799355
0.2520754923808223
3.480287359881339
0.09359921453457165
3.584853990267119
3.587422261771296
0.1422035274005554
2.995530902161559
0.001534382713421656
0.2930720102778049
3.339343893946102
0.1804785820505806
3.446788021145924
3.549729565689369
0.112442444082743
2.886931817173494
0.0156706799766827
0.2678498481112173
3.213963750327468
0.2412498825019329
3.311824341523696
3.505614641000465
-0.220049343875738
3.456047941639355
-0.1879894694493273
3.229353113945368
-0.04805387446056331
3.105103208060268
2.784447187936615
0.04402982383931131
-0.1618708407356746
3.393370732033629
-0.1276029319767678
3.136608148463094
0.002420268928387981
3.006269670939311
2.703728627160694
0.06632715141399026
-0.1035032914823526
3.318732348172714
-0.05445769180448923
3.054479275143049
0.06942487062574421
2.915053389833931
2.639209645568835
0.1228040803324019
-0.03787732338168337
3.213325849279344
0.03330260480122071
2.962337968403154
0.1566246281477049
2.822937423694242
2.569705439808997
0.2302565024092802
-0.3481741170681526
3.442267540342999
-0.5765610560809048
3.18058022283466
-0.7154484221047815
3.002968290390812
2.634652252196815
-0.7688124964698925
-0.3026714900745323
3.6461120689484
-0.525506156432211
3.401523121661994
-0.629095923569324
3.182934345670283
2.284348264387548
-0.2635124021367987
-0.2753891892787153
3.829983633792081
-0.4822385337791012
3.6148010993451
-0.5144803109367345
3.341861598729692
1.795895055522269
-0.03022854890671661
-0.2457461839199813
3.996457356205486
-0.4404682379974788
3.821519097247356
-0.3597231535815857
3.452302344402547
1.46507293265754
-0.01268495923355803
0.1637330191976144
1.502342070523927
-0.01034602089233527
0.208189467208609
3.54384622435022
0.1165128539158759
3.932609961303703
4.049092079302123
0.1668846611910237
1.451201072858965
-0.007632867526759683
0.1883019168754839
3.639587289380821
0.09541633907785213
4.045770826837916
4.094188984953326
0.1504661217444792
1.342394851409462
-0.003228377933620279
0.1692349487567876
3.737652033526637
0.09032538121954981
4.155655384282538
4.135954083994141
0.1197360684658135
1.251018125523483
0.002489253014855326
0.1507508834843889
3.830355681677766
0.08988968687327559
4.252399713145305
4.184009955684941
-0.2391877834133341
1.582264805389865
-0.01541377067180014
-0.182593429424535
3.98897712017381
-0.04432601617793863
4.190324254479073
4.092469337611734
-0.2665479628285556
1.951518132128544
0.007445421000022365
-0.1746622151490587
4.068523973660119
-0.03033382009013352
4.106879772595203
4.059505084703498
-0.2637350605408059
2.270865251701965
0.03538043969002998
-0.1307504108462579
4.099889411384385
-0.01950433470519664
4.063540390239491
4.056407569776972
-0.2310621306084323
0.08946823648614446
2.515149645353759
-0.1078200455992665
4.094123541963616
-0.01555788531052871
4.0387767414266
4.056870867809505
0.3377924692924719
-0.4477069709081536
-0.01307150101207116
5.374367617605458e-12
0.9003162097185389
-0.4053096855488363
-2.300382107023324e-13
1.639786663312643
-0.4664407647045894
6.115108419635362e-13
-0.5177992543271008
-1.360689338980592e-11
0.3346149914610735
-0.9064730154876524
-0.01369703987453977
0.9134663036724364
-0.8537357453102232
1.640340915898942
-0.9440399368926276
-1.037254713866092
0.3307180516117404
-1.360333228039345
-0.01635429807732071
0.9330548912972715
-1.330820551480475
1.643526558685667
-1.452455418410843
-1.557770223472796
0.3264078113372009
-0.01644173509690033
-1.701114019400835
0.9623505028425386
-1.837719518192831
1.651175710382559
-1.984051655963297
-2.083212413755971
-0.2310621306072583
-2.270865251702686
0.08946823648609639
2.515149645351512
-0.1078200455982248
-4.099889411389889
4.094123541962064
-0.01555788530598634
-4.063540390238586
4.038776741423156
-4.056407569780583
4.056870867805161
-0.263735060539983
-1.951518132132105
0.0353804396902659
-0.1307504108477344
-4.068523973667583
-0.01950433470772928
-4.106879772598652
-4.059505084708419
-0.2665479628295083
-1.582264805395148
0.007445421000242522
-0.1746622151534512
-3.98897712018127
-0.03033382009474428
-4.190324254480293
-4.092469337616103
-0.2391877834139204
-1.251018125527004
-0.01541377067160187
-0.1825934294282644
-3.830355681687844
-0.04432601618228982
-4.252399713144047
-4.184009955674818
-0.1165128539162137
4.049092079316353
-3.996457356229298
-0.2081894671963431
3.932609961326365
-3.821519097277876
-0.1637330191915236
3.54384622432742
-3.452302344372562
1.502342070500467
-1.465072932626607
-0.01034602089246967
-0.09541633907191127
4.094188984956211
-0.1883019168615644
4.045770826854488
-0.1668846611859482
3.639587289368469
1.451201072851223
-0.007632867526928308
-0.09032538121378003
4.135954083988191
-0.1692349487399658
4.155655384289758
-0.1504661217392567
3.737652033524727
1.342394851407058
-0.00322837793352013
-0.08988968686651211
-0.1507508834677883
-0.1197360684609659
0.002489253014868933
0.3597231535842716
-1.795895055508699
-0.01268495923354206
0.4404682380126312
-3.341861598715663
0.245746183931931
-3.614801099372889
-3.829983633811349
0.5144803109409832
-2.284348264376141
-0.03022854890598347
0.4822385337938952
-3.182934345666373
0.2753891892894554
-3.401523121683877
-3.646112068962569
0.6290959235767334
-2.634652252192532
-0.263512402135737
0.5255061564467866
-3.002968290390009
0.3026714900844293
-3.180580222848087
-3.442267540348964
0.7154484221118215
-2.569705439808924
-0.7688124964718198
0.5765610560926944
-2.822937423696332
0.348174117072635
-2.962337968409179
-3.213325849278894
-0.2200493438751462
3.456047941650724
-3.505614641016084
-0.1879894694423481
3.229353113959196
-3.311824341545688
-0.04805387445615961
3.105103208048601
-3.213963750310486
2.784447187926026
-2.88693181716115
0.04402982383957166
-0.161870840729216
3.393370732040485
-0.1276029319684995
3.136608148471817
0.002420268932902037
3.006269670929857
2.703728627154325
0.06632715141550916
-0.1035032914817825
3.318732348175386
-0.05445769179591187
3.054479275150482
0.06942487062977382
2.915053389829016
2.63920964556504
0.1228040803327709
-0.0378773233773998
0.03330260481010516
0.1566246281513303
0.2302565024094684
0.1124424440854546
-2.995530902152122
0.01567067997678617
0.267849848118188
-3.339343893935441
0.2412498825043158
-3.446788021160941
-3.549729565701802
0.1422035274036236
-3.08038506629944
0.00153438271299744
0.2930720102859528
-3.480287359876747
0.1804785820546263
-3.584853990275428
-3.587422261778127
0.1502157648979215
-3.159068489758599
-0.005262302780487671
0.2520754923886568
-3.589957245790778
0.09359921453523068
-3.730047408934117
-3.638844312582336
0.1420558151157932
-3.246384323136157
0.004633886186232838
0.1811790269777952
-3.753661533378932
0.02677025155273349
-3.854093197638592
-3.703470268225684
0.07116382331295812
3.975806910479446
-4.095772503046046
0.1261293096689589
4.127454230826388
-4.223340474229773
0.08357622612585736
4.220164558209119
-4.317832417308981
3.577532860320334
-3.702183427334572
0.1482876346570411
0.06767978996254653
3.87476909572223
0.09358832718827514
4.037064059241362
0.012662865347012
4.101307642633071
3.450477318640219
0.1119643011479808
0.05525597517420988
3.783452174811702
0.02583999635224399
3.948600616993414
-0.06547109118207828
3.945046362610679
3.34583071401663
0.05856616398593084
0.02594982746200125
-0.07909383653127533
-0.1174585952025741
0.02676534782936202
-4.095258530056351
-0.02716223193942247
-4.100068842151718
-0.02743307403932693
-4.099509195887889
-0.03298008751128001
-0.03382564244360997
-4.09545812133424
-4.209559481876979
-0.06408984281848801
-4.20523313203311
-0.04470949192050694
-4.198851398239881
-0.04677628696931374
-0.05705562883711229
-4.189863711861634
-4.309881805996957
-0.1697113563283584
-4.302818814411013
-0.07380942041132055
-4.309393834474314
-0.0396584633809357
-0.04237268540565009
-4.31965815102401
-4.004729780491025
-0.04335572504891383
-4.257662790751997
-0.1436423596331782
-4.231377700943183
-0.1409694356683517
-4.247596120249329
-0.0153182232462922
-0.03160966744105165
-4.086891159317759
-0.06094379454424748
-4.175927335766069
-0.04770027930090515
-4.333784164988102
-4.275693422813724
-0.002977356840668077
-0.02770846759544843
-4.077325094466018
-0.06267311164172379
-4.157767834806086
-0.05385997826304706
-4.345640471491167
-4.318272718287053
-0.003749853297306704
-0.02143041898832065
-4.069621559628418
-0.05948232940677006
-4.137879023022848
-0.06810565701777482
-4.346729625336443
-4.366512040103858
-0.005995519706333829
-0.01536932179906858
-4.064373602437136
-0.05329865727730126
-4.117631311814995
-0.07836088355272075
-4.337213311421641
-4.432431314994266
-0.007562518252355571
-0.001051555817289995
4.059579409457568
-4.059719686951809
-0.01339473900887489
4.068682054850445
-4.062483893444228
-0.1040839920654439
4.218991865623479
-4.147035253185121
4.669988055973109
-4.712206377493001
-0.06869411955079482
-0.002910570857780348
4.059943865610759
-0.0261232745551721
4.080954194916281
-0.1011446071296765
4.274090641262217
4.585756122359439
-0.01836395288525244
-0.005590472438557925
4.061245523819248
-0.03693599108548157
4.098266123578012
-0.09627446183712102
4.313330505227919
4.504806800897549
-0.008925155648956379
-0.009845262892890783
-0.04506219533558481
-0.08765756566076
-0.006804058735515345
-0.05345508969943569
-4.679725657447468
0.007744501819676841
-0.06576237605690061
-4.152376822490148
-0.03478564153344788
-4.096322928882305
-4.094850199322173
-0.06191113688312971
-4.646346956752757
0.0065917557156836
-0.06755448154257393
-4.159932311626617
-0.03485975340867309
-4.130356463294294
-4.12986402572939
-0.07438214034828278
-4.601772569290441
0.00530371174871247
-0.06895833429455905
-4.174699140646822
-0.03500272676915162
-4.164995117419477
-4.164891993218617
-0.08260729186509219
-4.553309304352972
0.006256264475184181
-0.06971733135535929
-4.194627167122367
-0.03501571068209697
-4.19982367157039
-4.1999071028468
-0.6887505617867093
-3.912113361253812
0.01132414683648797
-1.207510731595028
-3.682748591600399
-1.723712851886947
-3.683648042228307
-3.683668117164069
-0.6873443958444774
-3.273366832974948
0.01830639676595963
-1.207475836135518
-3.166087961168495
-1.723711845775147
-3.167421486401502
-3.167429764459076
-0.6888709340620603
-2.65050442464853
0.04183533525366029
-1.207473157547639
-2.649623338859611
-1.72371177894412
-2.6511895570609
-2.651191214876572
-0.6900208111618658
-2.097235702378461
0.1170314585500982
-1.207473388866577
-2.133533429170059
-1.72371178019495
-2.134952259447325
-2.134952661530669
1.706212168246029
0.5337381654434994
1.172474003654735
0.5337381592456079
0.6387446572034262
0.533562568582193
0.5291675819987849
0.1057048799663381
1.706212168248386
1.067476330872876
1.172474005530362
1.067476305741918
0.6387511167389446
1.067119137505804
1.053463565815262
0.1084857469735973
1.706212168247147
1.601214496296695
1.172474012770746
1.601214396554581
0.6388062280608505
1.600497468741168
1.575002740075898
0.1089144410076625
1.706212168315993
1.172474040864816
0.638891719177421
0.1052750944119674
0.1054702763145091
0.1054702763190766
0.1054502993894302
0.1079636893631088
0.1059059558663771
0.1078320793219406
0.1027353655921806
0.1077576546573563
0.1079636893604405
0.1054502993938012
0.1076684054257855
0.1076684054282923
0.1081578143697547
0.1067018397778501
0.09909484066193598
0.1111179334277409
0.1078320793234952
0.1059059558698159
0.1067018397790272
0.1081578143723459
0.1063781057515207
0.1063781057517183
0.09594521914743566
0.1089402325250537
0.1027353655966033
0.1077576546589042
0.09909484066631549
0.1111179334296274
0.09594521915231369
0.1089402325245455
0.0957235380978171
0.09572353810327011
-0.03918168862166305
0.1340965735193562
-0.06260577289372993
0.1313768879383491
-0.08866711244759773
0.1360455167482768
0.1348788995597025
-0.00572635303564184
0.1389411886063694
-0.01621559477532664
0.1409151453667835
-0.0271130805519943
0.1459565222453573
0.1484838553025417
-0.001056061933263575
0.139317713050289
-0.007452078210049951
0.1465618836695309
-0.01328346702688216
0.1509760485140594
0.1525736846398943
-0.001206797703412699
0.1399176952705636
-0.006139669404088055
0.1508378847984274
-0.009229920373961309
0.1533667989171202
0.1538915972195486
0.1533734974144107
0.006181364348782248
0.1534621581599643
0.004965032303402506
0.1526945185697849
0.007159371641690726
0.006669812585592905
0.1538548679975811
0.1535727237514231
0.005396877348485318
0.1538990618176729
0.004322245752503118
0.1539775539896685
0.006889911076383815
0.003192682594068685
0.1575023191925161
0.1529257685791715
0.002730829816743385
0.1539264816036283
0.003001552038281563
0.1547832917277106
0.005849716603489041
-0.00974470827884244
0.167751381984101
0.1420767209673695
0.1447070064654676
0.1503071242376708
0.1404723479292505
0.1403997920486928
-0.05508571078661811
0.1312223518963742
-0.008861765248936115
0.1298086150324763
-0.006936118379631012
-0.006220293173960612
0.1297929238918119
0.144718088606071
-0.04221057185601215
0.1389044605517896
-0.002731625250765646
0.135781331799132
-0.003201881607654
-0.003936317973242093
0.1340930623938879
0.1512515444168438
-0.02567027045913262
0.1456687369594569
0.003153436768451118
0.1417569467480158
0.001311265956063012
6.867920150846474e-05
0.138349597788617
0.1148047850377114
0.1182622219398786
0.120208638925773
0.1208971784634283
0.1300492082380918
-0.006905152620493377
0.1310125523943723
-0.005874896408816915
0.1321648736823018
-0.003932354966544177
-0.003108613829797713
0.1333179793632229
0.1328471357561923
-0.004762571110535407
0.1323815543734875
-0.00430956629277171
0.1324054149427376
-0.002955800652099605
-0.002617782961299137
0.1328328303834408
0.1356357630521388
-0.001153362990043094
0.1337369891331963
-0.001301339561528225
0.1326824869233693
-0.0008677111873478804
-0.001158825901499738
0.1323216494145631
0.1206404539633555
0.1204332485113458
0.1205481042286313
0.1204418054797356
0.137783229144
-0.0220733641299769
0.1362029647009484
-0.1461525727984208
0.1126480407736363
-0.1273840145461454
-0.01205339454643839
0.08177740038684676
0.1327803219209309
-0.02560689827614587
0.1049872289483548
-0.1243873630577734
0.05776836914820686
-0.08523707149564685
-0.003342725370974409
0.04782043904720867
0.125263230665211
-0.02257674563654261
0.05747591064361142
-0.06260660889695591
0.003833618741387185
-0.0369169640887832
-0.007113930960331638
0.005614008755674166
0.09329038184422503
0.02452310761637073
-0.01666341128383145
-0.02678911896956225
0.1052723131831984
0.1265460859676389
0.1176721525625466
0.1034071594560961
0.1247668078358633
0.05725197158976225
0.02618171458565199
0.1301842455153188
0.08705656870723961
0.0890568671476506
0.1124114761528259
0.08191380466941889
0.1233373480940429
0.05032018631497048
0.02399238231649847
0.1299210091770531
0.05432387274671817
0.04203516807429164
0.0985503503270154
0.04140404204654424
0.1176426906046995
0.03350093036911073
0.01920143243900185
0.1266462181755788
0.01655349718731194
0.06155772982297117
0.09706002735260894
0.1200206481049289
0.1357504256284784
0.004794282842732422
0.1405434109467436
-0.006257703240596935
0.1434555227422749
0.0006021416927124434
0.01081913674998158
0.147662294720099
0.1352798798452506
0.005738071263955868
0.1400081088434696
-0.004508959004773994
0.1426311208260522
0.0006972520866059817
0.006416923736849989
0.1464393264398354
0.1327974770831033
0.006555155895279552
0.1386019643799336
-0.0005600069773490368
0.142042172334339
0.0005668981121945693
0.002846736251785886
0.1453351994455403
0.1329500358522369
0.1392496029292481
0.1433885264159425
0.1464590073821662
0.1585795684273296
0.03154719244671156
0.1725205169084368
0.05094898575942919
0.1923517779345404
0.1027783276196517
0.1811197073528496
0.2413110367363764
0.1565829096870914
0.01969273514315961
0.1703242482108786
0.03581003495696689
0.1915544226969738
0.08128418795947456
0.1233392759169994
0.2493873177434938
0.1538569618481241
0.009623878098433347
0.1671511716367714
0.0211705328147701
0.1941990140694895
0.05344586281754071
0.03460850829028633
0.2830788083976752
0.1546475738394268
0.1744522866535537
0.2271025354478826
0.2614960608061038
0.1220982120237366
-0.6493503064547493
0.01212271731488828
-0.1529408038559278
-0.002774825181521751
-0.01423894819687308
-0.01008833305768606
-0.004097349466729425
0.08470793374351014
-0.4843893797766392
0.001757488647550637
-0.06933723466657367
-0.004405560898986232
-0.007085114531389363
-0.006536650001783039
-0.006916061021438768
0.04502995274264391
-0.2462453338851084
-0.002653224655511208
-0.02095022720949567
-0.005981363904135028
-0.00272917494258473
-0.003391797312634668
-0.008217925965581727
0.01522053979331741
-0.004973054112445444
-0.006782923118590872
-0.009239779599308832
-0.00547306595408422
-0.007970742234402639
-0.006905665367120154
-0.004706640494377672
-0.008626715343072282
-0.0005483810490799698
0.003752219751224081
-0.009102434998587958
-0.008356597594009106
-0.005635068019667873
-0.009187652146186338
-0.002538008203919834
-0.009726428839890264
0.001016571753407147
0.003263911435753282
-0.008380525280650412
-0.009871817066003586
-0.002852609772023137
-0.009614346943065536
-0.001409400075049413
-0.008704039851627054
0.001089962914449495
0.002624427255889468
-0.007177660352033538
-0.01094552040531119
-0.01105142520722769
-0.009078422039785877
-0.00566860762653178
-0.008063213523272151
-0.0153271694947687
0.002909527377924007
-0.001714185233603963
0.02362312333133278
0.01629056558319554
0.07210787230022499
0.0433906702091415
-0.009006254659725182
-0.01359106851046454
-0.006170639749001554
-0.002850895716005261
0.01018598306946825
0.001160045736479029
0.04930638764786958
0.03490851212803178
-0.0113426182179752
-0.008367405636917701
-0.01080536149410994
-0.001997552446041349
-0.002463291880973502
-0.006199784676617276
0.02674482854518323
0.02174130470400212
-0.0127934313899434
-0.01324908325928625
-0.01842882998955454
0.0111128675943178
0.04209074690810434
-0.006910884621517607
0.01134229573539526
0.04069178093406028
-0.007963733959708605
0.01180085899836328
0.03758412871017922
-0.01283927843404783
0.01752248244074743
-0.01742395080296616
0.02923099324361219
0.02594311859518268
0.03357209264261216
-0.004271221999847793
0.03168060362404602
-0.005374066922308969
0.02846749767417124
-0.009289497002867089
-0.01122132523288998
0.02219009363236917
0.01946670690998546
-0.002132303403178208
0.01716967106664454
-0.00280841694151468
0.01320560050358485
-0.004913704724757474
-0.005203240699904629
0.007394902236810066
0.007924657117893814
0.005104138402588602
0.0002444348561111975
-0.0046544207653339
-0.006640728407392042
0.002640471487923894
-0.00620391953455994
0.0007428880067609223
-0.003715508803020989
-0.0009555152134658428
-0.002006086844484681
-6.30676066926128e-14
0.003905318279535164
0.006249369927968301
0.001214998737615228
0.003856615817133431
1.942988206324325e-05
0.001046446164473108
-0.0009344599100793195
-2.133015986061082e-14
0.01775588000756813
0.0104838826860392
0.01211943550943897
0.0093818786317728
0.006026520904689039
0.007210731763577935
0.005373609579639543
2.593758541280522e-14
0.02280117864436668
0.01501540700938606
0.007721842326216151
5.821731985378165e-14
-0.002006086844491509
0.003715508802908447
-0.0009344599100847943
-1.942988211120489e-05
0.005373609579645128
-0.006026520904651035
-0.00772184232608443
0.01307150101206666
-0.0009555152134794256
0.006203919534476535
0.001046446164469878
-0.001214998737645544
0.007210731763625723
-0.01211943550943675
-0.01501540700935163
0.01369703987470103
0.0007428880067478286
0.006640728407350215
0.003856615817134
-0.003905318279546668
0.009381878631818219
-0.01775588000759257
-0.02280117864439921
0.01635429807744088
0.002640471487927412
0.004654420765323353
0.006249369927972061
-0.007394902236819961
0.01048388268604532
-0.02219009363239703
-0.02923099324364895
0.01644173509693017
-0.03758412871019227
-0.01742395080297018
0.02594311859517627
-0.04069178093405507
-0.01283927843408899
0.01752248244079398
-0.0420907469080606
-0.007963733959745055
0.01180085899837354
-0.006910884621608708
-0.04339067020915094
0.01134229573550367
-0.02846749767418063
-0.01122132523291257
-0.03168060362404544
-0.009289497002910742
-0.03357209264261068
-0.005374066922355501
-0.004271221999902243
-0.03490851212808873
-0.01320560050358247
-0.005203240699922371
-0.01716967106666036
-0.004913704724790104
-0.01946670691000259
-0.002808416941545641
-0.002132303403202855
-0.02174130470405722
-0.0002444348561134735
-0.005104138402614478
-0.007924657117938348
-0.01111286759438832
0.01842882998948226
-0.02674482854521781
0.01324908325924208
0.006199784676553938
0.01279343138992593
0.001997552445985616
0.008367405636880612
0.005668607626560228
0.002463291880859426
-0.04930638764788937
0.01080536149405597
-0.001160045736652418
0.01134261821792485
0.002850895715919011
0.0135910685103789
0.007177660352030572
-0.01018598306959682
-0.0721078723002249
0.006170639748906661
-0.0162905655834135
0.009006254659624159
0.001714185233476634
0.01532716949460889
0.008380525280632848
-0.02362312333144272
-0.002909527378058892
0.008063213523175593
0.009102434998561122
0.008626715343075103
0.0037522197512183
0.006905665367185747
-0.0005483810490377744
0.005473065954120124
-0.004706640494511154
-0.007970742234475111
0.004097349466716481
0.009726428839887814
0.00326391143575179
0.009187652146221701
0.001016571753429684
0.008356597594025475
-0.002538008204012468
-0.005635068019726849
0.006916061021452117
0.008704039851635433
0.002624427255891341
0.009614346943086442
0.001089962914458342
0.009871817066015585
-0.001409400075102599
-0.002852609772063761
0.00821792596557943
0.009078422039820958
0.0110514252072722
0.0109455204053383
0.009239779599311484
0.00277482518150808
-0.01008833305760795
-0.01212271731439575
-0.01423894819663711
-0.1220982120227742
-0.1529408038552671
-0.6493503064554715
-0.2413110367364697
0.004405560899024938
-0.006536650001727177
-0.001757488647373402
-0.007085114531291299
-0.08470793374288391
-0.06933723466632759
-0.4843893797767143
-0.2493873177434053
0.005981363904158873
-0.003391797312624516
0.002653224655579355
-0.002729174942550636
-0.04502995274235772
-0.02095022720945346
-0.2462453338850916
-0.283078808397452
0.00678292311859501
0.004973054112474688
-0.01522053979325173
-0.2614960608059799
-0.1923517779344365
0.1811197073528626
-0.1725205169084731
0.1027783276199881
-0.1585795684271221
0.05094898576036055
0.03154719244693627
-0.147662294720196
-0.1915544226968137
0.1233392759170168
-0.170324248210737
0.08128418795967629
-0.1565829096868996
0.03581003495757762
0.01969273514322345
-0.1464393264398768
-0.1941990140692662
0.03460850829033951
-0.1671511716365177
0.0534458628175486
-0.1538569618479323
0.02117053281515058
0.009623878098494187
-0.1453351994455448
-0.2271025354476063
-0.1744522866533631
-0.1546475738392542
-0.1464590073821319
-0.1434555227423766
0.01081913674994406
-0.1405434109465394
0.0006021416925495737
-0.1357504256280825
-0.00625770324088637
0.004794282842368713
-0.1301842455150803
-0.1426311208261443
0.006416923736821123
-0.140008108843385
0.000697252086841238
-0.135279879844952
-0.004508959003871382
0.005738071264325018
-0.1299210091768372
-0.1420421723344071
0.002846736251835291
-0.1386019643796718
0.0005668981125573902
-0.1327974770828038
-0.0005600069764842841
0.006555155895566211
-0.1266462181753739
-0.1433885264159509
-0.1392496029290698
-0.1329500358520697
-0.1200206481046198
-0.1247668078360074
0.02618171458613416
-0.1176721525627303
0.0572519715901566
-0.1052723131832486
0.1034071594550766
0.1265460859679173
-0.08177740038711978
-0.1233373480942588
0.02399238231692702
-0.1124114761529532
0.05032018631501978
-0.08705656870737277
0.08191380466845644
0.0890568671479276
-0.04782043904743792
-0.1176426906047922
0.01920143243935946
-0.09855035032700021
0.03350093036904189
-0.05432387274690428
0.04140404204602866
0.04203516807452046
-0.005614008755822297
-0.09706002735230856
-0.06155772982275785
-0.01655349718742952
0.02678911896951654
-0.112648040774059
-0.01205339454652726
-0.1362029647013728
-0.1273840145467752
-0.1377832291441915
-0.1461525727974807
-0.0220733641296364
-0.1333179793634847
-0.05776836914855688
-0.00334272537096425
-0.1049872289489899
-0.08523707149606036
-0.1327803219211945
-0.1243873630572829
-0.0256068982758634
-0.1328328303836613
-0.003833618741611242
-0.007113930960334636
-0.0574759106442302
-0.03691696408883843
-0.1252632306654715
-0.06260660889682357
-0.02257674563638679
-0.1323216494147062
0.01666341128372559
-0.02452310761657901
-0.09329038184433006
-0.1204418054797001
-0.13216487368239
-0.003108613829051504
-0.1310125523941784
-0.003932354965847179
-0.1300492082380783
-0.005874896409034824
-0.006905152620542115
-0.1297929238916244
-0.132405414942766
-0.002617782960806808
-0.1323815543733186
-0.002955800651607776
-0.1328471357560613
-0.004309566293030781
-0.004762571110514785
-0.1340930623938366
-0.1326824869232443
-0.001158825901296401