/*--------------------------------*- C++ -*----------------------------------*\
  =========                 |
  \\      /  F ield         | OpenFOAM: The Open Source CFD Toolbox
   \\    /   O peration     | Website:  https://openfoam.org
    \\  /    A nd           | Version:  11
     \\/     M anipulation  |
\*---------------------------------------------------------------------------*/
FoamFile
{
    format      ascii;
    class       surfaceScalarField;
    location    "1.55";
    object      phi;
}
// * * * * * * * * * * * * * * * * * * * * * * * * * * * * * * * * * * * * * //

dimensions      [0 3 -1 0 0 0 0];

internalField   nonuniform List<scalar> 
8667
(
15.882973
1.8950179
-0.0002131542
13.984687
1.898096
0.00019005398
12.067089
1.9176262
-2.8028758e-05
10.165665
1.9000997
0.0013235996
8.2420271
1.9221289
0.0015094304
6.3529141
1.8855564
0.0035566319
4.4413437
1.9075339
0.004036486
2.6006632
1.8334382
0.0072423771
1.7970706
0.0072557004
0.79633682
15.885213
3.7875827
13.981006
3.8023032
12.069538
3.8290944
10.154529
3.8151084
8.2451464
3.8315119
6.336992
3.7937108
4.4413183
3.8032076
2.6005096
3.6742469
3.623075
0.77450528
15.886782
5.6785791
13.979571
5.7095143
12.070478
5.7381868
10.152319
5.7332676
8.2373362
5.7464946
6.331327
5.69972
4.4307799
5.7037547
2.5907474
5.5142794
5.4580036
0.75581872
15.88556
7.5707967
13.982063
7.613012
12.066596
7.6536533
10.153728
7.6461358
8.2283913
7.6718312
6.3221754
7.6059359
4.4143142
7.6116159
2.5713746
7.3572191
7.2955316
0.73384655
15.885257
9.4633154
13.984635
9.5136347
12.067161
9.5711268
10.154072
9.5592254
8.2294149
9.5964879
6.3146621
9.5206886
4.4044119
9.5218662
2.5566076
9.2050234
9.1327182
0.71942102
15.885583
11.355511
13.988184
11.411034
12.073551
11.48576
10.156475
11.476301
8.2295471
11.523416
6.3057625
11.444473
4.3878265
11.439802
2.533661
11.059189
10.963843
0.70253602
15.885649
13.24764
13.990392
13.306291
12.079215
13.396937
10.159475
13.396041
8.2308057
13.452085
6.3039873
13.371292
4.3788466
13.364943
2.5136648
12.924371
12.80058
0.67692841
15.887341
15.138077
13.992028
15.201604
12.085201
15.303763
10.165866
15.315377
8.2316944
15.386256
6.2972447
15.305741
4.3627248
15.299463
2.4888708
14.798225
14.632091
0.65735968
15.889345
17.02651
13.995845
17.095104
12.089219
17.210389
10.172208
17.232388
8.2372505
17.321214
6.2993338
17.243658
4.3544542
17.244342
2.4631949
16.689484
16.476067
0.61921877
18.851194
15.953094
20.672829
15.956142
22.491523
15.95909
24.308891
15.960412
26.123108
15.963543
27.934268
15.966621
29.743994
15.968054
31.548288
15.973486
15.970411
33.355657
18.926781
14.121417
20.756371
14.126553
22.583141
14.13232
24.405585
14.137969
26.22688
14.142247
28.042353
14.151147
29.852677
14.15773
31.658296
14.167866
14.167605
33.461102
19.059369
12.272437
20.905017
12.280905
22.747939
12.289398
24.584272
12.301635
26.4175
12.30902
28.245377
12.32327
30.075583
12.327524
31.90408
12.339369
12.342066
33.729618
19.097661
10.407164
20.95993
10.418636
22.824625
10.424703
24.686603
10.439658
26.548656
10.446967
28.407903
10.464023
30.264689
10.470738
32.117771
10.486287
10.495123
33.964715
19.211129
8.5172489
21.104141
8.5256239
23.000339
8.5285048
24.899638
8.5403588
26.798911
8.5476935
28.701797
8.5611365
30.601912
8.5706234
32.504246
8.5839529
8.5964951
34.402874
19.142478
6.6184292
21.052843
6.6152586
22.969307
6.6120405
24.897907
6.6117589
26.82968
6.6159207
28.770848
6.6199687
30.709138
6.6323335
32.652642
6.6404489
6.6580947
34.591042
19.153305
4.7094667
21.086287
4.6822769
23.029354
4.668973
25.003913
4.6371997
26.991022
4.6288122
29.003959
4.6070318
31.020253
4.6160396
33.057128
4.6035739
4.6200987
35.095124
18.569904
2.8290465
20.515823
2.736358
22.502078
2.6827177
24.536438
2.6028397
26.587295
2.5779552
28.665101
2.5292259
30.749388
2.5317525
32.846937
2.5060247
2.5207017
34.946334
18.37779
0.92732342
20.467372
0.64677633
22.726731
0.42335795
25.039282
0.29028945
27.387266
0.22997115
29.716297
0.2001945
32.079797
0.16825266
34.419109
0.16671277
36.783387
0.15642394
33.248024
0.10763306
33.145893
0.10213118
33.045176
0.10071724
32.952043
0.093132508
32.859853
0.092190707
32.776787
0.083065725
32.693891
0.082895928
32.621459
0.072432132
0.072793302
32.548666
33.375588
0.19314713
33.297237
0.18048233
33.219948
0.17800671
33.150028
0.16305213
33.081037
0.1611821
33.020593
0.14350968
32.961818
0.14167087
32.912938
0.12131145
0.12170619
32.864026
33.659937
0.26282822
33.596445
0.24397455
33.536289
0.23816194
33.480048
0.21929347
33.427322
0.21390779
33.378195
0.19263721
33.33233
0.18753571
33.290772
0.16286907
0.15920243
33.253276
33.910475
0.31706831
33.859981
0.294468
33.812727
0.28541622
33.768596
0.26342417
33.727741
0.25476272
33.690178
0.23020061
33.655844
0.22186976
33.625108
0.1936046
0.18653851
33.597772
34.355251
0.3646915
34.31234
0.33737874
34.272087
0.32566929
34.234662
0.30084983
34.199322
0.29010195
34.166707
0.26281602
34.135869
0.25270748
34.10736
0.22211344
0.21359756
34.080301
34.560306
0.39542767
34.532228
0.36545641
34.50985
0.34804765
34.489375
0.32132515
34.471705
0.30777152
34.452798
0.2817234
34.435806
0.26969934
34.4144
0.24351981
0.2335724
34.394425
35.083552
0.40699971
35.071606
0.37740153
35.060259
0.35939467
35.045888
0.33569668
35.03173
0.32192982
35.011555
0.30189775
34.989606
0.29164874
34.957664
0.27546126
0.26926068
34.921976
35.030711
0.32262264
35.112231
0.29588191
35.197638
0.27398759
35.276332
0.25700311
35.349805
0.24845625
35.407806
0.24389724
35.448459
0.25099565
35.45885
0.26507033
0.29560998
35.432501
36.964559
0.14144969
37.113121
0.14732006
37.216894
0.17021459
37.284391
0.1895062
37.296493
0.23635435
37.249149
0.29124183
37.140643
0.35950114
36.953894
0.451819
36.735673
0.51383112
36.574802
0.68922299
-0.52835223
36.279868
0.65366299
-0.3587285
35.899254
0.62911574
-0.2485021
35.511482
0.60283253
-0.21506067
35.103089
0.58669977
-0.17830603
34.705521
0.56428789
-0.16671994
34.288345
0.5542008
-0.13702509
33.890354
0.53792174
-0.13993025
0.53458213
33.474448
-0.11867668
35.501808
0.61991568
35.524677
0.63079411
35.517343
0.63644946
35.477885
0.64229021
35.417964
0.64662083
35.32871
0.65354204
35.223612
0.65929908
35.095995
0.66553883
0.67292319
34.957654
34.996151
0.54574124
35.063933
0.5630118
35.114322
0.58606046
35.154557
0.60205467
35.176845
0.62433343
35.191104
0.6392827
35.189209
0.66119451
35.178021
0.67672662
0.69951251
35.151432
34.492436
0.44772954
34.593217
0.46223113
34.684208
0.49506911
34.77714
0.50912361
34.859249
0.54222409
34.943135
0.55539665
35.015624
0.58870591
35.088769
0.60358116
0.63869305
35.149588
34.179722
0.3483088
34.282981
0.35897208
34.384323
0.39372752
34.489262
0.40418394
34.591065
0.44042153
34.695572
0.45088947
34.794967
0.48931061
34.898188
0.50036043
0.54137803
34.995503
33.700195
0.2458858
33.807203
0.25196475
33.917477
0.28345256
34.032567
0.28909428
34.149409
0.3235799
34.271459
0.32883939
34.39424
0.3665294
34.523022
0.37157853
0.41286954
34.65153
33.346466
0.15269564
33.445528
0.1529028
33.548686
0.18029472
33.658166
0.17961452
33.771372
0.21037391
33.891668
0.20854316
34.01546
0.24273781
34.147316
0.23972169
0.2779223
34.282264
32.951601
0.06512073
33.041387
0.06311634
33.140339
0.081342737
33.241362
0.078591354
33.353597
0.098138614
33.467819
0.094321956
33.595112
0.11544424
33.723897
0.11093675
0.13435456
33.867465
32.613786
32.676903
32.758245
32.836837
32.934975
33.029297
33.144742
33.255678
33.390033
33.519383
-0.12935055
33.6748
-0.15541694
33.824727
-0.1499268
34.003724
-0.17899718
34.176834
-0.17310973
34.382387
-0.20555297
34.581755
-0.19936847
34.817516
-0.23576092
-0.22942857
35.046945
34.011924
-0.27380927
34.173166
-0.31665933
34.334806
-0.31156657
34.515527
-0.35971811
34.6962
-0.35378354
34.898652
-0.40800455
35.100628
-0.40134434
35.327494
-0.46262722
-0.45527731
35.553343
34.426465
-0.41801092
34.573254
-0.46344758
34.730762
-0.46907454
34.89041
-0.51936617
35.062524
-0.5258978
35.236492
-0.5819731
35.42491
-0.5897618
35.615069
-0.65278676
-0.66202725
35.821819
34.787151
-0.55363191
34.921545
-0.59784108
35.064471
-0.61200019
35.205397
-0.66029266
35.356573
-0.67707384
35.505292
-0.73069233
35.666258
-0.75072789
35.824691
-0.81121939
-0.83495451
35.997618
35.097746
-0.65587438
35.193111
-0.69320634
35.294986
-0.71387513
35.389226
-0.75453256
35.491812
-0.77965984
35.586391
-0.82527148
35.691187
-0.85552372
35.787968
-0.90800065
-0.94385486
35.896868
35.211588
-0.71787435
35.260578
-0.74219611
35.312107
-0.76540385
35.350623
-0.79304827
35.393358
-0.82239534
35.42337
-0.85528311
35.459663
-0.89181695
35.483793
-0.93213055
-0.97636304
35.516301
35.11801
-0.6844525
35.072587
-0.69677307
35.021116
-0.71393329
34.960246
-0.73217779
34.893657
-0.75580663
34.820049
-0.78167546
34.741227
-0.81299459
34.657427
-0.84833021
-0.88816994
34.569233
34.798172
-0.52497065
34.631166
-0.52976763
34.44431
-0.52707661
34.25215
-0.54001753
34.040651
-0.54430792
33.825136
-0.56616054
33.590497
-0.57835608
33.35296
-0.61079268
-0.63249412
33.097284
33.083038
-0.13356097
32.670368
-0.11709718
32.283305
-0.14001338
31.868712
-0.12542488
31.480473
-0.15606907
31.056181
-0.14186778
30.659795
-0.18197035
30.215816
-0.16681375
29.802965
-0.2196436
0.67789297
29.330475
-0.20540247
0.93557024
32.839607
1.0270022
34.477801
1.0051794
35.538124
0.90404797
35.998
0.73335368
36.168313
0.52480211
36.030371
0.27045885
35.807686
35.317404
0.71132015
28.895599
-0.27644448
0.98402665
32.5669
1.0783947
34.383433
1.0468382
35.56968
0.93165876
36.113179
0.74398633
36.355985
0.51663981
36.257717
0.26407038
36.060256
35.581474
0.7731153
28.387577
-0.26509272
1.0472853
32.29273
1.1432346
34.287484
1.1190092
35.593906
1.0111448
36.221044
0.8250187
36.542111
0.59568744
36.487049
0.31050828
36.345435
35.891982
0.82123742
27.930086
-0.36374634
1.1046966
32.009271
1.2014386
34.190742
1.1662458
35.629099
1.0424621
36.344827
0.83666706
36.747906
0.58641682
36.737299
0.3039999
36.627852
36.195982
0.90402391
27.389223
-0.36316162
1.1862091
31.727086
1.2829279
34.094023
1.2512282
35.660798
1.1340932
36.461962
0.92876405
36.953235
0.67510462
36.990958
0.35511926
36.947837
36.551102
0.96953197
26.930676
-0.51098509
1.2532045
31.443413
1.3471937
34.000034
1.3024835
35.705508
1.1684533
36.595993
0.94069505
37.180994
0.66706672
37.264587
0.35148541
37.263418
36.902587
1.0712014
26.393884
-0.53440941
1.356092
31.158523
1.4485586
33.907568
1.4034051
35.750662
1.2738432
36.725554
1.0449776
37.409859
0.76382811
37.545736
0.40500171
37.622245
37.307589
1.1594856
26.005223
-0.77082414
1.4326765
30.885332
1.5169419
33.823302
1.4568566
35.810747
1.3092543
36.873157
1.0562198
37.662894
0.75745597
37.8445
0.4052186
37.974482
37.712807
1.3114008
25.485078
-0.79125627
1.5655824
30.63115
1.6465188
33.742366
1.5833476
35.873918
1.4377529
37.018751
1.1773795
37.923267
0.86185945
38.16002
0.45966272
38.376679
38.17247
-0.077677987
38.250148
-0.067975621
38.366977
-0.034391665
38.126436
0.062463253
37.826412
0.1928954
36.888319
0.37888338
35.68793
0.58312531
33.538124
0.77121425
30.443061
25.639254
0.61703876
-0.11690608
38.367054
-0.15251128
38.402582
-0.13721485
38.11114
-0.053136839
37.742334
0.069065674
36.766117
0.24447357
35.512523
0.41958734
33.36301
0.56468087
30.297968
25.688985
0.51494994
-0.111703
38.478757
-0.13521136
38.42609
-0.12032966
38.096258
-0.041554432
37.663559
0.065973139
36.658589
0.23066238
35.347833
0.40179053
33.191882
0.54980049
30.149958
25.702706
0.53607888
-0.14856039
38.627318
-0.21561554
38.493145
-0.22793643
38.108579
-0.16858175
37.604204
-0.063484541
36.553492
0.094671456
35.189677
0.25297
33.033584
0.38967623
30.013252
25.714209
0.37817386
-0.14434613
38.771664
-0.1978115
38.546611
-0.20361676
38.114384
-0.14191573
37.542503
-0.049896786
36.461473
0.099997878
35.039783
0.25714755
32.876434
0.39068897
29.87971
25.717576
0.38732182
-0.18247301
38.954137
-0.27454322
38.638681
-0.31245373
38.152295
-0.27289628
37.502946
-0.17969091
36.368268
-0.035082029
34.895174
0.11393259
32.727419
0.24329908
29.750344
25.686797
0.27407809
-0.18109877
39.135235
-0.25597522
38.713557
-0.27957558
38.175895
-0.23169914
37.455069
-0.15245699
36.289025
-0.015596002
34.758313
0.13211606
32.579707
0.26020907
29.622251
25.625409
0.32159733
-0.21918353
39.354419
-0.32379197
38.818166
-0.38746985
38.239573
-0.36434839
37.431948
-0.28172899
36.206406
-0.14907437
34.625658
-0.0042914626
32.434924
0.13646142
29.481498
25.523699
0.23817114
-0.21459886
39.569018
-0.30255824
38.906125
-0.34547512
38.28249
-0.30794893
37.394422
-0.24110526
36.139562
-0.11546086
34.500014
0.030803733
32.28866
0.17033564
29.341966
25.401026
0.29300838
-0.062057146
25.246434
0.21664924
0.094783602
29.185125
0.23973485
32.143708
0.36475016
34.374998
0.43969237
36.06462
0.45325752
37.380856
0.36539994
38.370347
0.24774826
39.023777
39.816766
-0.10795782
25.079477
0.27491535
0.043929906
29.033237
0.19250475
31.995134
0.31168675
34.255816
0.36405374
36.012253
0.40205348
37.342857
0.34171227
38.430689
0.24035177
39.125137
40.057118
-0.011871034
24.886862
0.20448597
0.16000255
28.861364
0.30494142
31.850195
0.42563972
34.135118
0.49176344
35.946129
0.50161581
37.333004
0.39546265
38.536842
0.26904958
39.25155
40.326167
-0.066787532
24.689517
0.2641322
0.093005636
28.701571
0.2434304
31.69977
0.35876244
34.019786
0.40148976
35.903402
0.43764329
37.296851
0.36732485
38.60716
0.25833459
39.360541
40.584502
0.020268616
24.469984
0.19926431
0.19942906
28.52241
0.34250663
31.556692
0.4611252
33.901168
0.52208905
35.842438
0.52559204
37.293348
0.40982916
38.722923
0.28132424
39.489046
40.865826
-0.047618373
24.257797
0.25980548
0.11602774
28.358764
0.26629726
31.406423
0.38052767
33.786937
0.41850996
35.804456
0.45325912
37.258599
0.37589293
38.800289
0.26627394
39.598665
41.1321
0.027175188
24.031523
0.19909882
0.20879138
28.177148
0.35004302
31.265171
0.47155183
33.665428
0.52618767
35.74982
0.52405264
37.260734
0.40598417
38.918358
0.28261304
39.722036
41.414713
-0.052831306
23.826736
0.25761826
0.11049348
28.013823
0.25883396
31.116831
0.37497448
33.549288
0.40936663
35.715428
0.44271283
37.227388
0.36516545
38.995905
0.26230386
39.824897
41.677017
0.00057435005
23.62951
0.19665197
0.18524982
27.829148
0.32544055
30.97664
0.44911487
33.425613
0.50330946
35.661233
0.49498094
37.235716
0.3824113
39.108475
0.271815
39.935494
41.948832
-0.099034287
42.047866
-0.085839845
39.922299
-0.04401339
39.066648
0.03874063
37.152962
0.11625931
35.583715
0.22897286
33.3129
0.34137448
30.864238
0.39125981
27.779262
23.59407
0.42669949
-0.088424243
42.136291
-0.077244246
39.911119
-0.062021917
39.051426
-0.027135335
37.118075
0.075677858
35.480902
0.19877426
33.189804
0.2956963
30.767316
0.36251572
27.712443
23.598666
0.35791978
-0.038098986
42.17439
-0.010901822
39.883922
0.057958766
38.982565
0.14974944
37.026285
0.23293696
35.397714
0.35773094
33.06501
0.49103656
30.634011
0.53916093
27.664318
23.673141
0.46468593
-0.0066881695
42.181078
0.016203679
39.86103
0.062995207
38.935774
0.1081968
36.981083
0.21757246
35.288338
0.35717449
32.925408
0.4855108
30.505674
0.56176375
27.588066
23.823715
0.4111893
0.047220063
42.133858
0.10574513
39.802505
0.19499471
38.846524
0.30187609
36.874202
0.39193261
35.198282
0.53364215
32.783698
0.70242417
30.336892
0.7801551
27.510335
24.111341
0.49252965
0.082143954
42.051714
0.14807463
39.736574
0.2214134
38.773186
0.2851037
36.810512
0.4028651
35.08052
0.55318735
32.633376
0.7232919
30.166788
0.88964916
27.343977
24.549017
0.45197265
0.1452656
41.906448
0.24579476
39.636045
0.37002985
38.64895
0.49333647
36.687205
0.59303373
34.980823
0.73628621
32.490123
0.94183797
29.961236
1.165079
27.120736
25.099028
0.61506825
0.19563895
41.710809
0.30096099
39.530723
0.41503123
38.53488
0.49964412
36.602592
0.62240385
34.858063
0.76347439
32.349053
0.94021629
29.784494
1.32097
26.739983
25.670385
0.74961341
0.25898696
41.451822
0.4087885
39.380922
0.57629333
38.367375
0.72425388
36.454631
0.82641947
34.755898
0.95817707
32.217295
1.1558574
29.586814
1.621619
26.274221
25.767895
1.5241082
-1.7692483
43.221071
-3.4602303
41.071904
-5.1109983
40.018143
-6.5572993
37.900933
-7.7619196
35.960518
-8.6807939
33.136169
-9.1622554
30.068275
-9.284542
26.396508
25.647748
-9.1643947
-1.7745514
44.995622
-3.5147073
42.81206
-5.1981551
41.701591
-6.6549645
39.357742
-7.9043798
37.209933
-8.776311
34.008101
-9.2431714
30.535136
-9.0963964
26.249733
23.706718
-7.1553666
-1.7612616
46.756884
-3.4944918
44.54529
-5.208661
43.41576
-6.7434882
40.892569
-8.0145647
38.48101
-8.8857395
34.879275
-9.2448953
30.894292
-8.4966481
25.501485
17.474138
-2.2640677
-1.754051
48.510935
-3.52869
46.319929
-5.2880457
45.175116
-6.8397316
42.444255
-8.1591356
39.800414
-8.9986695
35.718809
-9.1451433
31.040765
-7.9902274
24.34657
9.8333545
-0.34944396
-1.725367
50.236302
-3.499459
48.094021
-5.2813278
46.956985
-6.9274672
44.090394
-8.2620665
41.135013
-9.1268706
36.583613
-9.019943
30.933838
-6.9761633
22.30279
2.8915984
-0.034407196
-1.6956679
51.93197
-3.512762
49.911115
-5.3308721
48.775095
-7.0186099
45.778132
-8.3949943
42.511398
-9.2248333
37.413452
-8.6328593
30.341864
-4.5167005
18.186631
-2.163266
0.53816397
-1.6488206
53.58079
-3.4785049
51.740799
-5.284089
50.580679
-7.1102324
47.604276
-8.4784389
43.879604
-9.1606998
38.095713
-7.7797067
28.960871
-3.1107667
13.517691
-5.7873252
0.51329251
-1.5848022
55.165592
-3.4970556
53.653053
-5.3204542
52.404078
-7.2060631
49.489885
-8.5799148
45.253456
-9.095643
38.611441
-6.9881643
26.853392
-2.4733211
9.0028478
-8.6840374
0.42339103
-1.5156117
56.681204
-3.4561522
55.593593
-5.2594888
54.207414
-7.273439
51.503835
-8.6448001
46.624817
-8.8304474
38.797089
-5.5976567
23.620601
-1.2981163
4.7033075
-10.596155
0.61400168
0.44446649
-11.413863
0.37324101
2.806818
2.340956
5.402389
21.02503
5.5172629
38.682215
4.6634953
47.478584
3.2789
52.88843
2.077268
55.409046
0.7807309
56.89013
57.461935
0.26913093
-12.09978
0.41678586
2.4711376
0.13894938
5.2320971
18.264071
5.5128747
38.401437
4.6163337
48.375125
3.1542201
54.350544
1.9835215
56.579745
0.71073694
58.162915
58.172672
0.30775116
-12.846493
0.43896207
2.3815954
-1.9348949
4.9870607
15.658605
5.4799908
37.908507
4.6211204
49.233996
3.1334965
55.838168
1.9132769
57.799964
0.62421709
59.451974
58.796889
0.4482386
-13.768851
0.47411945
2.4880785
-3.9747347
4.8543688
13.292315
5.4588399
37.304036
4.5478438
50.144992
2.997011
57.389
1.8083659
58.98861
0.55405346
60.706287
59.350942
0.51450105
-14.77776
0.49440756
2.457241
-5.9174747
4.639895
11.109661
5.399467
36.544464
4.5330838
51.011375
2.9586074
58.963477
1.7216056
60.225611
0.46889918
61.958993
59.819842
0.5059043
-15.782801
0.4991373
2.3556109
-7.7671813
4.4944747
8.9707972
5.368267
35.670672
4.4325678
51.947074
2.811088
60.584957
1.6085183
61.428181
0.40199364
63.165518
60.221835
0.4729032
-16.697297
0.44159275
2.1431349
-9.437413
4.2045324
6.9093997
5.2950787
34.580126
4.3981397
52.844013
2.757236
62.22586
1.5075552
62.677862
0.31968262
64.35339
60.541518
0.41307837
-17.627848
0.51747238
1.9486736
-10.973008
4.0245837
4.8334896
5.2358921
33.368817
4.2462593
53.833646
2.589762
63.882357
1.3827077
63.884916
0.26191954
65.474179
60.803437
0.38545606
-18.088843
0.075538912
1.7679169
-12.355469
3.7580808
2.8433257
5.1060139
32.020884
4.2145419
54.725118
2.5543139
65.542585
1.2844606
65.15477
0.19572003
66.562919
60.999157
3.1424293
-20.817629
-0.41364312
4.4361712
-13.649211
5.5854176
1.6940794
5.1286233
32.477678
2.4052169
57.448524
0.063486618
67.884316
-1.0475517
66.265808
-1.5024998
67.017867
59.496658
3.272183
-24.101938
0.012125783
4.3995662
-14.776594
5.259899
0.83374664
4.3865222
33.351055
1.5862803
60.248766
-0.81922258
70.289819
-1.8599754
67.306561
-1.9948824
67.152774
57.501775
3.3398332
-26.223827
-1.217944
4.7506197
-16.187381
5.5012107
0.083155664
3.4559552
35.396311
0.2212052
63.483516
-1.9434293
72.454453
-2.450296
67.813428
-2.1343692
66.836848
55.367406
3.4043973
-27.004205
-2.6240193
4.9933299
-17.776313
5.3006245
-0.22413886
2.5565124
38.140423
-0.66009206
66.700121
-2.6919253
74.486286
-3.0581919
68.179694
-2.4031197
66.181775
52.964286
3.362117
-26.998566
-3.3677555
5.0948455
-19.509042
5.0861312
-0.21542463
1.4105613
41.815993
-2.1566639
70.267346
-3.5982721
75.927895
-3.4127242
67.994146
-2.2856318
65.054683
50.678654
3.2746433
-26.654391
-3.6188185
4.8800915
-21.11449
4.2346264
0.43004048
0.46027084
45.590348
-2.9023535
73.62997
-4.0206549
77.046196
-3.757385
67.730876
-2.3614291
63.658727
48.317225
3.0436418
-26.073203
-3.6248303
4.6866588
-22.757507
3.7349885
1.3817107
-0.88457131
50.209908
-4.2742409
77.01964
-4.6023476
77.374303
-3.8824107
67.010939
-2.041638
61.817954
46.275587
2.9245136
-26.063036
-2.93468
4.3282861
-24.161279
2.7363238
2.973673
-1.7136541
54.659886
-4.7221656
80.028151
-4.7470023
77.399139
-4.0159793
66.279916
-1.9837206
59.785696
44.291867
2.8321841
-1.8698613
-27.025359
4.2289896
-25.558085
1.9450147
5.2576479
-3.6228455
60.227746
-6.283546
82.688852
-5.2876709
76.403264
-4.0638396
65.056085
-1.5071101
57.228966
42.784757
-3.5867851
-1.01792
0.52810034
4.0766048
-7.7820628
-1.5704029
5.7656806
-12.28799
1.8314298
2.6744973
-15.260202
12.202726
-9.2305141
-14.344139
10.546318
-11.46238
-11.876654
-9.879286
7.4118005
-9.7913286
-7.8527117
5.7673864
-2.5488331
-3.838729
-3.4037665
-5.0561414
-2.2682355
-3.5072181
1.9792909
0.51000717
-7.6746158
2.5969948
-12.081318
6.2381316
-14.58513
14.706538
-12.504938
8.466126
-9.0931154
-13.291109
-7.3078431
-9.637984
-0.57368249
-10.57289
-12.538059
-3.4514045
4.8858386
0.54485675
-7.3870594
6.5326497
-11.549227
10.400299
-13.601954
16.759265
-10.797964
5.6621358
-6.5875369
-17.501535
-2.7226786
-13.502842
3.141494
-16.437062
-17.202271
-3.3558115
7.6896539
0.55199619
-7.1432895
10.320128
-11.042552
14.299561
-12.425215
18.141928
-8.8934365
2.1303575
-4.4691246
-21.925847
-0.13667427
-17.835293
5.952201
-22.525937
-21.803212
-3.3090165
10.403223
0.59544793
-6.8141246
13.825236
-10.241166
17.726603
-10.47268
18.373443
-5.9039607
-2.4383622
-1.4642693
-26.365538
3.6153875
-22.914949
9.060962
-27.971512
-25.303023
-3.2098763
12.95287
0.66022847
-6.3428041
16.958163
-9.3088951
20.692694
-8.5298072
17.594355
-3.1076707
-7.8604988
1.3192977
-30.792507
6.4351643
-28.030816
11.399219
-32.935566
-28.686946
-3.1023378
15.327396
0.72781175
-5.8832658
19.739091
-8.4411295
23.250558
-6.7779197
15.931145
-0.29448273
-14.343936
4.2848547
-35.371844
9.596416
-33.342378
14.064044
-37.403194
-31.433484
-2.9433569
17.497477
0.77327674
-5.4045659
22.2003
-7.375597
25.221589
-4.5799168
13.135465
2.3476554
-21.271508
6.9949015
-40.01909
12.108637
-38.456113
15.835464
-41.130021
-33.95967
-2.8093828
0.87435373
19.432506
-4.8949155
24.285833
-6.2789057
26.605579
-2.5167463
9.3733052
5.0114937
-28.799748
9.5785412
-44.586138
14.49159
-43.369162
17.906063
-44.544494
-36.149391
3.7186175
32.012327
-2.4878315
-33.243113
4.6146918
29.025012
-29.921087
0.57747517
-9.7047995
13.742016
-5.0628499
-64.402901
70.043226
-5.8717276
-79.024626
79.833504
-4.9174851
-75.172637
74.218394
-3.9863899
-65.520505
64.58941
-1.4568652
-59.267063
56.737538
-44.103614
42.646749
3.9026815
31.579715
-3.4700694
5.0266776
27.901016
1.8595317
-6.5376536
-3.0676218
-59.475747
-4.6848039
-77.407444
-4.4171277
-75.440313
-3.8876139
-66.050019
-1.9106063
-61.244071
-46.014221
3.9892928
31.557304
-3.966882
5.5207643
26.369545
3.0298103
-4.0466996
-2.3521175
-54.093819
-4.6096568
-75.149905
-4.4361498
-75.61382
-3.7612683
-66.724901
-1.9676665
-63.037673
-47.981887
4.1740603
31.296036
-3.9127924
5.7965348
24.74707
3.808088
-2.0582528
-0.77483388
-49.510898
-3.4183769
-72.506362
-3.8914749
-75.140722
-3.5904753
-67.0259
-2.2690814
-64.359066
-50.250968
4.2034115
30.654051
-3.5614265
6.1901709
22.760311
5.007089
-0.8751709
0.25094385
-44.754752
-2.8869472
-69.368471
-3.7175366
-74.310133
-3.3614984
-67.381938
-2.2049386
-65.515626
-52.455907
4.1928178
29.071662
-2.6104289
6.0350791
20.91805
5.2858759
-0.12596769
1.5504977
-41.019374
-1.4354263
-66.382547
-2.9230917
-72.822467
-3.0358942
-67.269136
-2.338707
-66.212813
-54.794614
4.0523708
26.162036
-1.1427444
5.9869223
18.983498
6.0209508
-0.15999617
2.6469162
-37.64534
-0.62192564
-63.113705
-2.3482087
-71.096184
-2.5617017
-67.055643
-2.1101399
-66.664375
-56.904754
3.8926241
22.241701
0.02771089
5.6362857
17.239836
5.9371196
-0.46083009
3.7851828
-35.493403
0.87138856
-60.199911
-1.2744309
-68.950365
-2.0213473
-66.308726
-2.0052433
-66.680479
-58.909997
3.6278456
19.044245
-0.4303898
5.4823847
15.385297
6.3035788
-1.2820242
4.7477207
-33.937544
1.7258421
-57.178032
-0.44432756
-66.780195
-1.2886103
-65.464444
-1.5588519
-66.410238
-60.468849
-0.72350701
57.32871
-56.605203
-1.9934755
57.208797
-55.938828
-3.1974836
55.945663
-54.741655
-4.6468121
53.905477
-52.456149
-5.6228618
48.678508
-47.702458
-5.5407698
39.299432
-39.381524
-2.7916687
19.03108
-21.780181
-0.37793447
0.45312959
-2.8668639
-11.524808
10.755997
0.390877
-0.6518838
57.980594
-1.8905998
58.447513
-3.0595138
57.114577
-4.5764748
55.422438
-5.6025887
49.704622
-5.330862
39.027705
-2.605619
16.305837
-0.35196415
-1.8005252
-12.293251
0.41647846
-0.56729531
58.547889
-1.813007
59.693224
-3.0236021
58.325173
-4.5660744
56.964911
-5.563945
50.702492
-5.1624486
38.626209
-2.7297798
13.873168
-0.49959498
-4.0307101
-13.231912
0.43906586
-0.49776348
59.045652
-1.7016793
60.89714
-2.875891
59.499384
-4.4696219
58.558642
-5.525017
51.757887
-5.0435665
38.144758
-2.8069406
11.636543
-0.62537315
-6.2122775
-14.307063
0.44977821
-0.41638296
59.462035
-1.611087
62.091844
-2.8236707
60.711968
-4.4373569
60.172328
-5.4582977
52.778828
-4.8466264
37.533087
-2.722042
9.5119582
-0.63087688
-8.3034426
-15.388493
0.4505532
-0.35155342
59.813589
-1.4942327
63.234524
-2.6669184
61.884654
-4.3131282
61.818538
-5.4065604
53.87226
-4.7158537
36.84238
-2.6067169
7.4028214
-0.61437055
-10.295789
-16.455778
0.45291447
-0.27442538
60.088014
-1.3926492
64.352747
-2.6010389
63.093043
-4.2586898
63.476189
-5.3212963
54.934867
-4.4387143
35.959798
-2.3947356
5.3588428
-0.56800552
-12.122519
-17.4139
0.39011584
-0.22042387
60.308438
-1.2662905
65.398614
-2.4262106
64.252963
-4.0775932
65.127571
-5.2387145
56.095988
-4.287023
35.008107
-2.2108749
3.2826947
-0.51239651
-13.820998
-18.435752
0.50945629
-0.16041109
-1.1720349
-2.3835154
-4.0361391
-5.1181832
-4.0476207
-2.0469502
-0.48265044
0.12584201
1.0905658
9.0135197
0.65191126
5.4441173
-7.2204154
9.0090814
-25.345145
8.8111719
-39.183615
7.3065397
-46.197826
5.2092161
-50.358825
3.3893592
-52.921798
1.4590319
-54.008501
-55.146171
2.2260638
6.2780371
0.50941881
6.8476372
-11.841989
9.3291147
-27.826623
8.7495339
-38.604034
7.2513244
-44.699616
5.2796342
-48.387135
3.4421736
-51.084338
1.5260239
-52.092351
-53.620147
2.9459407
2.7115198
0.62057662
7.7585948
-16.654643
9.3790802
-29.447108
8.6305602
-37.855514
7.1666471
-43.235703
5.260096
-46.480584
3.4374842
-49.261726
1.6014182
-50.256285
-52.018729
4.2689513
-2.2550251
0.69759354
8.6442728
-21.029964
9.4471769
-30.250012
8.5510962
-36.959433
7.0799275
-41.764535
5.3090413
-44.709698
3.4744269
-47.427112
1.6575501
-48.439408
-50.361179
6.7944318
-9.0689304
0.019473467
9.0808284
-23.316361
9.3355655
-30.504749
8.4003385
-36.024206
6.9885761
-40.352772
5.2812684
-43.00239
3.4722276
-45.618071
1.6919134
-46.659094
-48.669265
7.8969716
-16.64954
-0.31636208
9.2153199
-24.634709
9.1872921
-30.476722
8.3009223
-35.137837
6.9114282
-38.963278
5.2966164
-41.387578
3.507796
-43.82925
1.7279873
-44.879286
-46.941278
8.4105348
-22.907484
-2.1525908
9.312707
-25.536881
9.052946
-30.216961
8.1422582
-34.227149
6.8105955
-37.631615
5.227644
-39.804627
3.4850594
-42.086666
1.7397349
-43.133961
-45.201543
9.0391502
-24.9435
-7.0031346
9.3137381
-25.811469
8.9327828
-29.836005
8.0340073
-33.328373
6.7336411
-36.331249
5.2244835
-38.295469
3.5106145
-40.372797
1.7596906
-41.383037
-43.441853
9.2400341
-25.152587
-9.0309463
9.2287466
-25.800182
8.8202121
-29.427471
7.8799465
-32.388108
6.6278786
-35.079181
5.1424607
-36.810051
3.4657809
-38.696117
1.7585686
-39.675825
-41.683284
-0.10999212
42.301484
-42.191492
-0.10922921
40.147308
-40.148071
-0.086926464
39.270127
-39.29243
-0.022677625
37.294742
-37.358991
0.041057175
35.635216
-35.698951
0.1504547
33.225747
-33.335144
0.27989537
30.640021
-30.769462
0.3511205
27.538777
-27.610002
23.437648
-23.488293
0.40176587
-0.099151615
42.400636
-0.10279594
40.150952
-0.1077687
39.2751
-0.089948384
37.276922
-0.0079512504
35.553219
0.10688609
33.110909
0.21786905
30.529038
0.33072085
27.425925
23.395448
0.3729203
-0.044679615
42.445316
-0.028249885
40.134523
0.022469932
39.22438
0.086675397
37.212716
0.14805442
35.49184
0.26153282
32.997431
0.407409
30.383162
0.48174531
27.351589
23.444258
0.43293514
-0.012070759
42.457386
-0.0049561681
40.127408
0.02721845
39.192206
0.043535447
37.196399
0.12635917
35.409016
0.24719091
32.876599
0.3827223
30.247631
0.50875596
27.225555
23.527756
0.42525868
0.048264127
42.409122
0.095589057
40.080083
0.16750155
39.120293
0.24553952
37.118361
0.30399238
35.350563
0.42102218
32.759569
0.59188941
30.076764
0.69659977
27.120845
23.765292
0.45906337
0.085870065
42.323252
0.14024553
40.025708
0.19741039
39.063128
0.23237328
37.083398
0.31303802
35.269898
0.4279922
32.644615
0.59216509
29.912591
0.80306381
26.909946
24.11963
0.44872544
0.15515903
42.168093
0.25008393
39.930783
0.35853446
38.954678
0.45261757
36.989315
0.51095822
35.211558
0.61245124
32.543122
0.80233996
29.722702
1.0403961
26.67189
24.593752
0.56627482
0.20814065
41.959953
0.30932114
39.829602
0.41078631
38.853213
0.46829467
36.931807
0.54534396
35.134508
0.63158769
32.456878
0.78266662
29.571623
1.1917985
26.262758
25.11191
0.67364038
0.27666852
0.43044591
0.58754178
0.70929745
0.76462454
0.83339546
0.9775477
1.4401242
1.3994465
0.019578394
-23.714818
0.20694675
0.23230152
-27.822725
0.39284433
-30.930005
0.51903353
-33.461333
0.56240063
-35.742318
0.541027
-37.337617
0.41257684
-39.16398
0.28648204
-40.021976
-41.90501
-0.030314785
-23.926996
0.24249274
0.14852545
-28.001566