/*--------------------------------*- C++ -*----------------------------------*\
  =========                 |
  \\      /  F ield         | OpenFOAM: The Open Source CFD Toolbox
   \\    /   O peration     | Website:  https://openfoam.org
    \\  /    A nd           | Version:  11
     \\/     M anipulation  |
\*---------------------------------------------------------------------------*/
FoamFile
{
    format      ascii;
    class       volVectorField;
    location    "1.55";
    object      U;
}
// * * * * * * * * * * * * * * * * * * * * * * * * * * * * * * * * * * * * * //

dimensions      [0 1 -1 0 0 0 0];

internalField   nonuniform List<vector> 
4455
(
(99.982577 0.032311807 0)
(99.882506 0.029840057 -1.0930292e-18)
(99.695674 0.12072042 3.7650905e-18)
(99.402762 0.062515976 2.6137255e-20)
(98.926728 0.22229157 3.5861572e-18)
(98.398848 0.13184123 -1.3587948e-17)
(97.553005 0.4264253 6.0556739e-18)
(96.571424 0.20599119 0)
(94.997179 0.88779811 -3.775327e-17)
(100.00303 0.081178976 -7.1008104e-18)
(99.891494 0.1227349 6.9374664e-18)
(99.691686 0.26838772 -8.5680841e-18)
(99.389824 0.22798013 1.4355291e-17)
(98.881412 0.38887227 -2.7686081e-17)
(98.342198 0.27011895 3.0417899e-17)
(97.389169 0.40948938 -2.9466551e-18)
(96.425475 0.14444485 4.3003164e-18)
(94.52369 -0.042992238 1.6446218e-16)
(100.01745 0.1074559 -7.4044856e-18)
(99.926136 0.23006807 9.3944404e-18)
(99.687538 0.39586833 8.3879729e-18)
(99.399682 0.4414364 -8.3736096e-18)
(98.849242 0.58020266 3.6929131e-17)
(98.312487 0.56429783 -2.1008076e-17)
(97.336041 0.68088551 2.6844885e-18)
(96.265964 0.21860089 -6.1241262e-17)
(94.369937 0.53156669 -1.165722e-16)
(100.02015 0.13422391 6.0751585e-20)
(99.951838 0.31783787 -1.0840615e-18)
(99.699528 0.54056938 1.9839184e-17)
(99.407063 0.61198724 2.73914e-18)
(98.877631 0.84077193 3.5364808e-21)
(98.266792 0.77397419 -4.0141067e-18)
(97.26765 1.1600881 4.5174759e-17)
(96.042926 0.47793019 1.2256101e-16)
(94.033507 1.2465267 9.7716564e-17)
(100.04219 0.17625342 1.4312021e-17)
(99.965538 0.37372055 -1.6068402e-17)
(99.727427 0.68589753 2.0457651e-17)
(99.4145 0.76558341 2.9476326e-20)
(98.912825 1.0956408 -2.5254177e-17)
(98.263175 1.0046836 -7.8205766e-18)
(97.20388 1.4162231 -3.5615798e-17)
(95.891366 0.69145727 -5.7700789e-17)
(93.624819 1.5587945 -2.893051e-16)
(100.04813 0.1960665 0)
(99.995195 0.43999325 0)
(99.75949 0.80400224 -3.5719335e-17)
(99.442709 0.92299238 -4.1226582e-17)
(98.969263 1.3238586 0)
(98.297167 1.3217114 -5.6404191e-17)
(97.143213 1.8395863 -4.8151506e-18)
(95.634799 1.0451914 -3.4986351e-18)
(93.137847 2.1244756 3.5857741e-16)
(100.07918 0.22138436 0)
(99.992316 0.47034318 -9.6197179e-19)
(99.812487 0.92355979 1.0827919e-18)
(99.47823 1.0543056 4.0294811e-17)
(99.020402 1.5091349 -3.0031873e-18)
(98.339412 1.5212864 1.2005862e-16)
(97.179506 2.1139217 0)
(95.501089 1.3071411 0)
(92.657249 2.6950567 1.6665541e-16)
(100.09505 0.23494776 2.6670583e-17)
(100.01945 0.50390224 0)
(99.835451 0.99885079 0)
(99.557288 1.2216914 0)
(99.10776 1.7408556 0)
(98.391335 1.8416522 -5.9918976e-17)
(97.133364 2.5365863 -6.4942304e-17)
(95.312103 1.7120949 9.5919088e-17)
(92.143615 3.3672844 2.728966e-18)
(100.11779 0.24003009 -2.626287e-17)
(100.0364 0.52253606 -9.1939797e-19)
(99.878217 1.0470244 -1.0524701e-18)
(99.590552 1.2878778 2.3687574e-18)
(99.216624 1.8759927 9.224628e-17)
(98.500395 2.0115332 1.051527e-16)
(97.241264 2.839466 2.0663369e-16)
(95.155943 2.0659852 -9.4125369e-17)
(91.613852 4.0358159 -2.8696038e-16)
(100.12501 0.23974422 0)
(100.13577 0.22997708 4.8196692e-17)
(100.13398 0.21523309 -4.7814338e-17)
(100.13118 0.19268434 4.5517788e-17)
(100.12651 0.16780596 -4.4494685e-17)
(100.11259 0.13790077 8.8406594e-17)
(100.09654 0.10610086 -8.5825203e-17)
(100.07978 0.07263388 0)
(100.03715 0.029439384 0)
(100.07011 0.54169536 0)
(100.08599 0.54236142 8.3907205e-19)
(100.11632 0.53616674 0)
(100.12756 0.51529996 2.3773942e-18)
(100.14565 0.48505487 4.8231897e-17)
(100.16479 0.44747367 -1.4378382e-16)
(100.1606 0.39506746 9.2993875e-17)
(100.1877 0.34708631 -1.4135414e-18)
(100.14717 0.23564416 8.9124213e-17)
(99.927726 1.1185672 6.1563789e-17)
(99.984854 1.1581385 -1.2109114e-16)
(100.03866 1.1752039 1.1516851e-16)
(100.10898 1.1719719 -3.8191914e-18)
(100.14429 1.1421158 -5.4029076e-17)
(100.22813 1.1111169 -1.6382356e-18)
(100.24615 1.0356565 0)
(100.34302 0.98568692 3.0632127e-18)
(100.34085 0.81585614 -1.4823345e-18)
(99.678956 1.4221405 6.4669119e-17)
(99.763118 1.5243149 -1.3119386e-16)
(99.847934 1.5923612 1.2429654e-16)
(99.971116 1.6499578 -6.0125343e-17)
(100.04281 1.6538483 -3.7549094e-18)
(100.18345 1.6763006 1.7906682e-18)
(100.24602 1.6222263 0)
(100.40686 1.607991 -1.670535e-18)
(100.4265 1.4424516 1.0026038e-16)
(99.287734 2.0813529 -7.4093059e-17)
(99.469183 2.2897563 0)
(99.546083 2.4331467 -6.7730961e-17)
(99.755861 2.5877452 6.9829637e-17)
(99.846565 2.6578562 -6.2499405e-17)
(100.06645 2.7669602 6.4575838e-17)
(100.17162 2.7662797 0)
(100.40889 2.8437119 0)
(100.49599 2.6996993 3.5704092e-18)
(98.564142 2.2953724 -9.1719766e-17)
(98.74145 2.6230308 -8.7119517e-17)
(98.841429 2.849683 8.3748004e-17)
(99.046734 3.1493781 7.9602213e-17)
(99.193492 3.2941458 -7.6743216e-17)
(99.424619 3.5662922 0)
(99.610616 3.6131419 1.3991754e-16)
(99.863106 3.859506 -1.0767913e-18)
(100.02651 3.7540566 -2.5896298e-16)
(97.223695 3.2153154 -1.0942644e-16)
(97.422576 3.8133253 0)
(97.519206 4.0898265 0)
(97.7977 4.6145573 3.0284572e-18)
(98.001696 4.8061687 0)
(98.344931 5.3305766 0)
(98.638984 5.4522772 0)
(99.031713 5.9674504 0)
(99.324766 5.9549485 0)
(95.042612 2.5400716 4.4459221e-18)
(94.8638 3.499103 0)
(94.966123 4.1128005 3.9947606e-18)
(94.94807 5.150007 -7.2848468e-18)
(95.340822 5.641656 -1.0892751e-16)
(95.529465 6.5535818 -1.0204417e-16)
(96.071193 6.8695588 1.971791e-16)
(96.37993 7.6330729 1.8794753e-16)
(96.984936 7.7842749 -1.778603e-16)
(90.870824 4.8466954 5.4583346e-16)
(90.230913 6.9346393 -3.3768849e-16)
(90.169082 8.2154588 3.1311749e-16)
(90.584864 10.322521 -2.977138e-16)
(91.31876 11.308959 -4.1417889e-16)
(92.240849 12.961836 7.6912092e-16)
(93.164183 13.582848 -4.8366168e-16)
(94.202354 14.851796 -2.2350044e-16)
(95.13103 15.193186 2.1025931e-16)
(100.05516 0.046287445 -1.1703738e-19)
(100.08431 0.06510353 1.1999721e-16)
(100.12967 0.090382041 -1.4155807e-19)
(100.18951 0.11870753 -1.2078019e-16)
(100.26265 0.1483594 1.1780963e-19)
(100.35099 0.17885945 1.2102015e-16)
(100.45516 0.21067665 -1.2160941e-16)
(100.57699 0.24318694 -1.1800401e-19)
(100.72869 0.28579053 -6.0736616e-17)
(100.21196 0.26481943 -1.2791768e-16)
(100.25496 0.35824507 1.2848817e-16)
(100.36542 0.36773592 -1.28546e-16)
(100.44037 0.49127972 0)
(100.59211 0.48774994 1.2887163e-16)
(100.70021 0.63752321 -2.5401712e-19)
(100.88939 0.61749286 -1.9188371e-19)
(101.03296 0.79032061 -1.2889491e-16)
(101.2655 0.7497117 6.4360139e-17)
(100.4757 0.8893574 1.3626513e-16)
(100.51691 1.0635576 -1.3681856e-16)
(100.68536 1.1118283 -1.3718025e-16)
(100.73963 1.2970953 1.3749301e-16)
(100.93124 1.3430496 -1.3794582e-16)
(101.00486 1.5542843 1.3747235e-16)
(101.23369 1.599195 -1.3798096e-16)
(101.3323 1.8470754 4.1500376e-19)
(101.60596 1.8850072 1.3770835e-16)
(100.61315 1.5627634 -1.4660686e-16)
(100.64215 1.8042012 -5.7406185e-19)
(100.84686 1.8997411 5.791109e-19)
(100.87351 2.141789 0)
(101.09664 2.235312 -4.0258503e-21)
(101.14479 2.5087587 -1.4708172e-16)
(101.40939 2.6017843 1.4951459e-16)
(101.48726 2.9201155 5.8059589e-19)
(101.8039 3.0025707 5.8006053e-19)
(100.73851 2.883369 -6.2046758e-19)
(100.75664 3.2023413 -1.5978549e-16)
(100.9881 3.3521802 -1.097398e-19)
(100.98135 3.6456572 1.6085353e-16)
(101.22637 3.7880731 1.6111332e-16)
(101.24669 4.1158387 -1.6191988e-16)
(101.53948 4.2563032 -6.2616534e-19)
(101.59378 4.6337492 -6.2602282e-19)
(101.9464 4.7611277 -6.2570569e-19)
(100.32612 4.0046415 1.7656019e-16)
(100.31785 4.4076396 0)
(100.59361 4.6142521 0)
(100.55806 4.9871317 1.7610233e-16)
(100.85415 5.1804061 -1.7845669e-16)
(100.85482 5.5909177 -1.7777186e-16)
(101.20339 5.7764498 3.5508788e-16)
(101.24366 6.2330627 -1.1031016e-18)
(101.6511 6.3972455 -3.5470086e-16)
(99.696841 6.3972792 -7.8965248e-19)
(99.747993 6.8781418 0)
(100.01301 7.1724968 7.8698609e-19)
(100.03605 7.561389 1.9863796e-16)
(100.33071 7.8201037 -1.9986096e-16)
(100.41336 8.1900033 1.9875539e-16)
(100.76372 8.4331933 -1.9919072e-16)
(100.89991 8.7806777 -7.7558384e-19)
(101.28423 8.9970386 1.9740334e-16)
(97.352075 8.3622265 -2.2512789e-16)
(97.833338 8.9693358 2.2809308e-16)
(98.187606 9.3833384 -2.2556651e-16)
(98.699535 9.887014 2.2442432e-16)
(99.089659 10.206107 -2.1980019e-16)
(99.638651 10.620947 1.8901185e-18)
(100.05133 10.849473 2.2088154e-16)
(100.59989 11.16475 1.6937791e-18)
(100.98117 11.283428 1.0761042e-16)
(96.06486 16.014696 0)
(96.72844 16.587713 -2.5008387e-16)
(97.584233 17.098685 4.8822647e-18)
(98.258287 17.411533 5.7508172e-18)
(99.136872 17.605099 4.8499356e-16)
(99.836359 17.539939 -2.4097268e-16)
(100.77265 17.225606 -2.3466647e-16)
(101.526 16.541579 2.3567362e-16)
(102.50624 15.444627 1.1616622e-16)
(103.05131 14.181128 -1.3554494e-16)
(103.27897 12.854861 0)
(103.54753 12.050697 1.3352917e-16)
(103.26224 11.187511 -1.3355702e-16)
(103.00481 10.660267 0)
(102.18899 9.8372904 0)
(101.6425 9.434012 0)
(100.58722 8.7167644 -1.4556382e-16)
(99.914756 8.5066237 1.4556485e-16)
(101.43251 11.471804 -1.2257766e-16)
(101.69428 11.598649 0)
(102.03231 11.662696 0)
(102.20781 11.689786 0)
(102.37542 11.671705 0)
(102.40097 11.69091 0)
(102.36121 11.700716 0)
(102.27156 11.75694 1.1885242e-16)
(102.04284 11.815484 -2.3899267e-16)
(101.43309 9.2934453 -1.4921138e-18)
(101.78476 9.5720846 -2.1558331e-16)
(101.90834 9.8155059 0)
(102.23816 10.066774 -1.0574089e-16)
(102.31641 10.292868 1.0574078e-16)
(102.60162 10.512724 0)
(102.6145 10.725208 0)
(102.8446 10.947056 0)
(102.77599 11.172673 0)
(101.68513 6.8564749 1.9029184e-16)
(102.11122 7.0906245 0)
(102.1494 7.5372309 9.3264972e-17)
(102.57862 7.7628972 -1.8589475e-16)
(102.61607 8.206726 9.2624738e-17)
(103.04618 8.4344103 0)
(103.07164 8.8836494 0)
(103.50404 9.1292229 0)
(103.50472 9.593299 8.9488773e-17)
(102.00908 5.1758483 0)
(102.39975 5.3302595 1.6733999e-16)
(102.47419 5.7682528 -2.5043274e-16)
(102.8951 5.9220348 8.3087694e-17)
(102.9799 6.3780441 8.1838348e-17)
(103.42735 6.537358 -6.5735534e-19)
(103.51637 7.0136998 -1.6168234e-16)
(103.99094 7.1867859 1.6030728e-16)
(104.07746 7.6887584 -7.9802588e-17)
(101.89895 3.3622135 0)
(102.26131 3.4604596 7.5732354e-17)
(102.37978 3.8538041 -7.573471e-17)
(102.78509 3.9461676 0)
(102.92824 4.3703667 -1.4793446e-16)
(103.37652 4.4590248 1.479359e-16)
(103.54272 4.9164108 7.2595763e-17)
(104.03708 5.0051013 -1.4444709e-16)
(104.22362 5.4999822 7.1849781e-17)
(101.72296 2.1707484 0)
(102.04024 2.2162379 0)
(102.18174 2.5389536 0)
(102.54465 2.5799407 -6.8516119e-17)
(102.71349 2.9398218 1.3647427e-16)
(103.12426 2.9758744 -1.3531841e-16)
(103.32265 3.3755803 6.7359329e-17)
(103.78665 3.406957 -6.6030191e-17)
(104.0165 3.8512047 1.3132379e-16)
(101.43718 0.94896316 -1.3015976e-16)
(101.7177 0.90239629 4.3150139e-19)
(101.92474 1.1391926 6.4454325e-17)
(102.24982 1.0778291 -6.3481389e-17)
(102.49529 1.3460035 6.3481364e-17)
(102.86654 1.2656542 0)
(103.1526 1.5645771 6.1715804e-17)
(103.57786 1.4646687 -1.2275041e-16)
(103.90844 1.8015686 6.1034449e-17)
(100.82131 0.34062739 3.0256971e-19)
(101.05412 0.35160792 6.1216268e-17)
(101.20141 0.47327525 6.0555528e-17)
(101.50782 0.48400308 -6.0555534e-17)
(101.67817 0.60009793 0)
(102.03015 0.60948613 0)
(102.23724 0.72546202 -5.8770607e-17)
(102.6494 0.74104073 1.169801e-16)
(102.91669 0.8634336 -5.8209473e-17)
(103.39263 0.88866391 0)
(103.72716 1.0170216 -5.618489e-17)
(104.27253 1.0518059 7.9879656e-19)
(104.6799 1.1865456 8.6711046e-19)
(105.30146 1.2321586 9.3989121e-19)
(105.7901 1.3730777 5.3579087e-17)
(106.49796 1.4308445 5.1457476e-17)
(107.07877 1.5791557 -5.1457477e-17)
(107.88482 1.6518834 0)
(104.39588 1.6824786 0)
(104.77454 2.0646046 0)
(105.33096 1.9266475 -5.776443e-17)
(105.76091 2.3603606 9.6955214e-19)
(106.39378 2.2039779 1.0373256e-18)
(106.87865 2.6963982 5.5757063e-17)
(107.59742 2.5221192 5.3459125e-17)
(108.14289 3.0829342 -5.3458611e-17)
(108.96005 2.8907842 0)
(104.54003 3.8792484 -6.5294277e-17)
(104.80271 4.3740702 0)
(105.39227 4.4008663 0)
(105.6893 4.9534458 -6.1815943e-17)
(106.35223 4.9814097 1.2261209e-16)
(106.68631 5.600634 -1.0874099e-18)
(107.43184 5.6316954 -1.1612849e-18)
(107.80789 6.3284796 -5.8546234e-17)
(108.64757 6.3633162 0)
(104.76768 5.5940598 -7.0234568e-17)
(104.97131 6.1325344 7.0233658e-17)
(105.56945 6.2385293 0)
(105.78758 6.8292161 0)
(106.44615 6.9539675 6.646059e-17)
(106.67829 7.6087821 -6.6459543e-17)
(107.40686 7.7582366 6.4250719e-17)
(107.65589 8.4925611 -3.272702e-17)
(108.46802 8.6705636 -3.152185e-17)
(104.58114 7.8855193 -7.8348583e-17)
(104.65876 8.4219373 7.8346148e-17)
(105.19603 8.6534128 0)
(105.25962 9.2378325 0)
(105.83852 9.5149777 0)
(105.88529 10.165924 0)
(106.51848 10.498021 0)
(106.54921 11.237489 0)
(107.254 11.630896 0)
(103.94051 9.8752271 -8.9488735e-17)
(103.90334 10.364094 8.830752e-17)
(104.34392 10.703465 -8.8300882e-17)
(104.2585 11.233034 8.7178215e-17)
(104.70998 11.644617 -8.7168215e-17)
(104.57024 12.240069 0)
(105.05017 12.733392 0)
(104.85625 13.425335 0)
(105.39183 14.008296 0)
(102.95084 11.441796 0)
(102.80194 11.686304 -1.0355443e-16)
(102.93573 12.042389 1.0352085e-16)
(102.67944 12.343424 0)
(102.80514 12.808816 1.0381154e-16)
(102.43276 13.20059 -1.0382045e-16)
(102.58285 13.798976 0)
(102.09326 14.316315 5.2237874e-17)
(102.29749 15.055245 -1.0458613e-16)
(101.86149 11.959221 1.199587e-16)
(101.42389 12.14309 1.2187395e-16)
(101.17445 12.37811 -1.218948e-16)
(100.56336 12.699791 1.2444705e-16)
(100.25901 13.041104 -2.5038912e-16)
(99.487947 13.525283 2.5344262e-16)
(99.145018 13.991127 -2.5669978e-16)
(98.227594 14.667222 1.2918242e-16)
(97.866978 15.279278 0)
(98.762269 7.9888473 -1.5228955e-16)
(98.009364 7.9742938 1.5229038e-16)
(96.781335 7.6333836 0)
(95.956444 7.7958449 0)
(94.650862 7.6218662 0)
(93.740183 7.9699396 0)
(92.340253 7.980905 0)
(91.325337 8.5494656 -8.9182988e-17)
(89.816047 8.7853013 8.9181588e-17)
(88.683124 9.631768 9.3313199e-17)
(96.818389 16.183481 0)
(101.70411 15.752189 5.2359997e-17)
(105.1506 14.828395 0)
(107.27386 12.482186 0)
(108.74107 9.5025621 0)
(109.07334 7.1501976 2.727564e-17)
(109.57395 3.5319359 2.468028e-17)
(108.57223 1.8086051 2.3782417e-17)
(87.057844 10.158696 -9.3311178e-17)
(96.468517 16.965806 0)
(101.97779 16.611531 0)
(105.7729 15.50508 4.1406729e-17)
(108.07123 12.939587 0)
(109.65428 9.7097696 -2.9456862e-17)
(110.02063 7.187179 -5.3786484e-17)
(110.5043 3.3209616 -4.8575162e-17)
(109.49079 1.8988984 -4.6804632e-17)
(85.802861 11.379024 0)
(95.310856 18.142987 0)
(101.32021 17.572151 5.2503268e-17)
(105.4986 16.485667 -4.1407938e-17)
(108.09036 13.925881 0)
(109.96313 10.658901 2.9456636e-17)
(110.5069 8.0769101 2.6511082e-17)
(111.19692 4.0561784 2.3894417e-17)
(110.30065 2.0647279 2.3022208e-17)
(84.064313 12.300513 9.9653959e-17)
(95.012315 19.119687 0)
(101.66932 18.541454 -1.0495297e-16)
(106.2418 17.253921 0)
(109.00342 14.445187 0)
(110.99804 10.891948 -2.7804952e-17)
(111.57665 8.1116616 -2.4806415e-17)
(112.2633 3.8236391 0)
(111.34805 2.1743665 -2.1305422e-17)
(82.709757 14.044249 -9.9653933e-17)
(93.782352 20.623796 -7.0320515e-17)
(100.98466 19.797946 5.2448055e-17)
(105.95912 18.429063 0)
(109.03818 15.588957 0)
(111.35913 11.976905 2.7804866e-17)
(112.1377 9.1172817 2.4806475e-17)
(113.01461 4.6407454 0)
(112.29693 2.3475887 2.1305418e-17)
(80.897149 15.508681 0)
(93.596568 21.816404 7.03189e-17)
(101.44423 20.87972 -5.2061691e-17)
(106.84239 19.259073 0)
(110.09011 16.160377 0)
(112.53784 12.227975 -2.5864993e-17)
(113.34437 9.1416063 -2.2829769e-17)
(114.28045 4.4448602 0)
(113.48627 2.4753559 -1.9295695e-17)
(79.549908 18.001486 0)
(92.353824 23.712072 0)
(100.78523 22.471349 5.2061631e-17)
(106.62757 20.688068 -1.9193522e-17)
(110.167 17.484826 -1.5315117e-17)
(112.97056 13.463537 3.8248875e-17)
(113.99893 10.273314 3.3689805e-17)
(115.08119 5.3023027 0)
(114.58713 2.6521422 2.8382409e-17)
(77.854885 20.212517 0)
(92.381943 25.121438 -3.5605247e-17)
(101.40688 23.64994 0)
(107.64659 21.548343 1.9186329e-17)
(111.36968 18.07953 1.5308058e-17)
(114.31241 13.720461 -5.9608509e-19)
(115.36941 10.273993 -2.1122419e-17)
(116.55959 5.1660973 0)
(115.91982 2.7936282 -9.0867169e-18)
(76.832012 23.800524 -5.3218875e-17)
(91.22283 27.539206 3.5596664e-17)
(100.83971 25.718481 0)
(107.56907 23.345085 0)
(111.57281 19.725236 0)
(114.8675 15.19842 -2.2919061e-17)
(116.12667 11.542258 6.5290568e-19)
(117.41493 6.0448996 0)
(117.16604 2.9632828 0)
(118.84434 3.1258044 0)
(119.08658 5.9665468 0)
(117.69735 11.499894 1.2415776e-19)
(116.31013 15.276572 1.1651643e-17)
(112.93051 20.097272 0)
(108.78704 24.033547 -2.4466621e-18)
(101.82077 26.769352 -6.7413878e-19)
(91.807981 29.028266 -2.9361112e-17)
(75.766428 26.844292 9.8675358e-17)
(120.44078 3.2441558 -3.2640751e-18)
(120.06103 6.6945546 -4.7602902e-19)
(118.62183 12.618604 4.8249705e-18)
(117.12144 16.709735 -8.5523158e-20)
(113.52074 21.729691 -5.54795e-18)
(109.07832 25.876717 8.2263552e-18)
(101.80089 29.056109 -3.343987e-18)
(91.485587 32.011616 3.7542574e-17)
(76.464732 31.64676 -4.9957235e-17)
(122.07873 3.3426095 6.1812514e-18)
(121.95467 6.6045184 0)
(120.50338 12.616292 7.8033632e-18)
(118.75993 16.710677 -4.4437194e-18)
(115.20224 21.985482 5.5430974e-18)
(110.72549 26.433153 -1.5289856e-17)
(103.59626 29.93109 -1.4444538e-17)
(93.587191 33.208951 8.3369519e-18)
(79.08634 33.378934 1.5755289e-18)
(123.83494 3.4400226 -2.9174952e-18)
(123.04997 7.3035756 -3.8346345e-19)
(121.56282 13.714943 -3.3148452e-18)
(119.79027 18.283126 5.1017483e-18)
(116.07892 23.789338 2.0830195e-18)
(111.35949 28.449356 7.993624e-18)
(104.06505 32.356657 1.138977e-17)
(93.955019 36.077484 4.5470508e-18)
(80.318542 37.415945 -5.2068922e-18)
(125.72021 3.5420679 4.8922607e-19)
(125.22395 7.2340495 -5.481918e-19)
(123.72158 13.727836 -4.0998731e-19)
(121.64049 18.154635 1.3296002e-18)
(118.03317 23.888433 -2.035104e-18)
(113.29772 28.830495 -2.5485736e-18)
(106.25302 33.034608 -3.032575e-18)
(96.427565 37.055543 3.4246316e-18)
(82.487037 38.665683 -6.5354247e-18)
(127.72146 3.6468125 -4.9499755e-19)
(126.44681 7.9436055 5.5479487e-19)
(124.9155 14.77696 -3.4863801e-19)
(122.89268 19.829203 -4.0632983e-20)
(119.13939 25.784712 -5.2334335e-19)
(114.22782 30.934079 1.7603155e-18)
(106.9639 35.492426 -2.895937e-18)
(97.000109 39.875793 3.2781807e-18)
(83.725737 42.230899 0)
(129.82332 3.7435339 -2.0915001e-19)
(128.90284 7.9071726 -2.0295213e-19)
(127.33396 14.78875 -1.9118805e-19)
(124.92755 19.556792 -4.0870001e-19)
(121.26366 25.731511 -4.9810954e-19)
(116.28649 31.159766 1.8169595e-18)
(109.26953 35.984473 -4.7755802e-18)
(99.508333 40.633724 7.2337303e-18)
(85.8932 43.115672 -4.7642748e-18)
(132.02743 3.8296331 3.1235945e-19)
(130.24608 8.6046306 2.6248883e-19)
(128.66383 15.765931 7.0899151e-19)
(126.39546 21.304514 1.1126003e-18)
(122.59263 27.680495 1.4874669e-18)
(117.49079 33.284594 -5.8332538e-19)
(110.24222 38.451309 -2.5714405e-18)
(100.36388 43.417192 -1.0214907e-18)
(87.398343 46.311646 -5.5391149e-18)
(134.3342 3.8963814 3.8907408e-19)
(132.95245 8.5786916 -2.6576164e-19)
(131.32331 15.759791 -9.2831846e-19)
(128.58906 20.879959 -7.643703e-19)
(124.85067 27.458936 1.9128096e-18)
(119.67046 33.372021 1.9575774e-18)
(112.66713 38.727198 -1.1399833e-17)
(103.00159 43.939167 2.7147849e-18)
(89.648461 46.910336 1.0390713e-17)
(91.364029 49.852186 -9.6493585e-18)
(104.14178 46.680328 3.5422288e-18)
(113.93499 41.181339 1.5397936e-17)
(121.14385 35.423981 -1.6487536e-18)
(126.42804 29.435071 -3.4494191e-19)
(130.27161 22.67798 1.0425908e-19)
(132.81519 16.638185 3.3740683e-19)
(134.40641 9.2461505 4.3795194e-20)
(136.7483 3.9481225 -1.7816116e-18)
(93.625977 50.263503 3.5239731e-17)
(106.91497 46.979402 2.2127142e-18)
(116.48926 41.215125 -1.9383507e-17)
(123.50455 35.440601 -2.6418387e-19)
(128.81035 29.012322 -1.3182726e-18)
(132.60531 22.090745 -3.7141467e-19)
(135.68181 16.593317 2.6633485e-18)
(137.34044 9.2226517 0)
(139.26331 3.9769286 1.2592258e-18)
(95.470978 53.028015 -4.4900201e-17)
(108.3084 49.680497 2.2614989e-17)
(118.05279 43.630659 9.4371084e-18)
(125.21696 37.341179 -1.3575792e-19)
(130.65818 30.982905 -5.211412e-19)
(134.48547 23.906562 1.2890642e-19)
(137.37326 17.343851 1.3572948e-18)
(138.89567 9.8512044 -4.6397046e-18)
(141.8767 3.9901007 -5.8773545e-18)
(97.712615 53.287617 -8.054363e-18)
(111.18482 49.767834 1.2918592e-18)
(120.70658 43.408517 -1.3792444e-18)
(127.73868 37.266194 0)
(133.15033 30.329557 7.1094157e-19)
(136.9565 23.166556 0)
(140.41473 17.236121 -4.1069231e-18)
(142.00412 9.8193918 1.1228318e-17)
(144.57716 3.9770202 -1.8140152e-18)
(99.740197 55.920056 -2.9383504e-18)
(112.84609 52.43603 -1.4167254e-17)
(122.56507 45.75421 1.0647146e-18)
(129.6676 38.989429 0)
(135.26707 32.256094 5.4555822e-18)
(138.98012 24.912059 -6.7847651e-18)
(142.28381 17.8314 -3.9859028e-19)
(143.71648 10.393631 -1.5242879e-17)
(147.36033 3.9453334 7.8579265e-18)
(102.01925 56.00463 -2.9789871e-17)
(115.79724 52.288616 -8.0430091e-18)
(125.28498 45.258098 -8.072855e-19)
(132.32285 38.806525 7.6007091e-20)
(137.83569 31.36024 2.8645373e-18)
(141.63557 24.117647 1.6373881e-17)
(145.46556 17.638411 -5.2894706e-19)
(146.9472 10.338751 8.6367799e-18)
(150.21285 3.8834273 0)
(104.3405 58.532428 2.0552141e-17)
(117.77181 54.85858 1.1284342e-17)
(127.41041 47.473131 -8.2105724e-19)
(134.44249 40.329618 4.1628637e-19)
(140.19935 33.203856 -7.1033425e-18)
(143.82076 25.691661 -9.9133596e-18)
(147.47305 18.057682 -7.6982379e-19)
(148.80025 10.847351 7.0539526e-19)
(153.12672 3.8009648 0)
(106.69988 58.417793 0)
(120.82348 54.532805 7.4503398e-20)
(130.23887 46.709833 -6.3509209e-20)
(137.20284 40.022565 2.0251066e-17)
(142.82622 32.05988 6.1383339e-19)
(146.5987 24.836287 -2.7475699e-17)
(150.74945 17.760987 3.0317869e-17)
(152.129 10.757769 -2.990849e-17)
(156.07737 3.6854213 -3.3142786e-17)
(109.39211 60.841481 2.86518e-17)
(123.0902 56.879104 -5.4866104e-18)
(132.48517 48.705242 5.070293e-19)
(139.48775 41.324867 -2.1384809e-17)
(145.37756 33.80851 1.0041871e-18)
(148.92233 26.214113 2.7951744e-17)
(152.84467 17.993893 -3.2695326e-17)
(154.09926 11.190609 3.1319647e-17)
(159.04751 3.5599575 -4.4740859e-18)
(162.23561 3.3982905 3.7733354e-17)
(157.527 11.041531 -3.877795e-17)
(156.19697 17.581201 0)
(151.86119 25.253009 2.0843622e-18)
(148.09795 32.362108 -3.9312656e-17)
(142.43727 40.859514 -3.2556117e-17)
(135.60992 47.682545 0)
(126.4901 56.340925 -9.3635847e-18)
(112.09621 60.467304 -2.7710373e-17)
(165.25296 3.1717893 0)
(159.64071 11.273312 4.0137189e-17)
(158.37581 17.536029 0)
(154.445 26.301297 2.4747063e-18)
(150.94334 33.877996 7.9249957e-17)
(145.12099 41.822536 3.5400987e-17)
(138.34635 49.342061 -3.572785e-17)
(129.52 58.53339 1.5068472e-17)
(116.05175 63.033105 2.0720063e-18)
(168.18693 2.8486863 0)
(163.17019 10.9608 0)
(161.7442 16.990538 5.334141e-17)
(157.54506 25.150185 0)
(153.8645 32.197261 -4.5140761e-17)
(148.29499 41.12942 4.8587417e-17)
(141.76987 47.922952 3.250939e-17)
(133.40787 57.525959 2.3605628e-18)
(119.63565 62.279873 -1.4577428e-17)
(171.00284 2.4533269 0)
(165.34731 11.0235 0)
(163.9098 16.765024 -5.4448687e-17)
(160.23879 25.915131 -5.5887285e-17)
(156.76033 33.448685 -6.0027998e-17)
(151.11139 41.781677 -5.3599772e-17)
(144.58006 49.146537 0)
(136.66477 59.116014 -4.8924921e-17)
(124.2936 64.368842 1.0340135e-17)
(173.74154 2.0125419 -9.2134949e-19)
(168.88642 10.596579 1.0138663e-18)
(167.23138 16.080433 0)
(163.36024 24.564782 -6.3609342e-18)
(159.73869 31.582838 1.3299513e-16)
(154.30348 40.904005 -4.2323842e-18)
(148.00006 47.426688 -6.2599347e-17)
(140.40034 57.670606 5.3480421e-17)
(128.34955 63.21953 -4.8817533e-17)
(176.35606 1.5404556 1.0163368e-18)
(171.04793 10.541332 -1.1203864e-18)
(169.36471 15.675883 0)
(166.06752 25.046772 7.2866561e-17)
(162.65036 32.561441 -7.9025517e-17)
(157.16186 41.292632 4.8667856e-18)
(150.71594 48.337218 6.4747373e-17)
(143.52605 58.641164 0)
(133.75796 64.579634 4.8696414e-17)
(178.80824 1.0486637 -1.1133775e-18)
(174.49838 10.009492 -7.619475e-17)
(172.60964 14.853777 2.3607645e-18)
(169.11572 23.496108 -8.1368794e-17)
(165.61535 30.518552 -9.2104927e-17)
(160.32289 40.278944 0)
(153.95496 46.491163 0)
(146.7471 56.740777 8.6743712e-17)
(138.55096 62.791545 0)
(181.26588 0.42069826 0)
(176.52008 9.8184662 7.9021728e-17)
(174.65584 14.290235 0)
(171.74693 23.718966 9.1057842e-17)
(168.49448 31.208813 8.3101294e-17)
(163.19567 40.44928 -9.9678606e-17)
(156.43977 47.350457 0)
(149.28769 57.099586 -9.6285986e-17)
(144.84427 63.071633 1.3562191e-16)
(182.59312 0.00046715006 0)
(179.75018 9.1579755 0)
(177.74469 13.357061 2.8519503e-18)
(174.62803 21.981386 2.776782e-18)
(171.44405 28.920673 -6.6683597e-18)
(166.30194 39.333668 1.0289794e-16)
(159.91061 45.421673 0)
(151.68887 54.56063 0)
(149.51155 60.640283 -1.352012e-16)
(184.96122 -0.57961233 2.7992679e-18)
(181.46444 9.0241307 -1.8570493e-19)
(179.6547 12.64893 -1.0215912e-16)
(177.10931 22.035714 0)
(174.03777 29.534582 0)
(169.16785 39.374128 6.0777803e-18)
(161.57049 47.571105 1.0011019e-16)
(152.35713 55.51131 -3.1907084e-18)
(154.48778 60.839931 0)
(187.13561 -0.85665489 2.8464419e-18)
(184.34227 9.0499737 -1.738091e-19)
(182.55318 12.96217 9.2402245e-17)
(179.65765 22.467041 0)
(176.47802 30.005627 0)
(171.4314 41.368314 -6.2429958e-18)
(162.79843 48.918646 -3.0694849e-16)
(151.72404 57.351883 3.1389522e-18)
(148.12993 59.576386 -2.6122905e-16)
(188.7419 -1.1191943 0)
(185.75582 8.8792803 -1.9383071e-16)
(184.21926 12.147165 0)
(181.82601 22.432273 -6.27676e-18)
(178.66019 30.94092 6.8528236e-18)
(173.28035 41.892937 6.3252593e-18)
(164.46283 51.428973 4.1073605e-16)
(148.08545 58.580483 -3.1021173e-18)
(131.21532 58.311478 2.4721844e-16)
(190.17677 -1.1633589 -1.9042064e-16)
(188.32722 8.5649632 1.8466431e-16)
(186.89195 12.339991 -2.0612691e-16)
(184.24755 22.955717 -2.1402827e-16)
(180.79391 31.445965 2.2883445e-16)
(174.9399 44.476722 -2.2656822e-16)
(164.6242 52.797385 -2.1281609e-16)
(144.37097 58.565912 -1.6809172e-16)
(110.5874 69.433346 0)
(191.35613 -1.456374 3.7986851e-16)
(189.52756 8.2043206 -1.9629905e-16)
(188.27904 11.517677 1.9940145e-16)
(186.2961 22.718426 -1.0314962e-17)
(182.90509 32.578991 -2.2043861e-16)
(176.51523 44.983376 -4.8106322e-18)
(164.32408 55.004314 0)
(137.87825 62.610731 1.6198731e-16)
(76.267575 76.139174 0)
(192.3709 -1.5193111 -3.7405314e-16)
(191.81495 7.5489801 1.8743047e-16)
(190.73713 11.563711 -2.1476082e-16)
(188.8556 23.105055 2.1623879e-16)
(185.17182 32.786755 6.7095941e-18)
(178.34323 47.445564 2.1188877e-16)
(162.00368 57.406235 -2.0733749e-16)
(126.23694 57.916741 -1.7727082e-16)
(19.24613 19.508092 1.810256e-16)
(193.18799 -1.9003435 1.8793793e-16)
(192.81572 7.0172162 -6.0862321e-18)
(191.86002 10.7096 2.0528534e-16)
(190.96946 22.403707 -6.6738048e-18)
(187.36131 33.896676 7.1994676e-18)
(179.47898 47.718157 2.3603346e-16)
(157.58376 57.143483 4.101277e-16)
(100.42886 50.209121 1.6644306e-16)
(-2.800928 18.877 -1.7163558e-16)
(193.72354 -1.932766 2.8637448e-18)
(194.87481 6.0253762 -3.0405706e-18)
(194.04842 10.568423 -2.0849434e-16)
(193.72136 22.487661 -2.2618512e-16)
(189.57589 33.804925 2.3523854e-16)
(180.497 49.441031 -4.6452568e-16)
(150.82551 58.338317 -4.0700034e-16)
(77.48074 45.477431 -1.7086822e-16)
(-3.1435482 26.120043 1.7067082e-16)
(194.07521 -2.3291354 -1.7853923e-16)
(195.6351 5.3047193 3.0220265e-18)
(194.87128 9.6819365 -8.4302926e-18)
(195.85827 21.241693 2.1934762e-16)
(191.57084 34.822287 -2.2055333e-16)
(179.59106 50.231017 2.2724427e-16)
(139.24821 57.450164 1.9410093e-16)
(45.2637 25.02457 1.6065816e-16)
(-9.8460984 29.411663 -1.6255768e-16)
(-11.986281 28.791775 -2.7401285e-16)
(25.383376 14.908607 -1.8393797e-18)
(127.67168 55.572056 4.9173661e-18)
(179.01375 50.471941 -4.1146049e-18)
(193.21829 34.617968 0)
(198.48028 21.037348 3.9619255e-18)
(196.68532 9.3407726 4.3841297e-16)
(197.45269 4.0084566 2.1008701e-16)
(194.01804 -2.5804027 3.5040494e-16)
(-13.525575 29.019297 2.6583948e-16)
(15.497178 12.395511 0)
(115.59049 53.994506 0)
(178.01027 50.563522 6.3151363e-16)
(195.08784 34.326166 0)
(200.28137 18.803241 -5.32506e-16)
(197.20576 8.0032566 -6.7930548e-16)
(197.89307 2.954353 -1.9923269e-16)
(193.74344 -2.8442206 1.7180844e-16)
(-14.461658 28.469817 2.1690241e-18)
(16.209045 20.032298 -1.7469768e-18)
(104.00717 49.177227 0)
(176.62 49.91574 -6.2081634e-16)
(196.40104 33.97767 0)
(202.56441 18.355884 5.272925e-16)
(198.69414 7.4640652 4.4032079e-16)
(199.34858 1.4805784 4.7279682e-18)
(193.23688 -3.0843067 -3.4225469e-16)
(-15.938671 29.241954 5.0135903e-16)
(21.51283 32.493974 -4.9193662e-16)
(94.842247 48.403455 3.7221783e-18)
(174.441 50.196664 0)
(197.98406 33.271111 -6.1163807e-16)
(204.03714 15.899271 0)
(198.95328 6.073892 -3.4978682e-18)
(199.40022 0.34044229 4.7050576e-18)
(192.48768 -3.2859288 -1.3684538e-18)
(-16.967163 29.654377 -4.8159919e-16)
(23.879317 39.384235 -1.8494142e-17)
(86.225239 44.786101 5.790926e-16)
(172.00231 48.914408 -4.4442673e-18)
(198.98708 32.794163 -2.2524026e-17)
(206.05965 15.200077 0)
(200.16141 5.336219 -4.4741253e-16)
(200.36973 -1.1889872 0)
(191.51923 -3.4518396 0)
(-17.993459 31.005883 2.0595579e-18)
(22.113157 42.857917 4.7073847e-16)
(76.981001 44.023735 -1.1348915e-15)
(168.71712 49.48951 6.7860052e-16)
(200.18121 31.682909 6.1145263e-16)
(207.1514 12.560744 5.6712648e-16)
(200.14867 3.8767692 4.3363939e-16)
(199.95957 -2.3338596 4.6126686e-18)
(190.33839 -3.5882261 -3.083372e-16)
(-18.3432 31.850108 2.0287316e-18)
(19.189567 44.079276 -4.8751511e-16)
(67.372569 38.206817 5.6863637e-16)
(165.04004 47.953216 -6.6515505e-16)
(200.76118 31.178673 4.899002e-18)