/*--------------------------------*- C++ -*----------------------------------*\
  =========                 |
  \\      /  F ield         | OpenFOAM: The Open Source CFD Toolbox
   \\    /   O peration     | Website:  https://openfoam.org
    \\  /    A nd           | Version:  11
     \\/     M anipulation  |
\*---------------------------------------------------------------------------*/
FoamFile
{
    format      ascii;
    class       volScalarField;
    location    "7";
    object      p;
}
// * * * * * * * * * * * * * * * * * * * * * * * * * * * * * * * * * * * * * //

dimensions      [0 2 -2 0 0 0 0];

internalField   nonuniform List<scalar> 
5472
(
98.837007
96.606521
94.369604
92.137248
89.962201
87.821756
85.733753
83.738614
81.839846
80.04708
78.365187
76.804272
75.404326
74.083018
72.977795
72.011727
71.222163
70.684983
70.273239
99.560202
97.489627
95.404129
93.316484
91.244465
89.181259
87.177978
85.229735
83.372115
81.610744
79.943467
78.394414
76.980811
75.668323
74.574153
73.583639
72.79077
72.194082
71.699253
100.20582
98.303975
96.394419
94.444804
92.482371
90.50828
88.581991
86.700565
84.884615
83.158828
81.51991
79.976149
78.545651
77.25381
76.120137
75.129629
74.339915
73.701518
73.256461
100.79688
99.072276
97.309645
95.489367
93.640508
91.780717
89.923266
88.101775
86.350714
84.658257
83.030519
81.515486
80.100146
78.802768
77.659702
76.677551
75.860649
75.221334
74.763133
101.31975
99.77052
98.142901
96.455754
94.720637
92.953145
91.190723
89.439562
87.739442
86.089505
84.495048
82.998963
81.589203
80.309976
79.171032
78.177772
77.367452
76.723687
76.261838
101.79809
100.37603
98.875537
97.319688
95.703833
94.058881
92.380597
90.704783
89.078176
87.486728
85.929439
84.439763
83.04247
81.780752
80.641614
79.664839
78.852261
78.201339
77.743608
102.21043
100.90227
99.522563
98.095466
96.598786
95.055375
93.473264
91.892177
90.323655
88.786717
87.278614
85.822276
84.452389
83.198964
82.074765
81.115554
80.30272
79.651275
79.166566
102.56134
101.36971
100.12027
98.797976
97.398522
95.96314
94.494187
93.00735
91.499659
90.013793
88.553515
87.148169
85.819533
84.58261
83.46502
82.510542
81.70675
81.079668
80.627695
102.82809
101.74588
100.63287
99.42902
98.143803
96.802483
95.423813
94.031318
92.607534
91.184833
89.768323
88.39891
87.106222
85.898969
84.813471
83.874539
83.069279
82.429665
81.94746
103.07939
102.10133
101.08007
99.965094
98.79255
97.550902
96.267085
94.962258
93.633542
92.282382
90.92259
89.606468
88.340277
87.158793
86.100201
85.175246
84.393051
83.770577
83.319772
103.29537
102.42997
101.50182
100.48178
99.388772
98.229209
97.046607
95.821856
94.5712
93.276988
91.986517
90.72573
89.5086
88.373195
87.336496
86.42735
85.657212
85.042949
84.590901
103.46346
102.67909
101.82471
100.9131
99.924699
98.859198
97.761401
96.623652
95.451723
94.227617
92.991
91.775461
90.617059
89.511257
88.506974
87.625297
86.873279
86.274111
85.82979
103.64412
102.92807
102.15147
101.3011
100.36944
99.403533
98.393911
97.339301
96.233509
95.088334
93.926242
92.768333
91.658864
90.592229
89.625706
88.759765
88.022334
87.434994
87.006636
103.74387
103.10444
102.42278
101.66564
100.81882
99.918178
98.966246
97.988898
96.958995
95.880031
94.770719
93.673356
92.61335
91.600147
90.671955
89.83592
89.122788
88.546503
88.122717
103.88591
103.28165
102.63765
101.94442
101.18893
100.36433
99.48789
98.582307
97.624025
96.62016
95.57364
94.531783
93.513671
92.54514
91.648165
90.843649
90.153439
89.603867
89.198663
103.95349
103.44525
102.881
102.22829
101.52248
100.76222
99.957123
99.110403
98.214059
97.267078
96.29059
95.307978
94.343783
93.425024
92.556631
91.783262
91.111297
90.57514
90.18657
104.02809
103.56365
103.04395
102.45907
101.81818
101.1233
100.38939
99.602103
98.763146
97.869796
96.953547
96.023231
95.116052
94.23902
93.410466
92.667151
92.019734
91.503708
91.119817
104.12922
103.70635
103.224
102.68229
102.0832
101.44062
100.76338
100.03531
99.249436
98.413527
97.549165
96.672568
95.814507
94.976796
94.188654
93.46824
92.851736
92.35821
91.992236
104.18699
103.81278
103.3824
102.89075
102.33546
101.73833
101.10969
100.4338
99.700342
98.917308
98.09958
97.272589
96.454353
95.658721
94.902479
94.210593
93.613278
93.131028
92.786889
104.28085
103.93217
103.53269
103.07095
102.55735
102.00468
101.41386
100.7806
100.09532
99.361988
98.595074
97.813908
97.037664
96.278713
95.553557
94.899779
94.323185
93.846808
93.501715
104.34408
104.04399
103.68503
103.26178
102.7881
102.27154
101.71359
101.11513
100.46477
99.767506
99.042566
98.296503
97.551528
96.826051
96.130734
95.506598
94.966427
94.523566
94.187316
104.42282
104.14277
103.8136
103.42371
102.98196
102.5036
101.98658
101.42541
100.81023
100.14983
99.459912
98.748167
98.031538
97.314359
96.627677
96.003536
95.460574
95.032486
94.72459
104.51892
104.27504
103.97468
103.6125
103.19766
102.73989
102.24214
101.70358
101.11912
100.49386
99.834754
99.159645
98.489851
97.823555
97.180159
96.589328
96.057912
95.615173
95.279386
104.58013
104.37466
104.11353
103.79449
103.4202
102.99563
102.52154
101.99742
101.42066
100.79214
100.12788
99.438863
98.748866
98.069237
97.422925
96.836981
96.33622
95.945427
95.648345
104.66384
104.48534
104.25591
103.97155
103.63123
103.24321
102.81236
102.33758
101.81424
101.24206
100.62492
99.976594
99.312008
98.639948
97.988779
97.371297
96.820484
96.37087
96.033168
104.72687
104.59737
104.41149
104.15749
103.83447
103.44626
102.99817
102.49543
101.93892
101.33992
100.7006
100.03235
99.349122
98.676371
98.034543
97.448618
96.948373
96.539301
96.228262
104.76631
104.71582
104.60981
104.44571
104.21831
103.92276
103.55542
103.11449
102.60553
102.02981
101.39515
100.71616
99.993687
99.249574
98.513349
97.826982
97.234478
96.7486
96.40049
69.986173
69.879219
69.955876
70.15058
70.641875
71.131901
71.812788
72.57014
73.363547
74.259016
75.175416
76.142796
77.140707
78.156928
79.187414
80.221611
81.155348
82.065879
82.839479
71.465631
71.335347
71.488397
71.794271
72.300861
72.878168
73.689763
74.516841
75.468957
76.472023
77.551615
78.642372
79.785126
80.90672
82.046865
83.126907
84.182103
85.150634
86.005364
72.975822
72.865534
73.051233
73.415937
73.934682
74.661884
75.528174
76.469848
77.550655
78.679536
79.869369
81.082798
82.332909
83.567099
84.785234
85.96765
87.114637
88.170036
89.146464
74.45854
74.384545
74.586644
74.970063
75.588
76.408765
77.335773
78.415568
79.58496
80.821184
82.101732
83.419985
84.741003
86.05631
87.337075
88.616779
89.836314
91.021441
92.088844
75.94494
75.875338
76.081572
76.526377
77.236878
78.105669
79.140924
80.316661
81.567921
82.887331
84.236516
85.626782
87.010827
88.38974
89.741897
91.085628
92.401197
93.660242
94.848843
77.413152
77.371477
77.572942
78.096992
78.849436
79.802721
80.921364
82.158524
83.490688
84.878015
86.297783
87.747072
89.18388
90.618474
92.026629
93.433128
94.807978
96.121665
97.391742
78.836264
78.778783
79.039899
79.622011
80.411436
81.459363
82.629723
83.949415
85.343902
86.790353
88.268013
89.754203
91.237612
92.711546
94.154013
95.597571
96.980144
98.318108
99.576665
80.295624
80.226281
80.502156
81.11008
81.967258
83.070108
84.303814
85.69151
87.125092
88.626485
90.137038
91.657766
93.170751
94.657088
96.111469
97.540313
98.886215
100.18735
101.37034
81.609455
81.565223
81.9068
82.548528
83.462071
84.619992
85.917363
87.341098
88.818205
90.353309
91.887435
93.428063
94.934665
96.408763
97.827245
99.187677
100.46642
101.65733
102.68115
82.978501
82.94816
83.314793
83.96253
84.949267
86.116181
87.472895
88.920751
90.431866
91.989113
93.529559
95.055591
96.532501
97.954841
99.292891
100.55768
101.69124
102.69252
103.54573
84.25278
84.250776
84.614855
85.315614
86.332914
87.535434
88.939636
90.394103
91.949516
93.48963
95.015159
96.503122
97.91728
99.254346
100.48307
101.59278
102.54492
103.35556
103.97763
85.487893
85.497286
85.88783
86.632398
87.655513
88.904535
90.327336
91.808814
93.357817
94.858816
96.358394
97.772491
99.096478
100.31631
101.39799
102.34088
103.11891
103.74434
104.20843
86.671806
86.69755
87.11298
87.878579
88.912992
90.204419
91.624769
93.109678
94.620064
96.089835
97.525224
98.840797
100.06145
101.1427
102.08123
102.85803
103.47846
103.98013
104.36234
87.793496
87.841942
88.271102
89.045981
90.102868
91.419822
92.824564
94.300406
95.767705
97.181443
98.519786
99.731219
100.83647
101.7676
102.56349
103.18604
103.69866
104.10798
104.40229
88.873161
88.915799
89.355361
90.149145
91.231415
92.543961
93.927071
95.379659
96.777696
98.115499
99.356911
100.46499
101.43281
102.22913
102.89142
103.37625
103.7785
104.04909
104.2304
89.881111
89.92608
90.379606
91.187412
92.282022
93.56625
94.927494
96.337216
97.649889
98.910515
100.04411
101.02854
101.85441
102.52679
103.04329
103.40051
103.66598
103.75807
103.75484
90.820319
90.865155
91.342037
92.152211
93.240528
94.499267
95.834109
97.156327
98.408632
99.581977
100.59582
101.45619
102.14804
102.68937
103.05174
103.27346
103.37598
103.36278
103.25646
91.696527
91.749988
92.232385
93.0302
94.106447
95.333661
96.621075
97.86697
99.047082
100.11266
101.00131
101.74005
102.30468
102.70949
102.94038
103.062
103.07995
103.03673
102.96568
92.50045
92.56849
93.03563
93.832281
94.907393
96.099227
97.326737
98.506093
99.6038
100.55243
101.32341
101.9386
102.38296
102.67155
102.82471
102.9084
102.92996
102.9437
102.98732
93.229763
93.301562
93.758661
94.556564
95.593398
96.743916
97.923512
99.033079
100.03284
100.86615
101.54161
102.04909
102.40789
102.628
102.75719
102.85171
102.92645
103.00666
103.07719
93.90239
93.96737
94.429671
95.224124
96.247894
97.366488
98.483065
99.506695
100.40426
101.14354
101.73799
102.15154
102.448
102.6395
102.7747
102.89799
102.99871
103.10465
103.18822
94.468985
94.544096
94.999875
95.76786
96.757997
97.832023
98.895072
99.865717
100.69099
101.36981
101.88665
102.2408
102.50317
102.69289
102.84991
102.98744
103.09584
103.18148
103.21343
94.992177
95.070745
95.530957
96.332217
97.335408
98.352954
99.353432
100.24532
101.00437
101.60776
102.04709
102.36428
102.59152
102.76623
102.92442
103.01799
103.0678
103.07185
102.98216
95.39478
95.477459
95.928424
96.693722
97.635132
98.656349
99.645211
100.51597
101.23418
101.78621
102.19116
102.49697
102.72609
102.89226
102.97533
102.98621
102.93831
102.77729
102.51692
95.755465
95.851628
96.358252
97.205169
98.219253
99.260187
100.1398
100.92385
101.56893
102.04218
102.38306
102.6191
102.75625
102.80564
102.76934
102.67049
102.46934
102.16282
101.83146
95.972269
96.068821
96.562043
97.370424
98.339937
99.325023
100.27185
101.0953
101.72724
102.19481
102.53322
102.73668
102.83028
102.81928
102.69555
102.45128
102.0881
101.67131
101.23925
96.125371
96.279356
96.926769
97.903416
98.998814
100.05072
100.95213
101.65805
102.17132
102.48949
102.6532
102.68741
102.5843
102.37186
102.06541
101.68656
101.2866
100.89688
100.55502
83.478925
84.046969
84.406229
84.6198
84.674382
84.496524
84.052056
83.454885
82.613389
81.32866
79.830686
78.209998
76.148605
73.901445
71.90859
70.061655
68.991379
69.0501
69.876703
86.701923
87.334629
87.75143
87.976244
88.106049
88.071956
87.850527
87.430668
86.875185
86.000081
84.696278
83.267781
81.628267
79.766106
77.654438
75.622447
74.01926
72.997676
73.009771
89.958739
90.669967
91.139109
91.449243
91.661146
91.702773
91.606467
91.421286
91.045292
90.173759
89.159153
87.916613
86.016305
83.793061
81.305104
78.777482
76.318415
73.958293
72.020681
93.079796
93.851937
94.382094
94.788537
95.045533
95.219363
95.31286
95.246519
94.901568
94.161907
93.101128
91.394287
89.349168
86.857456
83.513075
79.780224
76.009222
72.234379
68.543626
95.958364
96.787928
97.376817
97.784297
98.12959
98.417456
98.580812
98.609313
98.234644
97.428515
96.180895
94.432409
92.086737
88.592359
84.143274
79.249447
73.771009
67.706069
61.386721
98.537562
99.386033
99.933418
100.38409
100.78308
101.16224
101.42286
101.45516
101.10093
100.36324
99.04445
97.030187
93.863071
89.26374
83.45199
76.46297
68.149535
58.603484
47.664573
100.70844
101.51006
102.04209
102.53692
103.01659
103.50366
103.7983
103.87817
103.66047
102.88949
101.4327
98.930604
94.828382
89.435764
83.614575
76.830374
68.329052
58.201181
46.380802
102.42317
103.13051
103.66417
104.18557
104.72854
105.22621
105.58109
105.71931
105.42964
104.59338
103.11137
100.39156
96.226223
91.34922
85.900744
79.68677
72.402243
63.95675
54.419682
103.58362
104.18929
104.68666
105.1624
105.67516
106.09869
106.38815
106.42758
106.07684
105.29295
103.93378
101.86435
98.510608
94.564428
89.996886
84.865754
79.184835
72.906767
66.278767
104.22593
104.7065
105.10559
105.46509
105.8412
106.10001
106.26343
106.22582
105.9428
105.43741
104.51737
102.97244
100.56314
97.481891
93.843368
89.748035
85.501966
81.308249
77.160598
104.4811
104.87695
105.17296
105.44344
105.69024
105.82701
105.85503
105.776
105.79926
105.4315
104.59405
103.11167
101.01512
98.3852
95.544026
92.483341
89.369836
86.622197
84.536322
104.63191
104.95801
105.19438
105.43394
105.63238
105.75258
105.7784
105.51986
105.30624
104.82581
103.7061
101.8522
99.499131
96.837405
94.246571
91.972939
89.883973
88.078736
86.856973
104.72106
104.97275
105.16038
105.34695
105.39729
105.27489
104.89829
104.61447
104.00347
102.74009
100.67991
97.951333
94.873915
91.894908
89.410183
87.660856
86.609028
86.210994
86.416715
104.67793
104.85595
105.05313
105.18518
105.14434
104.91766
104.16011
103.00501
100.59603
97.553731
94.083254
90.079502
86.27897
83.074252
80.940833
79.977743
80.107032
81.183416
83.081765
104.30532
104.42959
104.62696
104.71727
104.633
104.29468
103.42614
102.30083
98.608332
93.089704
86.590222
79.995649
73.945343
68.47052
63.70172
60.884997
61.532666
65.099814
70.471831
103.61499
103.66828
103.78095
103.75299
103.53006
103.08972
102.26558
100.97636
98.161669
93.384321
86.530497
77.881504
67.986728
56.996455
49.316876
44.220139
43.883136
48.58304
56.716098
102.98081
102.94764
102.91956
102.70877
102.29263
101.62169
100.5837
99.022477
96.479279
92.394287
86.675225
79.605066
71.774891
64.203789
58.270727
54.973127
55.226978
59.171971
65.902079
102.81271
102.80601
102.76486
102.59142
102.24277
101.75588
101.07178
100.07216
98.634683
96.509931
93.564229
89.886498
85.739932
81.484931
77.797846
75.278882
74.297732
75.238133
77.887885
103.01755
103.06187
103.062
102.98516
102.82834
102.61589
102.33526
101.85086
101.14969
100.19734
98.826267
97.043966
94.91271
92.536115
90.190464
88.003786
86.295477
85.60206
85.880302
103.23683
103.39674
103.46638
103.45715
103.49173
103.50719
103.4868
103.32121
103.05332
102.58851
101.90859
100.94051
99.562986
98.002504
96.410263
94.746253
93.227435
91.864622
90.407951
103.40728
103.56514
103.63282
103.74066
103.90645
104.07946
104.19888
104.24134
104.27343
104.18608
103.69884
102.43676
100.98912
99.871923
98.346907
96.035035
93.204925
89.893856
86.389954
103.34573
103.45292
103.54148
103.71674
103.87116
104.02483
104.13377
104.14449
104.0404
103.49075
102.73742
102.49105
102.09893
100.83435
98.623908
95.837389
92.466534
88.643036
84.530736
102.94049
103.0068
103.17561
103.33525
103.48159
103.58263
103.73311
103.71701
103.65756
103.56447
102.58864
101.74805
101.03523
99.859893
98.337811
96.435087
94.189289
91.779171
89.446911
102.24569
102.31126
102.46328
102.56348
102.66618
102.71148
102.76299
102.64176
102.37406
102.12129
100.22007
98.624603
97.708653
96.927212
96.401885
95.833928
95.100175
94.54581
94.235008
101.50182
101.52015
101.58517
101.64034
101.66134
101.6525
101.68139
101.68573
101.61527
101.57896
101.24338
100.54087
99.147351
97.358039
95.319765
93.735427
92.998917
93.056895
93.800637
100.85703
100.75074
100.71282
100.65742
100.5442
100.41237
100.25127
100.00557
99.709037
99.09814
98.068197
96.568405
94.797594
93.200731
92.035773
91.676987
92.186318
93.259794
94.795315
100.28838
100.26201
100.21352
100.11946
100.00137
99.846777
99.645382
99.383476
99.008442
98.465117
97.662561
96.740491
96.431676
96.335462
96.413856
96.648255
97.168069
97.765695
98.433091
71.955189
75.858634
81.338178
88.096572
95.733797
103.59152
110.86086
116.68821
120.91644
123.70397
124.69602
122.9056
120.22105
117.54685
114.58209
111.73305
109.03404
106.38012
103.92567
74.047578
76.350024
80.019763
85.10285
91.50471
98.399953
105.34067
111.56269
116.76149
120.82684
122.91631
122.90365
120.88111
118.63136
115.94747
113.36834
110.92579
108.56042
106.33772
71.076489
71.654791
74.030024
77.652883
82.649173
88.999275
96.208299
103.46095
110.11545
115.41089
118.78089
120.58542
120.26064
118.90231
116.91469
114.71908
112.53085
110.42022
108.42754
65.426923
63.505106
63.1463
64.758044
68.705909
74.842384
82.633021
91.442311
100.01134
107.00533
112.21065
115.6864
117.42862
117.35341
116.25493
114.75653
113.01809
111.29366
109.57635
55.123394
49.612605
46.116361
45.5721
48.495838
55.09789
64.416737
75.200882
86.407292
96.490386
103.57111
108.10858
111.62076
113.15168
113.17296
112.61556
111.66699
110.56214
109.415
35.540895
23.745675
15.529091
12.33021
15.701116
25.004943
37.564778
51.978483
67.046649
81.806316
93.497127
100.52085
104.62346
107.23455
108.46957
108.89129
108.8117
108.42181
107.97254
33.347017
14.87239
2.417873
-4.3025348
-2.8590186
7.1922902
22.087646
39.009378
55.415617
69.332945
80.562878
89.613116
96.349068
100.61117
103.19556
104.66628
105.37764
105.67819
105.83033
43.98804
33.278413
24.799271
20.511028
21.343116
27.261382
36.836699
48.368353
60.182741
70.902021
79.989649
87.329118
93.013643
97.062566
99.849511
101.70716
102.7896
103.42638
103.93595
59.821114
54.126642
50.123246
48.870245
50.574872
54.646297
60.549582
67.331895
74.179033
80.540956
86.039294
90.580954
94.129625
96.948672
99.114453
100.67201
101.70426
102.31004
102.84832
73.39329
70.682584
69.449888
69.658042
71.041005
73.588361
77.057154
80.995444
84.974956
88.643605
91.785183
94.428871
96.544878
98.292906
99.772321
100.89188
101.71075
102.18588
102.5545
83.070326
82.035307
81.278932
81.219953
82.304239
84.344047
86.778031
89.202107
91.537731
93.709873
95.642565
97.323866
98.669574
99.786337
100.7712
101.58361
102.18227
102.57625
102.80541
86.456298
86.76709
87.534851
88.435199
89.581681
91.093171
92.751824
94.397102
95.972117
97.394759
98.578332
99.646678
100.51368
101.21616
101.84536
102.41407
102.83644
103.10627
103.24542
87.150929
88.39304
89.99836
91.682509
93.205252
94.796933
96.371638
97.631288
98.749436
99.802004
100.67728
101.4293
102.0221
102.47498
102.87287
103.24508
103.55237
103.74261
103.76421
85.311961
87.746071
90.302658
92.655073
94.59007
96.281202
98.041969
99.342729
100.35036
101.21732
101.92949
102.52839
103.01399
103.3601
103.66332
103.91129
104.12293
104.27999
104.28245
76.229768
81.708316
86.618353
90.689055
93.791574
96.101127
98.22828
99.920943
100.99901
101.84193
102.64318
103.224
103.67251
103.97422
104.22342
104.4326
104.57106
104.66061
104.64096
66.114553
75.129248
82.855
88.902939
93.127133
95.914235
98.405267
100.75812
102.04776
102.78187
103.44256
104.00692
104.41264
104.66231
104.80504
104.92615
105.01484
105.03782
104.96523
73.450139
80.631617
86.972445
92.194708
96.121724
99.034113
100.93654
101.83166
102.81173
104.04096
104.78536
105.08424
105.27929
105.40672
105.46495
105.44803
105.45748
105.42522
105.297
81.510777
85.576337
89.688997
93.472152
96.705294
99.398324
101.67748
103.44433
104.3502
104.13227
104.50222
105.24734
105.67012
105.79452
105.79223
105.73461
105.65698
105.61221
105.48379
86.864014
88.320382
90.204894
92.301516
94.410101
96.548726
98.499462
100.13449
101.57805
103.07335
104.69943
105.32162
105.58677
105.84015
105.8345
105.76334
105.62455
105.50615
105.42087
89.307916
88.97271
89.278464
90.127612
91.233088
92.588774
93.898037
95.392001
97.859419
100.98682
103.72181
104.56451
105.10749
105.33799
105.38045
105.33406
105.21098
105.05823
104.9812
83.111418
80.407253
78.794629
78.806867
81.161484
85.395872
90.177604
94.887583
99.179281
101.86521
103.39394
103.98419
104.24165
104.36842
104.43498
104.45419
104.39759
104.30199
104.24913
81.058747
78.793629
78.201492
78.87234
80.556037
83.183092
86.840478
91.218956
95.429555
98.770424
100.85911
102.03201
102.67114
103.09398
103.35725
103.53785
103.61936
103.64062
103.68218
87.617132
86.827869
87.308831
88.667506
90.791913
93.377279
95.935464
98.21997
100.08272
101.3757
102.16294
102.63504
102.91063
103.11982
103.21731
103.29594
103.30905
103.29992
103.3432
94.36339
95.239294
97.0155
99.158713
100.93019
102.27205
103.03987
103.37996
103.58137
103.60397
103.60227
103.5302
103.39991
103.34314
103.26667
103.21651
103.16256
103.10651
103.07919
95.032989
96.33176
97.352783
98.312993
99.4679
100.43529
101.29973
102.04534
102.77514
103.21595
103.23965
103.19858
103.12974
103.0203
102.95742
102.89274
102.81699
102.74062
102.7162
96.623625
98.534279
100.14863
101.43878
102.38474
102.81821
102.73921
102.8445
103.23718
103.07184
102.96918
102.85051
102.73384
102.61375
102.50439
102.41321
102.31291
102.1278
102.02349
99.16054
99.93446
100.74074
101.53167
102.192
102.73031
103.2083
103.06494
102.77369
102.38539
102.10083
101.87926
101.66371
101.55109
101.44069
101.38451
101.35266
101.25873
101.18223
101.65963
99.500287
97.462823
95.560503
93.808551
92.212282
90.752057
89.431684
88.237833
87.181662
86.221047
85.392266
84.659631
84.025225
83.500811
83.094261
82.818492
82.649771
82.650039
104.14329
102.02755
99.990939
98.061791
96.248065
94.580705
93.013054
91.552502
90.213928
89.001898
87.899179
86.918752
86.066618
85.309847
84.698563
84.236855
83.926978
83.734639
83.745556
106.40175
104.35047
102.37433
100.45263
98.608295
96.861955
95.203129
93.632029
92.160929
90.80361
89.57109
88.449047
87.474359
86.621564
85.921975
85.383101
85.041261
84.82719
84.834243
107.82728
106.0089
104.18635
102.37352
100.57696
98.836749
97.137326
95.517887
93.97625
92.513688
91.17678
89.959354
88.86624
87.918386
87.146824
86.537064
86.143473
85.934315
85.910852
108.15781
106.77522
105.25818
103.68731
102.04767
100.41219
98.774849
97.15987
95.602235
94.105367
92.689667
91.397994
90.229195
89.19463
88.354645
87.695775
87.227229
87.013544
86.988759
107.47466
106.71037
105.6784
104.46666
103.08679
101.62634
100.12367
98.590024
97.058113
95.558544
94.11875
92.772931
91.555436
90.456658
89.537059
88.834703
88.331848
88.07345
88.073222
106.06423
105.95054
105.51022
104.72938
103.7296
102.52148
101.19337
99.789334
98.344445
96.883445
95.444568
94.069875
92.805195
91.667945
90.696174
89.937406
89.423032
89.120706
89.119779
104.5358
104.85914
104.906
104.55679
103.96064
103.07857
102.00579
100.75846
99.434202
98.062776
96.652318
95.288898
94.002743
92.830875
91.832519
91.015906
90.480337
90.172603
90.14743
103.43824
103.89288
104.17356
104.16505
103.88019
103.3132
102.52535
101.49265
100.34019
99.062172
97.724873
96.399129
95.123633
93.926505
92.910938
92.066327
91.496308
91.187009
91.144562
102.99632
103.31353
103.56748
103.73629
103.66104
103.3505
102.80754
102.01422
101.05969
99.902268
98.675093
97.39891
96.157908
94.963988
93.928644
93.079156
92.47375
92.180094
92.133484
103.02511
103.15745
103.30497
103.44091
103.44686
103.30521
102.94113
102.36292
101.58772
100.60071
99.48804
98.282111
97.09604
95.946494
94.889976
94.040713
93.406669
93.117469
93.072783
103.31446
103.31515
103.32932
103.37498
103.36124
103.26917
103.01488
102.60231
101.97388
101.15047
100.1656
99.084789
97.9462
96.845259
95.802408
94.953217
94.301633
94.002328
93.998044
103.69714
103.61945
103.54464
103.48602
103.40524
103.30656
103.09405
102.78049
102.27292
101.60607
100.73829
99.772233
98.711891
97.661984
96.657467
95.817322
95.176482
94.838394
94.8672
104.13628
103.98287
103.84465
103.7134
103.57138
103.43396
103.21751
102.94249
102.52362
101.96861
101.22539
100.37407
99.39134
98.408291
97.44051
96.611537
96.009828
95.638617
95.681013
104.50167
104.36154
104.17638
103.99463
103.79961
103.62025
103.3934
103.1275
102.74893
102.27121
101.647
100.89753
99.989865
99.058661
98.166633
97.341223
96.774766
96.438095
96.446486
104.7646
104.66052
104.49185
104.29338
104.06611
103.85205
103.599
103.33026
102.98171
102.55666
102.01958
101.32126
100.53171
99.639021
98.814613
98.028629
97.460342
97.171576
97.16271
105.04335
104.91215
104.74207
104.55758
104.334
104.10081
103.8367
103.55808
103.22911
102.81799
102.35038
101.69751
101.00099
100.18223
99.385892
98.675693
98.096805
97.838139
97.845559
105.23805
105.10815
104.93586
104.759
104.55694
104.33028
104.0729
103.77624
103.47185
103.06961
102.6238
102.04331
101.38878
100.66979
99.897947
99.241769
98.696008
98.441109
98.473681
105.28394
105.21339
105.07476
104.9099
104.73727
104.52494
104.29395
103.99466
103.69476
103.35255
102.89937
102.37753
101.75267
101.1001
100.3842
99.7508
99.25577
98.998926
99.054485
105.05052
105.10194
105.07187
104.97153
104.84625
104.65694
104.45239
104.19015
103.8677
103.50719
103.10487
102.63724
102.05199
101.44264
100.79876
100.18999
99.736963
99.499274
99.570686
104.513
104.70339
104.84734
104.87754
104.84384
104.73436
104.57002
104.36859
104.0931
103.78468
103.40006
102.95537
102.42654
101.79456
101.18679
100.61194
100.18754
99.976418
100.04559
103.95298
104.21233
104.47304
104.64584
104.71409
104.70627
104.60401
104.43755
104.19327
103.89639
103.5236
103.08832
102.61727
102.05294
101.48473
100.95223
100.54045
100.35426
100.43301
103.52644
103.75589
104.00069
104.25364
104.43134
104.53252
104.54869
104.47667
104.31866
104.07798
103.77876
103.37809
102.90278
102.36848
101.79738
101.27941
100.89968
100.72841
100.81486
103.18576
103.46492
103.72236
103.9729
104.20761
104.3792
104.47031
104.45641
104.35197
104.14747
103.85859
103.48843
103.03841
102.53173
101.99787
101.49551
101.1476
100.99119
101.0714
102.81268
103.06508
103.30776
103.54137
103.77491
104.0017
104.18799
104.29754
104.30993
104.21682
104.02286
103.72607
103.31558
102.80856
102.25687
101.75185
101.39157
101.24588
101.34232
102.38158
102.79582
103.14361
103.44383
103.71884
103.96303
104.1508
104.2861
104.32883
104.27197
104.08361
103.79533
103.38951
102.90844
102.36859
101.85575
101.52081
101.40178
101.46964
101.62867
101.95431
102.30507
102.67301
103.04545
103.38398
103.69061
103.95077
104.14429
104.21557
104.19889
104.05687
103.71687
103.22453
102.66617
102.09802
101.67212
101.4986
101.60169
82.779183
83.117855
83.54871
84.124643
84.850576
85.707431
86.711294
87.879401
89.163522
90.546201
92.053014
93.648882
95.316119
97.042965
98.842799
100.68485
102.52818
104.41608
106.31948
83.875598
84.191384
84.668759
85.267869
86.033624
86.91865
87.933137
89.09347
90.36258
91.731762
93.218953
94.775023
96.384473
98.059894
99.771623
101.49695
103.2115
104.97714
106.73292
84.999503
85.306552
85.805117
86.422662
87.198111
88.106995
89.130938
90.284612
91.546539
92.899774
94.357227
95.878765
97.430138
99.029145
100.6337
102.2639
103.90432
105.49513
107.05436
86.11194
86.437472
86.93209
87.56989
88.346006
89.260311
90.296674
91.440827
92.688977
94.030372
95.446923
96.930725
98.424193
99.944888
101.46205
102.98507
104.49438
105.93072
107.37615
87.188968
87.541074
88.039702
88.684501
89.47469
90.390952
91.422447
92.569247
93.793426
95.110012
96.490425
97.922456
99.369974
100.79787
102.204
103.59986
104.98765
106.32377
107.62728
88.273714
88.634249
89.145128
89.803396
90.586088
91.505432
92.518301
93.647354
94.854586
96.129673
97.471701
98.84654
100.23036
101.57211
102.88729
104.15365
105.39978
106.64421
107.86601
89.338322
89.699995
90.206704
90.871287
91.654365
92.569216
93.581686
94.676541
95.860749
97.101259
98.399061
99.702876
101.01394
102.28182
103.4841
104.64932
105.80687
106.92727
107.98684
90.385223
90.751618
91.260215
91.918743
92.709075
93.597573
94.605731
95.673882
96.814582
98.017425
99.263299
100.50158
101.7237
102.8979
104.01613
105.07746
106.10055
107.10856
108.0798
91.400391
91.76086
92.271765
92.932444
93.716779
94.582629
95.565496
96.61018
97.723017
98.870719
100.05407
101.23398
102.37335
103.44761
104.45087
105.43989
106.38531
107.29597
108.17102
92.400297
92.753753
93.26714
93.911646
94.672117
95.525527
96.486497
97.499216
98.564825
99.665213
100.778
101.88818
102.93204
103.93547
104.87063
105.75463
106.61005
107.4312
108.19393
93.335774
93.70118
94.197723
94.81929
95.579145
96.429608
97.357399
98.349928
99.35437
100.39547
101.43501
102.47176
103.45283
104.37401
105.22158
106.0231
106.78311
107.51128
108.2149
94.261593
94.625103
95.114586
95.739851
96.467849
97.295727
98.175198
99.11962
100.07706
101.06503
102.05116
103.00591
103.91012
104.7524
105.52598
106.24287
106.92434
107.57245
108.19383
95.128243
95.484866
95.95897
96.567992
97.263677
98.071013
98.930928
99.83517
100.75395
101.67583
102.59779
103.47632
104.30967
105.07982
105.7832
106.43263
107.03803
107.60811
108.15805
95.95115
96.310929
96.780246
97.36664
98.054547
98.825652
99.653365
100.50898
101.37576
102.23203
103.0827
103.89219
104.65369
105.353
105.98859
106.57859
107.13357
107.64367
108.11813
96.723459
97.078147
97.544894
98.105856
98.769283
99.505772
100.29755
101.10565
101.9179
102.71731
103.50633
104.25911
104.9708
105.61716
106.19415
106.71714
107.1919
107.63879
108.05461
97.454059
97.798057
98.259655
98.801215
99.436774
100.14072
100.89587
101.67022
102.43612
103.17868
103.90644
104.59798
105.23925
105.81814
106.32797
106.79599
107.22619
107.62568
107.9961
98.136743
98.474877
98.920618
99.445734
100.05745
100.73228
101.44343
102.17022
102.88422
103.57159
104.23252
104.86507
105.45325
105.9901
106.4679
106.90173
107.28016
107.62092
107.9405
98.764714
99.096678
99.52814
100.03794
100.62299
101.26337
101.93126
102.61487
103.28503
103.93219
104.54291
105.1251
105.67126
106.16792
106.59494
106.96589
107.29104
107.5915
107.87851
99.341477
99.665979
100.08579
100.57705
101.13557
101.74253
102.37235
103.0202
103.64928
104.25326
104.81937
105.34541
105.83931
106.28732
106.67581
107.01654
107.31761
107.59378
107.86039
99.855797
100.17655
100.58502
101.05711
101.59186
102.1709
102.77268
103.38835
103.97842
104.53178
105.05154
105.53806
105.99816
106.41664
106.77537
107.08873
107.36495
107.61045
107.83707
100.33167
100.64451
101.03967
101.50153
102.01694
102.5772
103.1483
103.71578
104.26325
104.77693
105.2646
105.72583
106.15358
106.53492
106.86347
107.14465
107.39096
107.60673
107.80548
100.72533
101.03852
101.42045
101.87439
102.36828