/*--------------------------------*- C++ -*----------------------------------*\
  =========                 |
  \\      /  F ield         | OpenFOAM: The Open Source CFD Toolbox
   \\    /   O peration     | Website:  https://openfoam.org
    \\  /    A nd           | Version:  11
     \\/     M anipulation  |
\*---------------------------------------------------------------------------*/
FoamFile
{
    format      ascii;
    class       volScalarField;
    location    "0.1245";
    object      T;
}
// * * * * * * * * * * * * * * * * * * * * * * * * * * * * * * * * * * * * * //

dimensions      [0 0 0 1 0 0 0];

internalField   nonuniform List<scalar> 
880
(
300
300
299.999999999788
300.0004865228096
300
300
300.0000000022749
300.0021108935155
300
300
300.0000000338289
300.0107975831744
300.0000000000001
300
300.0000008214212
300.0194452986964
300
300
299.9999999999999
299.9999999980221
300
300
299.9999999999997
300
299.9999953062605
300.0000678851594
300.0440566951319
299.9241109894052
301.2435666927964
304.968436243572
308.2593485817736
309.4766452622857
300.000006732952
300.0000431920305
300.0000567849257
300.0000402648586
300.0001682981444
300.0004643717966
300.0014405148929
300.0011178450943
300.0923121983134
300.204827651056
300.3590793363327
300.3825735792482
310.981559823717
312.8763123179079
314.4763802141321
316.5575536625004
315.992500679791
313.1263034114738
310.6078153876135
308.7015773982652
300.6734984256261
301.2386546283892
301.5384085191108
301.4298182725357
300.0032649425575
300.0087803225027
300.0174719447865
300.0213367994516
300.0001363352146
300.0003633484041
300.0007721235273
300.0008665242583
300.0007024575358
300.0003704474959
300.0001004163972
300.0000087174142
300.0191727093775
300.0140104485278
300.0068255862982
300.0016307430311
301.1589644671633
300.8366673585485
300.4957051789619
300.1917634750286
306.7165188760592
304.8304014729174
303.2847225459943
302.0241013794018
300.9788992569149
300.0399417172612
300.0001512070708
300.0000001117339
300.2927999887564
300.0043592433729
300.0000104673878
300.0000000438138
300.0235595134956
299.9997057569464
299.9999833011036
300.0000003376774
303.1193324672892
300.019069790665
299.9998045188365
299.9999811853663
299.9999518413111
299.9998974806489
300.1060273440483
323.7811078304875
299.9999909593386
300.0013513037561
300.6063849269373
341.278728361933
300.0001413020383
300.0034065409413
301.2703050653279
351.86149138745
300.000480244072
300.0119262366107
302.3845048080508
360.7392560403734
368.0680687667544
303.6045096717458
300.017519952105
300.0007425861428
375.9248419284667
305.2710824088099
300.0368094859337
300.0014487575585
381.6917181947606
306.6611074975066
300.0426666305406
300.0015832275354
387.3189577303148
308.4183539796037
300.072379463428
300.0029006445044
300.0033336637322
300.0890853818587
310.5470666929879
392.1542210175854
300.0052651550056
300.1401860711088
313.1565466260446
391.8619025167992
300.0103915377769
300.1913118216693
313.305616732978
383.0704039049937
299.9998153260353
300.0830081386699
308.2990287629668
361.2743447727206
300.0178971577278
300.3633093243139
309.4711313239638
340.5532240942073
300.0209863856967
300.4725654055594
305.7471526222271
317.8739924791204
300.004177905349
300.2573524745526
304.7756831513909
313.2080753336432
299.9949722172925
300.0009055095985
303.1434775515924
318.1484150793336
314.2896856349603
300.2792912321713
299.8440150116843
299.9943548307985
306.860071198133
298.8896312834813
299.8190882637933
299.9978427625019
299.7905621836984
297.9892050960477
299.8520709119416
299.9993184151706
290.5318883065586
297.6222283788734
299.9018651664534
299.9995061100233
284.9548773366869
298.3744056596474
299.9675122873712
299.9998439763982
281.092019666607
299.1342082520896
299.991015041289
299.9999634855512
280.7921727422842
299.4363193810987
299.9960978900017
299.9999877220673
283.2253748346701
299.7285307456515
299.9987252227175
299.9999940297004
297.281150187941
299.5456299871411
299.9835558761251
299.999841197068
298.4527626977872
299.5754581544888
299.9827827199407
299.9998375011008
298.851621304577
299.5807279648126
299.9799696387013
299.9998214556335
300.0835313617595
299.6645749209274
299.971071239474
299.9997561697886
283.2253748342036
299.7285307447985
299.9987252214029
299.9999940320928
280.7921727418648
299.4363193806445
299.9960978874561
299.9999877218751
281.0920196661647
299.1342082534096
299.9910150417468
299.9999634857688
284.9548773370291
298.3744056620048
299.9675122874505
299.9998439756239
299.994354830765
299.8440150135172
300.2792912322305
314.2896856348115
299.9978427644283
299.819088264776
298.8896312843673
306.8600711987639
299.9993184134776
299.8520709138678
297.989205094932
299.7905621840644
299.9995061106868
299.901865167131
297.6222283807466
290.531888305821
318.1484150780524
303.1434775497326
300.0009055066798
299.9949722157306
313.2080753312898
304.7756831501139
300.257352473136
300.00417790288
317.873992479801
305.7471526209116
300.4725654058637
300.0209863857473
340.5532240944631
309.4711313235322
300.3633093233007
300.0178971612925
300.0033336626022
300.0890853851647
310.5470666947411
392.1542210183165
300.005265154807
300.1401860731148
313.1565466275741
391.8619025170379
300.0103915386302
300.1913118217756
313.3056167319038
383.0704039049575
299.9998153300585
300.0830081390146
308.2990287620743
361.2743447725264
387.3189577316091
308.4183539798121
300.0723794648721
300.0029006449865
381.6917181963003
306.6611075011702
300.042666629104
300.0015832279203
375.924841928432
305.2710824064478
300.036809494637
300.0014487565053
368.0680687677678
303.6045096708474
300.0175199448418
300.0007425853597
299.9999518429649
299.9998974817784
300.1060273441317
323.781107829475
299.9999909588179
300.0013513030943
300.606384927981
341.2787283621478
300.0001413009625
300.0034065377084
301.270305064854
351.8614913877112
300.0004802426046
300.0119262421691
302.3845048089281
360.7392560403309
299.9999811848205
300.0000003385146
300.0000000439038
300.000000111311
299.9998045173427
299.9999833015832
300.0000104692031
300.0001512053804
300.0190697910625
299.9997057574174
300.004359241861
300.0399417175515
303.1193324677174
300.0235595140452
300.2927999883474
300.9788992572527
300.0000087153578
300.0016307435424
300.1917634767723
302.0241013797639
300.0001004163129
300.006825585782
300.4957051808806
303.2847225459805
300.0003704488445
300.0140104487789
300.8366673575841
304.8304014724591
300.0007024577273
300.0191727095287
301.1589644682512
306.7165188754021
300.0001363332983
300.0032649410275
300.6734984259784
315.992500680018
300.000363346313
300.0087803222502
301.2386546288777
313.1263034107529
300.0007721222865
300.0174719462103
301.5384085192866
310.6078153870535
300.0008665233054
300.0213368007134
301.4298182726475
308.7015773972196
316.5575536634935
300.3825735817766
300.0011178442199
300.0000402640002
314.4763802144668
300.3590793378468
300.0014405146811
300.0000567845253
312.8763123190335
300.2048276504967
300.000464371972
300.0000431924245
310.98155982343
300.0923121970976
300.0001682975762
300.0000067336746
309.4766452624312
299.9241109906558
300
299.9999999986119
308.2593485807984
300.0440566901725
300
300.0000000000001
304.9684362430986
300.0000678846852
300
300
301.2435666928657
299.9999953056862
300
299.9999999999999
300
299.9999999999999
299.9999999996836
300.0004865239121
300.0000000000002
300
300.0000000022957
300.0021108902579
300
300
300.0000000339636
300.0107975798502
300
300
300.0000008202479
300.0194452996927
300.0011433738853
300.0042679297594
300.0191222801319
300.266371689932
300.0042679568761
300.0055672462166
300.0184897160594
301.0224107251342
300.0191222561023
300.0184896597037
300.3989806881314
306.3873937646599
300.2663716651788
301.0224107057188
306.3873938347332
326.0972407674141
355.0289938523106
336.0374106409965
322.851455825867
310.8720662664663
351.212135736229
346.5358927060681
342.1175444332719
333.2811458016993
348.2619084610639
346.1415655093971
344.0271868256881
339.9520837146231
346.457514386691
345.5869262378059
345.0200751487342
342.9379594642243
344.6329467920031
345.189604181781
346.0107447868087
348.1128075073902
344.8841456640429
344.6665071008829
345.2964096406239
347.4571746920423
345.1397080678738
344.1864305667775
344.5664485389609
345.843721064178
345.6798816448347
344.0372728042828
344.2917273746057
342.064181497544
331.1657856225731
313.0269826032275
304.2568124950515
304.27323069124
322.1072389412705
304.9624213725838
302.346236016665
304.9454706703692
311.7159778903188
298.5624718731451
303.3355403437556
306.4636975953625
287.696273780676
291.3753088931403
302.7972595940112
306.0254820149784
303.7065479857239
302.9697195784221
302.4054688243136
302.3528318686185
304.6438911672069
303.5354289572828
302.7535669908186
302.3767277947298
305.8822672292999
304.3208334303481
303.3048947687147
302.6512341479169
305.3362881338321
303.7319300472087
302.6903396601494
302.3736456139727
301.6833648536028
300.7921215574924
300.1630994121334
332.8535655020107
301.536665649933
300.7314401185193
300.1552687295431
349.5644574519944
301.6835820096035
300.8297490559057
300.4721865000562
358.8608097409447
301.4012462706257
300.5177114893538
300.9778324260712
364.4053652020704
409.5618582559923
420.034112450964
422.7353875266203
424.7310758835491
423.1673605845219
425.8348462058578
423.4987317793174
422.6146127019051
425.8125011606152
423.9676090060661
422.7335143463141
420.0155118419491
434.0136659526827
427.8538413238394
422.8969454820176
418.8560084243497
425.6162407387458
429.0958652158855
431.7661286742913
434.5923880346464
421.798972524762
424.1146508309847
425.9941269413465
428.7383071614928
416.8010960727889
418.178781610715
419.6255524514115
422.2491389312935
414.9558201479485
415.6608695769485
416.7088572
419.3311851456351
434.6723482899437
429.420116589507
417.7298116135803
398.9398580195028
429.4179201591261
425.1290892969751
415.1669158013395
415.1961224610796
423.265745339456
420.2639862616816
415.3466486373069
428.3991087711964
420.1499638157274
418.7766907239259
419.7106179215048
409.435698057966
362.8385841011888
297.593020006807
206.4693986234909
205.9793844642286
350.701031141279
261.5958592632703
189.7282953427646
173.0168603027651
317.3070709768655
214.644182749785
166.3150628979114
156.389024895471
241.1612920022137
156.1129039696237
166.0835841685876
151.3265250060909
218.1859102211766
226.0710260357559
231.6289808374879
231.1164606967969
181.8846904197729
192.1935315832619
204.6017540436436
221.1857588317204
157.9060661039442
164.7650623805128
186.1477297037066
221.3320148250698
148.7398406465727
153.6898821639326
180.5192945600255
227.8566401908598
265.4321442261309
256.8870841412531
252.5219563294438
256.9624114579782
272.8326138355686
268.0090212183129
259.2946216868028
263.0119742784246
265.9591764958635
276.1022420956444
271.8657411727346
277.4719416355883
248.9271586559342
267.0617573128502
271.6931349348731
288.7689571263339
235.8734135083946
211.5305040714209
184.4154205829168
202.1873459865564
239.5740300583854
213.0245921994632
190.606819941698
217.5877526250837
241.6833086394257
187.0919566329908
213.2946850241324
206.284138963911
214.9859292608939
180.5089184229993
207.8405056851157
182.9339173184637
173.2430773535008
170.8389243521053
167.513997983611
166.0015289618499
183.3449922463043
173.250020331735
172.0208667513948
171.3471191183791
213.2539875864778
207.2693553717286
209.242062790564
210.8755389819398
249.0913857196804
267.0322273914715
260.7085901342516
257.0088125931547
166.0015289619113
171.3471191183811
210.8755389818717
257.0088125926329
167.5139979838519
172.0208667514087
209.2420627906224
260.7085901339164
170.8389243523245
173.2500203319381
207.2693553717546
267.032227391158
173.2430773536767
183.3449922465805
213.2539875864643
249.0913857195869
202.187345986431
184.4154205825963
211.5305040709038
235.8734135076934
217.5877526251061
190.6068199419091
213.0245921992886
239.5740300579118
206.284138963873
213.2946850242234
187.0919566327907
241.6833086392327
182.9339173184891
207.840505685031
180.5089184231242
214.985929260726
288.768957126245
271.693134934604
267.0617573118439
248.9271586544166
277.4719416353952
271.8657411725539
276.1022420948526
265.9591764942397
263.0119742781517
259.2946216866208
268.009021217474
272.8326138340461
256.9624114577005
252.5219563293003
256.8870841403615
265.4321442248464
231.1164606963249
231.6289808379505
226.0710260362761
218.1859102208693
221.1857588312122
204.6017540442555
192.1935315839796
181.8846904194701
221.3320148245298
186.1477297041443
164.7650623809992
157.9060661038739
227.8566401899277
180.5192945600989
153.6898821642481
148.7398406466486
205.9793844625542
206.4693986220217
297.5930200067285
362.8385841013003
173.0168603015899
189.7282953415286
261.5958592628501
350.7010311407069
156.3890248946556
166.3150628969663
214.6441827494197
317.307070976667
151.3265250055805
166.0835841661697
156.112903967969
241.1612920018667
398.9398580193983
417.729811613716
429.4201165893192
434.6723482900127
415.196122461156
415.1669158015059
425.129089297033
429.417920159429
428.3991087714057
415.3466486375946
420.2639862620903
423.2657453400715
409.4356980580069
419.7106179220574
418.7766907244448
420.1499638165633
434.5923880346444
431.7661286750629
429.0958652167842
425.6162407393626
428.7383071618655
425.9941269420073
424.1146508316002
421.7989725256423
422.2491389318764
419.6255524519764
418.1787816111737
416.8010960737743
419.3311851464215
416.7088572004987
415.6608695774859
414.9558201492916
424.7310758839288
422.7353875251224
420.034112450662
409.5618582552051
422.61461270232
423.498731777517
425.834846206172
423.1673605827651
420.0155118425209
422.7335143447671
423.9676090055416
425.8125011578344
418.856008424843
422.8969454808573
427.8538413231223
434.0136659495128
332.8535654994749
300.1630994071423
300.7921215591047
301.6833648533159
349.5644574487761
300.1552687246725
300.7314401210708
301.5366656489764
358.8608097381417
300.4721864982556
300.8297490587341
301.6835820080831
364.4053651996022
300.9778324261005
300.5177114919452
301.4012462687641
302.3528318684854
302.4054688241996
302.9697195780019
303.7065479851405
302.376727794876
302.7535669905987
303.5354289570291
304.6438911666774
302.6512341481442
303.3048947682416
304.3208334303349
305.8822672287221
302.3736456144611
302.6903396597066
303.7319300473486
305.3362881331623
304.2732306900904
304.2568124948357
313.0269826021395
331.1657856224813
304.945470669423
302.3462360163716
304.9624213713838
322.1072389412916
306.4636975945837
303.335540343436
298.5624718720297
311.7159778902252
306.0254820141092
302.7972595938239
291.375308891928
287.6962737798751
348.112807507154
346.0107447872123
345.1896041841538
344.6329467935057
347.4571746914098
345.2964096410071
344.6665071031561
344.8841456642683
345.8437210633782
344.5664485386799
344.186430568505
345.1397080681529
342.0641814969231
344.2917273738815
344.0372728056421
345.679881644937
342.9379594629502
339.9520837157058
333.2811457984154
310.8720662727328
345.0200751469691
344.0271868254004
342.117544433673
322.8514558256169
345.5869262365366
346.1415655084417
346.5358927063651
336.0374106384033
346.4575143857359
348.2619084586924
351.2121357319726
355.0289938521686
286.1937264579523
299.6439817588696
299.9965884620083
299.9999846057667
289.9541099210866
299.6727101289152
299.9955409530837
299.9999715260915
294.9218577882347
299.7044175222444
299.9932222493624
299.9999467881028
299.7411397443579
299.7189053682232
299.9775967581576
299.9998229251399
299.9998411980419
299.9835558763029
299.5456299861302
297.281150185876
299.9998375021304
299.9827827211645
299.5754581528174
298.4527626978144
299.9998214539769
299.9799696401859
299.5807279636208
298.8516213036905
299.9997561658917
299.9710712410627
299.6645749182065
300.0835313607081
299.9998229238697
299.9999467859645
299.9999715206549
299.9999846012851
299.97759675878
299.9932222494206
299.9955409526573
299.9965884604727
299.7189053676026
299.7044175207304
299.6727101301003
299.6439817579246
299.7411397434078
294.9218577863658
289.9541099202393
286.1937264585117
)
;

boundaryField
{
    back
    {
        type            empty;
    }
    inlet
    {
        type            zeroGradient;
    }
    front
    {
        type            empty;
    }
    top
    {
        type            zeroGradient;
    }
    outlet
    {
        type            fixedValue;
        value           uniform 300;
    }
    bottom
    {
        type            zeroGradient;
    }
    wall
    {
        type            zeroGradient;
    }
}


// ************************************************************************* //
