/*--------------------------------*- C++ -*----------------------------------*\
  =========                 |
  \\      /  F ield         | OpenFOAM: The Open Source CFD Toolbox
   \\    /   O peration     | Website:  https://openfoam.org
    \\  /    A nd           | Version:  11
     \\/     M anipulation  |
\*---------------------------------------------------------------------------*/
FoamFile
{
    format      ascii;
    class       surfaceScalarField;
    location    "18.2";
    object      phi;
}
// * * * * * * * * * * * * * * * * * * * * * * * * * * * * * * * * * * * * * //

dimensions      [0 3 -1 0 0 0 0];

internalField   nonuniform List<scalar> 
8667
(
1.5881903
0.19326132
-0.0036738452
1.3981487
0.20220122
-0.01215959
1.2060795
0.20996017
-0.017890966
1.0148869
0.21680659
-0.025614048
0.82184033
0.22366822
-0.030621614
0.6311264
0.23042401
-0.03971008
0.438271
0.2393066
-0.046451203
0.250849
0.24410617
-0.056684172
0.26089614
-0.076472785
0.066425639
1.5883033
0.38273582
1.3978584
0.39264618
1.2064006
0.40141796
1.0145649
0.40864221
0.82203879
0.41619438
0.63018099
0.42228181
0.43787404
0.43161355
0.2503067
0.43167351
0.44669687
0.064505977
1.5884142
0.57209944
1.3979287
0.58313164
1.2065839
0.59276273
1.0146586
0.60056755
0.82156451
0.60928848
0.62960815
0.61423816
0.43700142
0.62422029
0.24930528
0.61936965
0.63381849
0.062183649
1.5883942
0.76148306
1.3983442
0.77318162
1.2066895
0.78441742
1.0150216
0.79223549
0.82136498
0.80294507
0.62922366
0.80637948
0.43567488
0.81776908
0.24727659
0.80776793
0.82065376
0.060441333
1.5884295
0.95083115
1.3987153
0.96289587
1.2072553
0.97587738
1.0154844
0.9840064
0.82182369
0.99660577
0.62896898
0.9992342
0.43521813
1.0115199
0.24570438
0.99728169
1.0081914
0.058166706
1.5885538
1.1400552
1.3991854
1.1522643
1.2078304
1.1672323
1.0160022
1.1758346
0.82226965
1.1903383
0.62860304
1.1929008
0.43391442
1.2062085
0.24351635
1.1876798
1.1958176
0.055890156
1.5887902
1.3290428
1.3997785
1.341276
1.2086814
1.3583294
1.0166591
1.3678569
0.82282376
1.3841736
0.62898582
1.3867387
0.433717
1.4014774
0.2414552
1.3799416
1.3849536
0.052319211
1.5890181
1.5178025
1.399947
1.530347
1.2094644
1.5488121
1.0175801
1.5597412
0.82334417
1.5784096
0.62868131
1.5814016
0.43273292
1.5974258
0.2392974
1.5733771
1.5757701
0.048480869
1.5892333
1.7063471
1.4005464
1.7190339
1.2100811
1.7392774
1.0184908
1.7513315
0.82435403
1.7725463
0.62950269
1.7762529
0.43274694
1.7941815
0.23692123
1.7692028
1.7700773
0.042614086
1.8885909
1.5955339
2.0705872
1.5957815
2.2522054
1.5961601
2.4336487
1.5963347
2.6146702
1.5967545
2.7953751
1.5970731
2.9758707
1.5972824
3.1555885
1.5980602
1.5979438
3.3354227
1.9016708
1.412897
2.0839603
1.4134921
2.2659371
1.4141833
2.447601
1.4146709
2.6293033
1.4150521
2.8103056
1.4160708
2.9913759
1.4162121
3.1717542
1.4176819
1.4174498
3.3522482
1.924144
1.2280304
2.1085923
1.2290438
2.2928315
1.2299441
2.4761565
1.2313458
2.659143
1.2320656
2.8414303
1.2337836
3.0233033
1.234339
3.2048044
1.2361809
1.2365315
3.3857226
1.938125
1.0412369
2.1245501
1.0426187
2.3110495
1.0434447
2.4972365
1.0451588
2.6832447
1.0460575
2.8690412
1.0479871
3.0545961
1.0487841
3.2399318
1.0508452
1.0514441
3.4250193
1.9626537
0.85112951
2.1528038
0.85246868
2.34309
0.85315846
2.5334032
0.85484558
2.7235588
0.85590183
2.9136897
0.85785621
3.1032325
0.85924132
3.2926155
0.86146218
0.86301301
3.4810466
1.9683511
0.65903137
2.1614033
0.65941641
2.3550016
0.65956018
2.5496765
0.66017069
2.7444487
0.66112961
2.9403408
0.6619641
3.1361949
0.66338725
3.3332423
0.6644148
0.66626519
3.5299901
1.9884997
0.46471319
2.1855519
0.46236418
2.3830987
0.46201337
2.5834426
0.45982682
2.7838985
0.46067372
2.986252
0.45961056
3.1880217
0.46161756
3.3911331
0.46130339
0.46393023
3.5934681
1.9666487
0.26726733
2.1698106
0.2592022
2.3756119
0.25621215
2.5848353
0.25060339
2.7945081
0.25100087
3.0064748
0.24764389
3.2186346
0.24945777
3.4326416
0.24729635
0.2499834
3.6465885
1.9799054
0.057439175
2.2051527
0.033954931
2.4336501
0.027714733
2.6650934
0.019160153
2.8966958
0.019398385
3.1301053
0.014234448
3.3641246
0.015438485
3.5988814
0.012539493
3.8337031
0.015161699
3.3250807
0.010342019
3.315515
0.0095657139
3.3061164
0.0093985996
3.2977275
0.0083888627
3.2894271
0.0083004731
3.2822796
0.0071475007
3.2751077
0.0071718933
3.2692141
0.0058935275
0.0059958106
3.2632183
3.345252
0.017338242
3.3391162
0.015701534
3.3330625
0.015452263
3.3278809
0.013570447
3.3227191
0.013462257
3.3185202
0.011346445
3.3142993
0.011392747
3.3111612
0.0090316636
0.0092894525
3.3078676
3.380255
0.022805863
3.3753119
0.020644611
3.3706193
0.02014487
3.3663348
0.01785499
3.3623595
0.0174375
3.3587924
0.014913547
3.3555965
0.01458867
3.3528627
0.011765452
0.011608202
3.350544
3.4215993
0.026225818
3.4185623
0.023681629
3.4157557
0.022951403
3.4131838
0.020426908
3.4108459
0.019775414
3.4087328
0.017026705
3.4068538
0.016467648
3.4051848
0.013434424
0.013067548
3.4037255
3.4776299
0.029642519
3.4745421
0.026769412
3.471639
0.025854444
3.4689491
0.023116893
3.4664157
0.022308775
3.46407
0.019372393
3.4618572
0.018680444
3.459774
0.015517651
0.015014012
3.4578275
3.5285085
0.031124105
3.5270858
0.028192129
3.5259944
0.026945845
3.5247094
0.024401881
3.5236603
0.023357885
3.5221789
0.020853757
3.5208775
0.019981866
3.5188532
0.017541969
0.016894591
3.5169726
3.5927424
0.031849805
3.5915975
0.029337033
3.5906693
0.027874068
3.5891639
0.025907264
3.5876287
0.024893047
3.5851198
0.023362679
3.582422
0.022679629
3.5785203
0.021443725
0.021161955
3.5742529
3.6537291
0.024709199
3.6594686
0.023597564
3.6657706
0.021572058
3.6703926
0.021285222
3.6750407
0.020244978
3.6773299
0.021073435
3.6785547
0.021454875
3.6757078
0.02429059
0.026485716
3.670384
3.8467945
0.011617821
3.8561562
0.014235866
3.8629429
0.014785376
3.8655066
0.018721535
3.8639099
0.021841602
3.8558894
0.029094029
3.8420749
0.03526933
3.8201316
0.046233907
3.7937295
0.052887748
3.7744431
0.073223409
-0.053936964
3.7413292
0.070395761
-0.037281843
3.7019031
0.067013343
-0.027587215
3.6605409
0.065024388
-0.023662183
3.6169806
0.062290533
-0.01873033
3.5732431
0.060525587
-0.016788085
3.5286708
0.058358013
-0.013785664
3.4855827
0.057294173
-0.014206035
0.055943396
3.4421059
-0.012466589
3.6745492
0.069058217
3.675144
0.069801047
3.6718567
0.070300582
3.6662809
0.070600245
3.6577262
0.07084514
3.6471608
0.071091061
3.6341462
0.071372638
3.6195912
0.071849119
0.072341304
3.6031933
3.5812597
0.062051387
3.5875545
0.063506279
3.5922917
0.065563406
3.5959559
0.066936047
3.5979233
0.068877722
3.5988813
0.070133098
3.598218
0.072035937
3.5967428
0.073324226
0.075343106
3.593741
3.5273335
0.051690539
3.5379532
0.052886552
3.5474437
0.056072865
3.5571724
0.057207368
3.5656351
0.060415089
3.5742237
0.061544482
3.5814379
0.0648217
3.58873
0.066032141
0.069444207
3.5946289
3.4683405
0.041177548
3.4793093
0.041917767
3.4898943
0.045487829
3.5009291
0.04617258
3.5114485
0.049895729
3.5224274
0.050565583
3.5327886
0.054460526
3.5436502
0.055170462
0.059282775
3.5538117
3.4155144
0.029388655
3.427682
0.029750118
3.4399985
0.033171349
3.4527263
0.033444738
3.4655002
0.037121849
3.4787406
0.037325199
3.4919286
0.041272466
3.5056662
0.041432868
0.045692113
3.5192569
3.3612801
0.018652531
3.3725773
0.018452934
3.3842254
0.021523202
3.3964832
0.021186982
3.4090568
0.024548211
3.4223287
0.024053351
3.4358868
0.027714301
3.4502469
0.027072815
0.031096648
3.4648424
3.3184609
0.0080592148
3.3291296
0.0077842324
3.3407704
0.0098823992
3.3524853
0.0094720556
3.3653905
0.011643069
3.3783526
0.011091181
3.3926558
0.013411094
3.4069555
0.012773124
0.015301717
3.4227505
3.2712775
3.2790618
3.2889442
3.2984162
3.3100593
3.3211505
3.3345616
3.3473347
3.3626364
3.3772386
-0.01460219
3.3946085
-0.017369861
3.4112211
-0.016612598
3.4308632
-0.019642174
3.4496979
-0.018834621
3.4718623
-0.022164428
3.4931907
-0.021328444
3.5182
-0.02500928
-0.024161879
3.5423619
3.4384756
-0.030327297
3.4558799
-0.034774178
3.4731632
-0.03389591
3.4923432
-0.038822228
3.5113624
-0.037853753
3.5325314
-0.043333485
3.5534929
-0.042289877
3.576904
-0.048420443
-0.047306161
3.6000483
3.4803606
-0.045845555
3.4960592
-0.050472745
3.5128252
-0.050661957
3.5297299
-0.055726906
3.5478725
-0.055996371
3.5661297
-0.061590666
3.5858181
-0.061978228
3.6056166
-0.068218981
-0.068744995
3.6270554
3.5335135
-0.060102165
3.5475409
-0.064500131
3.5623854
-0.065506449
3.5769374
-0.070278877
3.5924853
-0.071544273
3.6076969
-0.076802309
3.6241123
-0.078393625
3.640197
-0.084303713
-0.086259527
3.6577116
3.5645587
-0.070849221
3.5745358
-0.074477201
3.5852227
-0.076193319
3.5950852
-0.080141464
3.6058395
-0.08229854
3.6157567
-0.086719541
3.6267595
-0.089396331
3.6369475
-0.094491777
-0.097734775
3.6484228
3.6006671
-0.076887421
3.6053203
-0.079130439
3.6102442
-0.081117163
3.6137813
-0.083678611
3.6177782
-0.086295366
3.6204554
-0.089396834
3.6238232
-0.092764134
3.625956
-0.096624491
-0.10081456
3.6290357
3.5900898
-0.073236221
3.5851713
-0.074211911
3.5797114
-0.07565726
3.5733108
-0.077277952
3.5664256
-0.079410193
3.5588511
-0.081822302
3.5508584
-0.084771499
3.5424001
-0.088166136
-0.092040277
3.5336258
3.5854585
-0.055501443
3.5663067
-0.05506012
3.5458901
-0.055240625
3.5243983
-0.055786174
3.5016425
-0.056654387
3.4780066
-0.058186425
3.4531381
-0.059902982
3.427457
-0.062485001
-0.065275153
3.4006919
3.4005612
-0.013956792
3.3579393
-0.012438262
3.3172945
-0.014595812
3.274631
-0.013122656
3.2340415
-0.016064847
3.190468
-0.014613001
3.1491665
-0.018601446
3.1038109
-0.017129413
3.0610287
-0.022492958
0.069108684
3.012886
-0.020965982
0.096652843
3.3731477
0.10569549
3.5245831
0.10371759
3.6310136
0.092996837
3.6591435
0.075767818
3.6749406
0.054201204
3.648622
0.028266277
3.6259832
3.5706282
0.073156757
2.9678379
-0.028108659
0.1014595
3.3448449
0.11063826
3.5154044
0.10754436
3.6341076
0.095323768
3.6713641
0.076424368
3.69384
0.053002266
3.6720441
0.027413093
3.6515724
3.5980413
0.07869518
2.9158498
-0.026707074
0.10772673
3.3158134
0.11699477
3.5061363
0.11462608
3.6364762
0.10306678
3.6829234
0.084368799
3.712538
0.060779283
3.6956337
0.032005721
3.680346
3.630047
0.08430926
2.868201
-0.036660462
0.1134876
3.2866351
0.12262081
3.4970031
0.11900916
3.6400879
0.10573154
3.696201
0.08511306
3.7331564
0.059459983
3.7212867
0.03115078
3.7086552
3.6611978
0.091978932
2.812573
-0.03635095
0.12166488
3.2569491
0.1306881
3.4879799
0.12740019
3.6433758
0.11464892
3.7089523
0.094113083
3.7536923
0.068103632
3.7472962
0.036142116
3.7406167
3.6973399
0.099551356
2.7644405
-0.051418795
0.12843878
3.2280617
0.1369084
3.4795103
0.13217744
3.6481068
0.11756586
3.7235639
0.094870366
3.7763878
0.066959486
3.7752071
0.035640944
3.7719352
3.7329808
0.10966383
2.7083442
-0.053567545
0.13886568
3.1988598
0.14701329
3.4713627
0.14218536
3.6529347
0.12781297
3.7379363
0.10482221
3.7993785
0.076003767
3.8040255
0.040763427
3.8071756
3.7737442
0.11938465
2.6667835
-0.077823947
0.14661714
3.1716273
0.15364442
3.4643354
0.1471532
3.6594259
0.13079021
3.7542992
0.10592553
3.8242432
0.075513474
3.8344376
0.040662932
3.8420261
3.8144072
0.13413239
2.6118502
-0.079199126
0.16021751
3.1455422
0.16669439
3.4578585
0.15975374
3.6663666
0.14331622
3.7707368
0.11693179
3.8506276
0.084588235
3.8667811
0.045843579
3.8807708
3.8602508
-0.0068584265
3.8671092
-0.0052792304
3.8791916
-0.0011601854
3.8626621
0.009573432
3.839894
0.022413106
3.7578971
0.040929677
3.64785
0.060528334
3.4382598
0.078649878
3.1274207
2.6301731
0.06032702
-0.010417225
3.8775264
-0.01187857
3.8806529
-0.0097538002
3.8605373
-0.0012492493
3.8313895
0.010491445
3.7461564
0.027607784
3.6307337
0.044289811
3.4215778
0.059580134
3.1121304
2.6342344
0.05551877
-0.0096624406
3.8871888
-0.010896476
3.881887
-0.0085933751
3.8582342
0.0005071876
3.8222889
0.010970754
3.7356928
0.026898272
3.6148062
0.04302192
3.4054542
0.058375669
3.0967766
2.6394083
0.053201856
-0.012893638
3.9000825
-0.016946251
3.8859396
-0.017297373
3.8585853
-0.011189207
3.8161807
-0.0015606683
3.7260643
0.013506321
3.5997392
0.028090336
3.3908702
0.040792653
3.0840743
2.6454374
0.034763531
-0.01218651
3.912269
-0.015829319
3.8895824
-0.015475999
3.858232
-0.0080178555
3.8087226
0.00064380957
3.7174026
0.014652823
3.5857302
0.028676374
3.3768466
0.041273172
3.0714775
2.6469684
0.039742115
-0.015443766
3.9277128
-0.021403222
3.8955418
-0.023826787
3.8606556
-0.019642119
3.8045379
-0.011649286
3.7094098
0.0014294859
3.5726514
0.014283298
3.3639928
0.025832634
3.0599282
2.6450663
0.027734727
-0.01490332
3.9426161
-0.020101902
3.9007404
-0.021350528
3.8619042
-0.015175023
3.7983624
-0.0078850057
3.7021198
0.0041469827
3.5606194
0.016630162
3.3515096
0.028721791
3.0478365
2.6393501
0.034438055
-0.017955146
3.9605712
-0.024783811
3.9075691
-0.029016441
3.8661368
-0.026389949
3.7957359
-0.020021418
3.6957512
-0.0087491157
3.5493471
0.0031630185
3.3395975
0.01532568
3.0356739
2.6310309
0.02364489
-0.017032629
3.9776039
-0.023261463
3.9137979
-0.025973988
3.8688493
-0.020447958
3.7902099
-0.014430995
3.6897343
-0.0040172174
3.5389333
0.0074812125
3.3280991
0.019857506
3.0232976
2.619537
0.03135134
-0.0077488139
2.6056795
0.021606365
0.0049793212
3.0105694
0.01614717
3.3169312
0.026014056
3.5290664
0.030790427
3.6849579
0.032684036
3.7883163
0.027082174
3.8744512
0.019546401
3.9213337
3.9971503
-0.013745842
2.5896384
0.029786909
-0.00121145
2.998035
0.0092411569
3.3064786
0.018359669
3.5199479
0.023552331
3.6797653
0.028968332
3.7829003
0.025282612
3.8781369
0.018367286
3.928249
4.0155175
-0.0028464201
2.5720268
0.020458022
0.01000771
2.9851809
0.020114674
3.2963716
0.028899293
3.5111633
0.03281275
3.6758518
0.034097618
3.7816154
0.027942166
3.8842924
0.020299197
3.935892
4.0358167
-0.010090471
2.5530854
0.029031924
0.0021342034
2.9729562
0.011249999
3.2872558
0.01927109
3.5031422
0.024003489
3.6711194
0.029412665
3.7762063
0.025649378
3.8880557
0.018821857
3.9427195
4.0546386
-0.00053902647
2.5336571
0.019967307
0.011736506
2.9606807
0.020576147
3.2784162
0.028289412
3.4954289
0.031876503
3.6675323
0.033033785
3.775049
0.027116262
3.8939732
0.020101178
3.9497346
4.0747398
-0.0090513324
2.5138045
0.028903951
0.0022184217
2.949411
0.0097316044
3.270903
0.016844658
3.4883159
0.021541501
3.6628355
0.027268429
3.769322
0.024215269
3.8970264
0.018239968
3.9557099
4.0929797
-0.00097992729
2.4948469
0.019937523
0.0097300136
2.938701
0.016906174
3.2637269
0.023753649
3.4814684
0.027654115
3.658935
0.029344681
3.7676315
0.024542549
3.9018285
0.018877087
3.9613754
4.1118568
-0.011188705
2.4769616
0.02907401
-0.0016555261
2.9291678
0.0040606075
3.2580107
0.01074212
3.4747869
0.016115805
3.6535613
0.022443505
3.7613038
0.021048142
3.9032238
0.016635728
3.9657878
4.1284926
-0.0047432448
2.4620094
0.019695385
0.0034087638
2.9210158
0.0085976913
3.2528218
0.015168863
3.4682157
0.020282796
3.6484474
0.023015975
3.7585706
0.020322297
3.9059175
0.016750144
3.9693599
4.1452427
0.00045514255
4.1447876
0.0093009326
3.9605141
0.020682568
3.8945359
0.036420359
3.7428328
0.048209034
3.6366587
0.056399461
3.4600253
0.056346576
3.2528747
0.051235901
2.9261265
2.4646862
0.048559157
0.0018448242
4.1429427
0.012464137
3.9498948
0.023041386
3.8839586
0.035835379
3.7300388
0.048503461
3.6239906
0.05738468
3.4511441
0.056831294
3.2534281
0.047880023
2.9350778
2.4768218
0.035744354
0.0055857729
4.137357
0.018035878
3.9374447
0.032877348
3.8691172
0.052189943
3.7107262
0.068013593
3.608167
0.079456629
3.439701
0.080285843
3.2525988
0.072320884
2.9430427
2.4964136
0.052729086
0.0078614976
4.1294955
0.022168758
3.9231375
0.036323055
3.8549629
0.053109539
3.6939397
0.070797997
3.5904785
0.084183459
3.4263156
0.086070992
3.2507113
0.075235102
2.9538786
2.5296496
0.041999178
0.011669502
4.117826
0.027719699
3.9070873
0.046748609
3.835934
0.070137002
3.6705513
0.091305883
3.5693096
0.10776889
3.4098526
0.1126826
3.2457976
0.10667027
2.959891
2.5813895
0.054930309
0.014265493
4.1035605
0.032414949
3.8889378
0.050724343
3.8176246
0.071696805
3.6495789
0.095382369
3.5456241
0.11519366
3.3900413
0.12245184
3.2385394
0.11977461
2.9625682
2.6556865
0.045477612
0.01812894
4.0854315
0.037785638
3.8692811
0.061208732
3.7942015
0.088540832
3.6222468
0.11577518
3.5183897
0.14028528
3.3655312
0.15008465
3.2287401
0.1581732
2.9544796
2.7467833
0.067076376
0.021765565
4.063666
0.042896521
3.8481501
0.065239226
3.7718588
0.089767707
3.5977183
0.11961872
3.4885387
0.14936151
3.3357884
0.15905296
3.2190486
0.17891324
2.9346194
2.8357174
0.08997916
0.025820587
4.0378454
0.048000685
3.82597
0.075216223
3.7446432
0.10685265
3.5660819
0.13967052
3.4557208
0.17622045
3.2992385
0.19321058
3.2020585
0.2240497
2.9037802
2.8620697
0.19769744
-0.17250932
4.2103547
-0.33059051
3.9840512
-0.48161915
3.8956719
-0.61344575
3.6979085
-0.72863638
3.5709115
-0.82763132
3.3982334
-0.92468617
3.2991133
-0.98339675
2.9624908
2.8787728
-1.0000999
-0.17525226
4.385607
-0.33856311
4.1473621
-0.49014574
4.0472545
-0.61963583
3.8273986
-0.73784371
3.6891194
-0.83793161
3.4983213
-0.93325346
3.3944352
-0.96590707
2.9951444
2.6915225
-0.77865672
-0.17640238
4.5620093
-0.33866951
4.3096292
-0.49263556
4.2012206
-0.62875695
3.9635199
-0.74557316
3.8059356
-0.84469488
3.597443
-0.93411153
3.4838518
-0.91397127
2.9750042
2.0410747
-0.26352351
-0.17830828
4.7403176
-0.34574112
4.477062
-0.50156113
4.3570406
-0.63582213
4.097781
-0.75284593
3.9229594
-0.85244754
3.6970446
-0.92562095
3.5570253
-0.85282775
2.902211
1.2490154
-0.06076844
-0.17845466
4.9187723
-0.3459325
4.6445399
-0.50297368
4.5140818
-0.64469782
4.2395051
-0.75968307
4.0379446
-0.854845
3.7922065
-0.91366175
3.615842
-0.75765703
2.7462063
0.50672029
-0.015361934
-0.17854107
5.0973134
-0.35167529
4.8176741
-0.5103793
4.6727858
-0.6518674
4.3809932
-0.76398943
4.1500666
-0.85484307
3.8830602
-0.88523834
3.6462373
-0.53532156
2.3962895
-0.072719359
0.04411809
-0.17778032
5.2750937
-0.35203429
4.9919281
-0.51006477
4.8308162
-0.65959121
4.5305196
-0.76787076
4.2583462
-0.84725535
3.9624448
-0.816823
3.6158049
-0.354815
1.9342815
-0.47720362
0.049669267
-0.17631391
5.4514076
-0.35697281
5.172587
-0.51790026
4.9917437
-0.6665138
4.6791332
-0.76887622
4.3607086
-0.83320182
4.0267704
-0.74026814
3.5228713
-0.29235305
1.4863664
-0.81447044
0.044913766
-0.17426049
5.6256681
-0.35854914
5.3568756
-0.5174462
5.1506408
-0.67298184
4.8346688
-0.77050307
4.4582298
-0.80953419
4.0658015
-0.63731092
3.350648
-0.19815068
1.0472061
-1.0817368
0.069115699
0.084986266
-1.212184
0.045460932
0.32684703
0.80534537
0.46735469
3.2101403
0.47215813
4.0609981
0.42888372
4.5015043
0.33324697
4.9303056
0.23037363
5.2535141
0.10432116
5.4829281
5.7299892
0.050569999
-1.3140903
0.051336302
0.27972636
0.57618901
0.45814993
3.0317168
0.4736022
4.0455458
0.43074424
4.5443622
0.32902796
5.0320219
0.22734262
5.3551994
0.099331424
5.6109393
5.8293207
0.021180973
-1.3906014
0.055330144
0.23478555
0.36258443
0.44030037
2.8262019
0.47043551
4.0154106
0.43414931
4.5806484
0.33320512
5.132966
0.22604293
5.4623616
0.094413614
5.7425686
5.9237343
-0.0074909859
-1.4419773
0.05886686
0.19100962
0.16408383
0.42423667
2.5929749
0.47081015
3.9688372
0.43532332
4.6161352
0.32815368
5.2401357
0.22156996
5.5689454
0.088979877
5.8751587
6.0127141
-0.023656776
-1.4785953
0.060274774
0.15520564
-0.014778592
0.39868129
2.3494992
0.46626049
3.901258
0.43822533
4.6441704
0.33125052
5.3471105
0.21807831
5.6821176
0.081600492
6.0116365
6.0943146
-0.018724804
-1.5207474
0.06087687
0.15132565
-0.18482904
0.38003528
2.1207896
0.46600445
3.8152888
0.43851116
4.6716637
0.32539574
5.4602259
0.21208306
5.7954302
0.076111028
6.1476085
6.1704257
-0.010097297
-1.5644694
0.053819329
0.14483749
-0.33976383
0.3526547
1.9129724
0.46020785
3.7077356
0.44084191
4.6910296
0.3272678
5.5738
0.20652317
5.9161749
0.067855716
6.286276
6.2382814
-0.0068009621
-1.6135096
0.055841132
0.1383823
-0.4849471
0.33487118
1.7164835
0.45906659
3.5835402
0.43983592
4.7102603
0.32023626
5.6933997
0.19905316
6.037358
0.061901552
6.4234276
6.3001829
-0.0031464506
-1.6164983
0.0061352172
0.11983857
-0.60793212
0.30198201
1.5343401
0.44856326
3.436959
0.43958028
4.7192433
0.32113459
5.8118454
0.1913472
6.1671454
0.053964142
6.5608106
6.3541471
0.18221911
-1.7614064
-0.037311076
0.13998078
-0.56569379
0.2333343
1.4409866
0.46869892
3.2015944
0.42858631
4.7593559
0.22263579
6.0177959
0.064963646
6.3248175
-0.07126055
6.6970348
6.2828865
0.18748794
-1.9367927
-0.012101634
0.087692374
-0.46589822
0.18411634
1.3445626
0.46896242
2.9167483
0.4010004
4.8273179
0.17204812
6.2467482
-0.026086079
6.5229517
-0.13466684
6.8056156
6.1482197
0.18907645
-2.0293446
-0.096524521
0.078178362
-0.35500013
0.18498924
1.2377517
0.48300497
2.6187325
0.34505303
4.9652698
0.082481642
6.5093196
-0.086060655
6.691494
-0.16029129
6.8798462
5.9879284
0.17593421
-2.0236778
-0.181601
0.065066233
-0.24413215
0.19073847
1.1120795
0.46666724
2.3428038
0.28536196
5.1465751
0.0058350061
6.7888465
-0.19076629
6.8880953
-0.21712634
6.9062063
5.7708021
0.17125956
-1.9390112
-0.25592613
0.088323164
-0.16119575
0.21649538
0.98390728
0.44376876
2.1155304
0.19544645
5.3948974
-0.11147712
7.0957701
-0.25038354
7.0270017
-0.22160571
6.8774284
5.5491963
0.14222616
-1.7957723
-0.28546508
0.084401263
-0.10337086
0.24851347
0.81979507
0.41709623
1.9469476
0.11691411
5.6950796
-0.20094334
7.4136275
-0.34062463
7.166683
-0.25431649
6.7911203
5.2948799
0.13191853
-1.6330422
-0.29464869
0.12404057
-0.095492907
0.30801816
0.63581749
0.38380744
1.8711583
-0.007022629
6.0859096
-0.32902846
7.7356334
-0.38098995
7.2186445
-0.22934959
6.6394799
5.0655303
0.098713673
-1.4687893
-0.26296653
0.10646896
-0.10324819
0.31296996
0.42931649
0.3474523
1.836676
-0.097127557
6.5304895
-0.40122106
8.0397269
-0.43709282
7.2545163
-0.23841474
6.4408019
4.8271155
0.093261394
-0.16100848
-1.4010422
0.14727783
-0.15726462
0.37487165
0.20172266
0.28695389
1.9245938
-0.31251867
7.129962
-0.56331386
8.2905221
-0.45267065
7.1438731
-0.18231484
6.170446
4.6448007
-0.26238094
-0.38454864
0.028688001
0.61824158
-0.62137281
-1.652379
2.0113709
-1.0865995
-1.9517198
2.4169465
-1.4798619
1.3143449
-0.92108246
-1.7302437
2.926977
-2.6765953
-1.6291862
-0.26137488
0.1603174
-1.2053915
-1.7916006
1.3678059
-0.39957556
0.030254556
-0.83607049
0.35067028
-0.99288671
-0.2556904
-0.15987126
0.031013013
-0.60427889
-1.3037905
-1.0680345
-1.4879642
-1.4545888
1.7008992
-1.6093003
3.0816885
-1.4893252
-0.38134997
-1.2493881
-2.0315377
-0.31453175
-0.90460175
-0.55951135
-0.25220184
0.061741962
0.030588618
-0.58777498
-0.9682174
-1.0263506
-1.0493885
-1.3842763
2.0588249
-1.4405655
3.1379777
-1.1421011
-0.67981432
-0.87372779
-2.2999111
-0.059834519
-1.718495
-1.4310821
-0.2345838
0.26484693
0.031478826
-0.55365377
-0.64914743
-0.9768607
-0.62618162
-1.3074676
2.3894318
-1.3092078
3.1397179
-0.92714137
-1.0618807
-0.48226724
-2.7447852
0.25173272
-2.452495
-2.0207501
-0.2294573
0.46001256
0.034291677
-0.51671715
-0.36188758
-0.88554444
-0.25735433
-1.1669709
2.6708583
-1.0336029
3.0063499
-0.5425186
-1.5529651
-0.13190331
-3.1554005
0.52985562
-3.1142539
-2.5550509
-0.21571301
0.63778683
0.03793874
-0.47408073
-0.10351986
-0.80213251
0.070697448
-1.020305
2.8890308
-0.75710013
2.743145
-0.18151708
-2.1285481
0.25161226
-3.5885298
0.8573985
-3.7200401
-2.9718644
-0.20980033
0.80707895
0.040508204
-0.44518081
0.13186062
-0.72475086
0.3502675
-0.86377113
3.0280511
-0.43748295
2.3168568
0.22314071
-2.7891718
0.62223046
-3.9876196
1.1256553
-4.223465
-3.3388153
-0.189243
0.94974363
0.046578313
-0.37039033
0.31300796
-0.59855059
0.57842775
-0.68021814
3.1097186
-0.15192544
1.7885641
0.54319959
-3.4842968
0.95521205
-4.399632
1.4110239
-4.6792768
-3.6430852
-0.17831988
0.053878673
1.0741848
-0.32930136
0.46398944
-0.5185759
0.76770229
-0.59229232
3.183435
0.040604808
1.155667
0.87009688
-4.3137889
1.2853147
-4.8148499
1.6638402
-5.0578023
-3.8918028
0.43008824
2.8882008
-0.20164115
-3.1166479
0.65822501
3.8288756
-4.0570124
0.28518325
0.85136527
-0.47832351
-0.35662595
-5.7638174
6.4056266
-0.58227811
-7.9350777
8.1607298
-0.5339007
-8.0104148
7.9620374
-0.43136641
-7.1244199
7.0218857
-0.16840529
-6.3347373
6.0717762
-4.773825
4.6054197
0.4197552
2.6924036
-0.22395796
0.7224661
3.5261647
0.47177334
1.102058
-0.13144958
-5.1605945
-0.41685219
-7.6496751
-0.46253678
-7.9647302
-0.43336636
-7.1535904
-0.222858
-6.5452457
-4.996683
0.40017486
2.5162086
-0.22397989
0.73615184
3.1901878
0.56902591
1.269184
-0.031307879
-4.5602607
-0.38394501
-7.2970379
-0.44501687
-7.9036584
-0.39920007
-7.1994072
-0.21896743
-6.7254783
-5.2156504
0.38810229
2.3412259
-0.21311954
0.76019682
2.8180932
0.686274
1.3431068
0.13847583
-4.0124625
-0.22181395
-6.9367482
-0.36517387
-7.7602984
-0.38393205
-7.180649
-0.25133842
-6.8580719
-5.4669889
0.36394491
2.1790011
-0.20172017
0.75551173
2.4265264
0.77780157
1.3208169
0.2546044
-3.4892653
-0.14678576
-6.535358
-0.3169846
-7.5900996
-0.3306091
-7.1670245
-0.23233642
-6.9563446
-5.6993253
0.34511015
2.0007351
-0.16684414
0.72332871
2.0483079
0.82436339
1.2197823
0.39714904
-3.062051
0.027813305
-6.1660223
-0.21258724
-7.3496991
-0.29334016
-7.0862716
-0.2423961
-7.0072887
-5.9417214
0.31376077
1.8047175
-0.11774316
0.67892646
1.6831422
0.86276901
1.0359397
0.5039035
-2.7031855
0.11856923
-5.780688
-0.12940769
-7.1017221
-0.21355473
-7.0021245
-0.20513344
-7.01571
-6.1468548
0.28822196
1.5447913
-0.028295784
0.62852833
1.3428358
0.85259044
0.81187761
0.61033119
-2.4609262
0.2859491
-5.4563059
0.0019442583
-6.8177173
-0.15337956
-6.8468007
-0.18997053
-6.979119
-6.3368253
0.24284469
1.3417057
-0.039759106
0.5623197
1.0233608
0.85240176
0.52179555
0.70357106
-2.3120955
0.38049498
-5.1332298
0.09380092
-6.5310232
-0.053434476
-6.6995653
-0.13053038
-6.9020231
-6.4673557
-0.097900762
5.9844714
-5.8865707
-0.24047003
5.8124169
-5.6698477
-0.37290163
5.590348
-5.4579164
-0.51319761
5.2227111
-5.0824152
-0.58723537
4.5042423
-4.4302046
-0.52755788
3.3844209
-3.4440983
-0.22713627
1.5588798
-1.8593015
-0.011060586
0.27967486
-0.49575055
-0.89815892
0.84587209
0.041226248
-0.089948629
6.0744201
-0.23069597
5.9531643
-0.36110519
5.7207572
-0.51188807
5.373494
-0.59128479
4.583639
-0.49911369
3.2922498
-0.18833765
1.2481038
0.001675204
0.089662003
-0.939185
0.042701289
-0.080720914
6.155141
-0.22439846
6.0968418
-0.36132341
5.8576821
-0.51348317
5.5256538
-0.58858087
4.6587367
-0.472175
3.1758439
-0.18380378
0.95973259
-0.0079849757
-0.086156801
-0.99023384
0.043063856
-0.073521568
6.2286625
-0.21314836
6.2364686
-0.3474633
5.9919971
-0.50827187
5.6864624
-0.5904658
4.7409307
-0.44726337
3.0326415
-0.18679584
0.69926505
-0.025725485
-0.24722715
-1.0593894
0.043430058
-0.063690714
6.2923532
-0.20461194
6.3773898
-0.34531911
6.1327042
-0.50753648
5.8486797
-0.58369314
4.8170873
-0.4208977
2.869846
-0.17603248
0.45439984
-0.02872863
-0.394531
-1.1304006
0.042282594
-0.05653771
6.348891
-0.19225418
6.5131063
-0.329742
6.2701921
-0.49743348
6.0163712
-0.58023224
4.8998861
-0.41184047
2.7014542
-0.16629993
0.20885929
-0.026448383
-0.53438255
-1.1989299
0.042080961
-0.046675458
6.3955664
-0.18183968
6.6482705
-0.32546782
6.4138202
-0.4941661
6.1850695
-0.56674552
4.9724655
-0.40141996
2.5361287
-0.16351484
-0.029045828
-0.024963596
-0.67293379
-1.2551914
0.031297848
-0.04016776
6.4357342
-0.16866582
6.7767686
-0.30756081
6.5527152
-0.47984318
6.3573519
-0.56228038
5.0549027
-0.43652384
2.4103721
-0.18798518
-0.27758448
-0.022589718
-0.83832926
-1.3139693
0.036188167
-0.031621556
-0.15687607
-0.30372618
-0.47739757
-0.55572468
-0.45744807
-0.213237
-0.028205482
-0.00046901121
0.073614048
0.69231621
0.079941829
0.47554072
-0.89767722
0.84647722
-2.230238
0.89076334
-3.4883845
0.77372988
-4.3131711
0.57199296
-4.8806782
0.38045148
-5.2663749
0.17333537
-5.4627316
-5.7132353
0.18217357
0.45108102
0.059061616
0.61968997
-1.3351936
0.88563528
-2.4961833
0.88295631
-3.4857055
0.76296099
-4.1931758
0.57549042
-4.6932077
0.38420756
-5.075092
0.17979808
-5.2583221
-5.5334372
0.25292931
0.12133678
0.076814937
0.71792101
-1.8001853
0.893956
-2.6722183
0.87013304
-3.4618825
0.75254123
-4.075584
0.56815561
-4.5088221
0.38098248
-4.8879189
0.18426591
-5.0616055
-5.3491713
0.41436456
-0.38172087
0.088693094
0.80687188
-2.1926926
0.90537216
-2.7707185
0.85872135
-3.4152317
0.73998189
-3.9568445
0.56927071
-4.3381109
0.38348955
-4.7021377
0.18776032
-4.8658763
-5.161411
0.65743851
-1.0367595
-0.0023999275
0.84940145
-2.3846556
0.89827644
-2.8195935
0.84257949
-3.3595348
0.72787021
-3.8421352
0.5611023
-4.171343
0.37935504
-4.5203905
0.19049699
-4.6770182
-4.970914
0.75840597
-1.7517866
-0.043378804
0.86885839
-2.495108
0.89317999
-2.8439151
0.83043177
-3.2967866
0.71349138
-3.7251948
0.56025588
-4.0181075
0.38095549
-4.3410901
0.1916371
-4.4876999
-4.7792769
0.82720953
-2.3652973
-0.21369888
0.88510597
-2.5530044
0.88169042
-2.8404996
0.81380842
-3.2289046
0.70053452
-3.6119209
0.54931406
-3.866887
0.37419472
-4.1659707
0.19253784
-4.306043
-4.586739
0.88585879
-2.5532002
-0.69795583
0.88800817
-2.5551538
0.87031106
-2.8228025
0.80156725
-3.1601607
0.68768431
-3.498038
0.5454519
-3.7246546
0.37483836
-3.9953572
0.19085723
-4.1220619
-4.3958818
0.90858355
-2.5481193
-0.91366448
0.88536511
-2.5319354
0.85852284
-2.7959602
0.78502798
-3.0866659
0.67521058
-3.3882206
0.53436276
-3.5838068
0.3661915
-3.8271859
0.1908534
-3.9467237
-4.2050284
-0.016339105
4.1864137
-4.1700745
-0.018569332
3.9555604
-3.9533301
-0.017843602
3.8587461
-3.8594718
-0.0083224982
3.6377397
-3.6472608
0.00086832383
3.4801237
-3.4893145
0.015555994
3.234449
-3.2491367
0.031667882
3.0066566
-3.0227685
0.035289205
2.7209063
-2.7245276
2.3012881
-2.3085858
0.042586941
-0.016357794
4.2027714
-0.0184703
3.9576729
-0.020140981
3.8604168
-0.015499301
3.6330981
-0.0020453014
3.4666697
0.014849435
3.2175543
0.029234632
2.9922714
0.037648826
2.7124921
2.3049366
0.034000274
-0.01238158
4.215153
-0.013225471
3.9585168
-0.010928887
3.8581202
-0.0016993439
3.6238685
0.00843304
3.4565373
0.025369608
3.2006177
0.045811083
2.9718299