/*--------------------------------*- C++ -*----------------------------------*\
  =========                 |
  \\      /  F ield         | OpenFOAM: The Open Source CFD Toolbox
   \\    /   O peration     | Website:  https://openfoam.org
    \\  /    A nd           | Version:  11
     \\/     M anipulation  |
\*---------------------------------------------------------------------------*/
FoamFile
{
    format      ascii;
    class       volVectorField;
    location    "18.2";
    object      U;
}
// * * * * * * * * * * * * * * * * * * * * * * * * * * * * * * * * * * * * * //

dimensions      [0 1 -1 0 0 0 0];

internalField   nonuniform List<vector> 
4455
(
(9.997837 0.020261222 0)
(9.9938015 0.057012148 -1.5598478e-19)
(9.9656192 0.091738398 5.3522619e-19)
(9.9465428 0.12359645 1.0086643e-21)
(9.8936594 0.15785583 5.0121536e-19)
(9.8495685 0.19555757 -1.8854664e-18)
(9.755769 0.24826801 8.380825e-19)
(9.6593399 0.28046672 0)
(9.508018 0.4090213 -5.0284806e-18)
(10.000347 0.024551775 -1.0161849e-18)
(9.9948356 0.065927343 9.9033807e-19)
(9.9684823 0.10700553 -1.2177199e-18)
(9.9460968 0.14059644 2.0270737e-18)
(9.8956813 0.17871814 -3.8822047e-18)
(9.846759 0.21016742 4.2257867e-18)
(9.7485248 0.25928653 -4.0090739e-19)
(9.645496 0.28540464 5.8479393e-19)
(9.4712332 0.37399625 2.1805189e-17)
(10.002333 0.028542549 -1.0601721e-18)
(9.9976888 0.074670379 1.3403762e-18)
(9.9695455 0.12084714 1.1919367e-18)
(9.9497039 0.15823968 -1.1851299e-18)
(9.8980566 0.20189926 5.1728402e-18)
(9.8500013 0.23926976 -2.9100182e-18)
(9.7467587 0.29425072 3.7602817e-19)
(9.6374423 0.30578279 -8.2118811e-18)
(9.4621596 0.41989273 -1.5414049e-17)
(10.004125 0.031414373 5.9932151e-21)
(9.9996113 0.082126404 -1.5213661e-19)
(9.9718349 0.13376374 2.8215159e-18)
(9.9526961 0.17414054 3.8523233e-19)
(9.9052745 0.22746589 -4.5678289e-21)
(9.8507417 0.26172954 -5.5898052e-19)
(9.7567584 0.34328467 6.1628892e-18)
(9.6177853 0.34262425 1.6416762e-17)
(9.4318676 0.4842773 1.2770174e-17)
(10.007927 0.034990001 2.0507993e-18)
(9.9998313 0.085818918 -2.2946587e-18)
(9.9758727 0.14672235 2.9141867e-18)
(9.9561373 0.18685687 1.2328279e-21)
(9.9150351 0.25312356 -3.5420457e-18)
(9.854946 0.28355571 -1.081538e-18)
(9.7605653 0.36687368 -4.8576007e-18)
(9.6175687 0.37092733 -7.7183557e-18)
(9.3881614 0.52012114 -3.764388e-17)
(10.009698 0.036694121 0)
(10.002529 0.089905925 0)
(9.9791006 0.1563283 -5.0852432e-18)
(9.9612058 0.19997003 -5.8365899e-18)
(9.924654 0.27400968 0)
(9.8644808 0.31454717 -7.8182036e-18)
(9.7654622 0.41174443 -6.6140482e-19)
(9.6007801 0.41322341 -4.5867101e-19)
(9.3565644 0.58186301 4.6421031e-17)
(10.012867 0.037176912 0)
(10.002127 0.092036971 -1.3758485e-19)
(9.9873675 0.164935 1.5496805e-19)
(9.9669077 0.21015483 5.7047068e-18)
(9.9350367 0.29011556 -4.186858e-19)
(9.8724729 0.32958046 1.6641947e-17)
(9.7821129 0.43641242 0)
(9.6023423 0.44683285 0)
(9.3092527 0.64174181 2.1195248e-17)
(10.015555 0.037539009 3.8631648e-18)
(10.003159 0.091892998 0)
(9.9898476 0.17163847 0)
(9.9774526 0.22260762 0)
(9.9470862 0.31139103 0)
(9.8837219 0.36063485 -8.3036217e-18)
(9.78525 0.47689974 -8.8528676e-18)
(9.5981747 0.49461453 1.2663963e-17)
(9.2857524 0.71109656 4.7801106e-20)
(10.017502 0.035395765 -3.8040579e-18)
(10.005807 0.091671979 -1.3224536e-19)
(9.9951069 0.17164243 -1.4929237e-19)
(9.9823378 0.22526471 3.384371e-19)
(9.9612886 0.31935363 1.3009216e-17)
(9.8980255 0.37161674 1.4623877e-17)
(9.8086943 0.50079823 2.8190518e-17)
(9.5988453 0.53643363 -1.2438736e-17)
(9.2486944 0.78442945 -3.6500066e-17)
(10.01844 0.03444006 0)
(10.019598 0.031885504 7.0577997e-18)
(10.018841 0.029295875 -7.0007665e-18)
(10.018048 0.026122775 6.7040621e-18)
(10.017205 0.022630485 -6.5529015e-18)
(10.014605 0.01794557 1.3082757e-17)
(10.012876 0.014055751 -1.270073e-17)
(10.009731 0.0081484678 0)
(10.004378 0.0033241571 0)
(10.008431 0.089071575 0)
(10.010336 0.086796615 1.2219179e-19)
(10.01446 0.081219628 0)
(10.015316 0.075076521 3.4734467e-19)
(10.018446 0.06944114 7.0896614e-18)
(10.021326 0.062704117 -2.1174764e-17)
(10.021327 0.055408868 1.370804e-17)
(10.026836 0.048182421 -2.0891546e-19)
(10.021998 0.032158622 1.3234228e-17)
(10.001386 0.17820255 8.8737996e-18)
(10.00762 0.17644225 -1.7482747e-17)
(10.014033 0.17690286 1.6686919e-17)
(10.022804 0.17150816 -5.2613793e-19)
(10.025944 0.16436156 -7.8703968e-18)
(10.036957 0.15640773 -2.3907444e-19)
(10.037217 0.14356369 0)
(10.049421 0.13486671 4.5191198e-19)
(10.047265 0.10867336 -2.1987884e-19)
(9.99272 0.23400798 9.2486226e-18)
(10.003216 0.24159565 -1.8783732e-17)
(10.011583 0.24183614 1.7864718e-17)
(10.025449 0.2453697 -8.6545876e-18)
(10.032545 0.23921448 -5.4097347e-19)
(10.048302 0.23856122 2.6128348e-19)
(10.053887 0.22755734 0)
(10.073027 0.22272214 -2.4596187e-19)
(10.073342 0.1996625 1.4813412e-17)
(9.9719972 0.33672018 -1.0447687e-17)
(9.9926422 0.35243145 0)
(10.00262 0.36179001 -9.6488383e-18)
(10.024724 0.37076788 9.9497636e-18)
(10.035071 0.37306011 -8.9779859e-18)
(10.058152 0.37709524 9.2778861e-18)
(10.068161 0.37195739 0)
(10.094025 0.37120996 0)
(10.098509 0.34911239 5.2396568e-19)
(9.9096508 0.39685165 -1.2757916e-17)
(9.9336777 0.42553615 -1.2179683e-17)
(9.9475992 0.44262841 1.1708118e-17)
(9.9753184 0.46661308 1.1206412e-17)
(9.9923957 0.47518804 -1.0803604e-17)
(10.022413 0.4963901 0)
(10.042781 0.49592172 1.9965077e-17)
(10.076448 0.51636689 -6.1317693e-20)
(10.09178 0.50012581 -3.7235884e-17)
(9.8112423 0.53385432 -1.4929358e-17)
(9.8427916 0.5860079 0)
(9.8572174 0.60816455 0)
(9.8900304 0.65543924 4.0626777e-19)
(9.9165605 0.66778502 0)
(9.9522583 0.71220651 0)
(9.984892 0.71424542 0)
(10.02306 0.75519631 0)
(10.050689 0.73971905 0)
(9.6086648 0.5844506 5.6963049e-19)
(9.6138004 0.68437226 0)
(9.649959 0.73131207 5.0741053e-19)
(9.6734639 0.82572589 -9.521639e-19)
(9.7283207 0.85543953 -1.4404745e-17)
(9.7647938 0.93586131 -1.3636318e-17)
(9.8271795 0.94842138 2.6212952e-17)
(9.8721497 1.0163015 2.5291107e-17)
(9.9358928 1.0130302 -2.3925083e-17)
(9.2327865 0.8726172 6.789411e-17)
(9.2233257 1.0686404 -4.220002e-17)
(9.2911309 1.1624776 3.8726604e-17)
(9.355095 1.3313368 -3.6673045e-17)
(9.4564542 1.3870235 -5.1974814e-17)
(9.5439977 1.524549 9.772712e-17)
(9.647727 1.5509663 -6.172081e-17)
(9.7451893 1.6660173 -2.9389782e-17)
(9.8369272 1.6623125 2.7632836e-17)
(10.006553 0.0038583596 -1.7450759e-20)
(10.010799 0.0054089185 1.7916596e-17)
(10.017456 0.0080044882 -8.5608656e-21)
(10.025949 0.010943087 -1.8046264e-17)
(10.036065 0.013975102 1.7652568e-20)
(10.048047 0.017066714 1.8146378e-17)
(10.061961 0.020285824 -1.8234905e-17)
(10.077987 0.023550524 -1.7794268e-20)
(10.097609 0.02803125 -9.1646456e-18)
(10.032116 0.036415282 -1.8989191e-17)
(10.038524 0.05014272 1.9102919e-17)
(10.054108 0.051324227 -1.9108224e-17)
(10.064373 0.068109585 0)
(10.084413 0.067431325 1.9258715e-17)
(10.09871 0.086767485 1.0034966e-20)
(10.122905 0.083867197 2.5859547e-20)
(10.141394 0.10543855 -1.9364613e-17)
(10.170286 0.099880477 9.7345488e-18)
(10.062799 0.11632151 2.0251871e-17)
(10.068931 0.13655296 -2.031289e-17)
(10.089607 0.14119192 -2.0439926e-17)
(10.098068 0.16372947 2.0489074e-17)
(10.12207 0.16750119 -2.0646081e-17)
(10.133204 0.19261705 2.0576071e-17)
(10.161093 0.19550957 -2.0763704e-17)
(10.175362 0.22384928 -3.4187166e-21)
(10.207723 0.2252693 2.0789652e-17)
(10.097458 0.21214449 -2.1641876e-17)
(10.103751 0.24109877 -8.510886e-20)
(10.13001 0.24978296 8.553413e-20)
(10.13728 0.27925847 0)
(10.166306 0.28720453 -1.0363584e-22)
(10.176432 0.31956094 -2.1968786e-17)
(10.209584 0.3266504 2.2332655e-17)
(10.223204 0.3626925 8.6818712e-20)
(10.261118 0.36788617 8.7047655e-20)
(10.125463 0.36531071 -9.135178e-20)
(10.130753 0.39901777 -2.349823e-17)
(10.159045 0.4112959 -5.8570194e-20)
(10.164102 0.44443894 2.3700756e-17)
(10.194983 0.4559038 2.3836985e-17)
(10.202989 0.49210545 -2.3958347e-17)
(10.238105 0.50267867 -9.3330902e-20)
(10.249653 0.54272637 -9.3614696e-20)
(10.289628 0.55108401 -9.3898601e-20)
(10.128985 0.5249485 2.545563e-17)
(10.134385 0.56968013 0)
(10.167866 0.58713956 0)
(10.17106 0.62822716 2.5593019e-17)
(10.207003 0.64401415 -2.5935175e-17)
(10.214138 0.68796558 -2.5971944e-17)
(10.254938 0.7023336 5.1969147e-17)
(10.265779 0.74914746 -6.3770013e-20)
(10.311293 0.76149994 -5.2303464e-17)
(10.088002 0.77753444 -1.09426e-19)
(10.102344 0.822365 0)
(10.133406 0.84873438 1.1005796e-19)
(10.14697 0.88565732 2.8320772e-17)
(10.181431 0.90858135 -2.8490998e-17)
(10.20036 0.94283294 2.8520834e-17)
(10.239151 0.96317191 -2.8582529e-17)
(10.261673 0.99372033 -1.1152949e-19)
(10.302174 1.0101221 2.8699797e-17)
(9.9821211 1.063059 -3.068607e-17)
(10.03208 1.1132123 3.111212e-17)
(10.075765 1.1480616 -3.1185316e-17)
(10.128432 1.1887089 3.102548e-17)
(10.174864 1.214253 -3.0845575e-17)
(10.229766 1.2466676 1.2971413e-20)
(10.277394 1.2632803 3.1248311e-17)
(10.331321 1.2865653 2.4473757e-19)
(10.375136 1.2928885 1.5585539e-17)
(9.933891 1.7541022 0)
(10.000772 1.76944 -3.4256056e-17)
(10.091857 1.8370684 2.2008206e-19)
(10.157212 1.8287949 3.455075e-19)
(10.246156 1.8666906 6.8674161e-17)
(10.312868 1.822963 -3.4351956e-17)
(10.405354 1.8146381 -3.4334585e-17)
(10.484098 1.7034689 3.4464543e-17)
(10.569661 1.6335506 1.7295768e-17)
(10.639785 1.4563679 -2.0216641e-17)
(10.651876 1.356057 0)
(10.687667 1.2414404 2.0113358e-17)
(10.637228 1.1813171 -2.0113462e-17)
(10.613223 1.0855049 0)
(10.512035 1.0272444 0)
(10.461199 0.94932579 0)
(10.341774 0.9069673 -2.0617585e-17)
(10.281572 0.85452794 2.0617635e-17)
(10.418351 1.3039661 -1.7754206e-17)
(10.451161 1.3080715 0)
(10.482676 1.3073693 0)
(10.502882 1.2996322 0)
(10.51837 1.2941884 0)
(10.523034 1.2865697 0)
(10.518459 1.2824958 0)
(10.508196 1.2834078 1.7531955e-17)
(10.484155 1.2839394 -3.5112493e-17)
(10.323852 1.0344279 -7.9038306e-20)
(10.360594 1.0563862 -3.148757e-17)
(10.379167 1.0758267 0)
(10.414318 1.0964106 -1.5633633e-17)
(10.428151 1.1130698 1.5633631e-17)
(10.458145 1.1306056 0)
(10.46498 1.1459595 0)
(10.488593 1.163618 0)
(10.487594 1.1813267 0)
(10.321146 0.80619399 2.8112318e-17)
(10.368496 0.82748965 0)
(10.378717 0.8696743 1.3949403e-17)
(10.426328 0.88988419 -2.786312e-17)
(10.43632 0.93153143 1.3913572e-17)
(10.483424 0.95142477 0)
(10.49196 0.99336978 0)
(10.538237 1.0142982 0)
(10.543949 1.057595 1.3739234e-17)
(10.301562 0.59390347 0)
(10.344476 0.60507874 2.5289061e-17)
(10.357603 0.64954986 -3.790305e-17)
(10.403023 0.66029883 1.2613712e-17)
(10.417148 0.70602675 1.2548328e-17)
(10.464855 0.71705552 -3.4096175e-20)
(10.479406 0.76445181 -2.4993149e-17)
(10.529708 0.77666807 2.4922176e-17)
(10.543997 0.82639184 -1.2442931e-17)
(10.276493 0.40740021 0)
(10.318735 0.41392523 1.1518556e-17)
(10.336673 0.45640193 -1.151873e-17)
(10.382994 0.46195599 0)
(10.40332 0.5069271 -2.2849115e-17)
(10.453333 0.51184125 2.2849198e-17)
(10.475709 0.55938682 1.1353906e-17)
(10.529598 0.56411739 -2.2670155e-17)
(10.553733 0.6147024 1.1316152e-17)
(10.224143 0.25701101 0)
(10.26081 0.25890584 0)
(10.280093 0.29396119 0)
(10.321278 0.29486575 -1.0564035e-17)
(10.343634 0.33323442 2.1099427e-17)
(10.389507 0.33318087 -2.104044e-17)
(10.414997 0.37509129 1.0504964e-17)
(10.46601 0.37422859 -1.0438343e-17)
(10.494678 0.42016358 2.0840262e-17)
(10.191864 0.12402499 -1.9725187e-17)
(10.225774 0.11767436 2.2455041e-20)
(10.251279 0.14563214 9.8299544e-18)
(10.289454 0.13738295 -9.780126e-18)
(10.319029 0.16798598 9.7800735e-18)
(10.361641 0.15741347 0)
(10.395348 0.1906656 9.6915476e-18)
(10.443203 0.17788546 -1.9349522e-17)
(10.481343 0.21461244 9.6579666e-18)
(10.109445 0.033996251 1.61819e-20)
(10.138729 0.035251513 9.2200501e-18)
(10.156964 0.048225958 9.186146e-18)
(10.193856 0.048744484 -9.1861468e-18)
(10.214613 0.060474756 0)
(10.255543 0.060589313 0)
(10.281781 0.072531214 -9.0953642e-18)
(10.328554 0.073190396 1.8162655e-17)
(10.36117 0.085669007 -9.0672882e-18)
(10.414385 0.08721362 0)
(10.453718 0.10015594 -8.9681036e-18)
(10.513643 0.10254325 3.8322156e-20)
(10.559995 0.11588119 4.1172291e-20)
(10.627218 0.11913206 4.4186373e-20)
(10.681272 0.13290854 8.8444225e-18)
(10.756691 0.13734935 8.7461172e-18)
(10.819464 0.15157978 -8.7461178e-18)
(10.904238 0.15750683 0)
(10.535114 0.19976669 0)
(10.577898 0.24062248 0)
(10.638064 0.22382845 -9.500856e-18)
(10.685641 0.26931055 4.5479586e-20)
(10.752815 0.25068782 4.8203013e-20)
(10.805486 0.30147779 9.4070893e-18)
(10.880585 0.28112303 9.3017182e-18)
(10.938868 0.33816504 -9.3016721e-18)
(11.023045 0.31610716 0)
(10.551346 0.41872967 -1.0401959e-17)
(10.583226 0.46928015 0)
(10.64609 0.46754811 0)
(10.68127 0.52339129 -1.0234136e-17)
(10.751003 0.52163216 2.0420104e-17)
(10.789728 0.58362826 -5.0887477e-20)
(10.867226 0.58205978 -5.3896807e-20)
(10.90998 0.65129058 -1.008108e-17)
(10.996361 0.64997943 0)
(10.61191 0.6198248 -1.1235859e-17)
(10.637491 0.67412038 1.123578e-17)
(10.700459 0.68031847 0)
(10.727221 0.73921303 0)
(10.795633 0.74720539 1.1053573e-17)
(10.823519 0.81188981 -1.1053487e-17)
(10.898319 0.82230032 1.0949638e-17)
(10.927626 0.89432278 -5.5026913e-18)
(11.01015 0.90753956 -5.4467911e-18)
(10.597229 0.8409102 -1.2368166e-17)
(10.610479 0.89395575 1.236795e-17)
(10.666973 0.91197076 0)
(10.678625 0.96961275 0)
(10.738963 0.99216172 0)
(10.748916 1.0559294 0)
(10.814422 1.0840345 0)
(10.822713 1.1564346 0)
(10.895121 1.1906271 0)
(10.589507 1.0814642 -1.3739229e-17)
(10.591086 1.1272674 1.3674121e-17)
(10.636267 1.1559993 -1.3674168e-17)
(10.632625 1.2058413 1.3612317e-17)
(10.678397 1.241845 -1.3611501e-17)
(10.668936 1.2983071 0)
(10.717166 1.3427178 0)
(10.702101 1.4087626 0)
(10.75564 1.4623492 0)
(10.505114 1.2038484 0)
(10.493513 1.2257322 -1.548294e-17)
(10.506986 1.2565031 1.5482833e-17)
(10.485664 1.2838488 0)
(10.498145 1.3261908 1.5470227e-17)
(10.464551 1.3630248 -1.5471022e-17)
(10.479378 1.4193368 0)
(10.433346 1.4692792 7.7376635e-18)
(10.453918 1.5409773 -1.5476262e-17)
(10.464125 1.2927321 1.7574322e-17)
(10.420083 1.3043947 1.7645266e-17)
(10.392297 1.3230691 -1.7647418e-17)
(10.329326 1.3506029 1.7745974e-17)
(10.295847 1.3806616 -3.5550687e-17)
(10.216666 1.4251908 3.5670216e-17)
(10.179349 1.4688013 -3.5798466e-17)
(10.085179 1.5332233 1.7932003e-17)
(10.046279 1.5926381 0)
(10.151612 0.82847284 -2.0886414e-17)
(10.084754 0.79999084 2.0886459e-17)
(9.9463887 0.78825123 0)
(9.872973 0.78198066 0)
(9.7243103 0.78553367 0)
(9.6449215 0.80027264 0)
(9.4817635 0.82297859 0)
(9.3969173 0.858448 -1.0968909e-17)
(9.2168628 0.9068207 1.0968846e-17)
(9.1255263 0.96737076 1.1137852e-17)
(9.9386477 1.6806429 0)
(10.396557 1.6084394 7.7396825e-18)
(10.735686 1.541318 0)
(10.90244 1.2741028 0)
(11.041629 0.98872294 0)
(11.043934 0.72767426 4.949313e-18)
(11.087682 0.38053547 4.5588991e-18)
(10.976936 0.17243423 4.2849516e-18)
(8.9332713 1.0462403 -1.1137755e-17)
(9.9012012 1.7584356 0)
(10.425124 1.6931608 0)
(10.797824 1.6044452 6.6905249e-18)
(10.983986 1.3145078 0)
(11.133595 1.0047634 -5.3527883e-18)
(11.140491 0.72642915 -9.8641877e-18)
(11.182288 0.35668044 -9.0831262e-18)
(11.072348 0.18004285 -8.5360864e-18)
(8.8230447 1.1451969 0)
(9.7819223 1.8744829 0)
(10.361231 1.7885026 7.734016e-18)
(10.774476 1.6996594 -6.6906166e-18)
(10.991574 1.4114886 0)
(11.168482 1.0970193 5.35277e-18)
(11.194012 0.81382582 4.9148963e-18)
(11.254198 0.42970588 4.5241775e-18)
(11.156471 0.19566579 4.2511338e-18)
(8.625925 1.2643937 1.1397676e-17)
(9.7504716 1.9732639 0)
(10.397869 1.8844032 -1.546177e-17)
(10.848757 1.7720638 0)
(11.084732 1.457693 0)
(11.271879 1.1154503 -5.2792432e-18)
(11.302197 0.81213267 -4.8389923e-18)
(11.361577 0.4037978 0)
(11.263951 0.20529938 -4.1757131e-18)
(8.4982251 1.4135664 -1.1397679e-17)
(9.6233942 2.123036 -9.1913888e-18)
(10.33183 2.0108597 7.7276242e-18)
(10.824623 1.887043 0)
(11.094516 1.5704725 0)
(11.311893 1.2205666 5.2792392e-18)
(11.363187 0.91048301 4.8389293e-18)
(11.438096 0.4837661 0)
(11.361137 0.22155656 4.1757125e-18)
(8.2976575 1.5885398 0)
(9.6043258 2.2448143 9.1912916e-18)
(10.380294 2.118115 -7.7026516e-18)
(10.913007 1.9656739 0)
(11.201774 1.6212678 0)
(11.428818 1.2404624 -5.1942916e-18)
(11.485461 0.90761783 -4.7523295e-18)
(11.565032 0.46279456 0)
(11.482013 0.23298738 -4.0886726e-18)
(8.1629994 1.8106961 0)
(9.4759335 2.4357174 0)
(10.318033 2.2796166 7.7026473e-18)
(10.89612 2.1064317 -3.2744358e-18)
(11.216673 1.751985 -2.8870323e-18)
(11.476201 1.3600729 7.7677672e-18)
(11.551675 1.012776 7.1044832e-18)
(11.645169 0.54445737 0)
(11.59363 0.24981116 6.1089121e-18)
(7.9791512 2.0635313 0)
(9.4797449 2.5803102 -4.6101154e-18)
(10.383513 2.3964842 0)
(10.998045 2.1880233 3.2738899e-18)
(11.339621 1.8046304 2.8864484e-18)
(11.607984 1.3797745 -2.5648711e-20)
(11.695553 1.0178379 -4.678085e-18)
(11.791237 0.52924584 0)
(11.728262 0.26306367 -2.0202398e-18)
(7.8683472 2.3954597 -5.8398024e-18)
(9.3601559 2.8274016 4.6096583e-18)
(10.332233 2.6081775 0)
(10.99623 2.3667478 0)
(11.368049 1.9672522 0)
(11.669975 1.5232209 -5.0671635e-18)
(11.767088 1.122486 2.8009663e-20)
(11.876658 0.61220894 0)
(11.852858 0.27950256 0)
(12.019678 0.29471392 0)
(12.041275 0.60231764 0)
(11.932752 1.1362755 -1.1196657e-19)
(11.806713 1.5243311 2.6442425e-18)
(11.505754 1.9956167 0)
(11.118283 2.4294573 -4.0229308e-19)
(10.434485 2.7094614 -2.7825999e-20)
(9.4225975 2.9784556 -3.820484e-18)
(7.7500544 2.7362074 1.0879985e-17)
(12.176729 0.30480466 -9.6643095e-19)
(12.137682 0.66922152 -1.3088432e-19)
(12.020629 1.2169159 1.1558978e-18)
(11.90103 1.6602169 -3.1081022e-21)
(11.574898 2.1548331 -1.206993e-18)
(11.158164 2.6122357 1.5620105e-18)
(10.446265 2.9424369 -4.7653558e-19)
(9.405639 3.2820037 4.9703171e-18)
(7.8981918 3.2108006 -5.5358489e-18)
(12.33707 0.31289212 1.9359502e-18)
(12.322795 0.6573426 0)
(12.211967 1.2342784 2.2575517e-18)
(12.050232 1.6541184 -1.2274871e-18)
(11.743765 2.1696144 1.2219156e-18)
(11.327318 2.6588896 -2.958765e-18)
(10.637332 3.0235091 -2.3155184e-18)
(9.6299587 3.4026669 1.1180504e-18)
(8.1803869 3.3977538 6.9601102e-20)
(12.508399 0.32090412 -9.7009747e-19)
(12.429889 0.71990501 -1.2967163e-19)
(12.313445 1.3107712 -9.9408305e-19)
(12.173408 1.798946 1.4009469e-18)
(11.842045 2.343278 5.1675399e-19)
(11.40141 2.8567748 1.5912597e-18)
(10.693167 3.2676759 1.8707758e-18)
(9.6684435 3.6946096 5.8300159e-19)
(8.2393288 3.8222367 -6.6747562e-19)
(12.691267 0.32947179 2.3517365e-19)
(12.639966 0.70922934 -2.5353509e-19)
(12.527513 1.3279731 -1.4073491e-19)
(12.333921 1.7818612 4.5740787e-19)
(12.034899 2.3405318 -5.2208976e-19)
(11.599349 2.8852227 -5.856187e-19)
(10.916059 3.3291287 -4.8146632e-19)
(9.9129589 3.7931265 5.4364302e-19)
(8.4982996 3.9526396 -7.3554314e-19)
(12.883867 0.33807247 -2.3785661e-19)
(12.758049 0.77157607 2.5658591e-19)
(12.645654 1.3979668 -1.3983108e-19)
(12.487137 1.9294386 -1.7595135e-21)
(12.15692 2.5207367 -1.7001137e-19)
(11.698211 3.0899769 3.9810502e-19)
(10.998014 3.5775453 -4.8221417e-19)
(9.9771785 4.0827386 5.4581759e-19)
(8.5871613 4.3224476 0)
(13.084432 0.34582123 -2.2901209e-19)
(12.992206 0.76304151 -1.2654263e-19)
(12.875126 1.4132618 -1.3514781e-19)
(12.655438 1.901847 -1.5439292e-19)
(12.36365 2.5005621 -1.7029486e-19)
(11.910876 3.0996277 4.0517808e-19)
(11.2324 3.6172729 -9.3572596e-19)
(10.235402 4.1537543 1.137321e-18)
(8.8729995 4.4129031 -6.8189432e-19)
(13.293071 0.35221833 6.823593e-19)
(13.120131 0.82290948 4.9127108e-19)
(13.013681 1.4738862 6.7580847e-19)
(12.83421 2.047062 7.4641019e-19)
(12.51053 2.6828264 5.1873966e-19)
(12.038606 3.3076841 -1.9262341e-19)
(11.346881 3.8660846 -4.8198742e-19)
(10.33445 4.4390804 -4.2970187e-20)
(8.9799839 4.747819 -7.2604281e-19)
(13.509712 0.35690333 -1.3410218e-18)
(13.374368 0.81391288 -4.9739661e-19)
(13.258266 1.4868484 -1.742487e-18)
(13.012516 2.0103401 -4.5745848e-19)
(12.728125 2.6422676 1.1640909e-18)
(12.26629 3.2941614 5.9327268e-19)
(11.596505 3.879746 -2.7647999e-18)
(10.610011 4.4836689 5.4873252e-19)
(9.2714713 4.812572 1.4499219e-18)
(9.3888513 5.1248464 -1.4473948e-18)
(10.739994 4.7651691 5.932763e-19)
(11.745776 4.1258431 4.1423367e-18)
(12.425593 3.5014454 -5.8919532e-19)
(12.902589 2.8224853 3.0043648e-19)
(13.209756 2.1461855 8.7144479e-19)
(13.414246 1.5340001 1.2103149e-18)
(13.510506 0.86822639 -6.0009279e-20)
(13.734625 0.35994292 1.8179992e-18)
(9.6853302 5.166437 5.7476729e-18)
(11.030978 4.785019 5.4720433e-19)
(12.008744 4.110759 -5.9576984e-18)
(12.666785 3.4610206 -1.8847117e-19)
(13.128921 2.7578872 -1.1757107e-18)
(13.404881 2.1025208 -1.0413172e-18)
(13.67137 1.5427721 -2.1894601e-18)
(13.782339 0.85920204 0)
(13.966929 0.36111257 -8.772492e-19)
(9.8175675 5.4642335 -7.3772568e-18)
(11.186549 5.0579181 5.5921176e-18)
(12.193426 4.3502039 3.2242012e-18)
(12.851965 3.6585771 -1.8645259e-19)
(13.331396 2.9308394 2.5821052e-18)
(13.613407 2.2249383 3.8958502e-21)
(13.842663 1.5740823 3.2515215e-19)
(13.9255 0.90669847 1.7218806e-18)
(14.20618 0.36053362 1.6509446e-18)
(10.118247 5.4828681 -1.4687419e-18)
(11.499234 5.0626554 9.9653025e-19)
(12.464839 4.3036943 -4.6943429e-19)
(13.108792 3.5952555 0)
(13.561961 2.8400787 -2.6211528e-18)
(13.82251 2.1711461 0)
(14.111708 1.5750832 1.9223893e-18)
(14.212314 0.89685374 -3.5487634e-18)
(14.451092 0.35789669 -6.6560033e-20)
(10.273787 5.7736968 -7.0289712e-19)
(11.678377 5.3181608 -4.4911627e-18)
(12.687025 4.5311166 4.6450219e-19)
(13.314909 3.7750605 0)
(13.787845 2.9992141 -2.6471175e-18)
(14.040122 2.2782065 2.1951251e-18)
(14.294213 1.5903843 1.2508392e-19)
(14.361251 0.93658239 3.5825126e-18)
(14.701192 0.35325816 -1.6239401e-18)
(10.579936 5.7658845 -6.6259443e-18)
(12.016401 5.3105885 -3.8171607e-18)
(12.960628 4.4500161 -3.0633515e-20)
(13.586316 3.690918 -3.7525438e-19)
(14.020452 2.8838871 -6.0351858e-20)
(14.262266 2.2130767 -4.3683981e-18)
(14.568975 1.581464 1.2228845e-19)
(14.658905 0.92460522 -1.7818936e-18)
(14.955076 0.34628122 0)
(10.771382 6.0541857 4.560609e-18)
(12.220499 5.5419551 5.5827345e-18)
(13.223068 4.656861 -3.0366176e-20)
(13.806285 3.8426271 -3.6838918e-19)
(14.255854 3.0188987 2.3361588e-18)
(14.484351 2.3030914 2.3166759e-18)
(14.757242 1.5808065 1.1654476e-19)
(14.814893 0.95709571 -1.0679109e-19)
(15.212092 0.3373117 0)
(11.087907 6.0155738 0)
(12.585651 5.5158689 -5.2053822e-19)
(13.492369 4.5383567 4.4384075e-19)
(14.087239 3.7358031 -5.3136711e-18)
(14.495624 2.8881575 -1.5220853e-19)
(14.715399 2.225077 3.964405e-18)
(15.033154 1.5614722 -3.4425414e-18)
(15.116021 0.9429585 3.2280257e-18)
(15.469971 0.32589157 2.7744159e-18)
(11.329331 6.3041489 1.1006356e-17)
(12.811856 5.7159751 9.3937274e-18)
(13.78593 4.7116356 -4.3474459e-19)
(14.316608 3.8537736 5.6021588e-18)
(14.733665 2.9933111 -1.4381427e-19)
(14.937794 2.2973344 -4.0327331e-18)
(15.222842 1.5455831 3.7231079e-18)
(15.279327 0.9687134 -3.373702e-18)
(15.727104 0.31427602 -1.5235438e-19)
(16.004431 0.29823136 -2.6390822e-18)
(15.583014 0.95193651 2.9232128e-18)
(15.497863 1.5174812 0)
(15.17758 2.2047317 -2.4135851e-19)
(14.977182 2.8431515 4.4593518e-18)
(14.610837 3.7183811 4.8328201e-18)
(14.071493 4.5505028 0)
(13.229801 5.6597911 -4.3342404e-19)
(11.68645 6.2168345 -1.0756194e-17)
(16.253017 0.27653132 0)
(15.75404 0.96074022 -3.023676e-18)
(15.691214 1.4779063 0)
(15.407519 2.2489503 -2.348062e-19)
(15.226852 2.9053744 -8.1209885e-18)
(14.865898 3.7818436 -5.2726651e-18)
(14.423094 4.6660475 5.9133033e-18)
(13.541796 5.8207236 -7.2895559e-18)
(12.085478 6.5488564 8.7893854e-18)
(16.501177 0.24880461 0)
(16.059372 0.93524114 0)
(15.96211 1.442451 -3.0338073e-18)
(15.649583 2.1399751 0)
(15.468714 2.7335253 4.1853222e-18)
(15.162893 3.6106173 -4.5775918e-18)
(14.724067 4.4454425 -5.3776888e-18)
(14.019947 5.6991774 -4.1399592e-19)
(12.520926 6.3698665 -1.2978005e-18)
(16.749136 0.21822792 0)
(16.231886 0.93658295 0)
(16.152512 1.3909136 3.0967795e-18)
(15.872268 2.1712598 3.1750228e-18)
(15.707316 2.7701805 3.8565766e-18)
(15.406516 3.6322923 4.9889511e-18)
(15.07227 4.4930456 0)
(14.352429 5.7796308 6.3262598e-18)
(13.054462 6.6713215 -1.023136e-17)
(16.990812 0.18714661 3.5109449e-20)
(16.532455 0.91384617 -3.8260011e-20)
(16.414016 1.3515202 0)
(16.10574 2.0517879 -1.9359549e-19)
(15.931271 2.5868557 -7.9626453e-18)
(15.681109 3.4377077 2.7469845e-19)
(15.349448 4.2260008 5.0868698e-18)
(14.807388 5.5881991 -7.0001004e-18)
(13.523488 6.4024431 9.5054683e-18)
(17.224418 0.15519265 -3.3127291e-20)
(16.705951 0.91030734 3.6158155e-20)
(16.599559 1.2928091 0)
(16.317876 2.0767496 -3.5672455e-18)
(16.151392 2.6085411 4.3228024e-18)
(15.898312 3.4302258 -2.6771144e-19)
(15.672654 4.2156876 -5.2615165e-18)
(15.115083 5.5788283 0)
(14.204636 6.6047081 -9.3883774e-18)
(17.449422 0.12195628 3.1102467e-20)
(17.000755 0.88845762 2.2077648e-18)
(16.849337 1.2538703 -8.5884095e-20)
(16.539424 1.953308 2.941304e-18)
(16.351273 2.4241044 3.7735236e-18)
(16.137963 3.2234259 0)
(15.9118 3.9170545 0)
(15.493546 5.3053944 -5.7777698e-18)
(14.791501 6.2438982 0)
(17.681804 0.076615031 0)
(17.172605 0.87836868 -2.2880354e-18)
(17.029965 1.1920555 0)
(16.741204 1.9786663 -3.3168661e-18)
(16.548281 2.4438777 -3.4302904e-18)
(16.318883 3.204458 4.0384075e-18)
(16.192972 3.8791351 0)
(15.709419 5.1958925 6.3664395e-18)
(15.587602 6.3075628 -6.1073408e-18)
(17.821752 0.036209205 0)
(17.45873 0.85527453 0)
(17.266802 1.1583135 -7.8279705e-20)
(16.947606 1.8579929 -1.0030296e-19)
(16.750892 2.2420498 2.100317e-19)
(16.51798 2.9944904 -4.170251e-18)
(16.421379 3.537806 0)
(16.007044 4.7101862 0)
(16.127487 5.8614372 6.0020428e-18)
(18.037521 0.00022449777 -4.7636088e-20)
(17.616682 0.85801734 -7.9027698e-21)
(17.445545 1.0966187 2.0949599e-18)
(17.138201 1.8983623 0)
(16.871153 2.3390625 0)
(16.640555 3.0028507 -2.164345e-19)
(16.628249 3.6339155 -3.5632107e-18)
(16.052926 4.9055567 1.4419037e-19)
(16.618204 5.8158191 0)
(18.283151 -0.016396103 -4.12335e-20)
(17.883665 0.89200931 -7.9412433e-21)
(17.664918 1.1690144 -1.9009766e-18)
(17.314096 1.9426306 0)
(17.066343 2.322908 0)
(16.768782 3.1217962 1.9284688e-19)
(16.81651 3.7620278 9.7515879e-18)
(16.054517 5.0083119 -1.2631875e-19)
(15.972005 5.6894911 4.9874401e-18)
(18.439743 -0.023702542 0)
(18.0236 0.90337138 2.6634606e-18)
(17.82297 1.1096434 0)
(17.495003 1.9723192 1.3470873e-19)
(17.171016 2.446432 -1.470749e-19)
(16.862171 3.1496436 -1.7181586e-19)
(16.988358 3.817324 -1.1476041e-17)
(15.917385 5.0165347 1.0867586e-19)
(14.298018 5.6882444 -4.6865792e-18)
(18.62953 -0.022870097 1.4843521e-18)
(18.280574 0.91153266 -2.5472014e-18)
(18.025709 1.1854088 2.7616066e-18)
(17.656584 2.0391101 3.4886263e-18)
(17.345288 2.4337655 -4.4558462e-18)
(16.991878 3.226516 5.1599648e-18)
(17.065344 3.8859057 5.485413e-18)
(15.593193 5.0063815 5.8295531e-18)
(11.816222 6.6721008 0)
(18.779142 -0.042801402 -2.7199852e-18)
(18.412318 0.91753874 1.9489377e-18)
(18.165731 1.1342578 -2.6714943e-18)
(17.843984 2.0447438 -3.0510561e-19)
(17.441161 2.5645435 4.2776481e-18)
(17.062487 3.2495822 -4.2026116e-19)
(17.027977 3.9190438 0)
(15.076439 5.3156158 -5.6202237e-18)
(8.6985818 7.4056641 0)
(18.947453 -0.050791597 2.2038137e-18)
(18.661907 0.90124305 -1.8684249e-18)
(18.363726 1.2019239 2.1491923e-18)
(18.008589 2.1191332 -3.0376048e-18)
(17.594646 2.5576746 -1.187805e-19)
(17.159215 3.2740376 -4.3296562e-18)
(16.920895 3.9040021 3.3484485e-18)
(14.115299 5.151652 4.2691691e-18)
(3.1228792 2.9159813 -4.5002873e-18)
(19.081837 -0.080773713 -1.0021073e-18)
(18.787319 0.90237376 4.4007298e-20)
(18.490415 1.1563739 -2.0373978e-18)
(18.210188 2.095145 8.4787645e-20)
(17.680113 2.6803122 -9.1467212e-20)
(17.161771 3.2638503 -3.7746054e-18)
(16.644404 3.8522123 -6.1620432e-18)
(11.927395 4.592864 -4.011124e-18)
(-0.37587925 1.0676099 4.2660969e-18)
(19.217852 -0.087545666 -1.4151979e-20)
(19.032269 0.85979158 1.5028072e-20)
(18.682949 1.2121591 1.4978324e-18)
(18.379986 2.1683449 1.8888146e-18)
(17.804922 2.6811573 -2.7847745e-18)
(17.123288 3.237411 7.0545921e-18)
(16.157103 3.7662972 5.2750342e-18)
(9.603696 4.1624471 3.1955674e-18)
(-0.42749401 2.1913231 -3.7451874e-18)
(19.323982 -0.12462569 5.0292035e-19)
(19.149592 0.85042252 -1.697294e-20)
(18.794141 1.173367 -1.9174072e-19)
(18.587481 2.1215065 -1.8309887e-18)
(17.867812 2.7944879 2.6067494e-18)
(16.974543 3.2418965 -3.289499e-18)
(15.286525 3.6811608 -2.3524145e-18)
(7.0070066 3.0585855 -3.0195074e-18)
(-1.1032573 2.6913769 3.5686137e-18)
(-1.4741164 2.711376 5.7137535e-18)
(5.3533951 2.3899247 3.2205685e-20)
(14.468765 3.4995207 -5.7157772e-20)
(16.839308 3.1790727 4.874239e-20)
(17.941115 2.7958806 0)
(18.74508 2.1873476 -2.2748123e-20)
(18.975964 1.2127213 -2.4047887e-18)
(19.385355 0.77797773 -5.9471518e-19)
(19.416979 -0.12749585 -9.0791531e-19)
(-1.721386 2.7992782 -5.5311232e-18)
(3.5425858 1.3666126 0)
(13.878206 3.4265082 0)
(16.704534 3.1835522 -6.9133688e-18)
(18.021508 2.8738263 0)
(18.937868 2.0977391 2.1546718e-18)
(19.074282 1.1532663 2.9441551e-18)
(19.494359 0.73888317 5.569817e-19)
(19.485017 -0.17810704 -2.9243048e-19)
(-1.9206799 2.6940473 -3.5137063e-20)
(2.1059991 0.49570779 2.8305076e-20)
(12.949023 3.2158974 0)
(16.481441 3.1181457 6.7614065e-18)
(18.071851 2.8818291 0)
(19.088297 2.1475805 -2.1357127e-18)
(19.25092 1.1757763 -1.777326e-18)
(19.709868 0.64129112 -9.9460869e-21)
(19.529327 -0.17904102 6.9201867e-19)
(-2.0634782 2.6895569 -1.046519e-17)
(0.57791701 -0.26595363 5.6471275e-18)
(12.028033 3.0288698 -3.9081111e-20)
(16.28625 3.110192 0)
(18.1444 2.9552592 3.5589964e-18)
(19.278722 2.0421407 0)
(19.342966 1.1090348 5.1450305e-21)
(19.799661 0.58201899 -6.1750997e-21)
(19.556561 -0.22867566 1.3604694e-21)
(-2.1209833 2.5994428 1.0054373e-17)
(-0.33508579 -0.59321205 1.0289717e-19)
(10.792566 2.6825543 -5.1845293e-18)
(15.939319 3.0363543 3.9751844e-20)
(18.177678 2.9647711 -4.9989452e-19)
(19.42684 2.0812476 0)
(19.523037 1.1102351 6.3364117e-19)
(19.985889 0.46104439 0)
(19.550475 -0.2595244 0)
(-2.1962914 2.5664266 -3.2149326e-20)
(-0.20842222 0.15637078 -5.2909679e-18)
(9.8243991 2.4318749 9.8348613e-18)