/*--------------------------------*- C++ -*----------------------------------*\
  =========                 |
  \\      /  F ield         | OpenFOAM: The Open Source CFD Toolbox
   \\    /   O peration     | Website:  https://openfoam.org
    \\  /    A nd           | Version:  11
     \\/     M anipulation  |
\*---------------------------------------------------------------------------*/
FoamFile
{
    format      ascii;
    class       volVectorField;
    location    "15.7";
    object      U;
}
// * * * * * * * * * * * * * * * * * * * * * * * * * * * * * * * * * * * * * //

dimensions      [0 1 -1 0 0 0 0];

internalField   nonuniform List<vector> 
4455
(
(9.9985139 0.0035329573 0)
(9.9890408 0.0042413654 -1.4825619e-19)
(9.9693601 0.011176523 5.0887562e-19)
(9.9424058 0.0079422956 1.011081e-21)
(9.8942745 0.020132726 4.7734248e-19)
(9.8451928 0.014467302 -1.7941274e-18)
(9.752938 0.039733034 7.9696186e-19)
(9.660758 0.016180192 0)
(9.5114532 0.071585035 -4.7876458e-18)
(10.000773 0.0071484292 -9.6907539e-19)
(9.9906541 0.014052388 9.4411037e-19)
(9.9682547 0.025005557 -1.1604604e-18)
(9.9405218 0.024369251 1.9312991e-18)
(9.8902465 0.036119082 -3.6976838e-18)
(9.8371631 0.027003191 4.0251535e-18)
(9.734527 0.039983943 -3.8169493e-19)
(9.6457339 0.013148425 5.5706055e-19)
(9.4679176 -0.0049242501 2.0770224e-17)
(10.001442 0.010963115 -1.0144066e-18)
(9.9922754 0.023303928 1.2811769e-18)
(9.9685428 0.039926233 1.1356861e-18)
(9.9402243 0.042330796 -1.1289981e-18)
(9.8884728 0.059305656 4.93345e-18)
(9.834068 0.053229514 -2.7734957e-18)
(9.7331466 0.073949404 3.5838229e-19)
(9.62488 0.018526921 -7.8397633e-18)
(9.4507259 0.059461318 -1.46816e-17)
(10.002081 0.014460129 2.4778675e-21)
(9.9937498 0.031014285 -1.420966e-19)
(9.9696906 0.055014523 2.69609e-18)
(9.9402014 0.059197144 3.6779037e-19)
(9.8915655 0.084851896 -2.9552348e-23)
(9.8299591 0.076462167 -5.3364166e-19)
(9.7247269 0.1186871 5.8853785e-18)
(9.6063611 0.045847658 1.567305e-17)
(9.4114011 0.10891112 1.2178471e-17)
(10.004506 0.018762607 1.9621168e-18)
(9.9944979 0.036736139 -2.1937793e-18)
(9.9723252 0.069280605 2.7912866e-18)
(9.9410357 0.075565715 1.1264195e-21)
(9.8951669 0.10992377 -3.3837015e-18)
(9.8297497 0.099423321 -1.0337089e-18)
(9.7181517 0.14280453 -4.6384405e-18)
(9.5892357 0.065338134 -7.3736413e-18)
(9.3652452 0.1446204 -3.5922781e-17)
(10.005545 0.020858694 0)
(9.9966767 0.043473268 0)
(9.9752135 0.080654305 -4.8656082e-18)
(9.9441026 0.09195361 -5.5897121e-18)
(9.9007239 0.13309343 0)
(9.8327639 0.13089929 -7.4860561e-18)
(9.7115046 0.18551843 -6.3278095e-19)
(9.5640689 0.10047369 -4.3848616e-19)
(9.3177226 0.19549314 4.4339142e-17)
(10.008673 0.023305691 0)
(9.996549 0.047498336 -1.3201621e-19)
(9.9800332 0.092110309 1.4858989e-19)
(9.9479888 0.10547501 5.4633888e-18)
(9.9058491 0.15188884 -4.011455e-19)
(9.8363591 0.15058854 1.5943597e-17)
(9.7155905 0.21275209 0)
(9.5503724 0.12813573 0)
(9.2633983 0.25503854 2.0313874e-17)
(10.010386 0.024197327 3.7160478e-18)
(9.9989139 0.051375109 0)
(9.9826386 0.10037191 0)
(9.9558981 0.12235187 0)
(9.914854 0.17560675 0)
(9.8416281 0.18311931 -7.9599253e-18)
(9.7105422 0.25555956 -8.4928977e-18)
(9.5317182 0.16960901 1.2166797e-17)
(9.213246 0.31585068 1.1558499e-19)
(10.012475 0.024721758 -3.6591919e-18)
(10.000652 0.053270662 -1.2713466e-19)
(9.9868142 0.10541985 -1.4333609e-19)
(9.9597542 0.12969237 3.2507017e-19)
(9.9253216 0.18897416 1.2497376e-17)
(9.8522705 0.20026763 1.4048227e-17)
(9.722384 0.28538436 2.7062827e-17)
(9.5162536 0.20723414 -1.1950326e-17)
(9.1549199 0.38815395 -3.500073e-17)
(10.013259 0.024121951 0)
(10.014255 0.023153652 6.8070503e-18)
(10.014177 0.021628222 -6.7517996e-18)
(10.013537 0.019266467 6.4736946e-18)
(10.01327 0.016685116 -6.3276717e-18)
(10.011381 0.013265395 1.264306e-17)
(10.010075 0.010355988 -1.2273916e-17)
(10.007804 0.0059859006 0)
(10.003633 0.0023215243 0)
(10.00371 0.055745437 0)
(10.005351 0.055198634 1.1774829e-19)
(10.008557 0.054125483 0)
(10.010039 0.051998672 3.3500904e-19)
(10.012168 0.049227358 6.8443377e-18)
(10.014878 0.045062854 -2.0449021e-17)
(10.014869 0.040284353 1.3240409e-17)
(10.019038 0.035198838 -2.0188341e-19)
(10.015668 0.023551004 1.2797053e-17)
(9.9920409 0.11282406 8.5369426e-18)
(9.9974404 0.11726651 -1.6826446e-17)
(10.002896 0.1194183 1.6073877e-17)
(10.009944 0.11869192 -5.0161003e-19)
(10.013733 0.11623811 -7.589742e-18)
(10.022357 0.11295606 -2.3075697e-19)
(10.024248 0.10542133 0)
(10.034146 0.1002559 4.3662677e-19)
(10.033526 0.082317515 -2.1254237e-19)
(9.9688284 0.14328851 8.8954251e-18)
(9.9775851 0.15367668 -1.8073793e-17)
(9.9859173 0.16097976 1.7204595e-17)
(9.9982654 0.16646739 -8.3382316e-18)
(10.005519 0.16715009 -5.218404e-19)
(10.019769 0.16977312 2.5221236e-19)
(10.026377 0.16486421 0)
(10.043157 0.16375786 -2.3767089e-19)
(10.045415 0.14752256 1.4324597e-17)
(9.9327851 0.21034441 -1.0036314e-17)
(9.95018 0.23021824 0)
(9.9575998 0.24472214 -9.2962327e-18)
(9.9776475 0.25936949 9.5860402e-18)
(9.9862348 0.26680434 -8.6637146e-18)
(10.007897 0.27679429 8.9529737e-18)
(10.017794 0.27744437 0)
(10.041417 0.28409163 0)
(10.048834 0.26954946 5.0668782e-19)
(9.8584399 0.22922562 -1.2255622e-17)
(9.8761235 0.26209572 -1.1726173e-17)
(9.8853855 0.2852393 1.1272219e-17)
(9.9065414 0.31571187 1.0810766e-17)
(9.9208912 0.33097482 -1.0422321e-17)
(9.9451537 0.35889968 0)
(9.9643791 0.36427275 1.9311473e-17)
(9.9909813 0.39066231 -4.5059764e-20)
(10.009163 0.38037495 -3.6058972e-17)
(9.7201015 0.3226441 -1.4338094e-17)
(9.7399116 0.3814848 0)
(9.7493814 0.4078044 0)
(9.7761246 0.4613436 3.9291172e-19)
(9.7978988 0.48043474 0)
(9.8301486 0.53386166 0)
(9.8598724 0.54504032 0)
(9.8952595 0.59482997 0)
(9.9232579 0.59282949 0)
(9.5045454 0.25468213 5.4865852e-19)
(9.4860355 0.35183895 0)
(9.4945547 0.41257075 4.9207721e-19)
(9.4948892 0.51679778 -9.2313259e-19)
(9.5324865 0.56593252 -1.3990551e-17)
(9.5560489 0.65905213 -1.3278317e-17)
(9.6086559 0.69124035 2.5490091e-17)
(9.6474987 0.77418767 2.4648306e-17)
(9.7037766 0.78289631 -2.3317678e-17)
(9.0862132 0.46703061 6.5577423e-17)
(9.0102792 0.68327199 -4.0651231e-17)
(9.0129359 0.81344666 3.7755766e-17)
(9.0503877 1.034678 -3.5655784e-17)
(9.1293103 1.1281034 -5.0735526e-17)
(9.2141382 1.305031 9.5504647e-17)
(9.3100003 1.3578511 -6.0338975e-17)
(9.4076428 1.4983024 -2.877761e-17)
(9.496341 1.5086101 2.7054181e-17)
(10.005145 0.0028520942 -1.6870793e-20)
(10.00825 0.0040796772 1.7325351e-17)
(10.013132 0.0060358443 -6.128906e-21)
(10.019444 0.008236126 -1.745293e-17)
(10.027062 0.010516402 1.7081698e-20)
(10.0362 0.012857048 1.7559379e-17)
(10.046927 0.015320056 -1.7645076e-17)
(10.059419 0.017842888 -1.7233416e-20)
(10.07486 0.021344071 -8.8756548e-18)
(10.023206 0.026705036 -1.836239e-17)
(10.027885 0.037001827 1.8478228e-17)
(10.039942 0.038156311 -1.8483338e-17)
(10.047592 0.05143054 0)
(10.063555 0.051417012 1.8643869e-17)
(10.074349 0.067240794 1.5748441e-20)
(10.093959 0.065707821 3.1665129e-20)
(10.108168 0.083842583 -1.8759087e-17)
(10.132065 0.08039122 9.4375802e-18)
(10.046089 0.089260719 1.9583463e-17)
(10.049859 0.10566883 -1.9643204e-17)
(10.06589 0.11042949 -1.9776987e-17)
(10.07108 0.12845628 1.9823851e-17)
(10.089786 0.13301493 -1.9989928e-17)
(10.097071 0.1538935 1.9922138e-17)
(10.119603 0.15819986 -2.012022e-17)
(10.129509 0.18266505 -1.2027394e-20)
(10.156501 0.18611448 2.0154232e-17)
(10.064705 0.15974877 -2.0926981e-17)
(10.067588 0.18418249 -8.2330863e-20)
(10.088413 0.19386269 8.28124e-20)
(10.091424 0.21889951 0)
(10.114762 0.22849767 -1.6309288e-22)
(10.120131 0.2570564 -2.1299128e-17)
(10.147864 0.26651152 2.1652113e-17)
(10.1562 0.29936628 8.4279331e-20)
(10.188965 0.30770593 8.4549165e-20)
(10.071577 0.28707816 -8.8361837e-20)
(10.072758 0.3171999 -2.2750481e-17)
(10.094478 0.33155982 -6.9601283e-20)
(10.093903 0.36030271 2.2957493e-17)
(10.11832 0.37437134 2.3116402e-17)
(10.120534 0.40724459 -2.3234165e-17)
(10.150083 0.42119495 -9.0550464e-20)
(10.155428 0.45874495 -9.0877282e-20)
(10.19038 0.47131479 -9.1203943e-20)
(10.040772 0.4072189 2.4654769e-17)
(10.039631 0.4482363 0)
(10.067148 0.46949272 0)
(10.063435 0.50809064 2.485377e-17)
(10.094161 0.52832891 -2.5186551e-17)
(10.094317 0.57124586 -2.5255527e-17)
(10.13078 0.59077708 5.0551064e-17)
(10.1347 0.6379238 -4.5549056e-20)
(10.176464 0.65518478 -5.0939889e-17)
(9.9573488 0.6353228 -1.0648027e-19)
(9.9613289 0.68147717 0)
(9.9855977 0.71006291 1.0727896e-19)
(9.9886507 0.74874774 2.7560091e-17)
(10.017961 0.77556198 -2.7726656e-17)
(10.027763 0.81297489 2.7798234e-17)
(10.062772 0.83822068 -2.7858526e-17)
(10.077423 0.87275688 -1.0909479e-19)
(10.11504 0.89431793 2.8032036e-17)
(9.7486035 0.84944402 -2.9958318e-17)
(9.7913465 0.9042124 3.0374761e-17)
(9.8316813 0.95108755 -3.0495249e-17)
(9.8772287 0.99543183 3.0338775e-17)
(9.9224445 1.0342794 -3.0206036e-17)
(9.9726871 1.0712865 -5.1886094e-21)
(10.021244 1.1023609 3.0617044e-17)
(10.072401 1.1306133 2.3995315e-19)
(10.117961 1.1507484 1.5292499e-17)
(9.5935108 1.6153341 0)
(9.6468903 1.6446012 -3.3624348e-17)
(9.7413807 1.7246519 1.9036956e-19)
(9.7957801 1.7292006 3.1730584e-19)
(9.8945752 1.7792988 6.7512011e-17)
(9.9451199 1.7442642 -3.3785385e-17)
(10.053959 1.745573 -3.3807288e-17)
(10.116479 1.6385994 3.3934693e-17)
(10.225758 1.5728871 1.7042365e-17)
(10.281574 1.3999529 -1.9921039e-17)
(10.313511 1.3112042 0)
(10.333674 1.1966168 1.9828516e-17)
(10.306424 1.1489404 -1.9822645e-17)
(10.263319 1.0397897 0)
(10.193534 1.0110397 0)
(10.118409 0.90470715 0)
(10.035599 0.89969065 -2.0322762e-17)
(9.9476517 0.81020295 2.0322814e-17)
(10.158807 1.1655937 -1.7420205e-17)
(10.191204 1.1854061 0)
(10.221104 1.1871321 0)
(10.239038 1.1918443 0)
(10.254502 1.1880854 0)
(10.257644 1.1923593 0)
(10.252869 1.1930426 0)
(10.243175 1.2025399 1.7241718e-17)
(10.219479 1.2014049 -3.4564888e-17)
(10.129951 0.92269107 -5.7879881e-20)
(10.163558 0.94974275 -3.0774607e-17)
(10.175533 0.97266842 0)
(10.207257 0.99806438 -1.5308393e-17)
(10.215233 1.0192127 1.5308389e-17)
(10.242956 1.0418236 0)
(10.244962 1.0620857 0)
(10.267678 1.0851274 0)
(10.261888 1.1071981 0)
(10.179555 0.70177723 2.7388678e-17)
(10.222773 0.72635677 0)
(10.226278 0.77138653 1.3617442e-17)
(10.269679 0.79506246 -2.7209083e-17)
(10.273123 0.83982882 1.3591359e-17)
(10.31658 0.86363542 0)
(10.318872 0.90889683 0)
(10.36246 0.93433194 0)
(10.362267 0.98096149 1.3463943e-17)
(10.196227 0.51207604 0)
(10.23445 0.52756326 2.4613188e-17)
(10.241253 0.57042996 -3.6897496e-17)
(10.282237 0.58593893 1.2284037e-17)
(10.290076 0.63076125 1.2235496e-17)
(10.333893 0.64690162 -2.5698633e-20)
(10.342341 0.69419223 -2.4392658e-17)
(10.389352 0.711754 2.4338348e-17)
(10.397788 0.76208402 -1.2155217e-17)
(10.198867 0.34440244 0)
(10.23601 0.35431969 1.1197018e-17)
(10.248052 0.39427042 -1.1197166e-17)
(10.289347 0.40376892 0)
(10.303581 0.44675117 -2.2250169e-17)
(10.348972 0.45608543 2.2250211e-17)
(10.365276 0.50239872 1.1069654e-17)
(10.415124 0.51191403 -2.2109331e-17)
(10.433314 0.56202601 1.1039594e-17)
(10.168343 0.21425361 0)
(10.199721 0.21841008 0)
(10.214141 0.2502253 0)
(10.250213 0.25384978 -1.0265751e-17)
(10.267491 0.28943595 2.0509029e-17)
(10.308521 0.29251718 -2.0462487e-17)
(10.328821 0.33216131 1.0219144e-17)
(10.375327 0.33478457 -1.0165489e-17)
(10.398785 0.37898833 2.0301214e-17)
(10.149001 0.10119924 -1.9127531e-17)
(10.177622 0.097237544 1.7440196e-20)
(10.198035 0.12185304 9.5385223e-18)
(10.23098 0.11642341 -9.4993731e-18)
(10.255204 0.1440589 9.4993327e-18)
(10.292773 0.13670961 0)
(10.321075 0.16743695 9.4281578e-18)
(10.36417 0.15816185 -1.882882e-17)
(10.396972 0.19280798 9.4006595e-18)
(10.084373 0.026504013 1.2350281e-20)
(10.107733 0.026604937 8.9324207e-18)
(10.122886 0.038486574 8.9066733e-18)
(10.153199 0.038140986 -8.9066742e-18)
(10.170543 0.04925451 0)
(10.205737 0.04872893 0)
(10.226511 0.06014204 -8.8346866e-18)
(10.268683 0.060463097 1.7646624e-17)
(10.294863 0.072587358 -8.8120965e-18)
(10.343893 0.07389019 0)
(10.376717 0.086710186 -8.7301486e-18)
(10.432622 0.089080966 3.2249243e-20)
(10.472717 0.10246116 3.4987203e-20)
(10.536272 0.10588801 3.7914402e-20)
(10.58453 0.11993712 8.6249974e-18)
(10.656726 0.1247559 8.539384e-18)
(10.714371 0.13962346 -8.5393845e-18)
(10.796524 0.14601387 0)
(10.44634 0.18163313 0)
(10.483974 0.22085272 0)
(10.540213 0.20778829 -9.2687648e-18)
(10.582959 0.25211751 3.9058951e-20)
(10.646801 0.23719367 4.1782403e-20)
(10.695088 0.28738433 9.187863e-18)
(10.767574 0.27062531 9.0952596e-18)
(10.822007 0.32767252 -9.0952248e-18)
(10.904371 0.30905331 0)
(10.451361 0.38133105 -1.0135763e-17)
(10.478097 0.43071938 0)
(10.537377 0.43300656 0)
(10.567552 0.48831154 -9.9952074e-18)
(10.634303 0.49077727 1.9949161e-17)
(10.668215 0.55291826 -4.3992042e-20)
(10.743421 0.55576581 -4.7015582e-20)
(10.78159 0.62589581 -9.8628648e-18)
(10.866467 0.62919215 0)
(10.488038 0.57219389 -1.0974684e-17)
(10.507858 0.62670205 1.0974623e-17)
(10.56794 0.6381236 0)
(10.589167 0.69786968 0)
(10.655276 0.71121052 1.0823163e-17)
(10.677864 0.77738634 -1.0823092e-17)
(10.750983 0.79325716 1.0734466e-17)
(10.775195 0.86741336 -5.3913413e-18)
(10.856684 0.88623505 -5.3430019e-18)
(10.448239 0.78204214 -1.2097013e-17)
(10.455953 0.83617219 1.2096891e-17)
(10.51015 0.8596462 0)
(10.516526 0.91878797 0)
(10.575097 0.94689267 0)
(10.579793 1.0128214 0)
(10.643909 1.0464975 0)
(10.646987 1.1214145 0)
(10.718381 1.1613113 0)
(10.40597 1.0097917 -1.3463938e-17)
(10.401893 1.0587487 1.3416368e-17)
(10.445779 1.0930997 -1.3416006e-17)
(10.436778 1.1459337 1.3371169e-17)
(10.481522 1.187476 -1.3370531e-17)
(10.466998 1.2467421 0)
(10.514425 1.2965202 0)
(10.494316 1.3653141 0)
(10.547143 1.4242346 0)
(10.27936 1.1348938 0)
(10.264355 1.1600854 -1.5219829e-17)
(10.278553 1.1960035 1.5216574e-17)
(10.253178 1.2265523 0)
(10.266331 1.273546 1.5225637e-17)
(10.229081 1.313162 -1.5226175e-17)
(10.244487 1.3736573 0)
(10.195188 1.4258483 7.6256146e-18)
(10.21599 1.5011159 -1.5255581e-17)
(10.201804 1.2237754 1.7304996e-17)
(10.155932 1.2312663 1.7387487e-17)
(10.132148 1.2644305 -1.7390495e-17)
(10.066449 1.2854245 1.7496234e-17)
(10.038103 1.3287383 -3.5054964e-17)
(9.9552781 1.3662301 3.5181159e-17)
(9.9236887 1.4214049 -3.5316141e-17)
(9.8253041 1.4787554 1.7692469e-17)
(9.7921803 1.5478359 0)
(9.8582812 0.82850643 -2.0582645e-17)
(9.7594173 0.75396201 2.0582693e-17)
(9.6667016 0.79431414 0)
(9.5542115 0.73270967 0)
(9.4596068 0.79564083 0)
(9.3290001 0.74735748 0)
(9.2327342 0.83481872 0)
(9.0864115 0.80248759 -1.080672e-17)
(8.9792962 0.91549476 1.080665e-17)
(8.8210523 0.90731665 1.0971076e-17)
(9.6797943 1.6288027 0)
(10.155624 1.5704792 7.6309214e-18)
(10.522004 1.5057221 0)
(10.720365 1.2476005 0)
(10.883173 0.97018786 0)
(10.9097 0.70862074 4.8504113e-18)
(10.965749 0.37414507 4.4650018e-18)
(10.864961 0.16180533 4.1910765e-18)
(8.7030639 1.0539796 -1.097098e-17)
(9.6476037 1.7139345 0)
(10.183738 1.658218 0)
(10.58327 1.5742818 6.5995647e-18)
(10.801189 1.293998 0)
(10.97476 0.99208275 -5.2602653e-18)
(11.005672 0.71221303 -9.6697213e-18)
(11.059463 0.35355087 -8.8983428e-18)
(10.958537 0.17014891 -8.3514204e-18)
(8.5330783 1.0773743 0)
(9.5236003 1.8231031 0)
(10.116601 1.7545935 7.63653e-18)
(10.554383 1.6717019 -6.5996434e-18)
(10.803132 1.3940684 0)
(11.004622 1.0877743 5.2602507e-18)
(11.055101 0.80231148 4.8193297e-18)
(11.128785 0.42800976 4.4333428e-18)
(11.039437 0.18697596 4.1603429e-18)
(8.4025423 1.2708423 1.1223895e-17)
(9.4961357 1.926544 0)
(10.152164 1.8532139 -1.5270908e-17)
(10.627451 1.7497955 0)
(10.895789 1.4467566 0)
(11.108313 1.1124735 -5.1942181e-18)
(11.163711 0.80572715 -4.749942e-18)
(11.235453 0.40519464 0)
(11.146144 0.19748765 -4.0908368e-18)
(8.2228394 1.336331 -1.1223847e-17)
(9.364614 2.069611 -9.0862133e-18)
(10.082238 1.9797657 7.6342742e-18)
(10.597149 1.8666032 0)
(10.899397 1.562961 0)
(11.143113 1.2217937 5.1942126e-18)
(11.220808 0.90776208 4.7499357e-18)
(11.313961 0.49043999 0)
(11.241368 0.2153446 4.0908362e-18)
(8.0812457 1.5940112 0)
(9.3478378 2.1935941 9.0861904e-18)
(10.128886 2.0895551 -7.6185088e-18)
(10.683665 1.9510774 0)
(11.006345 1.6209517 0)
(11.261073 1.2485653 -5.1168018e-18)
(11.343703 0.91018468 -4.6692614e-18)
(11.436128 0.46490962 0)
(11.362831 0.22827435 -4.009164e-18)
(7.9021696 1.7196887 0)
(9.2153729 2.377592 0)
(10.061675 2.2501068 7.6185046e-18)
(10.659922 2.093879 -3.2413519e-18)
(11.014324 1.755637 -2.8504074e-18)
(11.302783 1.373114 7.653336e-18)
(11.410336 1.0253724 6.9811363e-18)
(11.520989 0.55871428 0)
(11.473983 0.24680138 5.9908475e-18)
(7.7628886 2.0817487 0)
(9.2192461 2.5222945 -4.5629985e-18)
(10.124487 2.3694398 0)
(10.759253 2.1817211 3.2408418e-18)
(11.13694 1.816185 2.8498809e-18)
(11.43698 1.4007102 -2.3795398e-20)
(11.550402 1.0256528 -4.5993459e-18)
(11.666439 0.53805183 0)
(11.610753 0.26171291 -1.9816838e-18)
(7.6264108 2.2674946 -5.7531547e-18)
(9.0960703 2.7626004 4.5625593e-18)
(10.066437 2.5782938 0)
(10.748496 2.362007 0)
(11.157444 1.9835837 0)
(11.490994 1.5500918 -4.9988249e-18)
(11.627311 1.1551947 2.6725124e-20)
(11.756073 0.634755 0)
(11.736988 0.27994234 0)
(11.906608 0.29744322 0)
(11.922279 0.61979858 0)
(11.787864 1.1515051 -1.1102394e-19)
(11.636226 1.5597781 2.6090712e-18)
(11.295952 2.0216572 0)
(10.868716 2.4326516 -3.9902273e-19)
(10.165409 2.6836353 -2.7257929e-20)
(9.1563745 2.9106585 -3.7859896e-18)
(7.5397507 2.7476266 1.0722528e-17)
(12.068248 0.31023719 -9.4854906e-19)
(12.023965 0.70159863 -1.2871434e-19)
(11.881483 1.2658527 1.1370216e-18)
(11.717245 1.7056948 -3.5070815e-21)
(11.356115 2.18858 -1.1955229e-18)
(10.898196 2.6197037 1.5520239e-18)
(10.167751 2.9154909 -4.7270501e-19)
(9.135437 3.2080268 4.9263031e-18)
(7.6522087 3.0573246 -5.4577907e-18)
(12.234669 0.32103282 1.8999986e-18)
(12.21404 0.68510487 0)
(12.073215 1.2667973 2.2222592e-18)
(11.88389 1.7071449 -1.2129245e-18)
(11.528128 2.2149296 1.2096653e-18)
(11.06669 2.6768847 -2.9417794e-18)
(10.354548 3.003839 -2.3021455e-18)
(9.3513251 3.3292805 1.1086281e-18)
(7.9455833 3.3901534 6.5002868e-20)
(12.413478 0.3318392 -9.5197108e-19)
(12.327616 0.76418294 -1.2750888e-19)
(12.180291 1.3788346 -9.7871383e-19)
(11.986961 1.8673618 1.3846066e-18)
(11.615648 2.398246 5.1283728e-19)
(11.127835 2.8796543 1.5828181e-18)
(10.397539 3.2456671 1.8604606e-18)
(9.3836877 3.615423 5.7784694e-19)
(7.9813866 3.6494239 -6.6156763e-19)
(12.605581 0.34317058 2.3048733e-19)
(12.546989 0.74999609 -2.4881658e-19)
(12.400233 1.382033 -1.3883868e-19)
(12.175448 1.8561576 4.518911e-19)
(11.813611 2.4100979 -5.1734944e-19)
(11.325826 2.922175 -5.8341472e-19)
(10.614688 3.3178749 -4.7950708e-19)
(9.6175093 3.7174424 5.4142997e-19)
(8.245373 3.927406 -7.2633435e-19)
(12.809528 0.35498 -2.3312379e-19)
(12.672952 0.83035818 2.5181063e-19)
(12.520972 1.4888778 -1.3793392e-19)
(12.299647 2.0269391 -1.7502495e-21)
(11.922699 2.6028384 -1.6848082e-19)
(11.408644 3.1338629 3.9696414e-19)
(10.679801 3.5645573 -4.8102579e-19)
(9.6697835 3.9992804 5.4447963e-19)
(8.3152704 4.1353594 0)
(13.023889 0.36602952 -2.2383356e-19)
(12.921041 0.81981502 -1.2423367e-19)
(12.76789 1.4930105 -1.3299937e-19)
(12.506489 2.0023412 -1.5305314e-19)
(12.136895 2.6003653 -1.6975522e-19)
(11.622581 3.161168 4.0504182e-19)
(10.907985 3.6184872 -9.3528747e-19)
(9.9159261 4.0764008 1.1343635e-18)
(8.6013547 4.373032 -6.7883429e-19)
(13.248876 0.37633347 6.6600598e-19)
(13.058925 0.8989139 4.8043597e-19)
(12.902876 1.5924556 6.6332675e-19)
(12.652078 2.1815422 7.3746012e-19)
(12.269191 2.7995618 5.1631605e-19)
(11.730582 3.3794085 -1.9218185e-19)
(11.000927 3.8674506 -4.8266987e-19)
(9.9988859 4.3535474 -4.0625771e-20)
(8.6915218 4.5467941 -7.211374e-19)
(13.484596 0.3847395 -1.3055492e-18)
(13.332752 0.88981544 -4.8642635e-19)
(13.174582 1.5957035 -1.7097522e-18)
(12.872966 2.1425055 -4.5276891e-19)
(12.498276 2.7798359 1.1581352e-18)
(11.961182 3.3879908 5.9440949e-19)
(11.244332 3.899877 -2.7784176e-18)
(10.260405 4.407831 5.5080285e-19)
(8.9734037 4.7568836 1.4430529e-18)
(9.0760098 4.9094042 -1.4447373e-18)
(10.369429 4.6811553 5.9432933e-19)
(11.366422 4.1488581 4.1703246e-18)
(12.097559 3.6102815 -5.9141111e-19)
(12.657162 2.9829632 2.9978805e-19)
(13.044881 2.3270377 8.6035452e-19)
(13.328377 1.6851984 1.187055e-18)
(13.481915 0.96566717 -5.8373898e-20)
(13.731548 0.39206149 1.7652741e-18)
(9.3556416 5.097836 5.7580253e-18)
(10.643476 4.7151899 5.522275e-19)
(11.624109 4.1583457 -6.0178511e-18)
(12.339575 3.598027 -1.8868156e-19)
(12.900908 2.9422989 -1.1698788e-18)
(13.273438 2.2741249 -1.0289955e-18)
(13.62139 1.6849792 -2.1368377e-18)
(13.779846 0.95706189 0)
(13.9892 0.39708458 -8.5021514e-19)
(9.4733274 5.2340763 -7.3924131e-18)
(10.776855 4.9861346 5.6660265e-18)
(11.774977 4.4051794 3.2595871e-18)
(12.507177 3.81515 -1.8683438e-19)
(13.087554 3.1456148 2.5729363e-18)
(13.476568 2.4589801 5.4215611e-21)
(13.795786 1.7619566 3.2430091e-19)
(13.940066 1.0285624 1.6632188e-18)
(14.257356 0.40091771 1.5833748e-18)
(9.753419 5.4051218 -1.4775317e-18)
(11.062053 5.0001579 1.0281312e-18)
(12.043451 4.3902707 -4.7700747e-19)
(12.761417 3.7933023 0)
(13.343603 3.0818155 -2.6099549e-18)
(13.709611 2.3931964 0)
(14.106692 1.7556871 1.8693152e-18)
(14.259514 1.0192754 -3.419948e-18)
(14.534954 0.4019842 -7.5202129e-20)
(9.8876521 5.5296292 -7.1307778e-19)
(11.221721 5.2693965 -4.5766019e-18)
(12.223603 4.6317708 4.7389979e-19)
(12.952112 3.9944763 0)
(13.557273 3.2816503 -2.6294694e-18)
(13.938034 2.5686056 2.151106e-18)
(14.298853 1.8180708 1.2173291e-19)
(14.433636 1.0851781 3.4328306e-18)
(14.821589 0.40142247 -1.5462029e-18)
(10.172355 5.6843622 -6.7201616e-18)
(11.516955 5.2612696 -3.9281563e-18)
(12.499546 4.5903512 -3.3992457e-20)
(13.220172 3.9645803 -3.8234405e-19)
(13.821709 3.1939802 -5.3180789e-20)
(14.187055 2.4993131 -4.2652102e-18)
(14.62446 1.803124 1.1840134e-19)
(14.769296 1.0737534 -1.7018272e-18)
(15.115924 0.3974983 0)
(10.329635 5.7975691 4.6260282e-18)
(11.708877 5.5273487 5.7403216e-18)
(12.709172 4.8222484 -3.4763456e-20)
(13.43261 4.1454636 -3.764494e-19)
(14.060649 3.3864642 2.3174216e-18)
(14.432336 2.6570228 2.2590414e-18)
(14.831121 1.8492761 1.1037632e-19)
(14.959233 1.1334217 -1.0113892e-19)
(15.417201 0.39160895 0)
(10.624916 5.937489 0)
(12.00947 5.4947231 -5.3926115e-19)
(12.993748 4.7514239 4.5979383e-19)
(13.71359 4.1051743 -5.3976102e-18)
(14.330504 3.2743522 -1.5238795e-19)
(14.695495 2.5822856 3.8145181e-18)
(15.167743 1.8237173 -3.2164684e-18)
(15.305974 1.1185216 2.9930419e-18)
(15.722941 0.38200411 2.5077673e-18)
(10.811432 6.0390682 1.1355313e-17)
(12.241034 5.7535063 9.8543605e-18)
(13.218799 4.9662361 -4.532152e-19)
(13.946125 4.2629653 5.6880668e-18)
(14.593461 3.4592277 -1.3941529e-19)
(14.955938 2.7198788 -3.8782219e-18)
(15.384797 1.8520492 3.479887e-18)
(15.509098 1.1712392 -3.1278919e-18)
(16.031402 0.37142826 -1.8806158e-19)
(16.36294 0.35713133 -2.3358825e-18)
(15.866751 1.150302 2.6241896e-18)
(15.731375 1.8144878 0)
(15.237795 2.6351043 -2.3180516e-19)
(14.867651 3.3123363 4.3130896e-18)
(14.249068 4.2075192 4.8909684e-18)
(13.534681 4.869192 0)
(12.5636 5.6854682 -3.7901957e-19)
(11.152752 6.1756552 -1.1096313e-17)
(16.678658 0.33626071 0)
(16.085091 1.1830649 -2.7140502e-18)
(15.959862 1.8142162 0)
(15.527795 2.7392436 -2.2256302e-19)
(15.164139 3.476493 -7.8124213e-18)
(14.527169 4.330936 -5.3417537e-18)
(13.812427 5.0556589 6.20727e-18)
(12.885422 5.9434126 -7.7363454e-18)
(11.442183 6.2693866 9.2810331e-18)
(16.986527 0.30653892 0)
(16.452735 1.1464284 0)
(16.311273 1.7619447 -2.6196803e-18)
(15.828976 2.635493 0)
(15.461687 3.3051027 3.997624e-18)
(14.857331 4.2520464 -4.5644405e-18)
(14.162879 4.9199794 -5.6454321e-18)
(13.257176 5.8356456 -4.4217943e-19)
(11.875469 6.3805135 -1.2084251e-18)
(17.291774 0.26850079 0)
(16.677008 1.1624613 0)
(16.540044 1.7417982 2.6740565e-18)
(16.131913 2.7114406 2.7823577e-18)
(15.763159 3.4416935 3.5281709e-18)
(15.152145 4.3408093 4.9645514e-18)
(14.45021 5.0646769 0)
(13.599006 6.0375533 6.9781599e-18)
(12.236429 6.4409504 -1.0949526e-17)
(17.581244 0.22621017 2.7622018e-20)
(17.046364 1.1140508 -3.0107037e-20)
(16.886423 1.6740265 0)
(16.437895 2.5880634 -2.6793074e-19)
(16.066868 3.2517868 -7.2182659e-18)
(15.484937 4.2431982 2.5871068e-19)
(14.803386 4.900047 5.349296e-18)
(13.96225 5.8933256 -7.7237568e-18)
(12.723036 6.5079392 1.0646515e-17)
(17.860567 0.18000058 -2.4765278e-20)
(17.271789 1.1170805 2.7037381e-20)
(17.111825 1.6346365 0)
(16.743021 2.6357868 -3.0292165e-18)
(16.369885 3.3603596 3.8531983e-18)
(15.784915 4.3016528 -2.452722e-19)
(15.087652 5.0112582 -5.5328113e-18)
(14.297742 6.0307489 0)
(13.183477 6.5058263 -1.0533293e-17)
(18.124575 0.13178908 2.1828786e-20)
(17.636265 1.0574557 1.5695922e-18)
(17.45027 1.5517254 -6.6497766e-20)
(17.043449 2.492619 2.2661593e-18)
(16.673889 3.1525854 3.096973e-18)
(16.114904 4.1882336 0)
(15.432778 4.8280899 0)
(14.621508 5.8444218 -6.5108687e-18)
(13.755472 6.5081783 0)
(18.391744 0.06834548 0)
(17.851646 1.0464789 -1.6263488e-18)
(17.668146 1.4955187 0)
(17.341673 2.5142262 -2.5662518e-18)
(16.97382 3.2320007 -2.8270192e-18)
(16.417217 4.2188741 3.4725791e-18)
(15.699595 4.9279547 0)
(14.903217 5.9117814 7.2095865e-18)
(14.339473 6.4124373 -8.1930448e-18)
(18.534975 0.021887935 0)
(18.197751 0.97360649 0)
(17.991411 1.4007965 -5.3313801e-20)
(17.627655 2.3515589 -7.692377e-20)
(17.27112 3.0051467 1.5280027e-19)
(16.74094 4.0916842 -3.585991e-18)
(16.085353 4.7239414 0)
(15.157669 5.6584465 0)
(14.972523 6.2920404 8.1031916e-18)
(18.799674 -0.027319447 -2.4400386e-20)
(18.384604 0.9703308 -8.3674472e-21)
(18.196647 1.3307281 1.1911029e-18)
(17.911701 2.3561165 0)
(17.554482 3.0694286 0)
(17.037116 4.1079029 -1.8989029e-19)
(16.245297 4.9438367 -3.5142089e-18)
(15.264402 5.7591121 1.514753e-19)
(15.349373 6.2016151 0)
(19.023253 -0.058423637 -1.7826552e-20)
(18.695229 0.96736179 -7.9010401e-21)
(18.497705 1.3707219 -1.082649e-18)
(18.158931 2.4135633 0)
(17.774374 3.1354439 0)
(17.227187 4.326717 1.6346043e-19)
(16.401094 5.0838547 9.6315017e-18)
(15.168995 5.9294524 -1.3616743e-19)
(14.577698 6.0538175 9.0124026e-18)
(19.198811 -0.066006978 0)
(18.852389 0.96032321 1.005617e-18)
(18.668434 1.298717 0)
(18.402831 2.4162138 7.4579191e-20)
(18.001858 3.2492984 -8.1425534e-20)
(17.414858 4.4063928 -1.4304687e-19)
(16.487735 5.3504454 -1.1501781e-17)
(14.809294 5.9582939 1.2311293e-19)
(12.79647 6.0016792 -8.4650354e-18)
(19.350383 -0.087634037 8.5022177e-20)
(19.134683 0.9196367 -9.6609159e-19)
(18.944465 1.3307026 9.0727419e-19)
(18.647909 2.4800104 1.3555383e-18)
(18.200976 3.3219215 -2.1559785e-18)
(17.558206 4.671125 3.0306379e-18)
(16.464248 5.5027286 5.5495662e-18)
(14.431394 6.0133197 7.9319017e-18)
(10.414611 7.2093262 0)
(19.493908 -0.10503199 2.056417e-20)
(19.273129 0.89561912 2.9583414e-19)
(19.085408 1.2603913 -8.7766953e-19)
(18.892311 2.4494658 -4.6882318e-19)
(18.429277 3.4486857 2.0593936e-18)
(17.75412 4.7273668 -5.8313388e-19)
(16.397584 5.7285225 0)
(13.667382 6.2950718 -7.6234842e-18)
(6.9599568 6.8666176 0)
(19.604182 -0.1375806 -3.7671243e-19)
(19.52892 0.82053333 -2.8766239e-19)
(19.343274 1.2718976 2.2103292e-19)
(19.166362 2.4866983 -8.2557186e-19)
(18.64863 3.4932146 -4.9029721e-20)
(17.901179 4.9698187 -2.2745651e-18)
(16.104046 5.9282759 3.7761862e-18)
(12.234907 5.6366143 6.6347514e-18)
(1.1657735 1.4505522 -7.8571773e-18)
(19.708677 -0.15939636 2.6626627e-19)
(19.650298 0.77988563 -4.6552531e-21)
(19.458051 1.1962722 -1.9987934e-19)
(19.417238 2.4062513 1.1922161e-20)
(18.877858 3.6214779 -1.2861393e-20)
(18.03523 5.0171309 -1.2192805e-18)
(15.586466 5.8339144 -7.1189916e-18)
(9.4332098 4.8839524 -6.250544e-18)
(-0.36586533 1.9161514 7.4497512e-18)
(19.764319 -0.19390663 6.2610113e-21)
(19.885049 0.6685762 -6.648318e-21)
(19.693363 1.1822911 -3.4024097e-19)
(19.704057 2.4179409 -5.8636306e-19)
(19.099171 3.642709 2.9474646e-20)
(18.06028 5.1974965 1.8204624e-18)
(14.77306 6.0033217 6.382805e-18)
(7.0438164 3.9545331 5.4454703e-18)
(-0.41393139 2.6143546 -6.7417791e-18)
(19.816237 -0.21010631 -4.762182e-19)
(19.980076 0.60668411 8.230256e-21)
(19.783897 1.0994556 -2.4470709e-19)
(19.940094 2.2962141 5.6842192e-19)
(19.306737 3.7586342 -2.9676271e-20)
(17.907234 5.2624048 -6.7087955e-19)
(13.418775 5.7000697 -2.9812535e-18)
(3.9668981 2.1169378 -5.150156e-18)
(-1.0760264 2.8797052 6.4240424e-18)
(-1.2420962 2.8143094 1.0555006e-17)
(2.1004061 1.3145254 6.1571507e-20)
(12.14689 5.587667 -2.8962546e-20)
(17.817739 5.3003585 2.4559749e-20)
(19.471012 3.7514154 0)
(20.201774 2.2877912 1.6621454e-20)
(19.991853 1.0576086 1.3904662e-18)
(20.182543 0.46668062 9.7005112e-19)
(19.814016 -0.26175497 9.3892707e-19)
(-1.3950776 2.8305947 -1.021972e-17)
(1.5123521 1.2794337 0)
(10.797873 5.1771547 0)
(17.660415 5.3330304 1.6299092e-18)
(19.679357 3.7334592 0)
(20.397259 2.0677333 -3.7878655e-18)
(20.056191 0.92406256 -2.8398019e-18)
(20.238671 0.37172106 -9.2470385e-19)
(19.789239 -0.29458255 4.0098864e-19)
(-1.4781791 2.7996309 -7.0551659e-20)
(1.8349478 2.4830456 5.6829812e-20)
(9.8109885 4.8344423 0)
(17.463785 5.2640439 -1.5967806e-18)
(19.813621 3.705064 0)
(20.627177 2.0324506 3.7437499e-18)
(20.234723 0.857206 1.9509344e-18)
(20.391188 0.217286 2.2990786e-20)
(19.742031 -0.32638523 -8.6002356e-19)
(-1.6430512 2.8853217 -1.8522886e-17)
(2.4144484 3.5125223 1.2192038e-17)
(8.7226337 4.637642 -5.9491164e-20)
(17.192597 5.3160703 0)
(19.994585 3.6390692 -5.1164932e-18)
(20.790478 1.7858824 0)
(20.272505 0.71726368 -2.0247983e-20)
(20.402041 0.11307712 2.4773364e-20)
(19.670243 -0.35456359 -5.7606609e-21)
(-1.731178 2.9390867 1.7807987e-17)
(2.3379786 4.0475213 -3.3543082e-19)
(7.9355304 4.2970203 -3.3550861e-18)
(16.837613 5.2131998 -1.5933797e-21)
(20.096137 3.5979128 -1.0283648e-18)
(20.996232 1.7214877 0)
(20.421025 0.62703893 -2.7798923e-18)
(20.504105 -0.051023398 0)
(19.57512 -0.37879441 0)
(-1.8451906 3.0750783 -5.881294e-20)