/*--------------------------------*- C++ -*----------------------------------*\
  =========                 |
  \\      /  F ield         | OpenFOAM: The Open Source CFD Toolbox
   \\    /   O peration     | Website:  https://openfoam.org
    \\  /    A nd           | Version:  11
     \\/     M anipulation  |
\*---------------------------------------------------------------------------*/
FoamFile
{
    format      ascii;
    class       volVectorField;
    location    "17.5";
    object      U;
}
// * * * * * * * * * * * * * * * * * * * * * * * * * * * * * * * * * * * * * //

dimensions      [0 1 -1 0 0 0 0];

internalField   nonuniform List<vector> 
5472
(
(10.18518 2.4745629 1.5868864e-18)
(10.365857 2.4700858 -1.6523946e-18)
(10.560967 2.4610799 -1.656006e-18)
(10.74512 2.4411702 -1.6746259e-18)
(10.914231 2.4011893 5.1857079e-18)
(11.110684 2.3450497 -4.1124765e-20)
(11.284719 2.2666005 -2.7156582e-18)
(11.444181 2.1903606 9.4680719e-19)
(11.617289 2.075675 0)
(11.752937 1.973574 0)
(11.90195 1.8332986 0)
(12.021551 1.7115826 -2.8618181e-18)
(12.142878 1.544511 1.4666199e-18)
(12.255378 1.4107478 -2.7160001e-20)
(12.325662 1.2102589 9.7435185e-19)
(12.415779 1.0709139 -5.0218219e-19)
(12.460094 0.84505145 -7.4434836e-19)
(12.497906 0.69761906 2.569424e-19)
(12.527116 0.47644063 0)
(10.162433 2.2602352 -1.4536015e-18)
(10.319188 2.2519016 2.9937437e-18)
(10.492832 2.2732324 -1.5418187e-18)
(10.66505 2.2420645 -1.5372991e-18)
(10.842604 2.2100973 2.7179013e-20)
(11.025744 2.1566749 0)
(11.175099 2.0974945 1.62686e-18)
(11.343262 2.0278834 -3.3014634e-18)
(11.500091 1.9293941 4.2550989e-18)
(11.641265 1.8378179 8.6372402e-19)
(11.791132 1.7117231 0)
(11.91042 1.5928667 1.7772154e-18)
(12.033829 1.4468618 0)
(12.127906 1.3053577 4.4327854e-19)
(12.218796 1.1440094 -4.5677162e-19)
(12.290854 0.99494189 0)
(12.346607 0.81390486 0)
(12.398816 0.66963734 -2.2519308e-19)
(12.423882 0.48035686 0)
(10.177648 2.0745776 0)
(10.308311 2.0941816 1.3666733e-18)
(10.473541 2.1131389 1.3948459e-18)
(10.651248 2.0997316 0)
(10.825694 2.0897183 -2.2515349e-20)
(10.973734 2.0553224 -3.0600567e-20)
(11.118276 2.0089631 -1.5105409e-18)
(11.286365 1.9472611 0)
(11.432612 1.8604188 -1.5295643e-18)
(11.564986 1.7828761 -3.9023922e-18)
(11.712967 1.6676796 1.544552e-20)
(11.817091 1.5648664 -7.7843255e-19)
(11.938256 1.4302477 -8.0208564e-19)
(12.02948 1.2962539 1.6440525e-18)
(12.124727 1.1504756 1.2323261e-18)
(12.195479 1.0005339 4.1444501e-19)
(12.262704 0.84106483 2.0519888e-19)
(12.306091 0.68682781 -3.0968251e-19)
(12.332187 0.50305722 1.0297921e-19)
(10.141558 1.8889106 0)
(10.251718 1.9222581 -1.2335362e-18)
(10.438318 1.9441155 -1.2576166e-18)
(10.581498 1.9273819 2.5508738e-18)
(10.710809 1.9403464 -1.3448317e-18)
(10.855817 1.8967654 0)
(11.007712 1.8713155 -1.36781e-18)
(11.170793 1.805819 1.3680154e-18)
(11.296022 1.74536 -1.416039e-18)
(11.44893 1.6636025 -2.232961e-20)
(11.580235 1.5658244 -1.4492031e-18)
(11.696154 1.4747509 0)
(11.824598 1.3400018 0)
(11.918044 1.2197314 -7.3164758e-19)
(12.015807 1.07308 -7.3568456e-19)
(12.081321 0.93392137 0)
(12.147078 0.7793105 -1.8564887e-19)
(12.185217 0.62812399 9.4356235e-20)
(12.215599 0.460699 1.8667585e-19)
(10.158869 1.7239877 0)
(10.283132 1.7711899 0)
(10.44213 1.7724914 0)
(10.524886 1.8036956 -2.3155716e-18)
(10.688728 1.80987 1.2064659e-18)
(10.833997 1.7850962 -3.6213747e-18)
(10.975675 1.7676687 4.9377257e-18)
(11.109767 1.7136353 -2.5068604e-18)
(11.239926 1.6682449 3.8355702e-21)
(11.386664 1.5979681 1.2781597e-18)
(11.501864 1.5245796 1.2923108e-18)
(11.639021 1.4249983 -2.6311043e-18)
(11.74689 1.3165678 1.9967122e-18)
(11.842423 1.209436 -6.732027e-19)
(11.920867 1.0724055 0)
(11.989716 0.95081301 6.7856718e-19)
(12.045967 0.79932557 -3.3963383e-19)
(12.086555 0.65567211 1.6764917e-19)
(12.11202 0.49459508 -1.6644574e-19)
(10.134487 1.5522104 0)
(10.233762 1.6050102 -4.0490718e-18)
(10.348641 1.6332094 2.0881153e-18)
(10.455737 1.6699954 2.1212645e-18)
(10.627558 1.6638126 1.0726653e-18)
(10.722635 1.6630371 -1.0849651e-18)
(10.867101 1.6490241 2.2530923e-18)
(10.984751 1.6006796 1.1242174e-18)
(11.135614 1.5675411 2.2790111e-18)
(11.264882 1.4917363 -2.3302183e-18)
(11.393484 1.4259407 2.0837017e-20)
(11.519553 1.3339573 2.3782309e-18)
(11.612607 1.2478172 0)
(11.724344 1.1278127 -6.0724341e-19)
(11.806672 1.0116471 6.0131573e-19)
(11.89557 0.8811828 -1.5131313e-18)
(11.957779 0.74155207 6.0579504e-19)
(12.009361 0.60815002 -1.5105551e-19)
(12.040713 0.45237974 5.7441106e-22)
(10.120085 1.4186342 3.6084293e-18)
(10.235747 1.4626662 3.6645243e-18)
(10.353363 1.4792444 0)
(10.466095 1.5231338 -7.3721588e-21)
(10.600346 1.518563 -3.892878e-18)
(10.680747 1.5406139 3.9880561e-18)
(10.835633 1.5217654 0)
(10.937395 1.5043241 -1.0295642e-18)
(11.085308 1.46948 -4.1348814e-18)
(11.192679 1.4196761 2.1204272e-18)
(11.31757 1.3717338 1.0531306e-18)
(11.425087 1.2822727 -1.0803512e-18)
(11.534599 1.2041917 0)
(11.633914 1.0952163 5.3799899e-19)
(11.712347 0.99789308 0)
(11.790538 0.86212442 -5.4272996e-19)
(11.844529 0.74946843 8.2034596e-19)
(11.887828 0.60585049 1.0274909e-21)
(11.910371 0.47323502 -1.1555046e-21)
(10.109441 1.2702653 1.6176316e-18)
(10.239242 1.3109203 -3.3019079e-18)
(10.296333 1.368067 -3.3503888e-18)
(10.406832 1.4054029 3.4476669e-18)
(10.508365 1.4018512 -1.7664684e-18)
(10.609883 1.4194751 -1.7786191e-18)
(10.756707 1.4063624 0)
(10.839891 1.4068913 2.7469281e-18)
(10.999231 1.3665513 -1.5884059e-20)
(11.079931 1.339735 -2.8276773e-18)
(11.237605 1.2742989 2.887833e-18)
(11.321126 1.210913 0)
(11.449424 1.1337979 0)
(11.528587 1.0318203 9.6818069e-19)
(11.62583 0.93677901 -4.9833222e-19)
(11.692185 0.81610564 -9.7992147e-19)
(11.762009 0.71545648 2.4841676e-19)
(11.801082 0.5731783 2.4955262e-19)
(11.844593 0.45469405 6.0261627e-20)
(10.105533 1.1490325 -1.4516892e-18)
(10.208899 1.177252 4.4357491e-18)
(10.27086 1.2107868 -4.5691186e-18)
(10.403839 1.2522194 3.0937818e-18)
(10.466391 1.2828611 0)
(10.600813 1.3081303 1.5948628e-18)
(10.671449 1.2924288 -1.6445723e-18)
(10.787769 1.3037217 0)
(10.911785 1.2653379 8.3165811e-19)
(11.007092 1.2606016 -1.7220226e-18)
(11.150627 1.1928542 -8.5197787e-19)
(11.226659 1.1571602 -1.1560748e-20)
(11.357603 1.0741525 -2.6150081e-18)
(11.419441 0.99932244 4.5140411e-19)
(11.530523 0.89750853 -4.3039315e-19)
(11.578005 0.79228765 8.8240815e-19)
(11.659185 0.6854361 -4.3683686e-19)
(11.688111 0.56262539 2.248147e-19)
(11.73651 0.44642875 2.1839083e-19)
(10.105184 1.0282163 -2.6205595e-18)
(10.204706 1.0606233 0)
(10.256378 1.1168549 1.3582093e-18)
(10.365689 1.1296006 -4.145849e-18)
(10.433858 1.1600704 1.4279256e-18)
(10.563041 1.1888892 -1.4450741e-18)
(10.631469 1.1950015 1.4543222e-18)
(10.770912 1.2030249 -1.4960196e-18)
(10.844057 1.1723846 0)
(10.975707 1.1736968 7.5665828e-19)
(11.074807 1.1137849 0)
(11.178256 1.0943196 7.6852716e-19)
(11.290126 1.0010287 -1.4614795e-22)
(11.366916 0.94953209 -3.8743555e-19)
(11.467449 0.84320921 3.8878134e-19)
(11.51233 0.76586643 3.9019292e-19)
(11.593301 0.64760076 -3.4006092e-21)
(11.618467 0.54902529 -5.8702434e-19)
(11.667246 0.42849991 0)
(10.112581 0.89237852 0)
(10.18501 0.93287537 1.1954231e-18)
(10.242573 0.98297517 0)
(10.345949 1.0143598 1.227768e-18)
(10.395391 1.0568104 -3.8030979e-18)
(10.495367 1.0578633 3.878253e-18)
(10.555065 1.092443 -1.2898346e-18)
(10.679849 1.0953457 4.0095237e-18)
(10.750674 1.097608 0)
(10.87557 1.0802242 6.8335017e-19)
(10.954144 1.0383296 0)
(11.06804 1.0158023 -1.3728003e-18)
(11.156079 0.94761219 2.7796418e-18)
(11.249714 0.90349871 -9.62814e-21)
(11.330052 0.80610505 -3.516032e-19)
(11.395386 0.7403655 0)
(11.467289 0.61469764 0)
(11.497436 0.5346675 0)
(11.544574 0.4027093 -4.3677387e-20)
(10.133133 0.78481277 4.1672261e-18)
(10.174187 0.83427566 -5.3553211e-18)
(10.235021 0.88391233 2.1697848e-18)
(10.313952 0.91371864 -1.0459145e-20)
(10.366948 0.94701563 0)
(10.470292 0.9589007 -2.2905752e-18)
(10.529574 0.98519011 1.1864674e-18)
(10.643503 0.99311666 -1.1819513e-18)
(10.71173 1.0176614 0)
(10.838876 0.99773972 -6.0365812e-19)
(10.907284 0.98214296 1.2157442e-18)
(11.038645 0.93819625 -1.5926063e-20)
(11.103296 0.88431736 -1.2459944e-18)
(11.219664 0.832828 -2.477036e-18)
(11.277046 0.75709943 2.1799633e-18)
(11.361043 0.69501158 -1.2459022e-18)
(11.405138 0.59421953 7.816446e-19)
(11.458033 0.51808944 1.5627687e-19)
(11.48342 0.39813361 3.8334325e-20)
(10.11548 0.67683528 -6.5355274e-18)
(10.145002 0.73261416 3.826723e-18)
(10.227035 0.76174475 0)
(10.271569 0.80950564 -4.9371229e-18)
(10.336879 0.84080102 4.054703e-18)
(10.410242 0.86135148 1.0286671e-18)
(10.476572 0.88240996 3.1183503e-18)
(10.572678 0.88643948 -2.124578e-18)
(10.635566 0.91086567 -2.6618301e-18)
(10.748242 0.89976937 1.6307233e-18)
(10.810657 0.90014882 2.1639987e-18)
(10.925489 0.86363753 -3.2938347e-18)
(10.983154 0.83835459 2.2011711e-18)
(11.099301 0.77852844 -5.6175022e-19)
(11.147101 0.72745142 2.7222426e-19)
(11.248367 0.64656212 -5.0933158e-21)
(11.275787 0.56505487 -6.9237123e-19)
(11.347976 0.47739512 -1.3701737e-19)
(11.35847 0.3754864 -3.4513993e-20)
(10.130342 0.58392197 2.5076535e-18)
(10.167893 0.63709081 3.3864807e-18)
(10.222207 0.67506694 -3.4763735e-18)
(10.25556 0.71830163 8.8362138e-19)
(10.333121 0.74470394 -2.6779807e-18)
(10.383151 0.77960125 2.7568515e-18)
(10.467845 0.79555905 9.2004874e-19)
(10.527399 0.82108543 -4.695711e-18)
(10.616967 0.83434428 3.3188366e-18)
(10.707435 0.83622884 -1.4505435e-18)
(10.775719 0.83636998 0)
(10.883614 0.79862979 -4.8815897e-19)
(10.945702 0.77333565 -1.4618978e-18)
(11.052271 0.71663356 5.0258731e-19)
(11.103852 0.6854758 1.4763359e-18)
(11.196839 0.61193241 4.8856714e-19)
(11.224388 0.55825129 -9.8065025e-19)
(11.290498 0.4613931 2.4683634e-19)
(11.287207 0.37922971 2.7416084e-19)
(10.088715 0.49372464 -3.6977595e-18)
(10.125979 0.5331377 3.0318513e-18)
(10.176268 0.57147402 0)
(10.220376 0.61555587 -7.8325374e-19)
(10.280843 0.64234582 3.1810269e-18)
(10.32877 0.6782444 -6.4828507e-18)
(10.397023 0.69455747 8.5252243e-19)
(10.44685 0.72239155 3.3535969e-18)
(10.541749 0.73290227 2.5318885e-18)
(10.601888 0.75805036 -4.261489e-19)
(10.70073 0.74864808 0)
(10.780051 0.73390216 2.1417845e-18)
(10.860068 0.70193438 -8.7441859e-19)
(10.940646 0.6595773 8.6683186e-19)
(11.012864 0.61928629 -1.3062069e-18)
(11.098961 0.56013886 -2.1807624e-19)
(11.146048 0.513249 0)
(11.219954 0.42807573 0)
(11.231029 0.36600982 -2.70604e-20)
(10.12017 0.42107221 6.33251e-19)
(10.157567 0.45584269 -6.0552137e-18)
(10.192537 0.49987543 2.7265209e-18)
(10.237025 0.53810941 -3.4875297e-18)
(10.280522 0.56876724 -7.0617171e-19)
(10.336014 0.60268863 0)
(10.397042 0.61877591 -3.6264019e-18)
(10.459411 0.64158298 2.2257707e-18)
(10.537371 0.65264231 -7.4671534e-19)
(10.590906 0.68189413 -2.2934936e-21)
(10.681878 0.6801537 0)
(10.738587 0.68734171 0)
(10.825941 0.6556127 -3.8045852e-19)
(10.879217 0.62536577 -3.8120819e-19)
(10.960378 0.5740203 1.9073635e-19)
(11.005551 0.53176873 1.147218e-18)
(11.072487 0.47213996 -7.6889816e-19)
(11.116956 0.41239058 9.6049182e-20)
(11.155854 0.34619393 2.3640901e-20)
(10.08745 0.34563534 4.0807406e-18)
(10.115683 0.3793853 -4.1777204e-18)
(10.148929 0.41155121 0)
(10.187648 0.44488746 6.1551319e-19)
(10.220207 0.48169557 0)
(10.272209 0.51364726 6.3625005e-19)
(10.319869 0.54375004 6.4485894e-19)
(10.387009 0.56536602 0)
(10.446228 0.5783765 3.275994e-18)
(10.518301 0.59421338 -2.3354528e-18)
(10.597541 0.5915212 1.6650596e-18)
(10.670953 0.60054507 -1.3496407e-18)
(10.758767 0.58217416 1.3419318e-18)
(10.824615 0.56660864 -1.2378031e-20)
(10.907498 0.52242998 -1.3581593e-18)
(10.950441 0.48722811 -1.6816597e-19)
(11.022179 0.42377721 -1.6953485e-19)
(11.048484 0.3798716 -8.3828268e-20)
(11.100492 0.30873107 0)
(10.115338 0.28538039 4.6660022e-18)
(10.140581 0.31649004 0)
(10.171318 0.34421202 0)
(10.207868 0.37714221 5.4533806e-19)
(10.247066 0.40087295 0)
(10.291265 0.43131954 -5.6024555e-19)
(10.331202 0.46423225 -5.6729537e-19)
(10.388032 0.49254503 -2.2897807e-18)
(10.432975 0.51671605 2.3299897e-18)
(10.496895 0.53274172 0)
(10.547073 0.5368726 -2.6377176e-18)
(10.617498 0.54143657 2.0800738e-18)
(10.682672 0.52910538 1.18178e-18)
(10.753906 0.51724729 -2.378741e-18)
(10.821178 0.48573158 2.3804946e-18)
(10.877164 0.4564467 -1.7870626e-18)
(10.938343 0.40334147 5.9489076e-19)
(10.973374 0.36345291 0)
(11.022312 0.2962406 0)
(10.088388 0.22847121 7.3278801e-18)
(10.100312 0.26110986 -3.7356249e-18)
(10.126735 0.28383948 3.7808127e-18)
(10.156249 0.31388946 -4.3386108e-18)
(10.188164 0.33374493 -3.8940074e-18)
(10.226913 0.36002013 3.9684076e-18)
(10.272454 0.38480201 1.9960224e-18)
(10.327742 0.41190483 -1.4195617e-20)
(10.383852 0.43863974 -2.0498235e-18)
(10.447265 0.45697985 0)
(10.504432 0.46503806 0)
(10.574706 0.46940227 2.5920724e-19)
(10.630907 0.46394473 0)
(10.709574 0.45173916 1.0407014e-18)
(10.763082 0.42834913 -1.0495266e-18)
(10.830725 0.3976885 -5.2085396e-19)
(10.878573 0.35784685 6.5347831e-19)
(10.926525 0.31899172 -3.2539351e-19)
(10.963999 0.26245328 2.5980033e-19)
(10.100472 0.18728231 0)
(10.115569 0.20791973 0)
(10.144683 0.2288499 3.3368589e-18)
(10.162427 0.2526756 -3.4006156e-18)
(10.191929 0.27557741 3.862426e-18)
(10.220333 0.30302469 -3.9294583e-18)
(10.259254 0.3209811 0)
(10.30076 0.34803025 4.4556194e-19)
(10.349451 0.37242266 1.7884529e-18)
(10.405228 0.39445623 -1.8141387e-18)
(10.462158 0.40945683 1.8109099e-18)
(10.527206 0.41908368 -1.4279708e-20)
(10.585072 0.41660043 -3.661203e-18)
(10.656496 0.40956991 1.8403598e-18)
(10.710638 0.3921955 0)
(10.773079 0.36608107 -9.1358528e-19)
(10.816184 0.33417363 1.4318716e-18)
(10.870314 0.2951845 -6.291056e-19)
(10.899606 0.24728767 2.2780856e-19)
(10.066254 0.1519823 1.1073721e-17)
(10.089577 0.1635866 -5.8151374e-18)
(10.107704 0.18072727 0)
(10.137884 0.19793311 -3.7372612e-19)
(10.163595 0.21773254 -3.7799176e-19)
(10.194302 0.237977 3.8245896e-19)
(10.231949 0.26000193 0)
(10.268052 0.28237806 -3.8999993e-19)
(10.318427 0.3009799 3.1392098e-18)
(10.364044 0.31754294 -3.181228e-18)
(10.42073 0.33117456 0)
(10.480934 0.34327034 0)
(10.542191 0.34904495 2.0086943e-19)
(10.604562 0.34719764 1.0057058e-19)
(10.664328 0.33676508 -1.0059841e-19)
(10.723913 0.31864725 0)
(10.774196 0.28953575 -4.4958552e-19)
(10.822778 0.26023536 4.0087729e-19)
(10.858199 0.21785536 0)
(10.069464 0.12115004 -1.0077288e-17)
(10.085057 0.13303413 1.0546009e-17)
(10.10143 0.14494917 -1.7698434e-20)
(10.124063 0.15422731 -4.9355953e-18)
(10.142159 0.17115343 0)
(10.176267 0.18640965 2.6826503e-18)
(10.200348 0.21090804 -5.6016684e-18)
(10.247503 0.23088819 2.7473391e-18)
(10.282823 0.25292442 0)
(10.331908 0.27009932 -2.7674926e-18)
(10.379843 0.28102831 2.7991459e-18)
(10.43411 0.29048409 1.3944786e-18)
(10.493565 0.29605743 -1.4065193e-18)
(10.552777 0.29454466 1.2232167e-18)
(10.613089 0.28722882 -1.3206163e-18)
(10.667514 0.27160832 0)
(10.722427 0.24911827 -4.3870715e-20)
(10.769642 0.22186799 -1.3062987e-19)
(10.812567 0.18527623 1.8516727e-19)
(10.061028 0.087771432 2.7709673e-19)
(10.074393 0.097366849 -5.621829e-19)
(10.09778 0.11041154 4.5497509e-18)
(10.111424 0.12218246 2.7245365e-19)
(10.137818 0.12744843 -3.1028581e-19)
(10.161338 0.13945656 -4.7261886e-18)
(10.187917 0.15090613 1.4857326e-19)
(10.228637 0.16745649 2.5425161e-18)
(10.259515 0.18774618 -2.4221358e-18)
(10.309093 0.20457016 -1.5199795e-19)
(10.347676 0.22228488 0)
(10.40207 0.23144761 2.5912114e-18)
(10.450079 0.24272455 -2.6116656e-18)
(10.509161 0.24262913 -1.1456613e-18)
(10.566831 0.2440217 8.4588172e-20)
(10.624467 0.23365202 1.8384239e-18)
(10.675424 0.21740988 -5.7467655e-19)
(10.724993 0.19817246 -5.7108183e-20)
(10.763189 0.16661393 -9.4629555e-21)
(10.037998 0.063516308 0)
(10.052051 0.071269784 2.4679638e-19)
(10.067024 0.078679586 3.9947557e-18)
(10.087112 0.089020054 -4.4332978e-18)
(10.109254 0.09795071 4.2109846e-18)
(10.127937 0.10720387 -4.1393937e-18)
(10.157313 0.11791419 1.3037003e-19)
(10.184898 0.12836085 -1.3097934e-19)
(10.223799 0.14132271 1.9727747e-18)
(10.265924 0.15256539 -1.9950595e-18)
(10.313658 0.16329752 1.9882642e-18)
(10.368279 0.17213079 -2.2066521e-18)
(10.4233 0.17711187 0)
(10.483916 0.17803483 1.0643456e-18)
(10.536553 0.17480982 -1.2038975e-18)
(10.596318 0.16732975 5.3159767e-19)
(10.647791 0.15343432 -5.001319e-19)
(10.701283 0.13801717 -2.319134e-19)
(10.741469 0.11372723 2.6899853e-19)
(10.032902 0.0369001 -1.0345128e-20)
(10.046554 0.044870171 -6.9390243e-18)
(10.058092 0.049292942 1.0971037e-19)
(10.080226 0.057029492 -1.9283524e-22)
(10.098664 0.063929378 1.1184214e-19)
(10.121803 0.071431324 0)
(10.148319 0.078621512 3.6358016e-18)
(10.17372 0.087533044 -3.7917153e-18)
(10.208541 0.098492642 1.1507374e-19)
(10.24182 0.10857857 -1.789118e-18)
(10.281131 0.12159856 3.7741963e-18)
(10.325329 0.13019133 -3.7238185e-18)
(10.3718 0.14112833 1.8696351e-18)
(10.429144 0.14366445 0)
(10.488401 0.14856965 -8.9843618e-19)
(10.548134 0.14693993 9.3126874e-19)
(10.604996 0.13942174 -1.4397796e-20)
(10.656287 0.13298431 4.3690218e-23)
(10.700239 0.11347394 -3.5879018e-21)
(10.01321 0.020522185 6.0513194e-18)
(10.02224 0.024092887 -6.0705444e-18)
(10.037374 0.027035583 6.0557793e-18)
(10.055481 0.029721109 9.6936384e-20)
(10.075223 0.032292476 0)
(10.09976 0.033838138 0)
(10.124059 0.037196823 -4.9497299e-20)
(10.153821 0.040249378 -3.1419933e-18)
(10.18649 0.042967499 3.2735207e-18)
(10.222887 0.046927223 3.1906059e-18)
(10.266045 0.049752249 -1.5554906e-18)
(10.31075 0.053447738 -1.6990938e-18)
(10.363153 0.05653543 0)
(10.416996 0.055439265 2.5328992e-20)
(10.473169 0.053965184 2.5210679e-20)
(10.533203 0.048572941 7.9091511e-19)
(10.592772 0.046114258 -8.1840549e-19)
(10.645923 0.043416024 1.8137e-19)
(10.690671 0.029917685 -1.9997626e-19)
(10.00956 0.005446794 -4.0772764e-20)
(10.015944 0.0083448138 5.257815e-18)
(10.026419 0.012656428 -7.5811955e-21)
(10.040485 0.017353223 -1.0673814e-20)
(10.058027 0.022050533 -5.429833e-18)
(10.079139 0.026671758 0)
(10.104178 0.031116642 2.7034972e-18)
(10.133669 0.035396039 -2.7298286e-18)
(10.167847 0.039300645 -4.3287086e-20)
(10.2069 0.042337823 -2.1701852e-20)
(10.250719 0.044337631 -2.1734227e-20)
(10.298946 0.044843439 2.1742263e-20)
(10.35135 0.044274832 0)
(10.402063 0.043769083 1.3674323e-18)
(10.452854 0.047545552 -1.3996975e-18)
(10.503603 0.044609033 -6.8484068e-19)
(10.550744 0.051667775 6.9919186e-19)
(10.611659 0.054299244 3.5254321e-19)
(10.647284 0.045555415 -3.4686296e-19)
(12.532157 0.32806842 -1.2011635e-19)
(12.558037 0.11782509 -4.8210782e-19)
(12.507852 -0.025226237 4.7084281e-19)
(12.493068 -0.22373392 0)
(12.415537 -0.35207397 -8.7298215e-19)
(12.357797 -0.52102358 -1.6941936e-18)
(12.268871 -0.64873771 0)
(12.16726 -0.79394615 -2.8749943e-20)
(12.083045 -0.93033637 2.8967332e-18)
(11.92157 -1.0310206 1.3974156e-18)
(11.852819 -1.1961261 -1.317437e-18)
(11.664014 -1.2394564 2.5091019e-18)
(11.53172 -1.4285615 -2.3505337e-18)
(11.350518 -1.4458298 0)
(11.122922 -1.5914786 1.1000255e-18)
(10.964621 -1.673666 -1.0088095e-18)
(10.70326 -1.7126675 -1.9958374e-18)
(10.490151 -1.8641541 1.8729336e-18)
(10.234881 -1.8172103 -8.9298658e-19)
(12.427703 0.33096173 -1.0488077e-19)
(12.440867 0.10854718 6.261505e-19)
(12.387765 -0.039577558 -4.105526e-19)
(12.377778 -0.24989115 0)
(12.286283 -0.37869528 -7.7810849e-19)
(12.243076 -0.56499037 2.2378638e-18)
(12.12386 -0.6810404 0)
(12.039928 -0.83385002 0)
(11.901653 -0.9457766 0)
(11.759064 -1.055995 0)
(11.630133 -1.1726927 2.3740987e-18)
(11.456048 -1.2245973 -3.4253716e-18)
(11.298745 -1.3438601 -3.3175865e-18)
(11.107982 -1.3510794 2.0669986e-18)
(10.868005 -1.4401277 -1.9998374e-18)
(10.694245 -1.4445748 1.9599326e-18)
(10.421753 -1.472599 -1.5335216e-20)
(10.257892 -1.4930947 -1.7603306e-18)
(9.9877773 -1.4460521 1.7564835e-18)
(12.339834 0.3509656 0)
(12.332431 0.14600852 -3.6889887e-19)
(12.291857 -0.0094381971 -7.1974922e-19)
(12.25384 -0.20623143 -3.7639347e-21)
(12.156622 -0.33884257 -9.4689755e-21)
(12.096258 -0.52204067 1.3458385e-18)
(11.962174 -0.6375932 -2.554775e-18)
(11.87521 -0.79218247 1.214906e-18)
(11.725639 -0.88711568 2.5703294e-20)
(11.582993 -1.0038236 0)
(11.433526 -1.0813823 3.2705696e-18)
(11.261729 -1.1515208 1.9367745e-20)
(11.107949 -1.199898 2.0042965e-18)
(10.899767 -1.2190903 1.9615096e-18)
(10.711034 -1.235423 2.7880261e-18)
(10.467549 -1.2179606 -3.5183448e-18)
(10.232825 -1.1987969 -4.9336437e-20)
(10.023812 -1.12908 3.2931062e-18)
(9.7986238 -1.0614562 1.6852875e-18)
(12.226332 0.30086405 3.2152728e-19)
(12.21915 0.10531883 -6.4180281e-19)
(12.188024 -0.056982113 9.4448891e-19)
(12.139158 -0.23588924 0)
(12.064911 -0.37705368 1.8028096e-18)
(11.978364 -0.5376879 -2.918142e-18)
(11.858508 -0.6558512 2.2701282e-18)
(11.742041 -0.78103692 -6.3617839e-21)
(11.583836 -0.87413915 2.891942e-20)
(11.446683 -0.9554573 -1.0376312e-18)
(11.266864 -1.0105812 0)
(11.098285 -1.0552989 -9.3647601e-19)
(10.928262 -1.0505133 9.5971131e-19)
(10.727971 -1.0687952 -1.740762e-18)
(10.569167 -1.0058114 0)
(10.321073 -0.97451931 0)
(10.146751 -0.87270639 -1.568367e-18)
(9.8956487 -0.76538827 0)
(9.7239932 -0.62827569 1.512142e-18)
(12.126342 0.33583551 2.8014135e-19)
(12.113567 0.13915769 -2.7840308e-19)
(12.08157 -0.024123501 5.2280684e-21)
(12.019548 -0.20254135 -5.3934561e-19)
(11.932854 -0.34553517 5.1858651e-19)
(11.835456 -0.49652588 -3.1996645e-21)
(11.717696 -0.60512106 -9.9900961e-19)
(11.581932 -0.71752229 0)
(11.429745 -0.79560836 -1.8986525e-18)
(11.291617 -0.84979978 9.0797657e-19)
(11.11764 -0.89064484 0)
(10.971698 -0.888516 0)
(10.789051 -0.87879629 -1.6451733e-18)
(10.626458 -0.84084736 -1.6350402e-18)
(10.473644 -0.75193271 1.580497e-18)
(10.275845 -0.68797709 3.056731e-18)
(10.148633 -0.5167161 1.5390241e-18)
(9.9209537 -0.40377824 -1.3737025e-18)
(9.8444496 -0.16311621 -2.2271067e-20)
(12.055614 0.29517189 0)
(12.042907 0.11191501 2.4462782e-19)
(12.002744 -0.050936885 -1.1995399e-18)
(11.926193 -0.21511594 4.7436771e-19)
(11.846726 -0.35006957 1.394831e-18)
(11.736928 -0.4882754 -9.2445749e-19)
(11.609907 -0.58194935 -1.7990158e-18)
(11.472657 -0.67650531 1.7251749e-18)
(11.310435 -0.72540361 -8.773238e-19)
(11.152997 -0.76835711 1.6342227e-18)
(10.994335 -0.76311813 0)
(10.82689 -0.74911694 0)
(10.676851 -0.6966606 -1.5280324e-18)
(10.511228 -0.61567815 4.409603e-18)
(10.405481 -0.51841269 -5.6466019e-18)
(10.246643 -0.37890914 2.7191825e-18)
(10.205626 -0.20649288 -5.3346073e-18)
(10.018824 -0.052560282 1.2711658e-18)
(10.044466 0.21608298 2.475897e-18)
(11.925025 0.31249815 5.3589016e-20)
(11.915193 0.13807055 2.1405561e-19)
(11.867082 -0.030443421 -4.1797855e-19)
(11.809969 -0.1870621 0)
(11.726183 -0.3276721 -8.2310647e-19)
(11.613497 -0.44435122 2.4123857e-18)
(11.495918 -0.53558712 -1.5629783e-18)
(11.357594 -0.60109416 7.8029027e-19)
(11.211886 -0.64023398 -1.5277125e-18)
(11.059892 -0.65206247 4.4449005e-18)
(10.920711 -0.62527526 -2.8467783e-18)
(10.767263 -0.586474 0)
(10.652869 -0.49557216 1.3463157e-18)
(10.494907 -0.41414858 2.6696959e-18)
(10.435964 -0.26480866 -3.8059576e-18)
(10.305395 -0.12340832 3.7482602e-18)
(10.32889 0.065806468 -3.6029692e-18)
(10.216578 0.26996206 -2.3623035e-18)
(10.335211 0.52773567 -1.165595e-18)
(11.856042 0.2838084 1.3914509e-19)
(11.853194 0.12953303 1.8479451e-19)
(11.81091 -0.040505064 -3.6458631e-19)
(11.7385 -0.18477698 0)
(11.640212 -0.31092898 1.429579e-18)
(11.516453 -0.41050758 -7.1229522e-19)
(11.391079 -0.48876742 0)
(11.246798 -0.53201344 -1.3669319e-18)
(11.108154 -0.56151966 6.7765794e-19)
(10.960423 -0.53700321 0)
(10.841661 -0.5077946 -1.2965354e-18)
(10.711152 -0.4243125 1.2638579e-18)
(10.624306 -0.34079622 1.2294077e-18)
(10.523193 -0.21036305 -2.3922812e-18)
(10.494763 -0.05827653 2.2794784e-18)
(10.431939 0.096263596 -1.1061802e-18)
(10.500176 0.30625584 -1.0781684e-18)
(10.489672 0.49882213 -1.0374658e-18)
(10.707949 0.73691724 -9.9793137e-19)
(11.731536 0.28741246 3.2194339e-19)
(11.731165 0.13967762 -1.5923532e-19)
(11.68052 -0.031585253 0)
(11.62175 -0.16562614 0)
(11.541597 -0.28441559 -1.2521376e-18)
(11.428452 -0.37487927 1.2392703e-18)
(11.319784 -0.43750603 0)
(11.181688 -0.46193855 5.9815819e-19)
(11.054105 -0.46946152 -5.8873495e-19)
(10.930479 -0.42396779 0)
(10.827162 -0.38368496 1.1328771e-18)
(10.720228 -0.27233555 1.7142574e-20)
(10.6618 -0.19064521 1.4587401e-20)
(10.616823 -0.022315544 0)
(10.631533 0.086576943 -4.1328123e-18)
(10.648385 0.28991372 3.947453e-18)
(10.77096 0.41660548 4.8125084e-18)
(10.848403 0.60070054 -6.4664403e-18)
(11.159318 0.76151881 4.4356967e-18)
(11.668346 0.28985647 0)
(11.674774 0.13498486 2.1972722e-21)
(11.608345 -0.031534161 0)
(11.546654 -0.14101808 0)
(11.44445 -0.25441804 5.4312457e-19)
(11.327626 -0.326935 9.3016463e-21)
(11.205498 -0.37598016 -5.4298018e-19)
(11.077872 -0.38500606 -1.6152639e-18)
(10.970998 -0.37835834 2.080121e-18)
(10.867631 -0.32048476 0)
(10.786969 -0.26134598 -1.0199802e-18)
(10.731581 -0.14036959 -5.9790681e-18)
(10.713822 -0.057885989 2.8742444e-18)
(10.731943 0.1017126 0)
(10.78763 0.1831471 -3.6632553e-18)
(10.896405 0.37319755 4.3894609e-18)
(11.050643 0.39240166 -3.4154957e-18)
(11.247878 0.56305643 4.0880622e-18)
(11.561069 0.49999337 0)
(11.547147 0.29161806 -2.4338505e-19)
(11.551729 0.1216163 1.2232957e-19)
(11.498307 -0.015506145 0)
(11.451458 -0.12743922 -9.6866529e-19)
(11.364225 -0.23493559 1.4338231e-18)
(11.272358 -0.28355248 -4.7208222e-19)
(11.156103 -0.32065767 -1.4406218e-18)
(11.049691 -0.31974569 3.2825681e-18)
(10.957523 -0.29568334 -1.8329757e-18)
(10.874778 -0.22489573 0)
(10.818939 -0.15914563 8.8933685e-19)
(10.810238 -0.050948961 5.2811326e-18)
(10.820387 0.025917502 -3.3944261e-18)
(10.897985 0.14674843 0)
(10.978382 0.20497966 0)
(11.170325 0.30640974 -1.5573594e-18)
(11.308941 0.25553747 7.4994682e-19)
(11.601463 0.2922804 -2.165091e-18)
(11.76834 0.058387485 0)
(11.508051 0.29358864 -2.11404e-19)
(11.492985 0.12412468 6.3402086e-19)
(11.432588 0.012193818 -6.3109602e-19)
(11.368448 -0.11421724 0)
(11.275371 -0.19309553 1.2707207e-18)
(11.190082 -0.23757585 -1.6518146e-18)
(11.08909 -0.26592617 0)
(10.996173 -0.25424325 8.2678922e-19)
(10.914546 -0.21208048 8.1756678e-19)
(10.869206 -0.14662831 0)
(10.849474 -0.085905411 0)
(10.884093 -0.00072595016 -7.6833013e-19)
(10.925983 0.061822495 -2.2713384e-18)
(11.052575 0.12721287 -2.492072e-20)
(11.150229 0.13671614 2.1187345e-18)
(11.370443 0.12194417 1.3716103e-18)
(11.464328 0.016861843 -6.6270867e-19)
(11.736334 -0.10596531 1.2735049e-18)
(11.729669 -0.41262493 0)
(11.414678 0.27248441 0)
(11.3968 0.12641089 -7.3476315e-19)
(11.380361 0.021497008 1.4611679e-18)
(11.304443 -0.10290932 -1.0933251e-18)
(11.231852 -0.16300948 0)
(11.134109 -0.21034982 0)
(11.057632 -0.21418857 0)
(10.980785 -0.19546443 -7.1450724e-19)
(10.921621 -0.15147643 -7.0810951e-19)
(10.903837 -0.10565333 0)
(10.911267 -0.049191587 -6.9369722e-19)
(10.972217 -0.0017931833 -6.7902457e-19)
(11.036216 0.032809827 -6.5928329e-19)
(11.178387 0.025434049 2.5771115e-18)
(11.264143 -0.018019515 -2.4857188e-18)
(11.450707 -0.14111758 -6.0330344e-19)
(11.482198 -0.27126093 3.4893727e-18)
(11.649933 -0.49310063 -5.5907022e-18)
(11.498438 -0.77205493 3.2282782e-18)
(11.334176 0.25420354 -4.0016524e-20)
(11.296634 0.14149296 7.9937951e-20)
(11.301995 0.02692125 7.9565897e-19)
(11.222887 -0.075672263 -1.9129637e-18)
(11.170158 -0.12962643 9.4112516e-19)
(11.082811 -0.17290716 0)
(11.022877 -0.16517659 0)
(10.962607 -0.14612432 6.3115105e-19)
(10.938461 -0.11080388 -2.5092655e-18)
(10.94535 -0.084725162 -6.5038449e-19)
(10.976896 -0.043863087 5.754085e-19)
(11.045209 -0.039488069 2.952163e-18)
(11.122988 -0.036773832 5.7892164e-19)
(11.246929 -0.1199416 0)
(11.296519 -0.20131245 1.6394543e-18)
(11.411838 -0.38894663 0)
(11.361348 -0.5200352 -3.0721454e-18)
(11.408264 -0.77047938 8.8900808e-18)
(11.168676 -0.95937282 -7.637357e-18)
(11.282474 0.24103058 6.8945879e-20)
(11.244644 0.14427894 -6.8486683e-20)
(11.246175 0.016769062 0)
(11.164958 -0.065060876 -8.3573793e-19)
(11.123287 -0.11688899 2.5821863e-19)
(11.040884 -0.14443167 1.0943346e-18)
(10.994455 -0.13051778 0)
(10.952779 -0.12162523 -2.7502807e-18)
(10.949519 -0.10327292 1.610963e-18)
(10.96388 -0.091360687 -3.3425232e-21)
(11.010916 -0.074432244 0)
(11.068021 -0.11362589 0)
(11.14259 -0.15264154 -5.0526039e-19)
(11.205802 -0.29136477 0)
(11.216915 -0.38564107 4.5834572e-22)
(11.233266 -0.59941908 9.305451e-19)
(11.126031 -0.69681927 -2.7083824e-18)
(11.070478 -0.91575086 6.9842162e-18)
(10.778551 -1.0060453 -3.3838333e-18)
(11.191889 0.2460233 2.0937055e-19)
(11.180978 0.15122554 -1.7876595e-19)
(11.177807 0.020963941 0)
(11.111958 -0.034256888 0)
(11.081808 -0.090327495 0)
(11.010377 -0.11340165 0)
(10.986692 -0.10865697 -1.9277075e-18)
(10.967222 -0.11290652 1.8759808e-18)
(10.976671 -0.10540297 2.3491728e-18)
(10.992463 -0.11231002 -9.1926657e-19)
(11.051525 -0.12539324 0)
(11.079515 -0.20082507 3.6182536e-18)
(11.132051 -0.27447036 -6.621387e-18)
(11.126992 -0.43074758 3.4410679e-18)
(11.099025 -0.51767357 -4.200461e-18)
(11.025463 -0.71801875 2.4467548e-18)
(10.897132 -0.75024633 -7.9371975e-19)
(10.75673 -0.92337402 -7.7233396e-19)
(10.468911 -0.88552105 7.4809279e-19)
(11.113352 0.23533006 2.0694681e-19)
(11.1444 0.11890462 -6.7305428e-19)
(11.109237 0.028845876 4.1265553e-19)
(11.076809 -0.025267303 -8.3418766e-19)
(11.029109 -0.090279435 8.2546844e-19)
(10.977105 -0.094425965 0)
(10.957443 -0.10866784 -4.1687534e-19)
(10.943169 -0.11918281 1.6529369e-18)
(10.962788 -0.12260735 -1.6172058e-18)
(10.968528 -0.14823942 -4.0305551e-19)
(11.023223 -0.19885925 -3.2034099e-18)
(11.011164 -0.29231117 3.1364599e-18)
(11.028018 -0.38604602 -3.8484911e-19)
(10.947458 -0.52771083 2.2643455e-18)
(10.883494 -0.59538864 -2.2012548e-18)
(10.730444 -0.73905581 0)
(10.605745 -0.7105328 -5.6036523e-18)
(10.423777 -0.80824547 6.1173421e-18)
(10.213438 -0.67172043 0)
(11.046665 0.23048253 -3.5799416e-19)