/*--------------------------------*- C++ -*----------------------------------*\
  =========                 |
  \\      /  F ield         | OpenFOAM: The Open Source CFD Toolbox
   \\    /   O peration     | Website:  https://openfoam.org
    \\  /    A nd           | Version:  11
     \\/     M anipulation  |
\*---------------------------------------------------------------------------*/
FoamFile
{
    format      ascii;
    class       volScalarField;
    location    "0.3592352";
    object      p;
}
// * * * * * * * * * * * * * * * * * * * * * * * * * * * * * * * * * * * * * //

dimensions      [0 2 -2 0 0 0 0];

internalField   nonuniform List<scalar> 
880
(
80.0000000000004
80.00000016385775
80.0134565727149
81.88034041466594
80.00000000017729
80.0000004813165
80.01669039872083
82.76388784026064
80.00000000090172
80.00000187777135
80.0308948689666
83.82257709750075
80.0000000120275
80.0000082456727
80.0638092241348
85.407542722939
79.9999999446778
80.00000002780087
80.00000611598318
80.00009435549133
80.00003799617647
80.00014606272987
80.00091099715779
80.00134649133291
80.14459784989971
80.23457333314721
80.38548749425895
80.53778579604366
88.34435925880902
91.3955892253849
94.00065216409594
95.23496633977405
80.00023343531166
80.00190270425485
80.00718962881045
80.02228088482812
80.0126241690371
80.05407587028563
80.10847681243222
80.22875581677158
81.27049490162247
81.90766285671181
82.71481566599266
83.76511912539259
96.38506718370974
97.95087526202815
98.27348297731861
97.50849164171552
90.98665334757703
87.50957078819002
85.83751665017721
84.74259044643181
85.69173996404152
86.37140903423008
86.77396322067901
86.80858791596798
80.63879762372858
81.12353732476743
81.63899960377583
82.02323092007236
80.07908807438611
80.19128742777998
80.36115815705747
80.59965701621681
80.87775328058139
81.15708343591085
81.43361918865003
81.64004291921304
82.31285340526958
82.48080900787042
82.56760480470912
82.57334592435961
86.44906107922488
85.94967915196403
85.29454914305492
84.61630417242178
83.58709959977769
82.89854964595814
82.50699067184547
82.07914218349288
82.08344788463376
84.14366078081619
82.52050195316561
81.76636424089025
87.74220856307151
83.86378039933206
82.36950116253622
81.74665509976869
120.5567883600848
85.26202500776049
82.18750668260013
81.4945584777154
158.3474263357231
93.0575286270174
82.67018013873995
81.40186170932269
81.3729375049986
83.39320661014135
102.7712507727248
175.0764801743588
80.87268729827532
84.7515531643843
113.734063187495
174.2793806095989
81.08510166740612
87.90144188118977
128.3723785299363
176.1372784426056
81.89135540638746
93.58544933163395
142.270722078307
173.412826250747
167.7074888345705
149.9506588919867
102.2396209559875
83.66776092644271
160.7384390594684
151.1909423610589
111.8296798662757
86.84016848710533
153.3432014188104
148.9209197468941
120.1254517096936
91.94263954833276
145.6347187865959
138.9088010164516
121.4586901474356
98.31226413033366
103.9487673390475
117.363850472481
126.567648336641
136.6078124122267
103.1374965890365
109.2148185609127
113.4276121334348
123.6649333766898
100.8366164986258
101.4842570564036
100.6813438175007
107.3274219646
97.84648271628144
95.22408152807009
89.17513503724804
88.30752642400203
95.46829613401775
89.32755508687981
78.72375364129682
66.3956539507915
91.68564857891246
83.96082535295565
69.93168068766795
43.06377934500899
88.80541929882709
81.54220875922707
63.23962606529803
26.3939279454622
86.35646308012758
80.46176802373849
58.99111143117475
14.84809829999635
15.60576151238703
60.56917546924371
79.58678747533719
84.17247933574748
24.76323947357923
61.36499761258121
78.99418531888034
82.70509169475193
27.33970505939952
61.04522624086012
78.13600103382433
81.7138250785009
25.83948898956134
60.43857658544775
77.52980357489307
81.17535231602534
31.26909751339279
63.06654857816189
77.20209788718165
80.23974942940531
36.95816471578764
65.60887554430178
77.11657304514962
79.68640198629618
43.59639220292073
68.84971123900226
77.31449191761638
79.66585539093174
51.42002463856291
71.09838551937108
77.69928957031517
79.73914794299451
53.28212092884191
58.94016133897192
73.28918914817639
79.26093537663724
51.93649646140364
60.14529313647029
73.51431108465219
79.25271330414688
49.49655163425782
61.86260598413425
74.01487843087155
79.25461175592916
47.17456539894265
63.82102259688568
74.7320547744352
79.31312470556419
51.42002463855938
71.09838551930457
77.69928957032248
79.73914794267048
43.59639220295517
68.84971123869707
77.31449191750222
79.66585539046446
36.95816471578942
65.60887554408374
77.11657304474797
79.68640198577121
31.26909751344839
63.06654857792257
77.20209788708918
80.23974942909253
84.17247933597527
79.58678747538859
60.56917546922919
15.60576151211518
82.70509169472281
78.99418531884479
61.36499761251795
24.76323947332108
81.71382507853211
78.13600103387604
61.04522624042778
27.33970505933428
81.1753523160464
77.52980357514402
60.43857658533305
25.83948898956028
14.8480983000089
58.99111143108274
80.46176802369911
86.35646308021114
26.39392794534753
63.23962606534111
81.54220875932111
88.80541929887896
43.06377934494385
69.93168068787698
83.96082535297846
91.6856485791628
66.39565395088418
78.7237536411086
89.32755508654647
95.4682961341893
103.9487673392513
117.3638504731405
126.5676483371391
136.6078124121696
103.1374965889221
109.2148185607692
113.4276121336512
123.6649333767675
100.8366164981477
101.4842570562712
100.6813438174694
107.3274219646584
97.84648271616099
95.22408152787493
89.17513503716239
88.30752642416583
145.6347187865986
138.9088010166498
121.4586901478216
98.31226413116448
153.3432014187484
148.9209197470038
120.1254517098637
91.94263954844618
160.7384390595027
151.1909423610056
111.8296798661224
86.84016848735642
167.7074888342948
149.950658892318
102.2396209563512
83.66776092648347
81.37293750493505
83.39320661018394
102.7712507726188
175.0764801740844
80.87268729876278
84.75155316455371
113.734063187491
174.2793806092127
81.08510166815859
87.90144188185087
128.372378530001
176.1372784424786
81.8913554065056
93.5854493315238
142.2707220784347
173.4128262505093
81.40186170933501
81.49455847764695
81.74665510012993
81.76636424095278
82.670180138341
82.18750668235229
82.36950116260749
82.5205019531369
93.05752862656982
85.26202500778984
83.86378039903515
84.14366078070469
158.3474263352493
120.5567883597066
87.74220856315253
82.08344788464142
81.64004291947843
82.57334592446344
84.6163041725942
82.07914218366378
81.43361918837194
82.56760480492269
85.29454914324272
82.50699067194508
81.15708343589978
82.48080900790174
85.94967915187485
82.898549645605
80.8777532803166
82.3128534050678
86.44906107954577
83.5870995998459
80.07908807425505
80.63879762348247
85.6917399642884
90.98665334782039
80.19128742749078
81.12353732436029
86.37140903452247
87.50957078813354
80.36115815735545
81.63899960338772
86.77396322069944
85.83751664967059
80.59965701599491
82.02323091995396
86.80858791629362
84.74259044616645
97.50849164162776
83.76511912546607
80.22875581659079
80.02228088520273
98.2734829772821
82.71481566608061
80.10847681230611
80.00718962877882
97.95087526211918
81.90766285660428
80.05407586956943
80.00190270399348
96.38506718366345
81.27049490140857
80.01262416879565
80.00023343567641
95.23496633964281
80.53778579611749
80.00134649139348
80.00009435594788
94.00065216365265
80.3854874942519
80.0009109969026
80.00000611626987
91.39558922497515
80.23457333310387
80.00014606250302
80.0000000276608
88.34435925846338
80.14459784978425
80.00003799609645
79.99999994537085
80.00000000002807
80.00000016396199
80.01345657271992
81.8803404145352
80.00000000026193
80.00000048100623
80.01669039867292
82.76388784027115
80.00000000110963
80.00000187755403
80.03089486903178
83.82257709777556
80.00000001233936
80.00000824559615
80.06380922418506
85.40754272305969
83.523977438161
85.09526245801933
87.64366640172827
92.78680466518693
85.0952624583105
87.15058386428444
90.99714995635351
98.69100633925635
87.64366640185078
90.99714995636585
97.31191186103004
106.8207715733705
92.7868046652475
98.69100633906982
106.8207715736651
117.1819345463367
127.9923787848157
119.0251473678139
115.1013025036748
106.8655371720906
126.2796608560374
123.6456034126683
123.6040252743823
119.5300719744552
126.3198053245321
125.4943056021666
125.0506436412687
123.6401002266282
123.7373340976434
123.3302499937877
123.2434473566897
122.3928510162977
119.6767740319124
117.8559332513816
114.251809386676
109.3401072830419
119.9428936658638
118.0397975056709
114.3867902920267
109.8050895896803
120.2785801624256
118.2215681542519
114.3689872131351
110.2399000618481
120.4533602600211
118.1133049858901
114.5207661909494
108.5601451164161
82.83050721617184
71.90504475932781
70.60493093960589
70.98549312762212
75.82087313135062
69.03044131234986
69.65707986156448
70.38173920654202
69.99731659574118
68.89584720012427
70.22944945071632
70.92989715630186
60.73660933443202
66.59797569970074
69.23782720744664
70.19843976410449
70.93008883716017
71.29237261018288
72.10774693434458
73.05117014752977
70.47277404634329
70.8509676182137
71.73555693305239
72.92905271975904
70.90451961849523
71.13424568070749
71.87253789247104
72.80678475984799
70.29693049902676
70.61810751879969
71.55370878375761
72.84658746392947
78.67352738766415
114.034646858816
165.070205152934
181.4274420605929
81.36328439487947
121.5213278675907
162.5390038084705
173.2945164380825
83.49433239437765
125.2960926876832
161.3136948850071
171.9957674636756
84.86349477177899
130.7120584273929
161.6590572923732
171.9728145789433
218.1626540882854
209.3376816313785
201.7908464658354
190.5377357357658
219.3305727359275
212.1167103746824
203.9478340944474
192.3782695941003
218.3263928951837
213.6473652555694
205.048266003496
193.4989381424547
213.2096109288298
215.5722861547638
206.9711402413725
195.2369437870361
178.1486464652026
167.8958136696816
158.2747206196678
153.3866592756236
180.1470208007032
169.2803640966454
158.9648765642266
153.759995797705
181.2955104512646
169.489405151689
159.5126584831143
153.7252935027998
183.7018252823799
170.9145118524402
161.1740403760151
154.8235212272685
148.5697508966728
140.6581807418925
126.7741804525153
105.8850763769337
149.2635459472298
142.1818523847417
128.8939491959255
114.3600019255211
149.207891713838
142.6097219240535
130.6897762165655
119.6674798782463
150.3700458545975
144.9548620231996
134.0436714040882
134.5834624313583
64.62303743041223
16.54900693074846
2.690620047447686
1.283616485902994
49.95164437013256
10.39447539073363
2.242196470764213
1.464418327201423
34.73868748438057
6.571958309671659
1.963436829484378
1.620818497603511
19.55113845685619
3.061008836773335
1.726206209713904
1.81327660462245
1.929257691140444
4.153553379084616
6.785782942796409
10.67161283072899
2.736371262806991
5.087921101423115
7.800737330481722
11.94484626897605
3.199580981845369
5.473011600639691
8.646020993655192
12.64696642976087
3.753886010764069
6.199494547622263
10.09296411801018
13.79309839125136
12.51726729943783
18.94030302170647
26.03305411950016
34.7410835575678
12.12982565009852
17.87734331522116
24.72002654253783
33.23101625365471
12.44053449036495
16.35110692512531
22.87554177160988
32.23959544765988
11.6954946287893
14.46081012679408
19.06073002678085
30.28220565537301
35.03390662555931
33.20776682451716
32.54790829273791
33.17743299137999
31.86524963079565
31.78647046773258
32.24761208152685
32.3537697063604
31.01255895421341
32.65718579379207
32.98672365372357
33.02248452189379
29.23680364795642
31.45587857735929
31.77609853043031
32.50251802643572
32.92046170740285
33.23140650552368
33.49141775262109
33.61797307960432
32.97863247564734
32.9362377093653
32.84476101957272
32.9509623000494
32.9285613372363
33.39768576162349
33.83632949692048
34.09497779286421
34.7514645563384
35.80220442471939
36.54013085526647
36.54222425152727
33.61797307960619
32.95096230003082
34.09497779288686
36.54222425153186
33.49141775264678
32.84476101957252
33.83632949693135
36.54013085527201
33.231406505501
32.93623770937862
33.39768576165515
35.80220442475633
32.92046170745375
32.97863247563008
32.92856133724923
34.75146455638458
33.17743299147038
32.5479082927524
33.20776682457507
35.0339066255925
32.35376970638515
32.24761208157501
31.78647046778974
31.86524963083342
33.02248452192956
32.98672365378885
32.65718579384336
31.01255895427034
32.50251802644431
31.77609853045912
31.45587857739354
29.23680364800719
30.28220565546812
19.06073002690285
14.46081012689519
11.69549462887504
32.23959544773771
22.87554177169893
16.35110692523207
12.44053449047628
33.23101625373284
24.7200265426521
17.87734331533471
12.12982565019616
34.74108355763036
26.03305411961075
18.94030302179577
12.51726729957695
10.67161283078788
6.785782942823083
4.153553379045994
1.92925769116765
11.94484626903351
7.80073733052711
5.087921101411926
2.736371262808903
12.6469664298243
8.646020993714924
5.473011600639274
3.19958098184102
13.7930983913133
10.09296411806479
6.199494547636177
3.753886010758473
1.283616485940236
2.690620047410158
16.54900693064348
64.623037430484
1.464418327216047
2.242196470751479
10.39447539068457
49.95164437007368
1.620818497602875
1.963436829474413
6.571958309661484
34.73868748439421
1.813276604619816
1.726206209703599
3.061008836773644
19.55113845683898
105.8850763769921
126.774180452446
140.6581807416777
148.5697508966086
114.3600019254447
128.8939491958483
142.1818523846446
149.2635459470431
119.6674798781427
130.6897762163857
142.6097219240076
149.2078917137866
134.583462431382
134.0436714039448
144.9548620232354
150.3700458544498
153.3866592755484
158.2747206193678
167.8958136694222
178.1486464646743
153.7599957976072
158.9648765641575
169.28036409581
180.1470208000715
153.7252935029333
159.5126584827744
169.4894051509182
181.295510450676
154.8235212272026
161.1740403758248
170.9145118520277
183.7018252819894
190.5377357353975
201.7908464654636
209.3376816311041
218.1626540883226
192.3782695938465
203.9478340942353
212.116710374281
219.3305727359638
193.498938142292
205.0482660031915
213.647365255283
218.326392895161
195.2369437869503
206.9711402412022
215.5722861543008
213.209610929038
181.4274420605955
165.0702051526751
114.0346468588786
78.67352738794636
173.2945164379971
162.5390038082963
121.5213278676301
81.36328439517791
171.9957674635852
161.3136948848603
125.2960926876725
83.49433239469033
171.972814578658
161.6590572922301
130.7120584273795
84.86349477210229
73.05117014775128
72.10774693409239
71.2923726096685
70.93008883680778
72.92905272001431
71.73555693294153
70.85096761768732
70.47277404612177
72.80678476012709
71.87253789230085
71.13424568020147
70.90451961827355
72.84658746420362
71.55370878353021
70.618107518275
70.29693049869427
70.9854931271792
70.60493093926237
71.90504475945426
82.83050721630903
70.38173920611294
69.65707986114745
69.03044131256931
75.82087313143752
70.92989715587377
70.22944945028387
68.89584720037898
69.99731659579075
70.19843976367004
69.23782720693261
66.59797569994167
60.73660933451202
109.3401072830764
114.2518093866968
117.8559332516744
119.6767740317908
109.8050895896559
114.3867902922935
118.0397975059052
119.942893665665
110.2399000618558
114.3689872131202
118.2215681542911
120.2785801622694
108.560145116379
114.5207661911893
118.1133049862103
120.4533602598612
122.3928510156985
123.6401002257633
119.5300719735581
106.8655371720613
123.2434473558674
125.0506436402666
123.6040252730216
115.101302503226
123.330249993152
125.4943056010794
123.6456034111339
119.0251473667625
123.7373340968856
126.3198053236111
126.279660854126
127.9923787826586
54.09198943864672
71.27155896628091
77.56392858023844
79.75944543356533
50.81867207248568
69.89470803491619
76.93571446021873
79.66604229314387
48.22210826167719
68.23889025751677
76.32179078235851
79.549904282922
46.39902703931115
65.93403678188994
75.50441417128458
79.42097180314816
79.26093537656264
73.28918914817982
58.9401613389794
53.28212092889771
79.25271330400737
73.51431108466386
60.14529313649218
51.93649646143233
79.25461175590347
74.01487843098147
61.86260598411258
49.49655163431571
79.31312470551866
74.73205477439839
63.82102259687964
47.17456539899101
79.42097180300405
79.54990428281418
79.66604229307379
79.75944543332838
75.50441417103484
76.32179078224571
76.93571445993989
77.5639285801248
65.93403678192458
68.23889025754177
69.89470803505779
71.27155896644284
46.39902703928927
48.22210826161942
50.81867207248298
54.09198943867521
)
;

boundaryField
{
    back
    {
        type            empty;
    }
    inlet
    {
        type            zeroGradient;
    }
    front
    {
        type            empty;
    }
    top
    {
        type            zeroGradient;
    }
    outlet
    {
        type            fixedValue;
        value           uniform 80;
    }
    bottom
    {
        type            zeroGradient;
    }
    wall
    {
        type            zeroGradient;
    }
}


// ************************************************************************* //
