/*--------------------------------*- C++ -*----------------------------------*\
  =========                 |
  \\      /  F ield         | OpenFOAM: The Open Source CFD Toolbox
   \\    /   O peration     | Website:  https://openfoam.org
    \\  /    A nd           | Version:  11
     \\/     M anipulation  |
\*---------------------------------------------------------------------------*/
FoamFile
{
    format      ascii;
    class       surfaceScalarField;
    location    "1.3";
    object      phi;
}
// * * * * * * * * * * * * * * * * * * * * * * * * * * * * * * * * * * * * * //

dimensions      [0 3 -1 0 0 0 0];

internalField   nonuniform List<scalar> 
8667
(
1.5884153
0.18936166
8.1853868e-07
1.3984218
0.18999158
1.953557e-06
1.2072696
0.19115093
1.2524673e-06
1.0170323
0.1902364
9.3489689e-07
0.82514578
0.19188386
2.6096753e-06
0.63585778
0.18928597
2.0250023e-06
0.44491757
0.19093909
1.1277171e-06
0.2607609
0.18415515
1.5192058e-06
0.18156899
-3.2525539e-07
0.07919223
1.5886064
0.37853309
1.3982002
0.38039777
1.2072686
0.38208258
1.0161658
0.38133918
0.82474982
0.38329982
0.63440756
0.37962822
0.44457763
0.38076903
0.26079902
0.36793375
0.36469967
0.077668346
1.5884473
0.56786359
1.3983735
0.57047159
1.2070548
0.57340126
1.0158698
0.57252413
0.82393174
0.57523792
0.63380762
0.56975235
0.44360706
0.57096959
0.25940673
0.55213408
0.54845695
0.075649447
1.5884235
0.75721787
1.3984205
0.76047456
1.2070796
0.76474221
1.015933
0.7636707
0.82350337
0.76766759
0.63275084
0.76050488
0.4422783
0.76144213
0.25785599
0.73655639
0.73249436
0.073818586
1.588476
0.94651947
1.3985759
0.95037466
1.2073916
0.95592648
1.0158472
0.95521512
0.8233526
0.96016219
0.63192231
0.95193517
0.44095118
0.95241326
0.25598497
0.92152259
0.91606384
0.072415497
1.5885605
1.1357368
1.3987651
1.14017
1.2077595
1.1469321
1.0160175
1.1469571
0.82342952
1.1527502
0.6312691
1.1440956
0.43968289
1.1439995
0.25399089
1.1072146
1.0996946
0.070360166
1.5886517
1.3248628
1.3990814
1.3297403
1.2083023
1.3377112
1.0163269
1.3389326
0.82341218
1.3456649
0.63077961
1.3367282
0.4384211
1.336358
0.25164932
1.2939864
1.2832671
0.068076761
1.5888604
1.5137802
1.3993619
1.5192389
1.2088071
1.5282659
1.0170159
1.5307238
0.82371694
1.5389638
0.63038872
1.5300564
0.43718391
1.5295628
0.24927154
1.4818987
1.4668155
0.065723161
1.5890183
1.7025397
1.3999373
1.7083199
1.2092997
1.7189034
1.0174833
1.7225402
0.82408348
1.7323637
0.63044018
1.7236997
0.43620366
1.7237993
0.246637
1.6714654
1.6515794
0.061873126
1.8849647
1.5953528
2.0672048
1.5955377
2.249225
1.5957582
2.4310413
1.5959617
2.6125953
1.596222
2.7938211
1.5965522
2.974089
1.59751
3.153531
1.5983361
1.5985651
3.3327439
1.89127
1.4124027
2.07379
1.4130177
2.2559614
1.4135868
2.4378427
1.4140804
2.6196328
1.4144319
2.8017554
1.4144296
2.98479
1.4144755
3.1682282
1.4148979
1.4147454
3.3520478
1.90364
1.2276662
2.0882888
1.228369
2.2726266
1.2292489
2.4565011
1.2302059
2.6397077
1.2312253
2.8216987
1.2324386
3.0025654
1.2336088
3.1822699
1.2351934
1.2358794
3.3611359
1.908872
1.0413344
2.0951824
1.0420586
2.2815195
1.0429119
2.4675644
1.044161
2.6541058
1.0446838
2.8410543
1.0454901
3.0286101
1.046053
3.2157857
1.0480178
1.0488393
3.4028259
1.9211244
0.85257363
2.1100601
0.85312293
2.2992813
0.85369066
2.4885576
0.85488477
2.6775668
0.85567459
2.8658468
0.85721003
3.0533677
0.85853216
3.2412962
0.86008924
0.86219396
3.4279415
1.9136314
0.66264187
2.1046189
0.66213544
2.2961434
0.66216618
2.489035
0.66199313
2.6819343
0.66277534
2.8762091
0.66293528
3.070289
0.66445224
3.2658642
0.66451405
0.66688961
3.4611685
1.9145297
0.47191145
2.1078443
0.46882093
2.3021146
0.46789587
2.4994601
0.46464754
2.6973984
0.46483711
2.8975539
0.46277972
3.0977651
0.46424106
3.2991839
0.46309525
0.46559312
3.5004804
1.8600665
0.28331035
2.0550285
0.27385887
2.2540227
0.2689017
2.4576016
0.26106867
2.6631916
0.25924706
2.8717904
0.25418099
3.0814284
0.25460306
3.2932332
0.25129042
0.25354462
3.5052817
1.8432175
0.091672192
2.0545389
0.062537517
2.2794681
0.043972503
2.5112269
0.029309834
2.7457343
0.024739663
2.9802254
0.019689891
3.2161479
0.018680614
3.4515323
0.015906029
3.6894754
0.015601457
3.3217767
0.010967229
3.3111423
0.010634339
3.3007896
0.010352782
3.2907447
0.010044845
3.2807276
0.010017126
3.2708364
0.0098911931
3.26114
0.0096963934
3.2515778
0.0095621535
0.009567149
3.2420107
3.3434965
0.019518545
3.3354843
0.01864653
3.3279489
0.01788821
3.3209892
0.017004533
3.3145313
0.016475039
3.3088933
0.015529219
3.304015
0.014574723
3.2999248
0.013652336
0.013391252
3.2961007
3.3534583
0.027196131
3.3463429
0.025761853
3.3391583
0.025072808
3.3325785
0.023584423
3.3260709
0.022982587
3.3203003
0.021299791
3.3140682
0.020806909
3.3085181
0.019202414
0.019325075
3.3025843
3.3976952
0.032326773
3.393142
0.0303151
3.3885778
0.029637012
3.3843931
0.027769143
3.3801626
0.027213084
3.3763445
0.0251179
3.3724029
0.024748442
3.3692084
0.022396933
0.02214013
3.3663934
3.4217474
0.038520924
3.415869
0.036193449
3.4102108
0.035295291
3.4049299
0.033049983
3.3999164
0.03222664
3.3951641
0.029870217
3.3909509
0.028961591
3.3869861
0.026361704
0.0253423
3.383784
3.4585599
0.041129561
3.456378
0.038375346
3.4546853
0.036987939
3.4533222
0.034413158
3.4522549
0.033293938
3.4512812
0.030843894
3.4508114
0.029431403
3.4502541
0.026918928
0.025525545
3.4500709
3.4988292
0.042780783
3.4972877
0.039916836
3.4961782
0.038097397
3.4949035
0.035687924
3.4938153
0.034382052
3.4922138
0.032445449
3.4904266
0.031218615
3.4880742
0.029271256
0.028370595
3.4852292
3.5155799
0.032482585
3.525217
0.030279688
3.5355765
0.027737939
3.5448156
0.026448786
3.554182
0.025015696
3.5612942
0.025333218
3.5671871
0.025325758
3.5691509
0.027307485
0.029409941
3.5681115
3.7083516
0.013606386
3.7241674
0.014463886
3.7351602
0.016745191
3.7422474
0.019361533
3.7441757
0.023087463
3.7403678
0.029141118
3.7294903
0.036203211
3.7108779
0.045919938
3.6885057
0.051782121
3.6724886
0.068479649
-0.052462542
3.6419702
0.06619838
-0.035680002
3.6052035
0.063578633
-0.026811904
3.5662112
0.061150164
-0.02215793
3.5256223
0.058755733
-0.018166855
3.4840182
0.057452495
-0.015848389
3.4413332
0.055887559
-0.013202532
3.3995668
0.054727952
-0.012961581
0.05353587
3.3583776
-0.012346656
3.5758106
0.060780555
3.5798228
0.062186162
3.579986
0.063415434
3.5771666
0.063969543
3.5710834
0.064838958
3.5629293
0.065606586
3.552356
0.0664609
3.5402075
0.066876422
0.068038406
3.525705
3.4936531
0.05235668
3.5013081
0.054531091
3.5079042
0.056819368
3.5126606
0.059213158
3.5159572
0.061542308
3.5177534
0.063810407
3.5183945
0.065819867
3.5173403
0.067930621
0.070018686
3.51536
3.4623373
0.040090256
3.4749125
0.041955952
3.4871791
0.044552747
3.4992883
0.047103957
3.5111672
0.049663367
3.5224837
0.052493963
3.5333854
0.054918138
3.5427766
0.058539397
0.0611909
3.5516044
3.3932454
0.030628805
3.4036621
0.031539303
3.4136138
0.034600969
3.4246562
0.036061634
3.4357898
0.03852975
3.4481557
0.040128035
3.4601285
0.04294534
3.472587
0.046080898
0.049609716
3.4841682
3.3771921
0.019830033
3.3884396
0.020291862
3.4006579
0.022382592
3.4137287
0.022990859
3.4277648
0.024493632
3.4430561
0.024836736
3.4591244
0.026877067
3.4768959
0.028309375
0.031505335
3.4950003
3.3099751
0.012439196
3.3173122
0.012954781
3.3257306
0.013964139
3.3338826
0.01483893
3.3428131
0.015563055
3.3521532
0.015496656
3.3632671
0.015763198
3.3749635
0.016612905
0.019607603
3.3868613
3.305272
0.0032678828
3.3151325
0.0030942499
3.3259942
0.0031024199
3.3375059
0.0033273078
3.3501332
0.0029357278
3.3651275
0.00050238377
3.3855253
-0.0046346046
3.4114162
-0.0092780583
-0.010902518
3.4419263
3.2452786
3.2483728
3.2514752
3.2548026
3.2577383
3.2582407
3.2536061
3.244328
3.2334255
3.2240036
0.0094218693
3.2199436
0.0040600611
3.2260603
-0.0061167461
3.2481814
-0.022121138
3.2822058
-0.034024362
3.324415
-0.042209166
3.370227
-0.045811989
3.4173374
-0.04711046
-0.045652889
3.4629903
3.4748164
-0.023468145
3.5082586
-0.02938216
3.5384251
-0.036283229
3.5590485
-0.042744542
3.5732858
-0.048261703
3.5827135
-0.051636836
3.5904235
-0.053522055
3.59677
-0.053456892
-0.052905735
3.6040228
3.3976515
-0.034258352
3.4062115
-0.037942175
3.4131323
-0.043204031
3.4189512
-0.048563435
3.426404
-0.05571455
3.4364035
-0.06163625
3.4505887
-0.067707296
3.4684881
-0.07135632
-0.075524128
3.4911065
3.5147336
-0.05399164
3.534337
-0.057545597
3.5535857
-0.062452729
3.5715679
-0.066545665
3.5880366
-0.072183157
3.6029933
-0.076592994
3.6168199
-0.081533902
3.6299899
-0.084526349
-0.088674697
3.6431405
3.4956079
-0.065431364
3.506327
-0.068264692
3.5164628
-0.0725885
3.5254576
-0.075540502
3.5330784
-0.079803959
3.5394252
-0.082939807
3.5447173
-0.086825976
3.5507211
-0.090530143
-0.094811926
3.5568583
3.5585558
-0.072382713
3.5650663
-0.074775205
3.5698869
-0.077409143
3.5745375
-0.080191036
3.5775497
-0.082816243
3.5807447
-0.086134781
3.5822483
-0.088329586
3.5842815
-0.092563276
-0.095266515
3.584736
3.5116347
-0.068657401
3.5073816
-0.070522174
3.5012113
-0.07123885
3.4947972
-0.073776934
3.486742
-0.074760954
3.4788846
-0.078277391
3.470448
-0.079893046
3.4617051
-0.08382038
-0.086682506
3.4531211
3.5106172
-0.053569635
3.4931253
-0.053030272
3.4750555
-0.053169017
3.4544836
-0.053205079
3.4339956
-0.054272957
3.411176
-0.055457747
3.3893171
-0.058034212
3.3654866
-0.059989815
-0.063305139
3.3421092
3.3181693
-0.013361319
3.2771455
-0.012006425
3.2367725
-0.012796059
3.1958485
-0.012281055
3.1571105
-0.015534935
3.1173541
-0.015701416
3.0775701
-0.01825016
3.0346621
-0.017081812
2.9905239
-0.019166997
0.06518302
2.9440857
-0.018744743
0.091635595
3.3156566
0.10097087
3.4437858
0.099304427
3.5864025
0.090228044
3.5659347
0.076867595
3.656501
0.051741928
3.5162322
0.044147775
3.611617
3.5071381
0.069215609
2.9018344
-0.026964367
0.095789433
3.2890828
0.10457927
3.434996
0.10416595
3.5868158
0.094617289
3.5754834
0.080636641
3.6704816
0.051498905
3.5453699
0.041473779
3.6216421
3.5486119
0.074690239
2.8556469
-0.028502724
0.10263323
3.2611398
0.11168664
3.4259426
0.10953757
3.5889649
0.096490081
3.5885309
0.081647759
3.6853239
0.05183163
3.5751861
0.040453589
3.6330201
3.5890654
0.082888697
2.8096396
-0.03688141
0.10806571
3.2359628
0.11562203
3.4183863
0.11404902
3.5905379
0.10118584
3.601394
0.086278534
3.7002312
0.053637956
3.6078266
0.038899681
3.6477584
3.6279651
0.091161168
2.7547473
-0.036268882
0.1167087
3.2104153
0.12356672
3.4115283
0.11960855
3.5944961
0.10411186
3.6168907
0.087330235
3.7170129
0.054879141
3.6402777
0.039073927
3.6635636
3.6670391
0.098729333
2.7047551
-0.048737118
0.1227068
3.1864378
0.12813876
3.4060963
0.12433826
3.5982966
0.10893191
3.6322971
0.092499208
3.7334456
0.058614703
3.6741622
0.038781902
3.6833964
3.705821
0.10899597
2.6495774
-0.053818266
0.13310162
3.1623322
0.13738331
3.4018146
0.13086097
3.6048189
0.11374552
3.6494125
0.094381373
3.7528097
0.060245166
3.7082984
0.039444236
3.7041974
3.7452652
0.11626971
2.6135763
-0.080268653
0.13984337
3.1387585
0.14258248
3.3990755
0.1350993
3.6123021
0.11816837
3.6663434
0.099471569
3.7715065
0.064651421
3.7431186
0.039961736
3.728887
3.7852269
0.12929777
2.5655131
-0.081234502
0.15270274
3.1153535
0.15443025
3.397348
0.14438999
3.6223423
0.12562312
3.6851103
0.10272968
3.7944
0.067942516
3.7779057
0.041625322
3.7552042
3.8268523
-0.0047476955
3.8316
0.0051167503
3.7453398
0.006082121
3.7769404
0.022175145
3.7783069
0.034636871
3.6726486
0.050663281
3.6063159
0.065607272
3.382404
0.083602876
3.0973579
2.5956874
0.05342858
-0.0045311253
3.8361311
0.004088586
3.7367201
0.0052944919
3.7757345
0.017173296
3.7664281
0.026734618
3.6630873
0.040949033
3.5921015
0.051697014
3.371656
0.065415444
3.0836395
2.6085458
0.052556972
-0.0050404056
3.8411715
0.00073397192
3.7309457
0.0022760056
3.7741924
0.016565136
3.752139
0.026228445
3.653424
0.039307809
3.5790222
0.050546791
3.360417
0.06477465
3.0694116
2.6270392
0.046281322
-0.0048005135
3.845972
8.1085624e-05
3.7260641
0.00031572005
3.7739578
0.010293805
3.7421609
0.017981682
3.6457361
0.029578967
3.5674249
0.037385946
3.35261
0.046582585
3.060215
2.6351194
0.038502363
-0.0051053362
3.8510773
-0.001771039
3.7227298
0.00025038931
3.7719364
0.011685598
3.7307257
0.018732188
3.6386895
0.029669474
3.5564876
0.038365478
3.343914
0.046820555
3.0517599
2.6494745
0.03246545
-0.0046283875
3.8557057
-0.0028767606
3.7209782
-0.0023491665
3.7714088
0.005563727
3.7228128
0.010417337
3.6338359
0.019480626
3.5474243
0.025209788
3.3381849
0.0313056
3.0456641
2.6488484
0.031931712
-0.0047519819
3.8604577
-0.002998653
3.7192248
-0.00050025772
3.7689104
0.0083675273
3.713945
0.012980628
3.6292228
0.021588055
3.5388169
0.028195302
3.3315776
0.034617497
3.0392419
2.652569
0.030896903
-0.0037367324
3.8641944
-0.0033487764
3.7188369
-0.0022002068
3.7677618
0.0036233712
3.7081214
0.0053724784
3.6274737
0.011304322
3.532885
0.015421238
3.3274607
0.0214833
3.0331799
2.6432318
0.030820483
-0.00318829
3.8673827
-0.0019771795
3.7176258
0.00072003925
3.7650646
0.0076644537
3.701177
0.010216819
3.6249213
0.015783175
3.5273187
0.020651517
3.3225924
0.027056962
3.0267744
2.640238
0.030050724
-0.015203858
2.6249084
0.030533469
-0.0087822198
3.0203528
-0.0069847423
3.3207949
-0.0045236833
3.5248576
-0.0047147749
3.6251124
-0.00044352223
3.6969058
0.001195901
3.7634252
0.0015151443
3.7173065
3.8688979
-0.02180772
2.6172122
0.029503902
-0.016001711
3.0145468
-0.014003079
3.3187963
-0.011869838
3.5227244
-0.01082197
3.6240645
-0.005455291
3.6915391
-0.0016204182
3.7595903
-3.0496166e-06
3.7156892
3.8688948
-0.010406308
2.5969436
0.030674953
-0.0053685004
3.009509
-0.0071505138
3.3205783
-0.0081027361
3.5236766
-0.0092641092
3.6252259
-0.0063773564
3.6886523
-0.0034888038
3.7567017
-0.0024557773
3.7146561
3.866439
-0.018471287
2.588128
0.027286872
-0.015349289
3.006387
-0.017327365
3.3225563
-0.018375186
3.5247244
-0.018071446
3.6249222
-0.013772669
3.6843536
-0.0083975044
3.7513266
-0.0049268089
3.7111854
3.8615122
-0.0078206887
2.5658639
0.030084843
-0.0066334425
3.0051997
-0.012984559
3.3289075
-0.017204329
3.5289442
-0.018958648
3.6266765
-0.016198461
3.6815934
-0.011035476
3.7461636
-0.0080214873
3.7081715
3.8534907
-0.017888733
2.5572939
0.026458722
-0.019457485
3.0067685
-0.026238984
3.335689
-0.029862195
3.5325674
-0.029814003
3.6266283
-0.025739665
3.677519
-0.018017364
3.7384413
-0.011460133
3.7016142
3.8420306
-0.0089059424
2.5367008
0.029498986
-0.013875723
3.0117382
-0.025581439
3.3473947
-0.031653768
3.5386397
-0.032966579
3.6279411
-0.0301834
3.6747359
-0.021795137
3.730053
-0.014814358
3.6946335
3.8272163
-0.021572855
2.5322124
0.026061302
-0.029694496
3.0198599
-0.041934726
3.3596349
-0.047358118
3.5440631
-0.046790433
3.6273734
-0.041681057
3.6696265
-0.030366714
3.7187387
-0.019124222
3.683391
3.808092
-0.01507079
2.5161621
0.031121039
-0.028188094
3.0329772
-0.045185997
3.3766328
-0.052613263
3.5514904
-0.05280075
3.6275609
-0.047795145
3.6646209
-0.035033433
3.705977
-0.022922189
3.6712797
3.7851698
0.040704221
3.7444656
0.07008085
3.6419031
0.097965384
3.6780924
0.11529034
3.6472959
0.12508246
3.6177688
0.12170157
3.5548713
0.10031214
3.3980222
0.069315771
3.0639736
2.5412984
0.044179455
0.044995183
3.6994704
0.076552563
3.6103457
0.10673556
3.6479094
0.12616136
3.6278701
0.13760593
3.6063242
0.13433748
3.5581397
0.10858357
3.4237762
0.067602473
3.1049547
2.5555867
0.053314236
0.050255987
3.6492145
0.087529066
3.5730726
0.12230808
3.6131304
0.1460905
3.6040877
0.16217128
3.5902434
0.16373954
3.5565715
0.14238623
3.4451295
0.099722577
3.1476183
2.6074581
0.047851155
0.054330154
3.5948843
0.094357679
3.5330451
0.13194032
3.5755478
0.15857186
3.5774562
0.17762414
3.5711912
0.181351
3.5528446
0.15836511
3.4681154
0.10660804
3.1993754
2.651943
0.06212318
0.059281803
3.5356025
0.10530829
3.4870186
0.14764147
3.5332146
0.1790983
3.5459993
0.20347924
3.5468102
0.21392796
3.5423959
0.1983074
3.4837359
0.1482102
3.2494726
2.7455961
0.054557033
0.061862211
3.4737403
0.11155733
3.4373235
0.15689882
3.4878731
0.19169435
3.5112038
0.2197303
3.5187743
0.23287998
3.5292462
0.22098602
3.4956299
0.17059216
3.2998664
2.8470207
0.069167637
0.067894861
3.4058454
0.12195374
3.3832646
0.17194244
3.4378844
0.21148598
3.4716603
0.24532698
3.4849333
0.26662343
3.5079497
0.26473194
3.4975214
0.22522464
3.3393737
3.0036186
0.068626694
0.070075779
3.3357696
0.12722741
3.326113
0.18004592
3.3850659
0.22320179
3.4285044
0.2604791
3.447656
0.28601684
3.482412
0.28936698
3.4941712
0.26204081
3.3666999
3.1531701
0.1124893
0.07567399
3.2600957
0.13755728
3.2642297
0.19461711
3.3280061
0.24356169
3.3795598
0.28727045
3.4039472
0.32420459
3.4454779
0.34372481
3.474651
0.34003901
3.3703857
3.2602637
0.23294543
-0.086014617
3.3461103
-0.19060183
3.3688169
-0.30747573
3.44488
-0.43584054
3.5079246
-0.57482486
3.5429315
-0.73039136
3.6010444
-0.89394832
3.638208
-1.0406986
3.517136
3.2946609
-1.0750959
-0.081623674
3.4277339
-0.1829935
3.4701867
-0.29865839
3.5605449
-0.42973952
3.6390058
-0.5767956
3.6899876
-0.73884588
3.7630946
-0.91191168
3.8112738
-1.0355259
3.6407502
3.1161826
-0.85704754
-0.078997562
3.5067315
-0.1787448
3.569934
-0.29366224
3.6754623
-0.42465304
3.7699966
-0.57364227
3.8389768
-0.74316166
3.932614
-0.92018068
3.9882928
-1.003092
3.7236616
2.4518944
-0.33880393
-0.073930059
3.5806616
-0.16976129
3.6657652
-0.28361686
3.7893179
-0.41691409
3.9032938
-0.57384394
3.9959067
-0.74933736
4.1081075
-0.91946709
4.1584225
-0.94552341
3.7497179
1.6232851
-0.11691403
-0.070854007
3.6515156
-0.16453376
3.759445
-0.27664482
3.9014289
-0.40908054
4.0357295
-0.56750961
4.1543358
-0.74818283
4.2887807
-0.91730378
4.3275435
-0.88717577
3.7195899
0.78077199
-0.044662695
-0.066764342
3.7182799
-0.15633154
3.8490122
-0.26664056
4.011738
-0.39997823
4.1690672
-0.56473367
4.3190912
-0.74938952
4.4734365
-0.90862074
4.4867747
-0.76589836
3.5768675
0.031001595
-0.016127967
-0.063048066
3.781328
-0.15022169
3.9361858
-0.25882654
4.1203428
-0.39140055
4.3016412
-0.55630241
4.4839931
-0.73890228
4.6560364
-0.8682705
4.6161429
-0.47501501
3.183612
-0.51491968
0.07090627
-0.059500208
3.8408282
-0.14205457
4.0187401
-0.24781026
4.2260985
-0.38054441
4.4343753
-0.55070385
4.6541525
-0.72738806
4.8327206
-0.81043313
4.699188
-0.39678413
2.769963
-0.96329787
0.051594065
-0.056599685
3.8974279
-0.13687121
4.0990117
-0.24063896
4.3298662
-0.37082534
4.5645617
-0.54109773
4.8244249
-0.70835736
4.9999803
-0.73998014
4.7308108
-0.32551933
2.3555022
-1.3693021
0.080484865
0.1494862
-1.591785
0.0729967
0.38089026
2.1240982
0.35714801
4.754553
0.25484325
5.102285
0.15272425
4.9265439
0.082069576
4.6352164
0.034616197
4.3773196
0.00889419
4.1247337
3.9063221
0.13038092
-1.8039821
0.081816235
0.35753824
1.8969408
0.34078528
4.771306
0.24142303
5.2016473
0.14152287
5.026444
0.075173708
4.7015656
0.030842146
4.4216512
0.0069276044
4.1486482
3.9132497
0.10581627
-2.0075681
0.097769749
0.3371493
1.6656078
0.33071097
4.7777443
0.23232656
5.3000317
0.13321303
5.1255576
0.067203965
4.7675746
0.024613076
4.4642421
0.0050886751
4.1681726
3.9183383
0.088863199
-2.1993232
0.10289186
0.312636
1.441835
0.31263627
4.777744
0.21863457
5.3940334
0.12334127
5.2208509
0.061306251
4.8296096
0.0225014
4.5030469
0.0045476834
4.1861263
3.922886
0.064525732
-2.3811701
0.1173212
0.29213836
1.2142224
0.30248
4.7674024
0.20923912
5.4872742
0.1148733
5.3152167
0.054121786
4.8903611
0.018295301
4.5388734
0.0038312069
4.2005904
3.9267172
0.050035085
-2.551557
0.12035182
0.26738244
0.99687502
0.28325539
4.7515295
0.19512914
5.5754005
0.10553703
5.4048088
0.049069836
4.9468283
0.01511621
4.572827
0.0020762479
4.2136304
3.9287935
0.027688212
-2.6940361
0.11479088
0.24577503
0.77878821
0.2730238
4.7242807
0.18579067
5.6626336
0.097445438
5.493154
0.042550807
5.001723
0.01246474
4.6029131
0.0027640898
4.223331
3.9315576
0.013209993
-2.8325017
0.12525557
0.21922788
0.57277032
0.25422463
4.6892839
0.17266707
5.7441912
0.088534759
5.5772863
0.038222874
5.0520349
0.011561701
4.6295743
0.0026316857
4.2322611
3.9341893
-0.01120385
-2.8570334
0.035735595
0.18482303
0.37674344
0.24065142
4.6334555
0.16232386
5.8225187
0.080602984
5.6590072
0.032558243
5.1000796
0.0082661261
4.6538664
0.0026927976
4.2378344
3.9368821
0.16864801
-2.9238568
-0.1018246
-0.06340509
0.60879654
-0.2783289
4.8483794
-0.38685677
5.9310466
-0.38781969
5.6599701
-0.30947761
5.0217375
-0.21351893
4.5579077
-0.10399205
4.1283075
3.83289
0.14224535
-2.922692
-0.14341014
-0.13198694
0.88302882
-0.35709788
5.0734903
-0.44685269
6.0208014
-0.41326444
5.6263819
-0.3143783
4.9228514
-0.20971577
4.4532452
-0.093791137
4.0123829
3.7390989
0.11229557
-2.8268778
-0.20810979
-0.18173143
1.1770558
-0.40247119
5.2942301
-0.45710271
6.0754329
-0.40781752
5.5770967
-0.29929256
4.8143264
-0.20366288
4.3576155
-0.087266493
3.8959865
3.6518324
0.069754013
-2.6590407
-0.23759114
-0.22350268
1.4703125
-0.45231642
5.5230438
-0.48986093
6.1129774
-0.41348211
5.5007179
-0.29376335
4.6946077
-0.19736087
4.261213
-0.063578327
3.7622039
3.5882541
0.034499406
-2.4189646
-0.27457543
-0.26796506
1.772777
-0.48000806
5.7350868
-0.47861307
6.1115825
-0.38836961
5.4104744
-0.26700821
4.5732463
-0.17577314
4.1699779
-0.050544847
3.6369757
3.5377092
-0.0048173957
-2.1216746
-0.29247268
-0.28732292
2.0552825
-0.51299167
5.9607555
-0.49620228
6.0947931
-0.38365016
5.2979223
-0.24906613
4.4386623
-0.15024727
4.0711591
-0.02643015
3.5131585
3.5112791
-0.050104795
-1.781284
-0.29028574
-0.33304954
2.3382273
-0.53115273
6.1588587
-0.46628497
6.0299253
-0.34259145
5.1742288
-0.21433084
4.3104016
-0.12228781
3.979116
-0.022266498
3.4131372
3.4890126
-0.075431531
-1.4794959
-0.22635664
-0.33467936
2.5974751
-0.55356646
6.3777458
-0.47358171
5.9499406
-0.33637652
5.0370236
-0.19729422
4.1713193
-0.089651023
3.8714728
-0.0003244872
3.3238107
3.4886881
-0.11604515
-0.10237336
-1.2610774
-0.39553892
2.8769689
-0.57366005
6.555867
-0.42258382
5.7988643
-0.27617173
4.8906115
-0.14140272
4.0365503
-0.039354661
3.7694248
-0.0086882462
3.2931443
3.4799998
-0.17946742
0.1302188
0.049328922
-8.0300881e-05
-0.18590861
0.0064825011
-4.1316651e-05
0.092892481
-0.2787205
-8.0587914e-05
0.45035246
-0.35753266
7.268569e-05
0.79743472
-0.34710387
2.1604724e-05
1.0709695
-0.27354708
1.2291996e-05
1.3182368
-0.24728118
1.3903616e-05
1.5344685
-0.2162397
7.9918071e-06
-0.21325275
4.7173362e-06
-0.17935427
0.26015709
0.049415983
-0.18575868
0.012886911
0.09351664
-0.55799582
0.45327505
-0.71729107
0.80112077
-0.69494959
1.0737585
-0.54618483
1.3200045
-0.49352716
1.5358567
-0.43209193
-0.42638259
-0.18017474
0.39107479
0.049257035
-0.18678619
0.019498363
0.094642494
-0.83942451
0.45854785
-1.0811964
0.80783782
-1.0442396
1.0789536
-0.81730057
1.3233716
-0.73794524
1.5385446
-0.64726491
-0.63930939
-0.18257396
0.52442347
0.049225282
-0.18907496
0.025999367
0.098062519
-1.126562
0.46692288
-1.4500568
0.8173121
-1.3946288
1.085959
-1.0859475
1.3282678
-0.98025406
1.5425814
-0.86157849
-0.85183376
-0.18677503
0.66188946
0.049309039
-0.19037585
0.029600178
0.10724936
-1.4241872
0.48007486
-1.8228823
0.82961794
-1.7441719
1.0944977
-1.3508273
1.3351359
-1.2208922
1.5481895
-1.0746321
-1.0632186
-0.19000774
0.80229474
0.049602457
-0.18609265
0.025685097
0.12656213
-1.736842
0.4993214
-2.1956416
0.84426662
-2.0891171
1.1048205
-1.6113812
1.3446657
-1.4607374
1.5551691
-1.2851354
-1.271899
-0.19302513
0.94399726
0.051322602
-0.172327
0.0049869638
0.16086582
-2.0700348
0.52644072
-2.5612165
0.86123908
-2.4239154
1.1171096
-1.8672517
1.3559997
-1.6996274
1.5621195
-1.4912553
-1.4766817
-0.19313471
1.0844801
0.052651883
-0.14786709
-0.040280653
0.21199367
-2.4298956
0.56187983
-2.9111026
0.88045021
-2.7424858
1.1299577
-2.1167592
1.3666689
-1.9363386
1.5679958
-1.6925822
-1.6782738
-0.19174143
0.054303996
1.2219175
-0.11477847
-0.11724362
0.27450488
-2.8191789
0.60323745
-3.2398352
0.89963092
-3.0388793
1.1415641
-2.3586924
1.3764521
-2.1712267
1.5737364
-1.8898665
-1.8777812
-0.11605407
1.4791992
-0.10235812
-1.260787
-0.39554488
-2.5974367
2.8769275
-0.57364928
-6.3777978
6.5559022
-0.42255869
-5.9498603
5.7987697
-0.27616378
-5.0369789
4.890584
-0.1414021
-4.171307
4.0365453
-0.039350921
-3.8714678
3.7694167
-0.0086924966
-3.3237865
3.2931281
-3.4887124
3.4800199
-0.075444905
1.7809981
-0.22635407
-0.33468642
-2.3381952
-0.55356296
-6.1589213
-0.47355786
-6.0298654
-0.33636117
-5.1741756
-0.19728986
-4.3103783
-0.089643344
-3.9791144
-0.0003236825
-3.4131062
-3.4890361
-0.050107191
2.1214031
-0.29029775
-0.33305621
-2.0552461
-0.53115609
-5.9608214
-0.46626912
-6.0947524
-0.34257581
-5.2978689
-0.21432314
-4.438631
-0.12227782
-4.0711597
-0.022265959
-3.5131181
-3.511302
-0.0048397155
2.4187238
-0.29248105
-0.28733022
-1.7727556
-0.51300235
-5.7351493
-0.49619596
-6.1115588
-0.38363538
-5.4104295
-0.24905817
-4.5732082
-0.15023838
-4.1699795
-0.026428332
-3.6369281
-3.5377304
0.034483551
2.6588113
-0.27457099
-0.26797546
-1.4702966
-0.48002621
-5.5230986
-0.47861244
-6.1129726
-0.38835552
-5.5006864
-0.26699922
-4.6945645
-0.17576518
-4.2612135
-0.050542697
-3.7621506
-3.5882731
0.069726524
2.8266891
-0.23760436
-0.22351461
-1.1770555
-0.45233983
-5.2942733
-0.48986989
-6.0754425
-0.41347404
-5.5770822
-0.29375879
-4.8142798
-0.19735526
-4.357617
-0.063574829
-3.895931
-3.6518479
0.11226726
2.922634
-0.20821219
-0.18174956
-0.88303867
-0.40249708
-5.0735258
-0.45711684
-6.0208227
-0.40781196
-5.6263871
-0.29928888
-4.9228028
-0.20365953
-4.4532464
-0.087262653
-4.0123279
-3.7391105
0.14224511
2.923822
-0.14343307
-0.13200091
-0.60879266
-0.35712033
-4.8484064
-0.44687245
-5.9310706
-0.41326416
-5.6599954
-0.31437566
-5.0216913
-0.20971448
-4.5579076
-0.093786895
-4.1282555
-3.8328974
0.16860376
2.8570561
-0.10183792
-0.063415169
-0.37677373
-0.27833856
-4.633483
-0.38687526
-5.8225339
-0.38782561
-5.6590451
-0.30947473
-5.1000422
-0.21351658
-4.6538657
-0.10398813
-4.2377839
-3.9368856
-0.0088936617
3.9063179
-3.8974242
-0.034613931
4.1246986
-4.0989783
-0.082069222
4.3773232
-4.3298679
-0.15272674
4.6351795
-4.5645219
-0.25485105
4.9265359
-4.8244116
-0.35716243
5.1022186
-4.9999073
-0.38090701
4.7546013
-4.7308567
-0.14950542
2.1241657
-2.3555673
-1.5916651
1.3691737
0.072986059
-0.006926802
3.9132447
-0.030838905
4.1486107
-0.075173208
4.4216575
-0.14152628
4.7015325
-0.24143382
5.0264434
-0.34080469
5.2015895
-0.35755942
4.7713561
-0.13041314
1.8970194
-1.8038721
0.081793786
-0.0050895264
3.9183342
-0.024612837
4.168134
-0.067203641
4.4642483
-0.13321232
4.7675412
-0.23233499
5.1255661
-0.33073092
5.2999854
-0.33717133
4.7777965
-0.10584142
1.6656895
-2.0074704
0.09775687
-0.0045485533
3.9228828
-0.022500065
4.1860855
-0.061305587
4.5030539
-0.12334081
4.8295764
-0.2186436
5.2208689
-0.31265753
5.3939994
-0.31265321
4.7777921
-0.088882695
1.441919
-2.1992355
0.10288247
-0.0038315953
3.9267144
-0.018293616
4.2005475
-0.054119152
4.5388794
-0.1148712
4.8903285
-0.20924578
5.3152435
-0.3024985
5.4872521
-0.2921481
4.7674417
-0.064530395
1.2143013
-2.3810806
0.11731473
-0.0020777739
3.9287921
-0.015114513
4.2135842
-0.04906605
4.5728309
-0.10553459
4.946797
-0.19513295
5.4048419
-0.2832695
5.5753886
-0.26738773
4.75156
-0.050046458
0.99696003
-2.5514688
0.12034175
-0.0027660916
3.9315582
-0.012463763
4.2232819
-0.04254846
4.6029156
-0.097443753
5.0016923
-0.18579165
5.4931897
-0.27303446
5.6626315
-0.24578124
4.7243067
-0.02769364
0.77887244
-2.6939659
0.11480343
-0.0026330061
3.9341912
-0.011562034
4.2322109
-0.0382218
4.6295754
-0.088530874
5.0520014
-0.17266488
5.5773238
-0.25423157
5.7441982
-0.21923644
4.6893116
-0.013195599
0.5728316
-2.8324832
0.12532165
-0.0026943248
-0.0082673189
-0.032557644
-0.080598473
-0.16231979
-0.24065556
-0.184827
0.011230873
0.035803825
0.32556791
0.96317289
0.080432851
0.74000516
-2.7700046
0.70837233
-4.6992239
0.54110812
-4.8326431
0.37082863
-4.6541321
0.24063727
-4.4343306
0.13687063
-4.2261013
0.05659896
-4.0187066
-3.8408253
0.39682391
0.51479611
0.051552869
0.81044842
-3.1836291
0.72739466
-4.6161702
0.55070715
-4.6559555
0.38054495
-4.4839699
0.24781003
-4.3015957
0.14205194
-4.1203432
0.059498762
-3.9361535
-3.7813265
0.47504439
-0.031107376
0.070859098
0.86827398
-3.5768587
0.73889858
-4.4867948
0.5562989
-4.4733559
0.39139806
-4.3190691
0.25882647
-4.1690241
0.15022089
-4.0117376
0.063047078
-3.8489796
-3.7182794
0.76590885
-0.78088134
-0.016134888
0.9086137
-3.7195635
0.74938096
-4.327562
0.56472726
-4.2887022
0.39997459
-4.1543164
0.26663753
-4.035687
0.15632928
-3.9014294
0.066763491
-3.7594139
-3.6515159
0.88716397
-1.6234045
-0.044640851
0.91728216
-3.7496817
0.74816126
-4.1584411
0.56749814
-4.108039
0.40907728
-3.9958956
0.27664401
-3.9032537
0.16453107
-3.7893164
0.070852958
-3.6657357
-3.580663
0.94547804
-2.4520347
-0.11684779
0.91943611
-3.7236398
0.74931498
-3.98832
0.57383498
-3.932559
0.41691086
-3.8389714
0.28361745
-3.7699603
0.16976087
-3.6754599
0.073929287
-3.5699041
-3.5067337
1.0030361
-3.1162489
-0.3388219
0.92015562
-3.6407593
0.7431364
-3.8113008
0.57362773
-3.7630504
0.42464356
-3.6899873
0.29365932
-3.6389761
0.17874308
-3.5605436
0.078996874
-3.4701579
-3.4277368
1.0354618
-3.2946634
-0.85704732
0.91187409
-3.5171716
0.73881885
-3.6382455
0.57678622
-3.6010178
0.42973588
-3.5429369
0.29865721
-3.5078974
0.18299221
-3.4448786
0.081623039
-3.3687888
-3.3461138
1.0406439
-3.2602514
-1.0750559
0.8939366
-3.3704642
0.73037176
-3.4746807
0.57481417
-3.4454602
0.43583171
-3.4039545
0.30747144
-3.3795372
0.19060018
-3.3280074
0.08601399
-3.2642026
-3.2600998
0.040705677
3.7444761
-3.7851818
0.070085714
3.6418933
-3.6712734
0.097973317
3.6781143
-3.7060019
0.11530401
3.6473065
-3.6646372
0.12510251
3.6178211
-3.6276196
0.12172879
3.5549471
-3.5515733
0.10031698
3.398173
-3.3767612
0.069279281
3.0640935
-3.0330558
2.541056
-2.5159102
0.044133464
0.04499657
3.6994796
0.076556251
3.6103337
0.10674271
3.6479278
0.12617495
3.6278742
0.13762634
3.6063697
0.1343715
3.5582019
0.10861147
3.423933
0.067586135
3.1051188
2.5553345
0.053307671
0.050257742
3.6492218
0.087535223
3.5730562
0.12231629