/*--------------------------------*- C++ -*----------------------------------*\
  =========                 |
  \\      /  F ield         | OpenFOAM: The Open Source CFD Toolbox
   \\    /   O peration     | Website:  https://openfoam.org
    \\  /    A nd           | Version:  11
     \\/     M anipulation  |
\*---------------------------------------------------------------------------*/
FoamFile
{
    format      ascii;
    class       surfaceScalarField;
    location    "0.285";
    object      phi;
}
// * * * * * * * * * * * * * * * * * * * * * * * * * * * * * * * * * * * * * //

dimensions      [0 3 -1 0 0 0 0];

internalField   nonuniform List<scalar> 
1652
(
1.706212168242966
0.5337381654506466
9.103828801926284e-15
1.172474003205973
0.5337381656529283
2.114308728096148e-12
0.6387447022673876
0.533667754879348
-1.035171948160496e-12
0.5294271150218122
-7.512368505047107e-11
0.1055512871339177
1.706212168246052
1.0674763308963
1.172474002942913
1.067476327576013
0.6387550692541853
1.067298266490116
1.053695685501223
0.1080975604663314
1.706212168253019
1.601214496356246
1.172474004648526
1.601214480798943
0.6387828030209054
1.600818999316545
1.574655686566273
0.1090434842604867
1.706212168263896
2.13495266175328
1.172474018126978
2.134952578451427
0.638826517920408
2.134106228004007
2.09566563732221
0.1059485731373024
2.651191215787913
1.723711779948579
3.167429770604608
1.723711779388952
3.683668208848752
1.723711776166712
1.723712391649843
4.199904286660293
2.651190985039522
1.207473433253347
3.167429237046499
1.20747264451433
3.683658398619472
1.207473894810117
1.207494146098391
4.199857017877794
2.650250713068551
0.6903841945121416
3.166800953362556
0.6893488711509058
3.683566953410237
0.6881911473419575
0.6890383162389011
4.196998159727792
2.645078522732097
0.1199607632735825
3.263847932751087
0.04427971920955898
3.898608871155375
0.02062255938971497
4.536512457791893
0.01234703355465855
4.164900645413267
0.03500227550355117
4.129901182948423
0.03498107680702034
4.09489191531884
0.03494231736613862
0.03483126483817778
4.059841514297368
4.165004362131684
0.06976381733662418
4.130215393119101
0.069302772314984
4.095884598377946
0.0684124582381333
0.06717647789262587
4.061626936077966
4.173594278535736
0.08615268363726697
4.155039429144595
0.07896348927566182
4.142653808172954
0.06820651738290456
0.06105695900430019
4.131494173760715
4.585791014339756
0.006626720057194391
4.62926692251641
0.006687248951152858
4.666068703489666
0.006434949236363285
4.70265194660548
0.007874802506786016
4.666821046517529
0.09844845882038472
-0.06843814704917997
4.591443540174042
0.0940480295950607
-0.01798444000393229
4.517351358563758
0.08878588274977145
-0.008337708974876179
0.08181902431786153
4.455969690182329
-0.008154916164979598
4.200489812308486
0.009992345815499015
4.25542069704094
0.01941558197872617
4.295258008819913
0.03013448988092077
0.03848885266234903
4.321157136890523
4.066007674716534
0.0007051265783593053
4.075039295535892
0.002088572128692512
4.088288643842966
0.004530070317002588
0.00808376215828388
4.104419214994517
4.059794302159808
4.060073118384707
4.060943589049656
4.062757165351215
4.06573632555484
-0.01205969895054404
4.068578743461425
-0.01559080448726935
4.069564938117445
-0.01808405982675765
-0.01900169621499292
4.069776243647999
4.121571193783174
-0.04447975278475808
4.137513386157638
-0.04769281269876469
4.150695833929917
-0.04828657686989701
-0.04556257864489272
4.161933852494814
4.334406510532454
-0.07326694687413815
4.33548118524135
-0.063370379988133
4.332663167551975
-0.05271226793721495
-0.04562476525962211
4.32621888518417
4.403434050326362
-0.006766506864888167
4.355662036047113
-0.005603539182490791
4.333793209343952
-0.004763957467171787
4.316470693257842
-0.003075397268445967
0.03307464663146892
4.304882285808859
-0.001885372237318383
0.04219516202756701
4.314977162753931
0.01947980260786586
4.168744437111463
4.06847343788259
0.0299392085892432
4.327391709666935
-0.05297470539902338
0.03483969387421176
4.308984223225854
0.01795350810548124
4.164380048907409
4.065961386199976
0.03536195220247701
4.328366761618527
-0.1644478486713206
0.0246722546679628
4.305126673522406
0.01413669786543115
4.154966959803277
4.063262713455518
0.09496112369504728
4.083838310702061
-0.08373126844489404
0.03033447418818958
4.310548865183222
0.01065354092439363
4.146999130023183
4.056821088960493
0.08656273268259507
3.962766479444874
0.1609057390796624
4.037014124598224
0.1353528722190243
4.211665603879636
3.922703809687046
0.1546986662817662
0.08710279433342016
3.870113168930312
0.1496425963307718
3.928570224252011
0.07342300594778284
4.105930131959142
3.760892306846544
0.1092617607542573
0.08376484828895453
3.779477999627944
0.120017876203817
3.826893182648323
-0.006433226048357055
3.980097627041992
3.597019119809986
0.05624395906305191
0.07526026540602759
3.691113023232442
0.07036160083317622
3.734807063037249
-0.08434586413696865
3.828630009475922
3.379552490629665
0.05208594574331527
0.1414083170097649
3.172413388975036
0.01597685698164275
0.01149544445181105
3.644555972904215
-0.05695766069421593
3.650263396562019
3.607191145643241
0.1769580701722621
2.983181608933432
0.0005036752377727272
0.1101658540221859
3.460706495456562
-0.02403710696324468
3.561966067069037
3.530068343749292
0.1853458854902502
2.833405889880093
0.001559197029231019
0.1919419401149448
3.334401714519635
0.02457001093101407
3.450348883224323
3.462234448559343
0.1546054622183431
2.729798107250486
-0.01459161114854179
0.2590981625050324
3.197511622058966
0.08562666850101264
3.359860716126402
3.402537091376849
-0.1255019555947651
3.324948874006131
-0.1899885625740568
3.231799764709283
-0.07768990231449457
3.135338461872026
2.675914768406053
0.01414490627164733
-0.09461772180736583
3.235789895588222
-0.1214873845067265
3.12646447261073
-0.004796232136004996
3.065649766769564
2.653101243824358
0.05836188499794426
-0.06580580691928317
3.142413438027165
-0.04702726712366645
3.022449149765335
0.0766251315652513
2.986784056369829
2.638007775967349
0.1309424073314929
-0.02289618777876801
3.019529412042742
0.03346398119418392
2.907435398581077
0.1825443920918629
2.894699091096042
2.609240082628064
0.247058830410961
-0.3216846859954415
3.220308448725774
-0.5797331154614717
3.1382662797086
-0.7275511721648724
3.123564544706914
2.690055581359277
-0.7621891884860411
-0.2907043365312734
3.408251208093332
-0.5163088682910926
3.363763084381545
-0.6442354266007936
3.346454865716927
2.337503302910243
-0.2564651665430415
-0.2635899683627106
3.587516467037233
-0.4643119900543534
3.573584266832049
-0.5326500385964772
3.529803494049284
1.925002613344563
-0.03589138274054574
-0.2391975491721185
3.762139282216467
-0.4349314920890049
3.777208782726012
-0.4354075343813946
3.669434692168355
1.753487051964443
-0.02017465893780679
0.2028681959517291
1.632525434009393
-0.009376632912416834
0.2061250438485111
3.751938980941875
0.1150841356590177
3.871707926933871
3.834518762022635
0.1799398097312216
1.482490924153803
-0.006470138687041861
0.1894533936403086
3.810012125389589
0.09926625270494766
3.976589283402098
3.90607064378406
0.1504133867469609
1.389047312942114
-0.003724122874314003
0.1723264431552367
3.866679302085183
0.08831749576823777
4.082739321671472
3.980989074908643
0.1130573251580485
1.364254749889839
-5.243445317403006e-06
0.1545065722482054
3.931797417232541
0.09830585212237125
4.158672331468203
4.073499279335072
-0.2746915375161222
1.853135847649
-0.01317775011323029
-0.1372611714088378
4.009794538682253
-0.01563514628218021
4.077092074505726
4.060255478914497
-0.2807655053454514
2.329101919965503
0.03304752031284423
-0.1083830177920375
4.028192967651333
-0.01119061089607554
4.042585121913358
4.058555891653549
-0.243483455656076
2.680720209651581
0.08000864144166535
-0.07103263645566438
3.96775176796534
-0.006582915917271892
4.035927487342179
4.058484506559331
-0.1901145515858558
0.1379801102864268
2.848404554526202
-0.0536010206024472
3.919603462518403
-0.004150040950879452
4.038011676589091
4.059121967477656
0.3467476565857405
-0.3706843422991555
-0.02109744385103333
2.037037205582237e-12
1.051775265946856
-0.3614829109680699
2.844835478299501e-12
1.69999319287874
-0.5001405219011126
7.243983191074221e-12
-0.5238950991012947
-3.349320820689172e-12
0.3532937737265155
-0.7115009515018267
-0.02141765666597456
1.051054459699406
-0.7534913872555955
1.698707695148288
-1.001929373875015
-1.047712920127676
0.3649452638355513
-0.9976240336226641
-0.02055190621975701
1.048653973690184
-1.201158566612471
1.697186101022509
-1.511577505546072
-1.571613298626196
0.3850227470643074
-0.01865976231832527
-1.250937992434166
1.054796654801198
-1.717790750141038
1.696178362622024
-2.025493611238503
-2.095730091068308
-0.190114551585141
-2.680720209648951
0.1379801102862249
2.848404554522652
-0.05360102059998784
-3.967751767969824
3.919603462521397
-0.004150040946367284
-4.03592748733928
4.038011676576048
-4.058484506559857
4.059121967471777
-0.243483455655756
-2.329101919964914
0.08000864144181863
-0.0710326364575421
-4.028192967659131
-0.006582915921449661
-4.042585121919441
-4.058555891656943
-0.2807655053462574
-1.85313584765056
0.03304752031299203
-0.1083830177968353
-4.009794538686942
-0.01119061089987983
-4.077092074510965
-4.060255478917209
-0.2746915375153768
-1.364254749890671
-0.01317775011285204
-0.1372611714119498
-3.931797417235039
-0.01563514628629825
-4.1586723314651
-4.073499279341066
-0.1150841356525281
3.834518762034731
-3.762139282228167
-0.2061250438352228
3.87170792695184
-3.777208782752233
-0.2028681959464474
3.751938980917869
-3.66943469213697
1.63252543399274
-1.753487051942097
-0.009376632912556283
-0.09926625269771039
3.906070643793489
-0.1894533936261155
3.976589283413298
-0.1799398097257
3.810012125375964
1.482490924144277
-0.006470138687087502
-0.08831749576213421
3.980989074916847
-0.1723264431398274
4.082739321672084
-0.1504133867414267
3.866679302078913
1.389047312937986
-0.003724122874113556
-0.09830585211470677
-0.1545065722324789
-0.1130573251531192
-5.243445157149251e-06
0.4354075343847529
-1.925002613330602
-0.02017465893778231
0.4349314921030215
-3.529803494030136
0.2391975491786517
-3.573584266853308
-3.587516467040708
0.5326500386009198
-2.337503302900767
-0.03589138273997024
0.4643119900687666
-3.346454865707357
0.2635899683717232
-3.363763084397552
-3.408251208094018
0.6442354266089535
-2.690055581359256
-0.2564651665421963
0.5163088683060203
-3.12356454470582
0.2907043365392949
-3.138266279720181
-3.220308448725142
0.7275511721733177
-2.609240082634385
-0.7621891884889164
0.5797331154747345
-2.894699091104171
0.3216846859995222
-2.907435398587222
-3.019529412040972
-0.125501955597347
3.324948874015488
-3.402537091390536
-0.1899885625680373
3.23179976473554
-3.359860716144952
-0.07768990231134731
3.135338461859741
-3.197511622032668
2.67591476839533
-2.729798107238482
0.01414490627243059
-0.09461772180692907
3.235789895593316
-0.1214873844964987
3.126464472631872
-0.004796232131214273
3.065649766770452
2.653101243821673
0.05836188499837969
-0.0658058069166374
3.142413438033288
-0.04702726711221583
3.02244914977666
0.07662513157108897
2.986784056375464
2.638007775970479
0.1309424073319075
-0.02289618776768521
0.03346398120374461
0.1825443920968981
0.2470588304121947
0.1546054622207669
-2.833405889872006
-0.01459161114724616
0.2590981625130953
-3.334401714503045
0.0856266685014041
-3.450348883236949
-3.462234448570345
0.1853458854951778
-2.98318160892505
0.001559197030735482
0.1919419401244696
-3.460706495447802
0.02457001093509303
-3.561966067081574
-3.530068343757347
0.1769580701752343
-3.172413388967178
0.0005036752372374886
0.1101658540334545
-3.644555972904937
-0.02403710695977734
-3.650263396574781
-3.60719114564682
0.1414083170105219
-3.379552490625493
0.01597685698040907
0.01149544445843576
-3.828630009472035
-0.05695766068954988
-3.734807063033601
-3.69111302323295
0.08656273268363712
3.962766479446577
-4.056821088961704
0.1609057390809093
4.037014124598704
-4.146999130023706
0.1353528722172953
4.211665603881519
-4.310548865184837
3.922703809682068
-4.083838310703925
0.1546986662805184
0.08710279433548895
3.870113168931254
0.1496425963335528
3.928570224257526
0.07342300594860063
4.105930131967312
3.760892306851041
0.1092617607541768
0.08376484828955405
3.779477999631089
0.1200178762045764
3.826893182642794
-0.006433226049350371
3.980097627042867
3.597019119814528
0.05624395906598456
0.07526026540838321
0.0703616008313287
-0.08434586413798684
0.05208594574343872
-4.063262713456244
-0.01065354092244863
-4.065961386200279
-0.01413669786569116
-4.068473437881837
-0.01795350810400953
-0.01947980260845339
-4.06977624364719
-4.154966959801111
-0.03033447418913715
-4.164380048908416
-0.02467225466918938
-4.168744437111493
-0.03483969387369001
-0.04219516202787515
-4.16193385249759
-4.305126673524191
-0.09496112369530962
-4.308984223227052
-0.03536195220222715
-4.314977162755875
-0.02993920858850413
-0.03307464663158138
-4.326218885188873
-4.328366761620291
-0.0837312684453736
-4.327391709665731
-0.1644478486707411
-4.304882285808132
-0.05297470539857951
-4.316470693257548
-0.001885372237140082
-0.01900169621459302
-4.069564938117088
-0.04556257864478092
-4.150695833929423
-0.04562476525827358
-4.332663167555864
-4.333793209342996
-0.003075397268267666
-0.0180840598277906
-4.068578743460991
-0.04828657686895782
-4.13751338615462
-0.05271226793603062
-4.335481185243609
-4.355662036044359
-0.004763957466828644
-0.01559080448607986
-4.065736325555121
-0.04769281269786291
-4.121571193776524
-0.06337037998776568
-4.334406510535849
-4.40343405032364
-0.005603539183389905
-0.01205969895027326
-4.062757165352031
-0.04447975278559163
-4.104419214984722
-0.07326694687381574
-4.321157136896467
-4.455969690181001
-0.006766506864625266
-0.000705126579886417
4.05979430215679
-4.05984151428964
-0.009992345820963311
4.066007674697762
-4.06162693606061
-0.09844845882472586
4.200489812323786
-4.13149417377771
4.666821046526578
-4.702651946617917
-0.06843814704913825
-0.002088572132664002
4.060073118382594
-0.01941558198086929
4.075039295518593
-0.09404802959828579
4.255420697056675
4.591443540179212
-0.01798444000410826
-0.004530070316505652
4.060943589048617
-0.03013448988752182
4.088288643827917
-0.08878588275497623
4.295258008830839
4.517351358565166
-0.008337708976050101
-0.00808376215992479
-0.03848885266816093
-0.08181902432120036
-0.008154916165053844
-0.06105695900832031
-4.666068703499485
0.007874802506352474
-0.06717647790743803
-4.142653808180981
-0.03483126484319721
-4.095884598372417
-4.094891915314098
-0.06820651738861722
-4.629266922522234
0.006434949236043097
-0.06841245825052339
-4.155039429143102
-0.03494231736949938
-4.130215393125718
-4.129901182948096
-0.0789634892819786
-4.585791014338453
0.00668724895141537
-0.06930277232600301
-4.173594278525496
-0.03498107680757678
-4.165004362151021
-4.164900645414772
-0.08615268364236578
-4.536512457787569
0.006626720057737179
-0.0697638173489068
-4.196998159710395
-0.03500227550651569
-4.199857017907434
-4.199904286661817
-0.6890383162376946
-3.898608871152939
0.01234703355485667
-1.207494146090373
-3.683566953397087
-1.723712391654683
-3.683658398634274
-3.683668208846741
-0.6881911473398267
-3.263847932751085
0.02062255939032792
-1.207473894802146
-3.166800953355191
-1.72371177616777
-3.167429237046048
-3.167429770604683
-0.6893488711500418
-2.645078522734215
0.04427971920906304
-1.207472644507011
-2.650250713067011
-1.7237117793899
-2.651190985050025
-2.651191215792636
-0.6903841945122434
-2.095665637327108
0.1199607632694745
-1.207473433254743
-2.13410622800536
-1.723711779953766
-2.134952578449242
-2.134952661753675
1.706212168246005
0.5337381654471669
1.172474003212659
0.5337381656453055
0.638744702270264
0.5336677548825415
0.5294271148960448
0.1055512871123295
1.706212168246584
1.067476330890428
1.172474002942286
1.067476327571167
0.6387550692541263
1.067298266493108
1.053695685505095
0.1080975604303168
1.706212168253414
1.601214496352405
1.172474004647279
1.60121448079715
0.6387828030197262
1.600818999319132
1.574655686585118
0.109043484251935
1.706212168262663
1.172474018123164
0.6388265179170258
0.1059485731330232
0.1053116914577591
0.1053116914461435
0.105049397147876
0.1077884324935367
0.1055288017673691
0.1078794675203847
0.1035280764023787
0.1071921404637335
0.1077884325161145
0.1050493971513577
0.1074563930687545
0.1074563930634726
0.1077857166924328
0.1068241695428544
0.09980108779051261
0.1107613168372339
0.1078794675321661
0.1055288017679261
0.1068241695504572
0.1077857166931336
0.1064646758532398
0.1064646758522373
0.09658754980344995
0.1090262490999822
0.1035280764084218
0.1071921404626843
0.09980108779586679
0.110761316838763
0.0965875498077076
0.1090262490992917
0.09633528749959751
0.09633528750223178
-0.03941691227315713
0.1347715733566986
-0.06370533167633841
0.132159509716231
-0.09097416586114704
0.1367273385546147
0.1347662738736799
-0.00647731871641033
0.1401314518185987
-0.01700828222520734
0.1414971270198252
-0.02833396989471432
0.1468197544981979
0.1493501150136466
-0.002079607912094383
0.141169038981963
-0.009014343432683203
0.1473165388765381
-0.01522336260341461
0.1518793527266634
0.1534725601825006
-0.001845651540124282
0.1420283737770403
-0.006900131737296922
0.1513734936570025
-0.01007968767739048
0.1540626606435591
0.1546678232456506
0.1546345347219683
0.006019339174157812
0.1550466843242845
0.005802302307522489
0.1543249852922736
0.006934660673313553
0.006780952561398601
0.1555440943371297
0.1545096352247958
0.004989202251881097
0.1550790876830252
0.00467728619079949
0.1551738467444586
0.006653399669494464
0.003095022220662103
0.158993659380633
0.1531770849176685
0.002513389500099217
0.1547986406815515
0.002474451225423668
0.1561127862322394
0.005191963982068448
-0.00983131689328437
0.1691650653049486
0.1438759921728799
0.1458256944389532
0.1508777139304897
0.1410933232532475
0.1425682707823383
-0.05515267114221195
0.1336636916185575
-0.008578382362720544
0.1324670244065871
-0.006371756415421287
-0.007388251012618724
0.1326492964613938
0.1463981646596858
-0.04225235206270619
0.1409386280523325
-0.002554921252732878
0.1382698897180797
-0.002895034203885427
-0.004861750949691934
0.1367639912717914
0.1527555504741092
-0.02552732227006124
0.1473130686250297
0.00343420292249802
0.143874466347136
0.001329067702307757
-0.0006453934200686406
0.1406773078937848
0.1158668962125928
0.1198559303861687
0.121979919876616
0.1223458650588932
0.1334737252655674
-0.006546482289868899
0.1344974300854306
-0.005376801247733709
0.1356802050676215
-0.004121122452029641
-0.00332595530673252
0.1375770343186489
0.1359600688689853
-0.004642889784091109
0.1356512421053481
-0.003887540940196194
0.1354889088599538
-0.002327867995737448
-0.003045840890793128
0.1366879402926078
0.1383090104823404
-0.001175442401538607
0.1367401521212905
-0.001118962689496572
0.1357089617711073
-0.0006698314739808642
-0.001680232874103071
0.1356231873805543
0.1222503698387198
0.1222742731049075
0.1228502737479193
0.1225441388821827
0.1392455940059217
-0.002254044384861348
0.144723054404775
-0.06303181029622262
0.1383459422200185
-0.1638755608476214
-0.05489867086762895
0.1070707201649521
0.1384048618370231
-0.003025632233108172
0.1346571275249942
-0.06487090774070209
0.09377702792110393
-0.1270709883692777
-0.03416064665688778
0.07180848711748525
0.136824206371638
-0.00355095142915729
0.1107193593851922
-0.04419329276316075
0.03775673394252974
-0.05668130147248956
-0.02392106402974586
0.02503581256013621
0.1193792207034676
0.06877772046816095
0.009977131898983041
-0.01571261835408148
0.1228032828297022
0.1381777600306242
0.1263721869352932
0.1032768498391371
0.1306065545127969
0.04822702057416983
0.04319906844668719
0.1386910930909915
0.1098236105033816
0.09923925069897455
0.1246065287943185
0.08624907635415824
0.1305275901399904
0.03909239632661088
0.03353216807072867
0.1394629945001568
0.07880631841888579
0.04479612958951573
0.1137573979441634
0.0493771935371714
0.1252728818055178
0.02445470148475148
0.02124798919601267
0.1364646814211622
0.02893693547732476
0.0763837580934293
0.09816193343904839
0.11844696722694
0.1390839885822395
0.0176734436591226
0.1399579309434783
0.001399699271324217
0.1421465337082754
-0.0006034140585111647
-0.0134610916053034
0.1423264424605219
0.1411393381561808
0.0181092451173035
0.1421146172218039
0.002641173387274098
0.1433791127131841
-0.002087146283411112
-0.01049825705803942
0.1429331947955683
0.1415943777841484
0.01530966599406558
0.1430693071418809
0.004224577914678007
0.143567027399116
-0.001394107544667067
-0.00597508082812559
0.1430523353028313
0.1360223637153713
0.143136159765694
0.1460968125746344
0.1460034444879175
0.150633036708879
0.006349872835463843
0.166926170313865
0.04182032341781694
0.1904203470373325
0.1061783849834022
0.1931552210593864
0.2450399134930063
0.1491432877734992
0.001474674453115221
0.16374368226961
0.02670293277961977
0.1882791025708321
0.07956847837483699
0.1321981814060595
0.2495496724364966
0.1478637015244213
-0.0004708467374389125
0.1591160114161634
0.01578990810700887
0.186976936058655
0.05020595046987231
0.04040080543088781
0.2783114475919132
0.1501654387217572
0.1670882994807559
0.2154823567078756
0.2544597536319882
0.1209751161578474
-0.6386744341870553
0.01171892316404311
-0.1483908770731406
-0.003096073610241631
-0.02024448296220136
-0.01561075448851399
-0.005816178709391462
0.08271670173733102
-0.4720619586714789
0.001729283083849687
-0.06805512624919596
-0.005884141016357826
-0.01154257661151015
-0.01025035525384753
-0.009576210816251807
0.04439696919441704
-0.2383849058083867
-0.002619030306921242
-0.02153382417541907
-0.008252760554440509
-0.00471885818612562
-0.004911870556059256
-0.0116480129213492
0.01580161990736716
-0.005848482603622333
-0.009342350928048977
-0.01243096267426387
-0.006402039303932443
-0.007521534270399092
-0.007322421430177094
-0.004218269191511779
-0.008854909812604882
-0.0005061040814615635
0.001848229032543711
-0.009136867114632975
-0.01059482537061271
-0.005179571838425561
-0.01065258173930488
-0.002570503954306431
-0.01010994285744273
0.0009338191804570198
0.001872497480361342
-0.008328224151086723
-0.01262591794044895
-0.002797172274786618
-0.01204728700995115
-0.001499626706285905
-0.009598520344733928
0.0005531101452886447
0.00192004686465351
-0.007345098239521048
-0.01384285287187406
-0.01366360756404836
-0.01081454173115867
-0.006153173552630661
-0.001334852210626625
-0.01610544652267304
0.02245721614754519
0.01491056612486343
0.05211623077051869
0.05542947784059911
0.1167445778444053
0.07534243270084463
-0.00744331123984145
-0.01264368263155977
0.009314205396476122
0.003052298650968274
0.04010965717138722
0.0289440435295048
0.08733327026471444
0.07117902023458252
-0.007798890497872975
-0.007873564187884596
-0.0002991512964815382
0.0001415284371014541
0.02446845025669286
0.008148566467717361
0.05018442054288653
0.06346006249548658
-0.01028849821517189
-0.005570187703389774
0.006464725071200425
0.05977224116586703
0.0657173403033233
-0.03382256842705423
0.04212405984682233
0.05644595930487525
-0.031517308851907
0.03935163607661186
0.04827137640617972
-0.03065847612310351
0.03882498532495211
-0.02729957729652492
0.03952574489114582
0.03608030646620473
0.06327234148433247
-0.02766618635253842
0.05746770861898966
-0.02700479674572774
0.05162996122841002
-0.02500058933918147
-0.01888290114104626
0.04308135789295774
0.05345831122008203
-0.01981395483521399
0.04319478419812353
-0.01921177750452819
0.03172217552500761
-0.01458856169811566
-0.007020095986826447
0.01902429403977735
0.03904713364143741
0.01862063051275717
0.003008948684136342
-0.004928818995269917
-0.006935059103038363
0.001200985408467688
-0.006233988625431952
-0.001710812217056417
-0.003688163177075515
-0.003665076046576968
-0.004747092566637044
4.143213550023006e-14
0.01155306557353674
0.007952589796259728
0.005863414446553049
0.003152444319626458
0.002002227023865627
-0.000789666009353044
-0.00367645958851728
8.31279489688086e-14
0.03643325047995772
0.01392759773850116
0.02603880958575445
0.01255292580695605
0.01365626529836363
0.01057693404442176
0.008978372479139227
1.398117732698267e-13
0.03421631746532156
0.02504468314792687
0.01309181251149747
1.446273656391384e-13
-0.004747092566642908
0.003688163177157207
-0.003676459588522911
-0.00200222702371191
0.008978372479146155
-0.01365626529811279
-0.01309181251121744
0.02109744385104107
-0.003665076046590211
0.006233988625513304
-0.0007896660093567771
-0.005863414446404203
0.01057693404446034
-0.02603880958555359
-0.0250446831476892
0.02141765666606384
-0.001710812217065344
0.006935059103121539
0.003152444319621077
-0.01155306557338902
0.01255292580701118
-0.03643325047982146
-0.03421631746520273
0.02055190621992114
0.001200985408467643
0.004928818995346917
0.007952589796251186
-0.01902429403964737
0.01392759773851531
-0.04308135789285929
-0.03952574489111164
0.01865976231842833
-0.04827137640613436
-0.02729957729646679
0.03608030646613967
-0.05644595930478568
-0.03065847612303254
0.03882498532484171
-0.06571734030319901
-0.03151730885183982
0.03935163607649141
-0.03382256842697424
-0.0753424327006965
0.0421240598466882
-0.05162996122830232
-0.01888290114104344
-0.05746770861887743
-0.02500058933916006
-0.06327234148423043
-0.02700479674570652
-0.02766618635249953
-0.07117902023447409
-0.03172217552491873
-0.007020095986806824
-0.04319478419806179
-0.01458856169811695
-0.05345831122002069
-0.01921177750453378
-0.01981395483520459
-0.06346006249542271
-0.003008948684057842
-0.01862063051271133
-0.03904713364142146
-0.05977224116586771
-0.006464725071326879
-0.05018442054283014
0.005570187703337164
-0.008148566467836169
0.01028849821511555
-0.0001415284371417552
0.007873564187813813
0.006153173552619028
-0.02446845025674638
-0.08733327026461017
0.0002991512964250279
-0.02894404352970813
0.007798890497813758
-0.003052298651063809
0.01264368263141194
0.007345098239495288
-0.04010965717140476
-0.1167445778442395
-0.009314205396538426
-0.05542947784082633
0.007443311239757094
-0.01491056612500137
0.01610544652240828
0.008328224151070943
-0.05211623077045635
-0.02245721614758451
0.001334852210511332
0.00913686711460893
0.0088549098126134
0.001848229032680788
0.007322421430240277
-0.0005061040813257763
0.00640203930400367
-0.00421826919155496
-0.007521534270485982
0.00581617870942426
0.01010994285745927
0.001872497480464794
0.01065258173934731
0.0009338191805630738
0.01059482537066264
-0.002570503954330221
-0.00517957183848987
0.009576210816295814
0.009598520344748807
0.001920046864696566
0.01204728700997932
0.000553110145360379
0.01262591794049044
-0.001499626706303058
-0.002797172274821565
0.01164801292137878
0.01081454173116299
0.01366360756409387
0.01384285287192383
0.01243096267429637
0.003096073610313539
-0.015610754488532
-0.01171892316352881
-0.02024448296205193
-0.1209751161569994
-0.148390877072632
-0.6386744341884234
-0.245039913493693
0.005884141016413462
-0.01025035525386732
-0.001729283083656584
-0.01154257661147899
-0.08271670173672482
-0.06805512624908643
-0.4720619586719264
-0.2495496724368092
0.008252760554480074
-0.004911870556065892
0.002619030307020547
-0.004718858186137069
-0.04439696919418043
-0.02153382417542814
-0.2383849058085106
-0.2783114475920104
0.009342350928089781
0.005848482603669832
-0.01580161990731995
-0.2544597536320347
-0.1904203470375889
0.1931552210601063
-0.1669261703139812
0.1061783849835444
-0.1506330367093353
0.04182032341840058
0.006349872836511117
-0.1423264424606484
-0.1882791025709321
0.1321981814065468
-0.1637436822697473
0.07956847837491154
-0.1491432877738058
0.02670293278018787
0.00147467445370475
-0.142933194795603
-0.1869769360586013
0.04040080543116931
-0.1591160114162158
0.05020595046981668
-0.1478637015245759
0.0157899081074096
-0.0004708467370798664
-0.1430523353027963
-0.2154823567076478
-0.1670882994807342
-0.1501654387218874
-0.1460034444880513
-0.1421465337080352
-0.01346109160421127
-0.1399579309433132
-0.0006034140566338886
-0.1390839885821961
0.001399699270872579
0.01767344365777179
-0.1386910930909325
-0.1433791127130705
-0.01049825705733132
-0.1421146172217728
-0.002087146283147878
-0.1411393381562015
0.002641173387117779
0.01810924511599721
-0.1394629945001392
-0.1435670273988589
-0.005975080827834378
-0.143069307141657
-0.001394107545559686
-0.1415943777842761
0.004224577914742622
0.01530966599305128
-0.1364646814213022
-0.1460968125747715
-0.1431361597652219
-0.1360223637150114
-0.1184469672273316
-0.1306065545128383
0.04319906844701937
-0.1263721869349952
0.04822702057632511
-0.1228032828294619
0.1032768498390603
0.1381777600298316
-0.1070707201652861
-0.1305275901400273
0.03353216807112602
-0.1246065287940474
0.03909239632812422
-0.1098236105031502
0.0862490763540259
0.09923925069844219
-0.07180848711769577
-0.1252728818056577
0.02124798919647197
-0.1137573979439742
0.024454701485633
-0.07880631841878126
0.04937719353702918
0.04479612958935608
-0.02503581256045542
-0.09816193343908186
-0.07638375809304437
-0.02893693547726872
0.01571261835384348
-0.1383459422202651
-0.05489867086820033
-0.1447230544048161
-0.1638755608471719
-0.1392455940060045
-0.06303181029569649
-0.002254044384638332
-0.1375770343187502
-0.0937770279216243
-0.03416064665713242
-0.1346571275251079
-0.1270709883691707
-0.1384048618370703
-0.06487090774020959
-0.003025632233009723
-0.1366879402925647
-0.03775673394298087
-0.02392106402988187
-0.1107193593855397
-0.05668130147239725
-0.1368242063716633
-0.04419329276299744
-0.003550951429197063
-0.1356231873805129
-0.009977131899246747
-0.06877772046822792
-0.1193792207033938
-0.1225441388821586
-0.1356802050675828
-0.003325955306791084
-0.1344974300852768
-0.004121122452008547
-0.1334737252655628
-0.005376801248283714
-0.006546482289659178
-0.1326492964612994
-0.1354889088598543
-0.003045840891036572
-0.1356512421052006
-0.002327867996428479
-0.1359600688688626
-0.003887540940432865
-0.004642889783935789
-0.1367639912716491
-0.1357089617711082
-0.001680232874203325
-0.1367401521211719