/*--------------------------------*- C++ -*----------------------------------*\
  =========                 |
  \\      /  F ield         | OpenFOAM: The Open Source CFD Toolbox
   \\    /   O peration     | Website:  https://openfoam.org
    \\  /    A nd           | Version:  11
     \\/     M anipulation  |
\*---------------------------------------------------------------------------*/
FoamFile
{
    format      ascii;
    class       volScalarField;
    location    "0.285";
    object      rho;
}
// * * * * * * * * * * * * * * * * * * * * * * * * * * * * * * * * * * * * * //

dimensions      [0 0 0 0 0 0 0];

internalField   nonuniform List<scalar> 
880
(
0.2239950333699092
0.2239950334902698
0.2240027755921212
0.2261710303139725
0.2239950333699093
0.2239950334646531
0.2240076969689345
0.2274623532508505
0.2239950333699114
0.2239950337483185
0.2240223295756634
0.2291640735319744
0.2239950333727879
0.2239950354332771
0.2240595143415933
0.2318078565383687
0.2239950333084865
0.2239950333028664
0.2239950348827498
0.2239951876275621
0.2239950566255305
0.2239950733418642
0.2239961960329949
0.2239962332377535
0.2241525428762446
0.2242662339796626
0.22446584160764
0.2245454619288199
0.236907863376635
0.2419588081438409
0.2460329241358749
0.2477088347507017
0.2239952957320596
0.2239970239540592
0.2239989773059213
0.2240148195912932
0.2240114196057132
0.2240440865585171
0.224097823754004
0.2241954267402647
0.2256405284539673
0.2265725235830384
0.2276205748789011
0.2290851627378692
0.249745304310622
0.2530756371014963
0.2540308628968709
0.2538481925467163
0.2425110978339279
0.2366184343837908
0.2342602503556637
0.2321064121010442
0.2322437727202603
0.2332555641706638
0.2339998805250948
0.2341668833514027
0.2246678191648051
0.2251754536307952
0.2257700091096672
0.2263314465749129
0.2240660930350827
0.2241839487639914
0.2243720859798634
0.2246170393197363
0.2248755533869389
0.2251152822027778
0.2252457841950098
0.2252625051673174
0.2267267070230099
0.2270056600124956
0.2271906526614581
0.2272921897449935
0.233985986787732
0.2334846855920809
0.2328539178912236
0.2323303023685007
0.2306136061872595
0.2293655342564077
0.2284756076930998
0.2288582726726556
0.2283993491190085
0.2317075082154514
0.2274350042605653
0.2251911580961285
0.2314262347960959
0.2311454514539758
0.2272958158346628
0.2250257203488776
0.2542681575750822
0.2320102465145983
0.2266723818467957
0.2247428089499238
0.3215723501405991
0.2384715037119536
0.2266610977216537
0.2245278187336276
0.2242139705000426
0.226732587510036
0.2497920509604906
0.3698442304459167
0.2241742018582991
0.2270641823480301
0.260975556228654
0.3734822385612212
0.2243180561125985
0.2285049288093041
0.2774417228738575
0.3819181833972053
0.2247529701975767
0.2317173894961532
0.2944454927542372
0.3824898944558672
0.3790916039848177
0.3136790155606644
0.2379204122020328
0.2256862047922519
0.3708716254931849
0.32875916002234
0.2478680340809086
0.227538304084157
0.3583922046045871
0.3332556222590342
0.2599264631888814
0.2305542822523179
0.3425197891875808
0.3316997334482114
0.2712354044662247
0.2352173782969547
0.2413141442086768
0.2757242592551433
0.3140537992529145
0.3234683062658134
0.2427240143791169
0.2653905198136593
0.2904409716643287
0.2997245490982507
0.2417164782777541
0.2553688540044222
0.2674388751338602
0.2711045968533037
0.2393820757807409
0.2457374634466774
0.2452799129875034
0.2387207275237477
0.2380739295485004
0.2380014346363138
0.2276412552884058
0.193864031491617
0.2342084783814597
0.2306249212763868
0.2146481081144224
0.1356500128591291
0.2308997374475232
0.2268895235290669
0.2051916251891403
0.08983260269426838
0.228315476664149
0.2253092536743013
0.1968478042558411
0.0758031362252283
0.08785027478022314
0.1939140399314674
0.223429273253244
0.2261649283797976
0.08654856895912094
0.1909154601417973
0.2221951689004581
0.2248353349434168
0.0846402477914239
0.1874544737400376
0.221336839741639
0.2241557472098796
0.07991789944300604
0.1838471964459469
0.2203014780734976
0.2239193196764851
0.09454912034565831
0.1882555492203596
0.2195493887169571
0.2237398532223431
0.1142141204635048
0.1952579300527325
0.2198248300981215
0.223775817682449
0.1324721454680749
0.2019926358141819
0.2207885083236175
0.2238511497293525
0.1508912712273746
0.206800361805253
0.2219369706351974
0.2239125842404776
0.1322206889978287
0.1932218415925515
0.219699974895834
0.2237757201892321
0.135903748068582
0.1941182425826873
0.2194827821989852
0.2237606743238243
0.1422060161668522
0.1951898078822629
0.2192915013863921
0.2237422462912968
0.1508794603263514
0.1977096673287167
0.2192178556303552
0.2237324780691612
0.1508912712271684
0.2068003618049978
0.2219369706351763
0.2239125842396144
0.1324721454679563
0.2019926358137653
0.220788508323354
0.2238511497285678
0.1142141204634507
0.1952579300523876
0.2198248300976695
0.2237758176817805
0.09454912034574371
0.1882555492199026
0.2195493887168129
0.2237398532222387
0.226164928379757
0.2234292732533119
0.1939140399314608
0.08785027477971659
0.2248353349433679
0.2221951689004067
0.1909154601416013
0.08654856895870282
0.224155747210194
0.2213368397416047
0.1874544737392383
0.0846402477911683
0.2239193196766649
0.2203014780737954
0.1838471964454733
0.07991789944306067
0.07580313622489636
0.1968478042557382
0.2253092536741041
0.2283154766638606
0.08983260269396433
0.205191625189111
0.2268895235291646
0.2308997374470292
0.1356500128589004
0.2146481081145435
0.2306249212766151
0.234208478381417
0.1938640314917908
0.227641255288445
0.2380014346358521
0.2380739295487795
0.2413141442090369
0.2757242592566285
0.3140537992538549
0.3234683062655993
0.2427240143789373
0.2653905198142399
0.2904409716648684
0.2997245490984546
0.2417164782770624
0.2553688540052501
0.2674388751342321
0.2711045968535165
0.2393820757807813
0.2457374634464491
0.2452799129878062
0.238720727524118
0.3425197891873409
0.3316997334481629
0.2712354044663692
0.2352173782985474
0.3583922046044534
0.3332556222591236
0.2599264631890745
0.2305542822524876
0.3708716254927341
0.3287591600224983
0.2478680340807254
0.2275383040846483
0.3790916039841999
0.3136790155610214
0.2379204122031462
0.2256862047925076
0.2242139705001818
0.2267325875100627
0.2497920509601748
0.3698442304452468
0.2241742018592343
0.227064182348643
0.26097555622881
0.373482238560563
0.2243180561139178
0.2285049288104759
0.2774417228741521
0.3819181833971695
0.2247529701981432
0.2317173894950148
0.2944454927536506
0.382489894455447
0.2245278187335615
0.2247428089498913
0.2250257203493559
0.2251911580961859
0.2266610977206683
0.226672381846472
0.2272958158345052
0.2274350042604252
0.2384715037114226
0.2320102465145742
0.2311454514534455
0.2317075082151974
0.3215723501399183
0.2542681575749257
0.2314262347961472
0.2283993491190451
0.2252625051676011
0.2272921897454017
0.23233030236905
0.2288582726729914
0.2252457841947702
0.2271906526617824
0.2328539178915903
0.2284756076931217
0.2251152822027413
0.2270056600125059
0.2334846855918947
0.2293655342554804
0.2248755533864711
0.2267267070225137
0.2339859867879658
0.2306136061871714
0.2240660930349249
0.2246678191642095
0.2322437727206733
0.2425110978341664
0.2241839487633346
0.2251754536303847
0.2332555641713717
0.2366184343838747
0.2243720859801447
0.2257700091091224
0.2339998805249927
0.234260250354686
0.2246170393193744
0.2263314465744521
0.2341668833518856
0.2321064121003344
0.2538481925465084
0.2290851627380256
0.2241954267398681
0.2240148195918325
0.2540308628967261
0.2276205748791049
0.2240978237532968
0.2239989773059002
0.2530756371018347
0.2265725235830514
0.2240440865573403
0.2239970239535879
0.249745304310629
0.2256405284537014
0.224011419605373
0.2239952957328554
0.2477088347505407
0.2245454619289935
0.2239962332379039
0.2239951876284002
0.2460329241356967
0.2244658416074261
0.2239961960322755
0.2239950348829458
0.2419588081436946
0.2242662339794166
0.2239950733413554
0.2239950333026658
0.236907863376614
0.2241525428760806
0.2239950566255938
0.2239950333095588
0.2239950333699092
0.2239950334911152
0.224002775592209
0.2261710303002755
0.2239950333699093
0.2239950334637515
0.2240076969688824
0.2274623532494731
0.223995033370267
0.2239950337479323
0.2240223295755624
0.2291640735319625
0.223995033373254
0.2239950354328535
0.2240595143414139
0.231807856538499
0.2282272632925662
0.230549068498044
0.2344609287890459
0.243225518716151
0.2305490684980454
0.2335231213601509
0.2403203417069904
0.2536249952687097
0.2344609287903936
0.2403203417050951
0.2516483505053463
0.2683936483767275
0.243225518715686
0.2536249952683536
0.2683936483781491
0.2868330647212144
0.3052676421364356
0.289525678446875
0.2828927276293655
0.268117971200852
0.301472034267639
0.2970464617814046
0.2976987463961623
0.2903086494500852
0.3021778936820748
0.300699318223113
0.3000550500067057
0.2972534441935476
0.2983585136791689
0.2976821647956117
0.2974811282008741
0.2956126842427961
0.2912123034125484
0.2896123351248918
0.2842019854148322
0.2773254849263014
0.2922868859441293
0.28982148381633
0.2846415886490779
0.2779908622272414
0.2927136635342784
0.2903214884387925
0.2850007699663173
0.2787011796791655
0.2931747506665247
0.2902109188998064
0.2850739473079762
0.2755387585054623
0.2276937209713069
0.2066712987308832
0.2053439339454506
0.2069248343626663
0.2126351031689153
0.2003095374499378
0.2029273468782114
0.2051171993102393
0.2002465556706221
0.1999972656385926
0.2038768458758293
0.2059701542387888
0.1817820995205505
0.1952812769961242
0.2019113124204921
0.2043547487505109
0.2084071556212177
0.2101123301371696
0.2117207457898525
0.2142184047939338
0.2068807827772541
0.2089568213977122
0.2108540244439698
0.2136606719231289
0.207383842052267
0.2092046470500673
0.2110539724627258
0.2134459426082159
0.206052679806833
0.2081532890170915
0.2106901694157285
0.2135497292421194
0.2169253256121655
0.2467492635129009
0.3175564462330244
0.3749905362276966
0.2169871984995957
0.257007275080275
0.3252505041649835
0.3570002029616879
0.2169813866364392
0.260012530571231
0.3270275704598468
0.3506157308869212
0.217288678358802
0.2655514098597892
0.3323820973833987
0.3469990481016794
0.4399190312562634
0.4235329520311913
0.4167190944706172
0.4182696084880766
0.4357785348347208
0.4241637233139371
0.4146292165881029
0.4180796899197347
0.4301556075636909
0.4233002421309517
0.4137346941622271
0.4167719800242567
0.4223134501413069
0.42502123485735
0.4135208657210981
0.4165912665827021
0.408299532816266
0.3898155327979642
0.371056655407889
0.3492946275085541
0.408885998213585
0.3910573884116354
0.373276458267865
0.3511608347182206
0.4091632037600981
0.393035291674949
0.374694251958055
0.3522062244785964
0.4102698646521212
0.3950336387438657
0.3791234065632207
0.3553835465844848
0.3305476206897263
0.3120745374536028
0.2915034450081925
0.2619447931879836
0.3313457178136139
0.3139419390985352
0.2928376003864198
0.2687171976815217
0.3330678212861056
0.3155309150401566
0.2918849922864878
0.266887942552644
0.3361855624627476
0.3200599304030228
0.292187036653772
0.3049427938110135
0.1728985844735518
0.04864404580155594
0.01338883178671924
0.009891751338446183
0.1351071927846373
0.03429317453406563
0.01585006123030869
0.01458082043502274
0.1016862205131364
0.02592019556940462
0.01803746411096975
0.01745697987316388
0.07244813512399437
0.01789826350312718
0.01857746677390603
0.01886390177867779
0.01662507613241383
0.02325796664480124
0.02890735790585911
0.03829868473921393
0.02123535154703939
0.02835146886400153
0.03481828175641938
0.04416057889950992
0.02464996722714269
0.03203486008695345
0.03983625362307619
0.0502154202101268
0.02662619565829598
0.03485957249972212
0.0447662529604374
0.05442348241960498
0.04972263030726204
0.06832802639332512
0.08628661541159025
0.1061868242954635
0.05230548736353001
0.06794797407366582
0.08586897530667123
0.1041879564027128
0.05501397316720025
0.06915077870249874
0.08333438277166436
0.1025296606332017
0.05323432126942938
0.06525468009467601
0.07587259558640845
0.1033170769456497
0.111499273934918
0.1114159955071221
0.1092026264901302
0.1042507641414301
0.09577259716716741
0.09913205369836947
0.09918353152283596
0.0972589161520553
0.08133593882448965
0.08848156027858056
0.09026081948272043
0.09030036471415455
0.06767819719723907
0.07572239760326872
0.08145073422240079
0.08767382551777646
0.09531184658394262
0.1011639655034515
0.104712157372597
0.1059616511778311
0.09406960170000425
0.0989628157622468
0.1031981303954572
0.1055309041765638
0.09749954352583202
0.1001505703209612
0.1042545807947076
0.1066668477536277
0.1018300690285156
0.1028255765518439
0.1059047985237937
0.10790865941988
0.1059616511778305
0.1055309041765742
0.106666847753621
0.1079086594198782
0.1047121573726137
0.1031981303954961
0.1042545807947043
0.1059047985237811
0.1011639655035094
0.09896281576230918
0.1001505703209607
0.1028255765518219
0.09531184658402475
0.09406960170005799
0.09749954352581798
0.1018300690284895
0.1042507641414039
0.1092026264901546
0.111415995507102
0.111499273934788
0.09725891615203913
0.09918353152280626
0.09913205369832022
0.0957725971670704
0.09030036471421314
0.0902608194826975
0.08848156027853132
0.08133593882443545
0.08767382551784886
0.08145073422243661
0.07572239760329171
0.06767819719723132
0.1033170769456212
0.07587259558653464
0.06525468009486476
0.05323432126967675
0.1025296606331426
0.08333438277174804
0.06915077870265667
0.0550139731674148
0.1041879564026207
0.08586897530672118
0.06794797407381407
0.05230548736375434
0.1061868242953342
0.08628661541158299
0.06832802639345247
0.04972263030749415
0.03829868473941355
0.02890735790597457
0.02325796664478906
0.01662507613236624
0.04416057889972982
0.03481828175655726
0.02835146886407314
0.02123535154705148
0.05021542021034563
0.03983625362323784
0.03203486008705515
0.02464996722715935
0.05442348241983273
0.04476625296064134
0.03485957249986393
0.02662619565833175
0.009891751338443963
0.0133888317866164
0.04864404580127889
0.172898584473542
0.01458082043503188
0.0158500612303029
0.03429317453401404
0.1351071927845456
0.0174569798731568
0.01803746411093719
0.02592019556942119
0.101686220513101
0.01886390177867299
0.01857746677388426
0.01789826350315369
0.07244813512395441
0.2619447931881675
0.2915034450080405
0.3120745374534617
0.3305476206895631
0.2687171976816797
0.2928376003862654
0.3139419390984615
0.3313457178136662
0.2668879425527159
0.2918849922863427
0.31553091504011
0.3330678212862764
0.3049427938109063
0.292187036653607
0.3200599304030043
0.3361855624631327
0.3492946275082573
0.3710566554072252
0.38981553279758
0.4082995328161217
0.3511608347181576
0.3732764582672085
0.3910573884113115
0.4088859982135706
0.3522062244789403
0.3746942519578008
0.3930352916747329
0.4091632037601232
0.3553835465851705
0.3791234065639723
0.3950336387435688
0.4102698646521489
0.418269608488201
0.4167190944706063
0.4235329520304764
0.4399190312554756
0.4180796899197989
0.4146292165879886
0.4241637233131912
0.4357785348339557
0.4167719800244146
0.4137346941621007
0.4233002421302647
0.4301556075630651
0.4165912665827972
0.4135208657208428
0.4250212348566978
0.4223134501407612
0.3749905362271794
0.3175564462326723
0.2467492635128919
0.2169253256125484
0.3570002029612909
0.3252505041646696
0.2570072750803057
0.2169871984999344
0.3506157308865168
0.3270275704595707
0.260012530571308
0.2169813866367825
0.3469990481013707
0.3323820973831084
0.2655514098598519
0.217288678359146
0.214218404794173
0.2117207457894274
0.2101123301362723
0.2084071556210622
0.2136606719234112
0.2108540244436221
0.208956821396963
0.2068807827770915
0.2134459426086007
0.2110539724626989
0.2092046470494095
0.2073838420520938
0.2135497292424998
0.2106901694155086
0.2081532890164374
0.2060526798067108
0.2069248343619038
0.205343933944711
0.2066712987310716
0.2276937209715912
0.2051171993093881
0.2029273468774939
0.2003095374502036
0.2126351031691622
0.2059701542379467
0.2038768458751616
0.1999972656389049
0.200246555670838
0.2043547487496419
0.2019113124197144
0.195281276996403
0.1817820995206341
0.2773254849262531
0.2842019854149289
0.2896123351255335
0.2912123034128274
0.2779908622272262
0.2846415886493581
0.2898214838169922
0.2922868859443962
0.2787011796791588
0.2850007699666985
0.2903214884394319
0.2927136635344983
0.2755387585056423
0.2850739473084301
0.290210918900528
0.2931747506667399
0.2956126842423528
0.2972534441931973
0.2903086494498641
0.2681179712013719
0.2974811282005049
0.3000550500063775
0.2976987463957001
0.2828927276293243
0.2976821647952176
0.3006993182227645
0.2970464617809757
0.2895256784463177
0.2983585136787841
0.3021778936817517
0.301472034267166
0.3052676421354004
0.1646819714886233
0.2067239168876292
0.2216648549514176
0.2239028566007239
0.1641179847435341
0.2045449325271285
0.2209346848091562
0.2238499236796701
0.164215653502617
0.2029424114452387
0.2202797473231402
0.2237917927558576
0.1582146882184453
0.2003735031555308
0.2196593178011449
0.2237503970745529
0.2237757201894433
0.2196999748961607
0.1932218415925033
0.1322206889977508
0.2237606743238358
0.2194827821992435
0.1941182425826003
0.1359037480685122
0.2237422462913581
0.2192915013860852
0.1951898078821966
0.1422060161667553
0.2237324780692226
0.219217855629925
0.197709667328703
0.1508794603262481
0.2237503970743259
0.2237917927555764
0.2238499236795189
0.2239028566000834
0.2196593178006061
0.2202797473229399
0.2209346848089005
0.2216648549513283
0.2003735031555052
0.2029424114451774
0.2045449325272699
0.2067239168876442
0.1582146882183262
0.1642156535025582
0.1641179847435061
0.1646819714885022
)
;

boundaryField
{
    back
    {
        type            empty;
    }
    inlet
    {
        type            calculated;
        value           nonuniform List<scalar> 
16
(
0.2239950333699092
0.2239950333699093
0.2239950333699114
0.2239950333727879
0.2239950333084864
0.2239950333028664
0.2239950348827498
0.2239951876275621
0.2239951876284002
0.2239950348829458
0.2239950333026658
0.2239950333095587
0.2239950333699092
0.2239950333699093
0.223995033370267
0.223995033373254
)
;
    }
    front
    {
        type            empty;
    }
    top
    {
        type            calculated;
        value           nonuniform List<scalar> 
40
(
0.2239952957320596
0.2239970239540592
0.2239989773059213
0.2240148195912932
0.2240660930350827
0.2241839487639914
0.2243720859798634
0.2246170393197363
0.224875553386939
0.2251152822027778
0.2252457841950098
0.2252625051673174
0.2251911580961285
0.2250257203488776
0.2247428089499238
0.2245278187336276
0.2242139705000426
0.2241742018582991
0.2243180561125985
0.2247529701975767
0.2256862047922519
0.227538304084157
0.2305542822523179
0.2352173782969547
0.2413141442086768
0.2427240143791169
0.2417164782777541
0.2393820757807409
0.2380739295485004
0.2342084783814597
0.2308997374475232
0.228315476664149
0.2261649283797975
0.2248353349434168
0.2241557472098796
0.2239193196764851
0.2237398532223431
0.223775817682449
0.2238511497293525
0.2239125842404776
)
;
    }
    outlet
    {
        type            calculated;
        value           uniform 0.2239950333699093;
    }
    bottom
    {
        type            calculated;
        value           nonuniform List<scalar> 
40
(
0.2239125842396144
0.2238511497285678
0.2237758176817805
0.2237398532222387
0.226164928379757
0.2248353349433679
0.224155747210194
0.223919319676665
0.2283154766638606
0.2308997374470292
0.234208478381417
0.2380739295487795
0.2413141442090369
0.2427240143789373
0.2417164782770624
0.2393820757807813
0.2352173782985474
0.2305542822524876
0.2275383040846483
0.2256862047925076
0.2242139705001818
0.2241742018592343
0.2243180561139178
0.2247529701981432
0.2245278187335615
0.2247428089498913
0.2250257203493559
0.2251911580961859
0.2252625051676011
0.2252457841947702
0.2251152822027412
0.2248755533864711
0.2240660930349249
0.2241839487633346
0.2243720859801447
0.2246170393193745
0.2240148195918326
0.2239989773059002
0.2239970239535879
0.2239952957328554
)
;
    }
    wall
    {
        type            calculated;
        value           nonuniform List<scalar> 
104
(
0.3052676421364356
0.301472034267639
0.3021778936820748
0.2983585136791689
0.2931747506665247
0.2902109188998064
0.2850739473079762
0.2755387585054623
0.1817820995205505
0.1952812769961241
0.201911312420492
0.2043547487505109
0.206052679806833
0.2081532890170915
0.2106901694157285
0.2135497292421194
0.217288678358802
0.2655514098597892
0.3323820973833987
0.3469990481016794
0.4223134501413069
0.42502123485735
0.4135208657210981
0.4165912665827021
0.4102698646521212
0.3950336387438657
0.3791234065632207
0.3553835465844848
0.3361855624627476
0.3200599304030228
0.292187036653772
0.3049427938110134
0.07244813512399437
0.01789826350312718
0.01857746677390603
0.01886390177867779
0.02662619565829598
0.03485957249972212
0.0447662529604374
0.05442348241960498
0.05323432126942938
0.06525468009467601
0.07587259558640845
0.1033170769456497
0.06767819719723907
0.07572239760326872
0.08145073422240079
0.08767382551777646
0.09531184658394262
0.1011639655034515
0.104712157372597
0.1059616511778311
0.1059616511778305
0.1047121573726137
0.1011639655035094
0.09531184658402475
0.08767382551784886
0.08145073422243661
0.07572239760329171
0.06767819719723132
0.1033170769456212
0.07587259558653464
0.06525468009486476
0.05323432126967675
0.05442348241983272
0.04476625296064134
0.03485957249986393
0.02662619565833176
0.01886390177867299
0.01857746677388426
0.01789826350315369
0.07244813512395441
0.3049427938109063
0.292187036653607
0.3200599304030043
0.3361855624631327
0.3553835465851705
0.3791234065639723
0.3950336387435688
0.4102698646521489
0.4165912665827972
0.4135208657208428
0.4250212348566978
0.4223134501407612
0.3469990481013707
0.3323820973831084
0.2655514098598519
0.217288678359146
0.2135497292424998
0.2106901694155086
0.2081532890164374
0.2060526798067108
0.2043547487496419
0.2019113124197144
0.195281276996403
0.1817820995206341
0.2755387585056423
0.2850739473084301
0.290210918900528
0.2931747506667399
0.2983585136787841
0.3021778936817517
0.301472034267166
0.3052676421354004
)
;
    }
}


// ************************************************************************* //
