/*--------------------------------*- C++ -*----------------------------------*\
  =========                 |
  \\      /  F ield         | OpenFOAM: The Open Source CFD Toolbox
   \\    /   O peration     | Website:  https://openfoam.org
    \\  /    A nd           | Version:  11
     \\/     M anipulation  |
\*---------------------------------------------------------------------------*/
FoamFile
{
    format      ascii;
    class       volVectorField;
    location    "14.8";
    object      U;
}
// * * * * * * * * * * * * * * * * * * * * * * * * * * * * * * * * * * * * * //

dimensions      [0 1 -1 0 0 0 0];

internalField   nonuniform List<vector> 
5472
(
(10.632008 2.6602325 1.5645768e-18)
(10.835486 2.6571119 -1.6291563e-18)
(11.047266 2.613987 -1.6293208e-18)
(11.251881 2.579306 -1.6473848e-18)
(11.450051 2.5061708 5.1008045e-18)
(11.669182 2.4219088 -4.1673677e-20)
(11.846673 2.3278014 -2.6704566e-18)
(12.02092 2.2060034 9.3362008e-19)
(12.213261 2.0874127 0)
(12.361017 1.9322802 0)
(12.512392 1.7847573 0)
(12.68298 1.6076538 -2.8033973e-18)
(12.806259 1.4309655 1.4365934e-18)
(12.912775 1.2321446 -2.8669245e-20)
(13.050774 1.052528 9.5392328e-19)
(13.105026 0.80188923 -4.9210027e-19)
(13.181028 0.6333626 -7.2930215e-19)
(13.247787 0.35062819 2.5255882e-19)
(13.242391 0.16608698 0)
(10.56108 2.4337089 -1.43555e-18)
(10.774665 2.426102 2.9557353e-18)
(10.965218 2.3949949 -1.5218041e-18)
(11.145063 2.3647292 -1.5157225e-18)
(11.374907 2.2888291 2.906843e-20)
(11.543478 2.2230989 0)
(11.714334 2.1437962 1.5995109e-18)
(11.918037 2.0270318 -3.2465004e-18)
(12.082137 1.9270164 4.1872651e-18)
(12.22575 1.7865461 8.5022065e-19)
(12.424853 1.6527865 0)
(12.554718 1.4711271 1.748775e-18)
(12.666398 1.3259516 0)
(12.818247 1.1270795 4.3463796e-19)
(12.888733 0.94973715 -4.4985531e-19)
(12.975293 0.74508425 0)
(13.0617 0.55549899 0)
(13.095569 0.32206866 -2.2150199e-19)
(13.140516 0.14269783 0)
(10.601665 2.253314 0)
(10.763657 2.2562038 1.3520225e-18)
(10.916424 2.2449593 1.3795137e-18)
(11.126808 2.2093681 0)
(11.282558 2.173841 -2.3949068e-20)
(11.446484 2.1231826 -3.1320281e-20)
(11.648481 2.0435046 -1.4897261e-18)
(11.808978 1.9613498 0)
(11.973992 1.8660694 -1.5052655e-18)
(12.142396 1.7312084 -3.8434373e-18)
(12.306374 1.6100126 1.5279383e-20)
(12.400068 1.4558443 -7.651016e-19)
(12.57582 1.298545 -7.898676e-19)
(12.667936 1.1291218 1.6185413e-18)
(12.758014 0.95256287 1.2133092e-18)
(12.8769 0.76136241 4.0806076e-19)
(12.9135 0.56599461 2.0233496e-19)
(12.992666 0.36218152 -3.0543835e-19)
(13.015015 0.16176899 1.0160873e-19)
(10.526738 2.0758768 0)
(10.661881 2.0634875 -1.2203042e-18)
(10.849947 2.0475298 -1.2437805e-18)
(10.998748 2.0343992 2.5231708e-18)
(11.163222 1.9908937 -1.3315332e-18)
(11.349416 1.94154 0)
(11.523696 1.880619 -1.3515902e-18)
(11.691005 1.8033805 1.3498772e-18)
(11.857162 1.7107422 -1.3974844e-18)
(12.008006 1.6012159 -2.4361374e-20)
(12.14184 1.4868422 -1.4302302e-18)
(12.287477 1.3434382 0)
(12.421306 1.1955601 0)
(12.519864 1.0344744 -7.2063365e-19)
(12.653521 0.86351572 -7.2497594e-19)
(12.719111 0.68053561 0)
(12.792999 0.49387681 -1.833577e-19)
(12.851258 0.29367661 9.3131135e-20)
(12.867424 0.092873093 1.8458292e-19)
(10.523219 1.9102341 0)
(10.665434 1.8938179 0)
(10.807837 1.9065234 0)
(10.962263 1.885571 -2.2938653e-18)
(11.132507 1.8681995 1.1947532e-18)
(11.298313 1.8377333 -3.5836623e-18)
(11.461517 1.7821144 4.8825295e-18)
(11.617652 1.7235902 -2.4778045e-18)
(11.767977 1.6481383 2.9234224e-21)
(11.903599 1.5501976 1.2617172e-18)
(12.052524 1.4384513 1.2757302e-18)
(12.187823 1.3097033 -2.6003028e-18)
(12.309539 1.1686128 1.9727837e-18)
(12.427768 1.028317 -6.6476193e-19)
(12.51885 0.85750198 0)
(12.600223 0.70593571 6.7091311e-19)
(12.66247 0.51561472 -3.3609063e-19)
(12.709199 0.33393314 1.6593883e-19)
(12.739353 0.14073602 -1.64622e-19)
(10.466979 1.7319434 0)
(10.58686 1.7316944 -4.0191554e-18)
(10.737925 1.748556 2.0721058e-18)
(10.885951 1.7262026 2.1057684e-18)
(11.034079 1.7244883 1.0629701e-18)
(11.180203 1.682681 -1.0749065e-18)
(11.322293 1.6455671 2.2316273e-18)
(11.465242 1.5929849 1.1125218e-18)
(11.607398 1.5193341 2.2546441e-18)
(11.75426 1.4368742 -2.3059157e-18)
(11.89607 1.3289772 2.0740283e-20)
(12.034806 1.2113965 2.3523957e-18)
(12.150063 1.0808543 0)
(12.268997 0.93730123 -6.0088008e-19)
(12.361484 0.78823638 5.9507989e-19)
(12.452482 0.62694117 -1.4967914e-18)
(12.519138 0.44477593 5.9962444e-19)
(12.578661 0.27162218 -1.4970916e-19)
(12.60593 0.066969445 5.3665512e-22)
(10.484005 1.5617076 3.585478e-18)
(10.598423 1.5923426 3.6402426e-18)
(10.733987 1.6005828 0)
(10.853376 1.5905924 -6.7645046e-21)
(10.979988 1.5916804 -3.8643767e-18)
(11.112676 1.5620533 3.9589828e-18)
(11.245739 1.5441422 0)
(11.402789 1.4846595 -1.0207931e-18)
(11.543826 1.428286 -4.0968813e-18)
(11.690007 1.3575645 2.1010867e-18)
(11.814985 1.2678531 1.0432306e-18)
(11.945807 1.1700573 -1.0702335e-18)
(12.0573 1.0399033 0)
(12.181723 0.91423394 5.3260181e-19)
(12.262587 0.76800347 0)
(12.363643 0.62132681 -5.3804053e-19)
(12.41076 0.4577637 8.1339374e-19)
(12.487996 0.28692337 1.211494e-21)
(12.490887 0.10573991 -1.228018e-21)
(10.441546 1.4148882 1.6089508e-18)
(10.533778 1.459127 -3.2827826e-18)
(10.6513 1.4568088 -3.3309451e-18)
(10.758785 1.4628791 3.4263366e-18)
(10.886236 1.4642868 -1.7553474e-18)
(11.014042 1.4427313 -1.7651784e-18)
(11.151508 1.4183157 0)
(11.282474 1.3642203 2.7249688e-18)
(11.404526 1.3212304 -1.6098562e-20)
(11.535766 1.2519442 -2.8057289e-18)
(11.652025 1.1795094 2.8643923e-18)
(11.786166 1.0771269 0)
(11.895751 0.96381894 0)
(12.017356 0.83384746 9.6029005e-19)
(12.108013 0.70436541 -4.9422326e-19)
(12.2013 0.55638353 -9.7225208e-19)
(12.249769 0.401569 2.4640874e-19)
(12.314658 0.24502454 2.4800063e-19)
(12.316717 0.069677812 5.9835824e-20)
(10.455035 1.275538 -1.4438953e-18)
(10.528272 1.3311701 4.4127298e-18)
(10.627047 1.3177619 -4.5466908e-18)
(10.721927 1.342708 3.0777507e-18)
(10.849484 1.3329521 0)
(10.967188 1.3249955 1.5847504e-18)
(11.083083 1.3170977 -1.633915e-18)
(11.199167 1.2781722 0)
(11.327 1.2377522 8.263448e-19)
(11.460715 1.1713841 -1.7108344e-18)
(11.586025 1.1073285 -8.4556245e-19)
(11.714423 1.0170008 -1.1937448e-20)
(11.814801 0.91304079 -2.596828e-18)
(11.91997 0.79381844 4.4835709e-19)
(12.00047 0.67527185 -4.2772633e-19)
(12.087306 0.53663145 8.763299e-19)
(12.142309 0.39859776 -4.3406771e-19)
(12.209714 0.23370681 2.2351686e-19)
(12.229963 0.075416752 2.1703916e-19)
(10.379901 1.1728065 -2.6096266e-18)
(10.471886 1.2086189 0)
(10.56821 1.1969527 1.3519293e-18)
(10.665528 1.2222022 -4.1259927e-18)
(10.771722 1.2062569 1.4207721e-18)
(10.86413 1.2201205 -1.4375134e-18)
(10.982548 1.1947428 1.4458245e-18)
(11.095623 1.1673114 -1.4872929e-18)
(11.218411 1.1280526 0)
(11.333315 1.0726914 7.5178993e-19)
(11.454815 1.029119 0)
(11.574397 0.94707685 7.6363173e-19)
(11.687253 0.86077995 -4.5051482e-22)
(11.797347 0.74088075 -3.8520718e-19)
(11.883088 0.62384393 3.8622245e-19)
(11.965606 0.49119791 3.8798837e-19)
(12.023397 0.36018843 -3.2606029e-21)
(12.075543 0.21215138 -5.8377792e-19)
(12.092026 0.061126334 0)
(10.376047 1.0558704 0)
(10.471904 1.0737714 1.1912862e-18)
(10.531949 1.093411 0)
(10.631095 1.1199544 1.222518e-18)
(10.734185 1.1048509 -3.7876353e-18)
(10.837944 1.1222329 3.8597828e-18)
(10.943496 1.0999187 -1.2823285e-18)
(11.049229 1.084865 3.9888304e-18)
(11.160131 1.0375864 0)
(11.267162 0.99346657 6.7990276e-19)
(11.382548 0.93384542 0)
(11.489254 0.86603972 -1.3655101e-18)
(11.599265 0.79049372 2.7647467e-18)
(11.693438 0.68666038 -9.6531907e-21)
(11.777524 0.58294159 -3.498413e-19)
(11.848301 0.45704938 0)
(11.906328 0.33571063 0)
(11.951387 0.1929073 0)
(11.978597 0.049292482 -4.3486715e-20)
(10.356226 0.96430658 4.1536742e-18)
(10.445432 0.95966958 -5.3376903e-18)
(10.49385 0.99000838 2.1628757e-18)
(10.589929 0.99016428 -1.0453076e-20)
(10.647896 1.0032272 0)
(10.747939 1.0121398 -2.2807626e-18)
(10.842519 0.99962972 1.1821843e-18)
(10.946282 0.99728693 -1.1758742e-18)
(11.050634 0.95763026 0)
(11.155519 0.93128656 -6.0073187e-19)
(11.267288 0.86967873 1.2099275e-18)
(11.370818 0.81750005 -1.591267e-20)
(11.471977 0.73367338 -1.2401264e-18)
(11.572377 0.64431275 -2.465179e-18)
(11.657294 0.54379758 2.1697556e-18)
(11.72189 0.43032412 -1.2402786e-18)
(11.784558 0.31257464 7.7823973e-19)
(11.820502 0.1835303 1.5568915e-19)
(11.85788 0.046587322 3.8167366e-20)
(10.325791 0.85239083 -6.5202228e-18)
(10.402904 0.87584714 3.817286e-18)
(10.451866 0.90592607 0)
(10.551901 0.90374208 -4.9199974e-18)
(10.615179 0.91961156 4.0422e-18)
(10.729185 0.90298774 1.0251047e-18)
(10.796957 0.89915458 3.1061397e-18)
(10.903511 0.88303974 -2.1161454e-18)
(10.989114 0.86174001 -2.6513274e-18)
(11.092986 0.83654992 1.6240535e-18)
(11.184143 0.78435955 2.1549742e-18)
(11.28519 0.73819855 -3.2801486e-18)
(11.373068 0.6596824 2.1926694e-18)
(11.469846 0.58842616 -5.5969691e-19)
(11.541153 0.49115872 2.7116219e-19)
(11.610079 0.39162112 -4.9988412e-21)
(11.669895 0.27781446 -6.897077e-19)
(11.702101 0.15844291 -1.3649994e-19)
(11.738843 0.024640873 -3.4387428e-20)
(10.339325 0.7533758 2.5025417e-18)
(10.40567 0.76975763 3.3796139e-18)
(10.442065 0.79879793 -3.4695418e-18)
(10.518083 0.81357191 8.8180456e-19)
(10.578179 0.83826146 -2.6697361e-18)
(10.672628 0.82538879 2.7493393e-18)
(10.73014 0.83850784 9.1706236e-19)
(10.830428 0.81153219 -4.6808077e-18)
(10.900741 0.80395177 3.307223e-18)
(11.010076 0.76874037 -1.4461619e-18)
(11.093814 0.73471815 0)
(11.195613 0.68636773 -4.8643255e-19)
(11.278616 0.61792787 -1.4562856e-18)
(11.368399 0.54743034 5.0064248e-19)
(11.437907 0.46254813 1.4706794e-18)
(11.505326 0.36953655 4.8682197e-19)
(11.556579 0.26439286 -9.7721712e-19)
(11.596325 0.15512933 2.4599653e-19)
(11.623584 0.02044977 2.7318545e-19)
(10.305169 0.67527029 -3.6905649e-18)
(10.34653 0.70413939 3.026986e-18)
(10.416866 0.70792406 0)
(10.474423 0.72277384 -7.8164131e-19)
(10.532415 0.73889929 3.1737744e-18)
(10.607804 0.74237671 -6.4661702e-18)
(10.668995 0.7481746 8.5118236e-19)
(10.764329 0.72204967 3.3443588e-18)
(10.824176 0.71724995 2.523982e-18)
(10.920983 0.68636973 -4.250355e-19)
(10.992818 0.66181821 0)
(11.094591 0.60931035 2.1344715e-18)
(11.171709 0.55791355 -8.7155164e-19)
(11.258287 0.48554848 8.6412621e-19)
(11.327026 0.41507009 -1.3018465e-18)
(11.391676 0.32743254 -2.173998e-19)
(11.437137 0.23383945 0)
(11.476892 0.13235033 0)
(11.492725 0.011606507 -2.6977044e-20)
(10.302216 0.59310381 6.3267241e-19)
(10.32767 0.62483193 -6.0452789e-18)
(10.386093 0.62960831 2.7217419e-18)
(10.425434 0.65867195 -3.4827505e-18)
(10.507032 0.65940836 -7.0466565e-19)
(10.559458 0.67574321 0)
(10.644683 0.67108684 -3.6179617e-18)
(10.715702 0.66391292 2.220488e-18)
(10.785031 0.65284135 -7.4512565e-19)
(10.877747 0.62836878 -2.4207267e-21)
(10.947788 0.6066312 0)
(11.041602 0.55991796 0)
(11.106612 0.51591089 -3.791274e-19)
(11.190012 0.4449179 -3.7993323e-19)
(11.24999 0.38395943 1.9010928e-19)
(11.315613 0.30216218 1.1436725e-18)
(11.360332 0.21759805 -7.6648338e-19)
(11.401843 0.1205453 9.5770592e-20)
(11.418488 0.010492673 2.3567626e-20)
(10.265162 0.52680774 4.0766032e-18)
(10.309205 0.53858554 -4.1743102e-18)
(10.355675 0.54819772 0)
(10.397486 0.57276446 6.1477309e-19)
(10.457146 0.57703262 0)
(10.499362 0.59947647 6.3510501e-19)
(10.574992 0.58668849 6.4367989e-19)
(10.624014 0.59429319 0)
(10.709329 0.5718763 3.2692115e-18)
(10.774086 0.5661617 -2.3302502e-18)
(10.857366 0.53685585 1.6606616e-18)
(10.927782 0.50903246 -1.3459768e-18)
(11.003895 0.46132502 1.3380467e-18)
(11.072993 0.40110298 -1.2246935e-20)
(11.132786 0.34482538 -1.3543067e-18)
(11.195898 0.26607619 -1.6767668e-19)
(11.23699 0.19527933 -1.6906583e-19)
(11.278479 0.10419839 -8.3584831e-20)
(11.291803 0.0082264147 0)
(10.234719 0.47571981 4.6665099e-18)
(10.280657 0.48958793 0)
(10.315914 0.49934166 0)
(10.37233 0.51338848 5.449873e-19)
(10.42197 0.51911791 0)
(10.479665 0.53310902 -5.5925612e-19)
(10.544636 0.52703014 -5.6614339e-19)
(10.599461 0.52908125 -2.2852792e-18)
(10.680598 0.51153673 2.3254179e-18)
(10.737282 0.50525837 0)
(10.824409 0.47676815 -2.6309096e-18)
(10.881759 0.45753748 2.074612e-18)
(10.967594 0.40543653 1.1785839e-18)
(11.016248 0.36624317 -2.3722523e-18)
(11.090997 0.29748351 2.3741288e-18)
(11.135539 0.24316904 -1.7822348e-18)
(11.184284 0.1676643 5.9327937e-19)
(11.212168 0.096308596 0)
(11.231664 0.013530503 0)
(10.223331 0.3977831 7.3288219e-18)
(10.264786 0.41012681 -3.7344592e-18)
(10.293707 0.42454382 3.7797682e-18)
(10.340664 0.43869231 -4.336601e-18)
(10.377117 0.45342885 -3.8900375e-18)
(10.437594 0.46170577 3.9641625e-18)
(10.480272 0.46377487 1.9932097e-18)
(10.538169 0.46552297 -1.4255544e-20)
(10.597058 0.45409443 -2.0468645e-18)
(10.658605 0.44758707 0)
(10.72768 0.42516508 0)
(10.789951 0.40676202 2.5853982e-19)
(10.860499 0.36780054 0)
(10.911296 0.32616714 1.0381524e-18)
(10.978737 0.26677184 -1.0469991e-18)
(11.013898 0.215242 -5.1947905e-19)
(11.068837 0.14293062 6.517661e-19)
(11.089484 0.080146104 -3.2452365e-19)
(11.116713 0.0020722132 2.5909774e-19)
(10.181049 0.34799845 0)
(10.215355 0.36369271 0)
(10.254861 0.37215109 3.3362035e-18)
(10.306908 0.38498782 -3.3998774e-18)
(10.352476 0.39457441 3.8587366e-18)
(10.409744 0.40276052 -3.9255581e-18)
(10.452618 0.40665671 0)
(10.516692 0.40552901 4.4504539e-19)
(10.565896 0.39834133 1.7857737e-18)
(10.635133 0.39035319 -1.811425e-18)
(10.687782 0.37271061 1.8072099e-18)
(10.759424 0.35348261 -1.4569918e-20)
(10.813047 0.32436658 -3.6530395e-18)
(10.874312 0.28918404 1.8362318e-18)
(10.924519 0.23991185 0)
(10.962007 0.19194547 -9.1143066e-19)
(11.001198 0.12668902 1.4284231e-18)
(11.021726 0.069793249 -6.2749817e-19)
(11.042111 -0.00046788417 2.2719772e-19)
(10.171844 0.27781545 1.1076797e-17)
(10.194758 0.29310439 -5.8159835e-18)
(10.227771 0.30682113 0)
(10.264069 0.32186275 -3.7373618e-19)
(10.303698 0.33447919 -3.7776414e-19)
(10.349565 0.34362587 3.8209696e-19)
(10.396742 0.34905537 0)
(10.447957 0.35178908 -3.8954749e-19)
(10.499902 0.34493284 3.1352048e-18)
(10.560418 0.34044869 -3.1771751e-18)
(10.614327 0.32216997 0)
(10.679971 0.30325465 0)
(10.732686 0.27973503 2.0047324e-19)
(10.797438 0.24629585 1.0035416e-19)
(10.841233 0.21223653 -1.0036346e-19)
(10.890181 0.16584473 0)
(10.915049 0.11769482 -4.4854635e-19)
(10.94315 0.063771791 3.9995365e-19)
(10.949278 0.0054008769 0)
(10.121647 0.22890246 -1.0078662e-17)
(10.161379 0.24125829 1.0547667e-17)
(10.195182 0.25277683 -1.8081131e-20)
(10.236868 0.26521967 -4.9361409e-18)
(10.282932 0.27600368 0)
(10.325999 0.28544953 2.6810045e-18)
(10.372557 0.29437372 -5.5980011e-18)
(10.419545 0.29734553 2.7454188e-18)
(10.474102 0.29679527 0)
(10.525828 0.29187487 -2.7638642e-18)
(10.581513 0.27778663 2.7954817e-18)
(10.633525 0.26163869 1.3921011e-18)
(10.685282 0.23514705 -1.4040857e-18)
(10.739233 0.20874967 1.2205913e-18)
(10.787363 0.17574508 -1.3178176e-18)
(10.830046 0.13628936 0)
(10.863395 0.08950319 -4.376676e-20)
(10.886647 0.043048522 -1.3026734e-19)
(10.8911 -0.0071414114 1.8466636e-19)
(10.091739 0.16770527 2.7716776e-19)
(10.123734 0.18017278 -5.6241349e-19)
(10.146567 0.19880014 4.5518237e-18)
(10.189928 0.21029853 2.71317e-19)
(10.228235 0.22305086 -3.1186717e-19)
(10.277848 0.22667534 -4.7255041e-18)
(10.324098 0.23366084 1.4848331e-19)
(10.376315 0.23767861 2.5407544e-18)
(10.427609 0.24072744 -2.4204307e-18)
(10.481938 0.24228268 -1.5184838e-19)
(10.536028 0.23369108 0)
(10.591102 0.22411413 2.5868164e-18)
(10.639379 0.20554136 -2.6072117e-18)
(10.685281 0.18249323 -1.1434936e-18)
(10.731396 0.15967288 8.4359277e-20)
(10.764381 0.12826459 1.8349963e-18)
(10.799851 0.095140726 -5.7361086e-19)
(10.816249 0.057710005 -5.6968324e-20)
(10.831796 0.013219144 -9.4383898e-21)
(10.078922 0.1116958 0)
(10.099347 0.12571329 2.469164e-19)
(10.129695 0.1423467 3.9967642e-18)
(10.163866 0.15686266 -4.4355034e-18)
(10.200117 0.16952252 4.2116721e-18)
(10.243341 0.17868052 -4.1400979e-18)
(10.283611 0.18299734 1.3036477e-19)
(10.334077 0.18544326 -1.3091409e-19)
(10.380927 0.18438085 1.9712314e-18)
(10.437891 0.18241921 -1.9935894e-18)
(10.490831 0.17426126 1.9852436e-18)
(10.54598 0.16273636 -2.203328e-18)
(10.595613 0.14563194 0)
(10.642735 0.12414058 1.0620148e-18)
(10.683338 0.10210112 -1.201286e-18)
(10.720665 0.073924911 5.3013173e-19)
(10.749446 0.046982352 -4.9874682e-19)
(10.767129 0.01748551 -2.3131349e-19)
(10.779823 -0.015662187 2.6830822e-19)
(10.040321 0.061353766 -1.0333012e-20)
(10.056966 0.076042432 -6.9422533e-18)
(10.086215 0.089931123 1.0976533e-19)
(10.119022 0.10131234 -1.9487052e-22)
(10.158858 0.11548589 1.1188365e-19)
(10.203631 0.12367364 0)
(10.246858 0.13513106 3.6361465e-18)
(10.294983 0.14021029 -3.7920244e-18)
(10.342385 0.14738372 1.1503903e-19)
(10.392663 0.15264588 -1.7884623e-18)
(10.446534 0.15155792 3.772088e-18)
(10.499144 0.15225095 -3.7203638e-18)
(10.549404 0.14098628 1.8675329e-18)
(10.600136 0.13154277 0)
(10.639448 0.11357467 -8.9699357e-19)
(10.67942 0.093844426 9.2977133e-19)
(10.706297 0.070745213 -1.4360111e-20)
(10.726906 0.043444294 4.5493578e-23)
(10.737713 0.019590236 -3.5785803e-21)
(10.022056 0.025590954 6.0460713e-18)
(10.037126 0.034836103 -6.0734652e-18)
(10.057827 0.042750829 6.0585663e-18)
(10.085826 0.051349737 9.6987284e-20)
(10.12386 0.056975738 0)
(10.165343 0.06103547 0)
(10.213756 0.062276628 -4.9489133e-20)
(10.264605 0.060557909 -3.140791e-18)
(10.317489 0.059312909 3.272269e-18)
(10.372514 0.055482141 3.1878359e-18)
(10.426644 0.051311265 -1.5545984e-18)
(10.480042 0.046994462 -1.6971305e-18)
(10.532643 0.039348205 0)
(10.578079 0.033347045 2.5283214e-20)
(10.618526 0.024670814 2.516285e-20)
(10.654103 0.016852574 7.890236e-19)
(10.677046 0.0070478525 -8.1647333e-19)
(10.694726 -0.0064000022 1.8093539e-19)
(10.703891 -0.01918407 -1.9949958e-19)
(10.008879 0.0076889799 -4.073914e-20)
(10.019033 0.011140328 5.2598878e-18)
(10.035603 0.016799209 -6.9206162e-21)
(10.058861 0.023769716 -1.0149289e-20)
(10.088911 0.03134377 -5.4329813e-18)
(10.125613 0.039011599 0)
(10.168498 0.046519304 2.7046557e-18)
(10.216606 0.053386741 -2.7309487e-18)
(10.269053 0.058996825 -4.3274953e-20)
(10.324931 0.063308533 -2.1690495e-20)
(10.382929 0.065670303 -2.1716495e-20)
(10.441964 0.065816742 2.1717307e-20)
(10.498952 0.063958095 0)
(10.551809 0.060385542 1.3664431e-18)
(10.599436 0.054741261 -1.3978125e-18)
(10.639898 0.049966571 -6.8285624e-19)
(10.671599 0.03850386 6.9743246e-19)
(10.693179 0.033781444 3.5173577e-19)
(10.708475 0.020964534 -3.4557897e-19)
(13.30769 -0.093943161 -1.1834802e-19)
(13.272448 -0.30225262 -4.7537455e-19)
(13.303763 -0.53218371 4.6190387e-19)
(13.259769 -0.72779071 0)
(13.230381 -0.95257174 -8.5918841e-19)
(13.184631 -1.1257543 -1.6756251e-18)
(13.098856 -1.3363189 0)
(13.010072 -1.5351052 -2.8507861e-20)
(12.915833 -1.6896947 2.8704239e-18)
(12.806261 -1.9009515 1.3814867e-18)
(12.685282 -2.0380418 -1.3024439e-18)
(12.567311 -2.2567867 2.4628183e-18)
(12.441167 -2.3822552 -2.3078987e-18)
(12.316678 -2.5902936 0)
(12.197145 -2.7134829 1.0586081e-18)
(12.018348 -2.9327574 -9.7041957e-19)
(11.900079 -3.0740485 -1.880181e-18)
(11.723003 -3.3103837 1.7646313e-18)
(11.572317 -3.4759346 -8.2751827e-19)
(13.167473 -0.10267518 -1.0336665e-19)
(13.147377 -0.3103196 6.1816195e-19)
(13.171569 -0.54656839 -4.0548626e-19)
(13.076195 -0.75436934 0)
(13.084296 -1.0113759 -7.7105235e-19)
(12.9601 -1.1559954 2.2174108e-18)
(12.942964 -1.4324542 0)
(12.774492 -1.5472979 0)
(12.743298 -1.7955939 0)
(12.552217 -1.9071813 0)
(12.467299 -2.1407332 2.3351321e-18)
(12.286354 -2.2421681 -3.3571231e-18)
(12.155834 -2.4574967 -3.2206903e-18)
(12.004447 -2.5538754 2.0057874e-18)
(11.839975 -2.7576811 -1.9182307e-18)
(11.693441 -2.8714104 1.8557414e-18)
(11.4848 -3.0568554 -1.9211036e-20)
(11.349828 -3.2015256 -1.6437139e-18)
(11.104391 -3.3801201 1.6016648e-18)
(13.035243 -0.069143496 0)
(13.040928 -0.28450853 -3.6495126e-19)
(13.000853 -0.52505798 -7.1301004e-19)
(12.950071 -0.74808572 -4.1477087e-21)
(12.900499 -0.95719782 -9.6210619e-21)
(12.791793 -1.1608838 1.3346797e-18)
(12.720694 -1.3819236 -2.5319012e-18)
(12.576932 -1.5354545 1.2028263e-18)
(12.497026 -1.7494131 2.2945519e-20)
(12.312166 -1.8785604 0)
(12.220933 -2.0984038 3.2025297e-18)
(12.00592 -2.1956398 1.3554027e-20)
(11.896401 -2.4147232 1.9427346e-18)
(11.670498 -2.4769492 1.8815133e-18)
(11.554099 -2.7049889 2.650994e-18)
(11.313242 -2.7530169 -3.3340123e-18)
(11.132497 -2.986679 -2.3674154e-20)
(10.914013 -3.0360689 3.0554686e-18)
(10.65513 -3.2786868 1.5081962e-18)
(12.90887 -0.12233878 3.1820901e-19)
(12.879207 -0.35499688 -6.3599955e-19)
(12.865042 -0.58313372 9.3604348e-19)
(12.805223 -0.79624233 0)
(12.728663 -1.011526 1.787872e-18)
(12.642857 -1.2139034 -2.8933205e-18)
(12.518964 -1.4040822 2.2482191e-18)
(12.408077 -1.5781407 -6.5947766e-21)
(12.240265 -1.7552045 2.6551644e-20)
(12.112645 -1.9076329 -1.0178209e-18)
(11.922018 -2.0688975 0)
(11.762146 -2.1893039 -9.1135682e-19)
(11.563542 -2.3379294 9.218267e-19)
(11.368419 -2.4333508 -1.669834e-18)
(11.191893 -2.584584 0)
(10.970375 -2.6614153 0)
(10.77178 -2.8003725 -1.4621214e-18)
(10.527397 -2.8811443 0)
(10.290379 -3.0135768 1.3568649e-18)
(12.763306 -0.079607349 2.7761113e-19)
(12.75365 -0.30613479 -2.7591424e-19)
(12.732438 -0.5460154 5.3658798e-21)
(12.666993 -0.75382829 -5.3497789e-19)
(12.588225 -0.99071791 5.144658e-19)
(12.484803 -1.1690867 -3.8898133e-21)
(12.355725 -1.3741698 -9.8960013e-19)
(12.222763 -1.5320551 0)
(12.053616 -1.6977899 -1.8685869e-18)
(11.901793 -1.8421963 8.906612e-19)
(11.701681 -1.9809328 0)
(11.538148 -2.0954939 0)
(11.316995 -2.2096812 -1.5854886e-18)
(11.114824 -2.3074011 -1.5622847e-18)
(10.867027 -2.412056 1.4995618e-18)
(10.665718 -2.4748581 2.8641887e-18)
(10.359139 -2.5634642 1.4203215e-18)
(10.160055 -2.6243009 -1.275926e-18)
(9.8506925 -2.6708146 -3.5377048e-20)
(12.636792 -0.1231702 0)
(12.615906 -0.37400046 2.4288086e-19)
(12.591685 -0.58246261 -1.1906559e-18)
(12.511234 -0.80682355 4.7101241e-19)
(12.420099 -1.0180552 1.3835651e-18)
(12.294433 -1.1844633 -9.166862e-19)
(12.159142 -1.396902 -1.7771112e-18)
(11.997558 -1.5142663 1.7041533e-18)
(11.843048 -1.6956555 -8.5773898e-19)
(11.642538 -1.7981015 1.6023435e-18)
(11.462934 -1.9334836 0)
(11.247768 -2.023494 0)
(11.048393 -2.1068273 -1.47004e-18)
(10.825363 -2.1868051 4.2051081e-18)
(10.592705 -2.2283712 -5.3594371e-18)
(10.371309 -2.2711184 2.5753721e-18)
(10.068365 -2.3006323 -5.0101977e-18)
(9.8541818 -2.3042571 1.2014147e-18)
(9.4953273 -2.3060749 2.3107533e-18)
(12.53474 -0.10602992 5.3230846e-20)
(12.489268 -0.33918493 2.1261467e-19)
(12.47698 -0.55077521 -4.1507976e-19)
(12.367955 -0.78411341 0)
(12.300072 -0.97062717 -8.1668092e-19)
(12.141704 -1.1695294 2.3887927e-18)
(12.024425 -1.3242397 -1.5470021e-18)
(11.828966 -1.4789158 7.6889528e-19)
(11.671787 -1.6132133 -1.4964153e-18)
(11.447103 -1.717388 4.340156e-18)
(11.258651 -1.8280364 -2.7754119e-18)
(11.0176 -1.8897559 0)
(10.815056 -1.95235 1.2952504e-18)
(10.54 -1.9967807 2.5520363e-18)
(10.321367 -2.0016178 -3.6329321e-18)
(10.037604 -2.0200106 3.5667271e-18)
(9.7840099 -1.9796824 -3.4252861e-18)
(9.5369495 -1.9459111 -2.2375701e-18)
(9.2693292 -1.8580043 -1.0964643e-18)
(12.370659 -0.12659342 1.3835436e-19)
(12.310261 -0.36358169 1.836473e-19)
(12.317783 -0.57906582 -3.6242949e-19)
(12.181074 -0.79402454 0)
(12.125012 -0.98143388 1.4184745e-18)
(11.929687 -1.156647 -7.0567359e-19)
(11.826153 -1.308419 0)
(11.596331 -1.449546 -1.3466858e-18)
(11.466242 -1.5481644 6.6482225e-19)
(11.210787 -1.6563896 0)
(11.041914 -1.7111109 -1.2620225e-18)
(10.774305 -1.7709289 1.2257754e-18)
(10.59262 -1.7789599 1.1885472e-18)
(10.308593 -1.7930968 -2.2990199e-18)
(10.123372 -1.7486487 2.1906162e-18)
(9.8028611 -1.7206045 -1.0562619e-18)
(9.5942796 -1.6133572 -1.0391909e-18)
(9.2917653 -1.5457367 -1.0032572e-18)
(9.0657044 -1.3669863 -9.6751905e-19)
(12.273127 -0.13501885 3.2002159e-19)
(12.231826 -0.34340672 -1.5823134e-19)
(12.207653 -0.55976508 0)
(12.079148 -0.76953634 0)
(12.003862 -0.94542847 -1.2425949e-18)
(11.796088 -1.1204036 1.2276498e-18)
(11.686178 -1.2480306 0)
(11.427314 -1.3830457 5.8917376e-19)
(11.286844 -1.4617388 -5.7758574e-19)
(11.01037 -1.5439642 0)
(10.841381 -1.5718845 1.1027266e-18)
(10.545521 -1.6064423 1.9840256e-20)
(10.361987 -1.5729659 1.8778287e-20)
(10.06399 -1.566756 0)
(9.8974463 -1.4608239 -3.997737e-18)
(9.6204973 -1.4005635 3.8184916e-18)
(9.4504484 -1.2313113 4.665013e-18)
(9.1789618 -1.1157889 -6.2990443e-18)
(9.059956 -0.8596776 4.3165406e-18)
(12.118933 -0.13992111 0)
(12.078409 -0.34134861 2.2651113e-21)
(12.041705 -0.57936832 0)
(11.92388 -0.74644397 0)
(11.830042 -0.93920107 5.390424e-19)
(11.638964 -1.0752503 9.1696419e-21)
(11.513225 -1.2080315 -5.3650863e-19)
(11.266675 -1.3064162 -1.5873305e-18)
(11.12589 -1.3673243 2.0453527e-18)
(10.836948 -1.4238234 0)
(10.680911 -1.4183134 -9.9718236e-19)
(10.391428 -1.4183227 -5.8251238e-18)
(10.226588 -1.3518365 2.802698e-18)
(9.9300593 -1.3005444 0)
(9.7715274 -1.1548378 -3.5776071e-18)
(9.4962442 -1.0594964 4.2917036e-18)
(9.3698853 -0.82688299 -3.354472e-18)
(9.1649103 -0.69543057 4.0220172e-18)
(9.0889773 -0.39386165 0)
(11.993288 -0.14339047 -2.4225454e-19)
(11.964646 -0.34336547 1.2181368e-19)
(11.898346 -0.55700298 0)
(11.784317 -0.72218991 -9.6222295e-19)
(11.661492 -0.91088668 1.4239788e-18)
(11.470476 -1.0146063 -4.6757601e-19)
(11.316834 -1.1554704 -1.4207898e-18)
(11.080447 -1.2028505 3.2347112e-18)
(10.916238 -1.2753723 -1.8037999e-18)
(10.630627 -1.2694399 0)
(10.475153 -1.2653223 8.6945569e-19)
(10.182755 -1.2135912 5.1688356e-18)
(10.05625 -1.1289722 -3.3230486e-18)
(9.7895276 -1.0141819 0)
(9.6925605 -0.85471601 0)
(9.4566703 -0.69792196 -1.5365113e-18)
(9.4102512 -0.47186095 7.4684983e-19)
(9.2250826 -0.30066991 -2.1608299e-18)
(9.2638434 0.0083470075 0)
(11.86591 -0.13717627 -2.105055e-19)
(11.844971 -0.32781658 6.3113777e-19)
(11.766175 -0.53049149 -6.2818e-19)
(11.674406 -0.69793616 0)
(11.529829 -0.85663473 1.2597767e-18)
(11.366071 -0.95848927 -1.6381231e-18)
(11.176362 -1.0801908 0)
(10.968834 -1.0982803 8.1598032e-19)
(10.788797 -1.152732 8.0572883e-19)
(10.543509 -1.0972493 0)
(10.368369 -1.0943249 0)
(10.093258 -0.97524842 -7.5354622e-19)
(9.969069 -0.89001186 -2.2392032e-18)
(9.7214703 -0.72047834 -3.3281419e-20)
(9.6690675 -0.56838693 2.0929742e-18)
(9.4756124 -0.36370999 1.3652215e-18)
(9.5050526 -0.15769629 -6.6010768e-19)
(9.3759861 0.053156612 1.2777904e-18)
(9.508161 0.32251022 0)
(11.74094 -0.13669539 0)
(11.719407 -0.33000502 -7.3169572e-19)
(11.622909 -0.51880252 1.4544919e-18)
(11.521609 -0.67830741 -1.0877804e-18)
(11.362625 -0.81093945 0)
(11.209583 -0.90861012 0)
(10.988725 -0.98922103 0)
(10.79804 -1.0047062 -7.051592e-19)
(10.590933 -1.0229893 -6.9784758e-19)
(10.400751 -0.94481423 0)
(10.222585 -0.90849098 -6.8542188e-19)
(10.027077 -0.74806411 -6.7197161e-19)
(9.9144152 -0.66265476 -6.5130768e-19)
(9.7318951 -0.44787722 2.5674303e-18)
(9.7086612 -0.30456995 -2.480789e-18)
(9.5703482 -0.064358538 -6.029529e-19)
(9.6514906 0.10903508 3.528204e-18)
(9.5773658 0.33999777 -5.6642461e-18)
(9.7703328 0.57927141 3.3006545e-18)
(11.634813 -0.12829455 -3.9874726e-20)
(11.607029 -0.3097101 7.9665108e-20)
(11.510492 -0.47581769 7.9195761e-19)
(11.413203 -0.63306304 -1.9021009e-18)
(11.257414 -0.74261194 9.3548206e-19)
(11.107631 -0.83199025 0)
(10.894396 -0.87689911 0)
(10.715503 -0.88760229 6.2484022e-19)
(10.480984 -0.86079728 -2.4808467e-18)
(10.315238 -0.78013245 -6.4554885e-19)
(10.123903 -0.70332814 5.6480128e-19)
(9.9967035 -0.54455095 2.924495e-18)
(9.8835714 -0.43310466 5.7795194e-19)
(9.7977439 -0.19457194 0)
(9.7910624 -0.067133469 1.6457483e-18)
(9.7460307 0.19438677 0)
(9.8648533 0.31660187 -3.1165494e-18)
(9.8759575 0.57532311 9.0286782e-18)
(10.162168 0.73895922 -7.7738322e-18)
(11.503969 -0.13081669 6.8714879e-20)
(11.466774 -0.30346945 -6.8252479e-20)
(11.381194 -0.45911753 0)
(11.266383 -0.60427029 -8.3075223e-19)
(11.109987 -0.6966505 2.5774692e-19)
(10.953546 -0.77430517 1.0867445e-18)
(10.767512 -0.77828066 0)
(10.603077 -0.77338985 -2.7258902e-18)
(10.396431 -0.70660646 1.5965474e-18)
(10.266836 -0.62972768 -4.7252899e-21)
(10.089044 -0.5168288 0)
(10.012151 -0.36268558 0)
(9.9092385 -0.20799957 -5.0428801e-19)
(9.9029418 0.0049430001 0)
(9.902379 0.12971199 2.2726797e-21)
(9.9722202 0.36970408 9.386577e-19)
(10.104874 0.43952418 -2.741383e-18)
(10.237401 0.67716419 7.07156e-18)
(10.570821 0.67938779 -3.42351e-18)
(11.423933 -0.12189672 2.0869894e-19)
(11.38808 -0.27174509 -1.7821846e-19)
(11.309892 -0.41377995 0)
(11.179496 -0.54317473 0)
(11.023696 -0.62287625 0)
(10.848027 -0.68063855 0)
(10.667966 -0.66468513 -1.9137064e-18)
(10.49999 -0.65024914 1.8778559e-18)
(10.331914 -0.55651974 2.3572103e-18)
(10.218523 -0.48064086 -9.1807311e-19)
(10.08033 -0.32887948 0)
(10.052129 -0.18574371 3.6251821e-18)
(9.9938293 -0.014170898 -6.637838e-18)
(10.056741 0.14006582 3.4543276e-18)
(10.090269 0.26642851 -4.2327899e-18)
(10.26102 0.42495346 2.4648779e-18)
(10.387778 0.45285081 -8.0134677e-19)
(10.635015 0.57065403 -7.7571334e-19)
(10.850622 0.40848801 7.5540701e-19)
(11.290106 -0.12360608 2.0628958e-19)
(11.255085 -0.26543481 -6.7072794e-19)
(11.178604 -0.39394136 4.111619e-19)
(11.061646 -0.50022593 -8.300766e-19)
(10.925217 -0.56325111 8.2140088e-19)
(10.751859 -0.59158914 0)
(10.597354 -0.56324605 -4.1451331e-19)
(10.438002 -0.53051248 1.6563291e-18)
(10.31166 -0.42329906 -1.6247121e-18)
(10.199078 -0.3370217 -4.0361729e-19)
(10.112641 -0.16902242 -3.213779e-18)
(10.107912 -0.050302848 3.1374446e-18)
(10.10485 0.11106377 -3.8607777e-19)
(10.205286 0.20792504 2.2769715e-18)
(10.285263 0.31575168 -2.2131987e-18)
(10.495871 0.3638905 0)
(10.604432 0.33898473 -5.6075231e-18)
(10.850255 0.2897848 6.1218299e-18)
(10.892321 0.044134403 0)
(11.221777 -0.10356576 -3.5690963e-19)
(11.174278 -0.23014492 3.5663131e-19)
(11.078112 -0.35518904 -7.1682345e-19)