/*--------------------------------*- C++ -*----------------------------------*\
  =========                 |
  \\      /  F ield         | OpenFOAM: The Open Source CFD Toolbox
   \\    /   O peration     | Website:  https://openfoam.org
    \\  /    A nd           | Version:  11
     \\/     M anipulation  |
\*---------------------------------------------------------------------------*/
FoamFile
{
    format      ascii;
    class       volVectorField;
    location    "6.05";
    object      U;
}
// * * * * * * * * * * * * * * * * * * * * * * * * * * * * * * * * * * * * * //

dimensions      [0 1 -1 0 0 0 0];

internalField   nonuniform List<vector> 
4455
(
(99.981182 0.057504088 0)
(99.979426 0.36306332 -1.5676019e-18)
(99.679329 0.69060369 5.3902912e-18)
(99.522919 1.4162156 2.5673253e-20)
(98.870901 2.050163 5.0939127e-18)
(98.553463 3.1698355 -1.9234969e-17)
(97.577784 4.4035734 8.5708212e-18)
(96.551085 6.0674471 0)
(94.2215 9.0687646 -5.2714554e-17)
(99.978884 0.081469757 -1.0190779e-17)
(100.01133 0.46960309 9.9498155e-18)
(99.708733 0.84219341 -1.2262791e-17)
(99.509623 1.5839892 2.0480391e-17)
(99.005155 2.3148337 -3.9372965e-17)
(98.516071 3.4237435 4.3043867e-17)
(97.706054 4.6580644 -4.1359131e-18)
(96.578572 6.4625131 6.0339034e-18)
(93.920791 8.9647903 2.2984089e-16)
(100.02341 0.11456491 -1.0635797e-17)
(99.982739 0.5317868 1.3473531e-17)
(99.793759 0.98693186 1.2002981e-17)
(99.5123 1.7920172 -1.1959742e-17)
(99.082465 2.5054162 5.2469315e-17)
(98.640103 3.812351 -2.9672742e-17)
(97.668609 4.9751183 3.8140371e-18)
(96.726479 7.0535957 -8.5073267e-17)
(93.765401 9.3091911 -1.6301544e-16)
(100.05207 0.12221577 6.7556207e-20)
(99.994873 0.63663214 -1.5388803e-18)
(99.832798 1.0722678 2.8399424e-17)
(99.580364 1.9654679 3.8982275e-18)
(99.105425 2.706917 -4.2092441e-20)
(98.819637 4.1297648 -5.680462e-18)
(97.858895 5.3911557 6.3186378e-17)
(96.707267 7.8484628 1.7001248e-16)
(93.449668 10.181642 1.3593601e-16)
(100.06522 0.14861117 2.0574548e-17)
(100.04678 0.68159018 -2.3056761e-17)
(99.806098 1.1624186 2.9316912e-17)
(99.688018 2.1002248 2.5435869e-20)
(99.218663 2.9345408 -3.588868e-17)
(98.865618 4.3777344 -1.1013023e-17)
(98.05273 5.6572121 -4.9805781e-17)
(96.973107 8.4243 -7.9818192e-17)
(93.07678 10.642401 -4.0112337e-16)
(100.07247 0.15618107 0)
(100.08046 0.73191331 0)
(99.863707 1.2130965 -5.116041e-17)
(99.703916 2.2277426 -5.8869752e-17)
(99.381617 3.1113332 0)
(99.077077 4.6970109 -7.9410388e-17)
(98.120977 6.1209221 -6.7437702e-18)
(97.024908 9.2168545 -4.8216068e-18)
(92.805425 11.380602 4.9553186e-16)
(100.08471 0.16651078 0)
(100.08449 0.74099761 -1.3828006e-18)
(99.934901 1.291643 1.5564061e-18)
(99.781583 2.2865394 5.7545901e-17)
(99.441962 3.2467616 -4.2439197e-18)
(99.264609 4.8320638 1.6897518e-16)
(98.450157 6.3193643 0)
(97.29849 9.9207272 0)
(92.52352 11.89906 2.2751486e-16)
(100.10768 0.17580264 3.8623718e-17)
(100.09624 0.74354302 0)
(99.962493 1.3012274 0)
(99.878469 2.4212321 0)
(99.602863 3.4060957 0)
(99.404424 5.1062982 -8.4279206e-17)
(98.572407 6.6942443 -9.013983e-17)
(97.467815 10.66744 1.296181e-16)
(92.285305 12.716738 1.1251885e-18)
(100.11305 0.1698035 -3.8033279e-17)
(100.12503 0.73375448 -1.3259014e-18)
(99.986715 1.3046004 -1.5036516e-18)
(99.973626 2.3869405 3.3993354e-18)
(99.719072 3.5072572 1.3124926e-16)
(99.653319 5.180726 1.4803674e-16)
(98.896705 6.8494016 2.8664715e-16)
(97.814239 11.397433 -1.2721668e-16)
(92.233474 13.149922 -3.90354e-16)
(100.11953 0.17207883 0)
(100.1268 0.16063015 7.0179431e-17)
(100.11414 0.14968941 -6.9649136e-17)
(100.11051 0.13528336 6.6708947e-17)
(100.10331 0.11894374 -6.5207234e-17)
(100.08743 0.1027917 1.3001557e-16)
(100.07264 0.069338333 -1.2621554e-16)
(100.05553 0.045762625 0)
(100.02467 0.010499016 0)
(100.13977 0.71239846 0)
(100.14287 0.67510309 1.2205993e-18)
(100.18844 0.64253837 0)
(100.17709 0.58087612 3.4654824e-18)
(100.20096 0.52581655 7.0654733e-17)
(100.21002 0.46430088 -2.1092761e-16)
(100.19532 0.41303755 1.3651134e-16)
(100.2158 0.36149872 -2.0778362e-18)
(100.17472 0.24529373 1.3110647e-16)
(100.0533 1.3265272 8.8883514e-17)
(100.09047 1.3319043 -1.7511796e-16)
(100.13564 1.2983093 1.6695913e-16)
(100.22797 1.2707851 -5.3483701e-18)
(100.23336 1.186692 -7.8611767e-17)
(100.32679 1.1261905 -2.3871109e-18)
(100.3234 1.0181896 0)
(100.39887 0.93693093 4.4965279e-18)
(100.34613 0.71744086 -2.1851219e-18)
(100.0329 2.4976081 9.2878576e-17)
(100.15287 2.5024132 -1.8866482e-16)
(100.21163 2.5345348 1.7921277e-16)
(100.32522 2.5369774 -8.6776576e-17)
(100.37494 2.4810382 -5.4174877e-18)
(100.48461 2.4802152 2.6083072e-18)
(100.53567 2.3991942 0)
(100.71404 2.3509963 -2.4425547e-18)
(100.68631 2.1454354 1.466485e-16)
(99.872006 3.5729382 -1.0541115e-16)
(100.04342 3.7876435 0)
(100.18793 3.7738284 -9.6918979e-17)
(100.41612 3.8759919 9.9939869e-17)
(100.5205 3.7895684 -8.9934919e-17)
(100.75296 3.7736572 9.2929354e-17)
(100.81635 3.6451043 0)
(101.0472 3.575227 0)
(101.0129 3.2988611 5.2172422e-18)
(99.742283 5.4240529 -1.291422e-16)
(100.09657 5.6814092 -1.2290909e-16)
(100.18816 5.9183108 1.1814801e-16)
(100.54012 6.1184755 1.1264689e-16)
(100.65337 6.316362 -1.0859715e-16)
(101.00098 6.4810263 0)
(101.14143 6.5912147 1.9892645e-16)
(101.57187 6.6862284 -1.2801135e-18)
(101.58933 6.5193617 -3.6763279e-16)
(99.106748 7.1180108 -1.5173088e-16)
(99.51054 7.4971618 0)
(99.819086 7.6950288 0)
(100.24826 8.0044477 4.0795821e-18)
(100.5725 8.0707967 0)
(100.98351 8.3056122 0)
(101.28813 8.2520325 0)
(101.71245 8.455666 0)
(101.91844 8.2824816 0)
(98.056072 12.117252 5.953852e-18)
(98.729332 13.535485 0)
(99.198362 14.010808 5.1978301e-18)
(100.06392 14.936359 -9.5995096e-18)
(100.53922 15.131035 -1.4245289e-16)
(101.44156 15.685249 -1.3325647e-16)
(101.84271 15.718508 2.5761406e-16)
(102.72779 16.155042 2.4547389e-16)
(103.11552 15.75769 -2.3242341e-16)
(92.22428 14.474398 7.222124e-16)
(93.401628 15.327981 -4.529819e-16)
(95.004674 15.872972 3.9706523e-16)
(97.010799 16.325579 -3.8253246e-16)
(98.630715 16.53646 -5.2521872e-16)
(100.06317 17.166118 9.7691794e-16)
(101.06321 17.424541 -6.1492315e-16)
(102.35275 16.739259 -2.8815912e-16)
(103.85989 16.044049 2.7112344e-16)
(100.03019 -0.0030914882 -1.7230827e-19)
(100.06604 0.0040730693 1.7721269e-16)
(100.12018 0.024214165 -1.3268494e-19)
(100.18627 0.050055571 -1.7844562e-16)
(100.26486 0.079672896 1.7429502e-19)
(100.36081 0.11240482 1.7927727e-16)
(100.47618 0.14783591 -1.8015022e-16)
(100.61427 0.18540082 -1.7542481e-19)
(100.79014 0.23654373 -9.0407193e-17)
(100.26195 0.29876507 -1.8812504e-16)
(100.29795 0.4352153 1.8951329e-16)
(100.41836 0.46261088 -1.8959568e-16)
(100.48385 0.61134532 0)
(100.64625 0.61966103 1.9077115e-16)
(100.76185 0.80372943 -1.5162879e-20)
(100.99222 0.79132205 1.1301978e-19)
(101.16377 1.0195202 -1.9162641e-16)
(101.45308 0.97590289 9.6176193e-17)
(100.47737 0.78124372 2.0154382e-16)
(100.52746 0.97683029 -2.0209935e-16)
(100.76213 1.0465461 -2.0325769e-16)
(100.84478 1.3326232 2.0385348e-16)
(101.14806 1.406204 -2.0511968e-16)
(101.24969 1.7323431 2.0445918e-16)
(101.58034 1.800329 -2.0597779e-16)
(101.7115 2.1602774 1.3863437e-19)
(102.08813 2.2138759 2.0603747e-16)
(100.96193 2.3417462 -2.148178e-16)
(101.01333 2.7256254 -8.459285e-19)
(101.27921 2.8700859 8.5120797e-19)
(101.31753 3.226971 0)
(101.6232 3.3443131 -2.1134713e-21)
(101.72225 3.7307413 -2.172855e-16)
(102.08395 3.8161999 2.2089629e-16)
(102.2484 4.2323934 8.5997198e-19)
(102.62646 4.2736813 8.6152483e-19)
(101.2942 3.4367866 -9.0974841e-19)
(101.38 3.8182143 -2.3477779e-16)
(101.76442 3.9329389 -2.8482576e-19)
(101.93306 4.4125239 2.3669549e-16)
(102.35408 4.51751 2.3742734e-16)
(102.56768 5.0134008 -2.3863631e-16)
(103.03038 5.1114321 -9.2524628e-19)
(103.19963 5.6058991 -9.2679331e-19)
(103.72979 5.6896519 -9.285561e-19)
(102.03608 6.8793037 2.5214137e-16)
(102.15537 7.475218 0)
(102.5122 7.6890878 0)
(102.60429 8.2084554 2.5251536e-16)
(102.98415 8.3991935 -2.5591723e-16)
(103.11837 8.8996846 -2.5590188e-16)
(103.55786 9.1332222 5.1177234e-16)
(103.73374 9.6296893 -8.9792814e-19)
(104.18838 9.8548311 -5.1404741e-16)
(102.3714 8.4940138 -1.0833577e-18)
(102.78093 8.9932135 0)
(103.29113 9.2896715 1.0834347e-18)
(103.75913 9.8134706 2.8359297e-16)
(104.27331 10.030697 -2.8526489e-16)
(104.70905 10.435888 2.8418448e-16)
(105.20685 10.5728 -2.848045e-16)
(105.58829 10.908073 -1.0853862e-18)
(106.06129 10.980866 2.8478362e-16)
(103.59827 16.141874 -2.9652662e-16)
(103.90729 16.421512 3.00444e-16)
(104.32676 16.614755 -3.0013533e-16)
(104.6722 16.751265 2.9857797e-16)
(105.18574 16.844219 -2.9542263e-16)
(105.60955 16.974685 8.3898641e-19)
(106.10923 17.014994 2.9862834e-16)
(106.52209 17.083085 2.3508522e-18)
(106.97247 17.034769 1.484352e-16)
(105.38912 15.883495 0)
(106.781 16.367329 -3.2927232e-16)
(108.04296 16.62439 4.5152232e-18)
(109.3142 16.708955 5.104967e-18)
(110.30567 16.737001 6.5057881e-16)
(110.89737 16.805161 -3.2484154e-16)
(111.52992 16.447815 -3.2383769e-16)
(111.91265 15.957243 3.2511678e-16)
(112.67658 14.957208 1.6368833e-16)
(112.77153 13.615607 -1.9117112e-16)
(113.32751 12.065782 0)
(113.0527 10.962161 1.9310399e-16)
(112.94043 9.9779861 -1.9310655e-16)
(112.03694 9.3816616 0)
(111.49607 8.6383878 0)
(110.3383 8.1731236 0)
(109.67822 7.4056732 -2.1148889e-16)
(108.43306 6.832908 2.1149155e-16)
(107.31407 17.001025 -1.6906322e-16)
(107.7271 16.778752 0)
(107.95849 16.613369 0)
(108.2528 16.392897 0)
(108.30382 16.201132 0)
(108.42827 15.978655 0)
(108.33673 15.840371 0)
(108.25846 15.666687 1.7036375e-16)
(107.96436 15.522557 -3.4225516e-16)
(106.39369 11.227088 -9.4084461e-19)
(106.83125 11.463675 -3.121567e-16)
(107.07735 11.650021 0)
(107.49394 11.823857 -1.5504006e-16)
(107.6908 11.971088 1.5504015e-16)
(108.00257 12.128931 0)
(108.1158 12.255087 0)
(108.34107 12.37181 0)
(108.41149 12.448719 0)
(104.39187 10.312004 2.7609628e-16)
(104.9148 10.567586 0)
(105.13231 10.987407 1.3648523e-16)
(105.66656 11.212219 -2.7245028e-16)
(105.89817 11.606501 1.3596329e-16)
(106.42552 11.809319 0)
(106.63806 12.176374 0)
(107.16628 12.339821 0)
(107.34513 12.660021 1.3382353e-16)
(103.89237 6.2507933 0)
(104.458 6.4015222 2.501114e-16)
(104.65827 7.0194261 -3.7470308e-16)
(105.22042 7.1725251 1.2460355e-16)
(105.44557 7.8062455 1.2367885e-16)
(106.01893 7.9549278 -4.5937067e-19)
(106.23189 8.5833038 -2.4594002e-16)
(106.85904 8.7343966 2.4501992e-16)
(107.0637 9.3497986 -1.2226835e-16)
(102.86518 4.7032549 0)
(103.28797 4.7642714 1.1342219e-16)
(103.50111 5.2028694 -1.1342035e-16)
(104.06664 5.3013071 0)
(104.30373 5.7113802 -2.2410986e-16)
(104.87552 5.9027881 2.2410986e-16)
(105.21518 6.2528165 1.1102641e-16)
(105.77607 6.4960914 -2.2151824e-16)
(106.19349 6.8577437 1.1049179e-16)
(102.25014 2.6180392 0)
(102.68173 2.6757416 0)
(102.88647 3.1214039 0)
(103.34516 3.1549123 -1.0414258e-16)
(103.63273 3.6053679 2.0786454e-16)
(104.08494 3.6915481 -2.0699609e-16)
(104.42266 4.072079 1.0327407e-16)
(105.00359 4.2401607 -1.0228382e-16)
(105.27614 4.5937034 2.0401992e-16)
(101.66429 1.2341954 -1.9479191e-16)
(102.01672 1.1778502 3.2151538e-19)
(102.27705 1.4843351 9.6931114e-17)
(102.69082 1.4069275 -9.6208055e-17)
(103.00776 1.7540333 9.623322e-17)
(103.46314 1.6685842 0)
(103.88191 1.9638927 9.4926815e-17)
(104.35988 1.986646 -1.8935139e-16)
(104.82634 2.18859 9.442456e-17)
(100.90417 0.30015569 2.4800563e-19)
(101.1198 0.31842676 9.1404247e-17)
(101.40156 0.47896226 9.0830155e-17)
(101.67173 0.50339181 -9.0830164e-17)
(101.96957 0.63656441 0)
(102.28765 0.67958354 0)
(102.63984 0.78825211 -8.9538019e-17)
(103.03357 0.83109714 1.7866773e-16)
(103.46517 0.96922063 -8.9129687e-17)
(103.95206 1.0113751 0)
(104.45094 1.1453606 -8.7627486e-17)
(105.04356 1.224935 5.910873e-19)
(105.59852 1.3508069 6.4134961e-19)
(106.29241 1.4337604 6.9528233e-19)
(106.91632 1.5628977 8.569976e-17)
(107.71226 1.6559912 8.4127241e-17)
(108.424 1.7868712 -8.4127246e-17)
(109.32575 1.8888354 0)
(105.42351 2.2432044 0)
(105.90161 2.4366401 0)
(106.5794 2.5568315 -9.1997457e-17)
(107.12167 2.7312973 7.2056917e-19)
(107.90082 2.8063852 7.7324428e-19)
(108.45664 3.0822062 9.0503619e-17)
(109.33475 3.1527284 8.8781124e-17)
(109.95796 3.3794946 -8.8781106e-17)
(110.94238 3.5200162 0)
(105.96856 4.773911 -1.017428e-16)
(106.30293 5.1880709 0)
(107.00729 5.3145532 0)
(107.4198 5.7981047 -9.9205283e-17)
(108.21188 5.9599113 1.9767337e-16)
(108.60795 6.408481 -8.0044764e-19)
(109.53974 6.6385844 -8.5437683e-19)
(109.9451 7.0989674 -9.6807232e-17)
(110.94603 7.3750792 0)
(106.69383 7.1165405 -1.0934828e-16)
(107.30788 7.4346073 1.0934825e-16)
(107.6804 7.813391 0)
(108.44409 8.1007236 0)
(108.80317 8.4482494 1.0665568e-16)
(109.60456 8.8768059 -1.0665567e-16)
(109.9991 9.1598257 1.0504673e-16)
(110.85119 9.6622568 -5.2969045e-17)
(111.28773 9.956236 -5.2081e-17)
(107.68851 9.4906794 -1.2132168e-16)
(107.89887 10.097393 1.2132083e-16)
(108.52479 10.25073 0)
(108.70086 10.867249 0)
(109.34344 11.054499 0)
(109.51884 11.729531 0)
(110.12209 11.927849 0)
(110.40469 12.683361 0)
(110.90557 12.939602 0)
(107.82332 12.781609 -1.3382295e-16)
(107.94339 13.121822 1.3332549e-16)
(108.38316 13.279175 -1.3332473e-16)
(108.42592 13.670761 1.3298062e-16)
(108.85322 13.919039 -1.329587e-16)
(108.83501 14.405579 0)
(109.28228 14.73466 0)
(109.27021 15.402451 0)
(109.67577 15.785755 0)
(108.56932 12.60613 0)
(108.49595 12.754972 -1.5572499e-16)
(108.59199 13.024159 1.5568273e-16)
(108.37158 13.273359 0)
(108.46183 13.694432 1.5783848e-16)
(108.08561 14.115305 -1.5795081e-16)
(108.1714 14.702793 0)
(107.6715 15.35268 8.0136629e-17)
(107.83829 16.045647 -1.6065571e-16)
(107.73529 15.390023 1.7199084e-16)
(107.23037 15.338741 1.7568275e-16)
(106.88653 15.388631 -1.7562633e-16)
(106.13508 15.470271 1.8004593e-16)
(105.70808 15.70658 -3.6263384e-16)
(104.75402 16.065741 3.6761629e-16)
(104.31282 16.522269 -3.7298112e-16)
(103.23766 17.081195 1.878232e-16)
(102.74745 17.597471 0)
(107.77815 6.286647 -2.2086343e-16)
(106.32397 5.8984023 2.208654e-16)
(105.52787 5.4980828 0)
(104.0091 5.3416535 0)
(103.17828 5.5844328 0)
(101.44404 5.9387102 0)
(100.50927 6.4531961 0)
(98.71022 6.68302 -1.278305e-16)
(97.847317 7.13463 1.2782175e-16)
(95.994364 7.5152467 1.3306187e-16)
(101.54923 18.259098 0)
(107.2892 16.800377 8.0520563e-17)
(109.74909 16.636645 0)
(111.29353 13.761457 0)
(112.16305 10.564191 0)
(111.43292 7.7940074 4.6921655e-17)
(111.59247 3.8029187 4.2827857e-17)
(110.1441 2.0267608 4.059109e-17)
(95.152355 8.2817426 -1.3299019e-16)
(101.08664 18.899086 0)
(107.44137 17.543952 0)
(110.13755 17.112767 6.5908337e-17)
(111.84304 14.077889 0)
(112.68782 10.82865 -5.0517876e-17)
(112.50032 8.1969734 -9.3267062e-17)
(112.70516 3.8850369 -8.5048643e-17)
(111.16117 2.1354349 -8.0600381e-17)
(93.061841 9.3159175 0)
(99.814317 19.820899 0)
(106.82609 18.473671 8.1563343e-17)
(110.22586 18.155165 -6.5908301e-17)
(112.20905 15.027306 0)
(113.62674 11.541277 5.0517866e-17)
(113.0675 8.5797131 4.6345413e-17)
(113.43723 4.2200903 4.2220784e-17)
(112.07284 2.2783042 4.0009282e-17)
(92.171753 10.985436 1.4118014e-16)
(99.392136 20.709124 0)
(107.05432 19.340705 -1.6332299e-16)
(110.70439 18.706037 0)
(112.90129 15.385592 0)
(114.18739 11.863939 -4.9222334e-17)
(114.20458 9.0319847 -4.5038232e-17)
(114.63071 4.3532109 0)
(113.21708 2.4006081 -3.8683222e-17)
(89.638109 12.868965 -1.4117832e-16)
(98.041078 22.189619 -1.0236983e-16)
(106.41281 20.611387 8.1772936e-17)
(110.88693 19.952604 0)
(113.26824 16.481241 0)
(115.28022 12.587255 4.9222317e-17)
(114.93354 9.4043441 4.5038214e-17)
(115.45741 4.6847085 0)
(114.24643 2.5489432 3.8683217e-17)
(88.881234 15.697769 0)
(97.801212 23.390963 1.0239583e-16)
(106.71229 21.612888 -8.1937163e-17)
(111.38366 20.574782 0)
(114.11727 16.880719 0)
(115.86412 13.019349 -4.7646644e-17)
(116.00904 9.9891595 -4.3496689e-17)
(116.75638 4.8543306 0)
(115.51143 2.6699993 -3.7113895e-17)
(86.34829 18.06581 0)
(96.603482 25.477564 0)
(106.12237 23.29414 8.1937064e-17)
(111.78157 22.025206 -3.1904145e-17)
(114.51942 18.148598 -2.7471166e-17)
(117.12334 13.781949 7.1012752e-17)
(117.04594 10.25894 6.4807819e-17)
(117.69157 5.2165411 0)
(116.6688 2.813495 5.5229078e-17)
(85.478598 20.964208 0)
(96.650469 26.935489 -5.2025247e-17)
(106.58674 24.412077 0)
(112.34987 22.72683 3.1896276e-17)
(115.52414 18.566871 2.7458282e-17)
(117.77803 14.271852 -5.0311281e-19)
(118.04171 10.936895 -4.2143061e-17)
(119.08105 5.3725379 0)
(118.04616 2.9408211 -1.8115186e-17)
(83.21201 24.051929 -7.4930736e-17)
(95.634269 29.548411 5.2012086e-17)
(106.16761 26.606864 0)
(112.98852 24.427763 0)
(116.11114 20.122387 0)
(119.21759 15.070725 -4.5175409e-17)
(119.36303 11.203206 5.2753172e-19)
(120.11768 5.8299631 0)
(119.31531 3.0806292 0)
(121.00996 3.2048863 0)
(121.60691 5.9150634 0)
(120.38257 11.880267 -6.6466054e-19)
(119.93984 15.620687 2.3402806e-17)
(117.17623 20.335944 0)
(113.65879 25.082758 -4.0657155e-18)
(107.00529 27.576853 -6.8453553e-19)
(96.201534 31.15511 -4.3144813e-17)
(82.937661 27.368046 1.3916649e-16)
(122.59053 3.2805015 -8.0919616e-18)
(122.77575 6.2535469 -1.1150213e-18)
(121.99762 11.959379 1.0217331e-17)
(121.56987 16.126203 -7.3200248e-20)
(118.35222 21.703917 -1.102997e-17)
(114.74395 26.622338 1.465511e-17)
(107.32489 29.914073 -5.1880375e-18)
(95.796857 34.273971 5.5726246e-17)
(82.756094 32.755651 -7.05956e-17)
(124.17474 3.327746 1.6014635e-17)
(124.32622 6.286945 0)
(123.10063 12.524237 1.9051924e-17)
(122.43371 16.666202 -1.0301411e-17)
(119.48952 21.930286 1.1125241e-17)
(115.7549 27.210218 -2.7540123e-17)
(108.97837 30.678255 -2.4027046e-17)
(97.908598 35.506185 1.2627303e-17)
(86.143753 34.749202 1.8874279e-18)
(125.8362 3.3672643 -7.9315905e-18)
(125.71141 6.5613804 -1.056468e-18)
(125.01367 12.632587 -8.3229157e-18)
(124.30398 17.092763 1.1785778e-17)
(121.31236 23.123971 4.5359937e-18)
(117.32734 28.829974 1.4664132e-17)
(109.96557 33.198352 1.922691e-17)
(98.375078 38.511085 6.7606723e-18)
(86.649067 39.189301 -7.7424189e-18)
(127.58521 3.4043575 1.8096005e-18)
(127.29982 6.58017 -1.9539045e-18)
(126.17266 13.107359 -1.133554e-18)
(125.32135 17.638006 3.6558462e-18)
(122.44383 23.502549 -4.549712e-18)
(118.61417 29.236729 -5.1413563e-18)
(112.01125 33.715679 -4.9875718e-18)
(100.89953 39.412422 5.6312747e-18)
(89.204756 40.808445 -9.4053477e-18)
(129.39801 3.4327085 -1.8303984e-18)
(128.91102 6.7975802 1.9773977e-18)
(128.27746 13.165777 -1.0916647e-18)
(127.44017 17.863836 -1.4852469e-20)
(124.67304 24.397163 -1.3783446e-18)
(120.50457 30.832905 3.4976911e-18)
(113.32953 36.243059 -4.8837626e-18)
(101.6854 42.348215 5.5274434e-18)
(89.783494 44.835979 0)
(131.25173 3.4430836 -1.6266185e-18)
(130.5399 6.8363495 -9.3729185e-19)
(129.57018 13.506564 -9.8503446e-19)
(128.58845 18.392684 -1.2083949e-18)
(125.93624 24.704652 -1.3640594e-18)
(121.97835 31.049288 3.6246957e-18)
(115.58815 36.531316 -8.8169155e-18)
(104.36754 42.926184 1.185621e-17)
(92.589726 46.017384 -7.4614206e-18)
(133.13315 3.4265552 4.6942094e-18)
(132.3097 6.9355171 3.3649959e-18)
(131.78432 13.436391 4.8110911e-18)
(130.90554 18.469216 5.3119608e-18)
(128.37168 25.553032 4.1093303e-18)
(124.15279 32.584258 -1.5267816e-18)
(117.16435 39.022748 -4.620361e-18)
(105.5434 45.813155 -1.0574069e-18)
(93.601907 49.579785 -8.4317848e-18)
(135.03591 3.3759534 -8.744643e-18)
(133.94375 6.9348146 -3.4069557e-18)
(133.16863 13.644782 -1.1855416e-17)
(132.16623 18.806592 -3.2724054e-18)
(129.8255 25.50109 8.3384991e-18)
(125.81659 32.552515 4.7845266e-18)
(119.65967 39.010762 -2.39873e-17)
(108.43816 46.090016 5.0835736e-18)
(96.552613 50.246416 1.6181152e-17)
(97.755828 53.401794 -1.5503359e-17)
(109.96715 48.955313 5.9836479e-18)
(121.55971 41.452185 3.4625563e-17)
(128.30434 33.98646 -4.5234349e-18)
(132.40934 26.4104 1.544507e-18)
(134.66783 18.790728 5.4256654e-18)
(135.48836 13.471665 8.0596108e-18)
(135.84328 6.9564833 -3.7692125e-19)
(136.95167 3.2902101 1.1266344e-17)
(100.70329 53.771152 5.9114643e-17)
(113.0401 48.960634 4.6528977e-18)
(124.25304 41.082715 -4.7374138e-17)
(130.13894 33.637993 -1.2718532e-18)
(134.07044 25.894987 -8.0084419e-18)
(135.9924 18.837056 -6.6294297e-18)
(136.96552 13.505723 -1.2878395e-17)
(137.42669 6.864407 0)
(138.86624 3.1673302 -5.2532417e-18)
(102.07668 56.70814 -7.554209e-17)
(114.91981 51.81614 4.6943423e-17)
(126.55594 43.429465 2.4835573e-17)
(132.9636 34.902497 -1.1674075e-18)
(136.78102 26.711463 1.5123993e-17)
(138.6206 18.68217 5.6002744e-20)
(139.27275 13.077047 2.7739017e-18)
(139.40897 6.6911357 9.0625792e-18)
(140.74877 3.0022188 8.3882013e-18)
(105.06708 56.806389 -1.4236674e-17)
(118.1577 51.530976 6.0252157e-18)
(129.37736 42.660737 -3.5410375e-18)
(134.89277 34.224605 0)
(138.65393 25.894697 -1.5289003e-17)
(139.97463 18.427701 0)
(140.79226 12.974985 1.0431873e-17)
(140.89945 6.5876713 -1.7908987e-17)
(142.57363 2.7831645 -1.1286926e-18)
(106.71428 59.651479 -6.0003996e-18)
(120.43974 54.36888 -3.4134885e-17)
(132.13268 44.836264 3.2365638e-18)
(138.04037 35.232438 0)
(141.44702 26.357847 -1.2317919e-17)
(142.70327 18.102549 9.5321219e-18)
(143.12356 12.302234 5.7942396e-19)
(142.93208 6.1993785 1.6309041e-17)
(144.31618 2.5086197 -7.4310263e-18)
(109.83582 59.478174 -5.857323e-17)
(123.8514 53.740066 -2.5216667e-17)
(135.0267 43.614746 -7.0320352e-19)
(140.02013 34.143957 -1.9238283e-18)
(143.34039 25.260119 1.4769362e-18)
(144.01357 17.485069 -1.7576889e-17)
(144.52704 12.034934 4.9596292e-19)
(144.30264 5.9455739 -7.6444936e-18)
(145.89524 2.2036033 0)
(111.8392 62.342997 4.042218e-17)
(126.53023 56.465457 3.6677693e-17)
(138.24796 45.538903 -6.8593084e-19)
(143.41304 34.833968 -1.6040505e-18)
(146.34352 25.304502 9.3061219e-18)
(146.75734 16.878124 8.5699292e-18)
(146.78443 11.110496 4.0386848e-19)
(146.25379 5.3439167 -3.7005977e-19)
(147.37245 1.8718623 0)
(115.13511 61.862965 0)
(130.23113 55.487975 -2.465414e-18)
(141.12826 43.796268 2.101722e-18)
(145.46817 33.26529 -1.3154767e-17)
(148.01519 23.961415 -4.3872814e-19)
(148.02531 15.921979 9.1945827e-18)
(148.06705 10.639638 -8.5941559e-18)
(147.46892 5.0131512 8.1866331e-18)
(148.69372 1.5232349 6.1303203e-18)
(117.69603 64.835851 7.8021788e-17)
(133.256 57.951267 3.8210169e-17)
(144.85489 45.329492 -1.6395204e-18)
(148.96779 33.547731 1.3936667e-17)
(151.11734 23.506378 -2.8160196e-19)
(150.60081 15.06641 -9.4565952e-18)
(150.15736 9.478829 9.2914845e-18)
(149.20313 4.260675 -8.5205049e-18)
(149.82938 1.1643132 -2.1054552e-18)
(150.76481 0.79366086 -4.0880621e-18)
(150.17366 3.7562109 3.549723e-18)
(151.20611 8.7669878 0)
(151.82796 13.728883 -2.6280705e-19)
(152.65042 21.716408 2.4756749e-18)
(151.15503 31.377681 1.6566222e-18)
(147.72378 42.912193 0)
(137.64841 56.476755 -1.137062e-17)
(121.5539 63.825877 -7.5948196e-17)
(151.4785 0.40830915 0)
(151.63014 2.8507633 -3.6803304e-18)
(153.08663 7.288232 0)
(154.18788 12.467054 -3.3713985e-20)
(155.75673 20.654017 -4.2655228e-20)
(154.89942 30.843537 -1.7203368e-18)
(152.24364 43.542475 -2.2734387e-18)
(141.80763 58.546956 -1.8786299e-17)
(125.88032 67.419207 4.2123757e-17)
(151.95329 0.026752508 0)
(152.22666 2.2796618 0)
(153.77094 6.3922846 1.48246e-18)
(155.20345 10.646352 0)
(157.1138 18.236679 -2.2130399e-18)
(156.92818 28.007253 1.0410838e-17)
(155.37782 40.240476 2.1531904e-18)
(147.04514 56.139375 2.4537793e-19)
(130.68552 65.364837 -2.0525155e-17)
(152.30378 -0.082922198 0)
(153.2866 1.2882792 0)
(155.28686 4.7566544 -1.5131748e-18)
(157.0416 9.3273832 -6.1451136e-18)
(159.72395 16.848854 -1.048239e-17)
(160.52806 26.760243 -1.1440784e-17)
(159.83864 39.841872 0)
(151.60394 57.238394 -2.1229842e-17)
(136.46823 68.760795 -3.6038772e-17)
(152.14205 -0.67307499 -4.6309223e-20)
(153.40713 0.65685445 5.0493284e-20)
(155.44917 3.6971782 0)
(157.84613 7.0482494 -2.5476188e-18)
(160.81633 13.966192 2.6589645e-17)
(161.99398 23.377185 -1.0775679e-18)
(162.68666 35.708712 -2.9575e-17)
(156.89414 53.817218 2.2835077e-17)
(141.5853 65.592574 -6.9509962e-18)
(152.25687 -0.73790614 6.306101e-20)
(154.00902 -0.40045172 -6.8868505e-20)
(156.51113 2.083743 0)
(158.77161 5.6908397 1.0285625e-17)
(162.80013 12.283342 -1.720794e-17)
(165.28362 21.554542 1.4071048e-18)
(166.73153 34.299481 3.0590746e-17)
(161.50704 53.621749 0)
(149.23145 68.165974 7.4987715e-18)
(151.39996 -1.09758 -7.6683193e-20)
(153.55657 -1.0038536 -5.9309491e-18)
(156.08141 0.89693771 3.1406403e-19)
(159.47147 3.2507501 -1.3117053e-17)
(163.27147 9.1861993 -2.2562291e-17)
(166.10146 17.692312 0)
(169.0064 29.400997 0)
(166.22137 49.056532 6.6224237e-17)
(154.80789 63.215348 0)
(151.17551 -1.2340513 0)
(153.64138 -2.1803844 6.1345132e-18)
(156.66901 -0.60094015 0)
(159.46258 1.9075595 1.5207102e-17)
(164.60566 7.3587786 2.0784705e-17)
(168.59309 15.608213 -3.8564137e-17)
(172.29998 27.203186 0)
(170.12862 47.419192 -7.34211e-17)
(164.19955 64.426687 1.1261922e-16)
(149.59401 -1.4686145 0)
(152.6965 -2.7431689 0)
(155.6477 -1.8433306 4.0043961e-19)
(159.79584 -0.68373601 7.9292509e-19)
(164.13844 3.5780896 -1.3869361e-18)
(168.77038 10.465632 3.9803693e-17)
(174.16142 20.258723 0)
(174.56274 39.388016 0)
(170.50995 56.118494 -1.1264014e-16)
(148.0615 -1.7657426 1.8061586e-19)
(152.60677 -4.0411443 7.2146561e-20)
(155.75773 -2.9867506 -1.0882008e-17)
(159.65788 -1.6577148 0)
(165.25078 3.072791 0)
(170.46193 10.01987 2.9655555e-18)
(176.24806 20.630331 6.4119755e-17)
(175.97704 41.916405 -2.3046196e-18)
(177.67052 59.582237 0)
(146.60438 -1.9881221 1.7280926e-19)
(151.55757 -4.4441099 7.8541271e-20)
(154.67738 -3.8575923 9.9206363e-18)
(160.11993 -3.1935593 0)
(165.3255 1.7447079 0)
(171.80725 9.3840342 -3.2253053e-18)
(179.28498 21.994983 -2.0585009e-16)
(177.18226 43.926813 2.4973464e-18)
(171.9041 60.03086 -2.7275817e-16)
(144.90509 -2.1867615 0)
(151.17197 -5.7997837 -1.4770822e-17)
(154.62853 -5.0128429 0)
(160.44398 -4.7468663 -1.352442e-18)
(166.95377 0.64396596 1.4742297e-18)
(174.03821 8.0402146 3.5478189e-18)
(182.44099 21.64377 2.9789412e-16)
(178.13889 45.912633 -2.7211853e-18)
(156.22941 63.389435 2.5857471e-16)
(142.97682 -2.3826321 -3.9731952e-18)
(149.78321 -6.2842617 1.4152149e-17)
(153.36321 -6.0612862 -1.9868076e-17)
(160.69915 -6.4661252 -3.9664554e-17)
(167.04572 -1.213493 6.2443435e-17)
(176.00077 6.9211248 -1.0166857e-16)
(185.94102 21.889053 -1.6068471e-16)
(177.01194 47.487946 -2.0659979e-16)
(130.59465 72.762274 0)
(140.86767 -2.5944951 6.0672855e-18)
(149.19976 -7.7001627 -1.3275027e-17)
(153.20247 -7.4420569 1.9216002e-17)
(161.22048 -8.2922885 -2.5279766e-18)
(169.07495 -2.8248207 -6.027714e-17)
(177.84571 4.8513378 -6.731139e-18)
(188.3679 21.125697 0)
(175.24029 52.444707 1.9796837e-16)
(102.52794 91.523442 0)
(138.57318 -2.8049379 -1.8517528e-18)
(147.32014 -8.3272711 1.2775743e-17)
(151.5361 -8.6207395 -1.8848375e-17)
(160.92437 -10.355118 4.0355926e-17)
(168.80189 -4.9077154 2.5439381e-18)
(179.5504 3.3636668 1.0102049e-16)
(191.02647 21.435521 -2.0251433e-16)
(168.35412 54.915611 -2.3796521e-16)
(51.393963 61.91203 2.0666634e-16)
(136.12293 -3.0111881 1.5773541e-20)
(146.40634 -9.6647543 -2.9180066e-19)
(151.06283 -10.062321 1.7651136e-17)
(161.14324 -12.374313 -1.5846087e-18)
(170.68883 -6.9691241 1.7090867e-18)
(181.10928 1.2330776 1.168596e-16)
(191.05239 20.363964 4.1068751e-16)
(153.51044 51.388196 2.2455521e-16)
(6.6685147 27.260782 -1.956914e-16)
(133.45127 -3.1426897 4.5057486e-20)
(144.1241 -10.200804 -4.8442675e-20)
(149.05405 -11.22216 -1.4957985e-17)
(160.49883 -14.333724 -4.0949531e-17)
(170.31438 -8.9340372 6.8680704e-17)
(181.97165 -0.8228499 -2.3316712e-16)
(189.71365 19.374729 -4.3498415e-16)
(131.88596 52.68868 -2.3853613e-16)
(-0.34585989 43.947183 2.0484908e-16)
(131.16509 -3.1903098 7.0435754e-18)
(142.92656 -11.367231 1.63256e-19)
(148.15463 -12.76373 1.1200294e-18)
(160.20785 -16.532002 3.9711263e-17)
(171.52609 -11.512684 -6.3653707e-17)
(182.85652 -3.1594734 1.1871951e-16)
(186.37297 18.461917 2.1854368e-16)
(110.82145 49.721791 2.2481197e-16)
(-11.523665 42.964943 -1.9530792e-16)
(-22.908315 43.128493 -3.4686034e-16)
(97.411672 47.93435 -2.5054561e-18)
(183.91525 17.383682 3.9755024e-18)
(182.26792 -5.254152 -3.4292091e-18)
(171.21477 -13.588549 0)
(159.14301 -18.431559 4.6528162e-19)
(146.08784 -13.813258 2.606703e-17)
(140.26237 -11.919803 5.0778152e-18)
(128.51992 -3.099255 -1.6778548e-17)
(-26.534617 43.230681 3.369927e-16)
(87.927477 45.301805 0)
(181.66172 14.763263 0)
(182.88681 -9.1619759 3.194598e-16)
(171.40278 -16.427284 0)
(158.08237 -20.765615 -8.3802779e-17)
(144.66879 -15.238505 -3.4472697e-17)
(138.60282 -12.851116 -4.762106e-18)
(125.67495 -3.1765096 -1.4787208e-17)
(-33.195634 44.208217 3.1002396e-18)
(76.273607 44.4805 -2.4984139e-18)
(178.2041 13.9744 0)
(181.51974 -10.80818 -3.124123e-16)
(170.48772 -18.686626 0)
(156.7559 -22.272998 8.2794634e-17)
(142.4689 -16.186627 2.1135207e-17)
(135.74943 -13.214629 3.0721098e-20)
(122.70452 -3.0401486 2.4200965e-17)
(-35.804809 44.778072 6.7484988e-16)
(66.658029 41.442352 -7.61299e-16)
(175.15287 10.547554 5.0339918e-18)
(181.61361 -14.521367 0)
(170.37437 -21.192987 -1.6531566e-16)
(155.16351 -24.592194 0)
(140.71539 -17.467123 -5.1832593e-20)
(133.71844 -14.122511 -2.1150196e-20)
(119.60061 -3.2903933 6.2813235e-20)
(-39.098196 47.850151 -6.4807067e-16)
(55.017994 40.655822 -2.8814235e-17)
(170.81385 10.178597 6.7760709e-16)
(179.85463 -16.062695 -3.5009868e-18)
(169.05389 -23.511345 -4.1252812e-19)
(153.56841 -25.769143 0)
(138.23877 -18.303226 -9.0196437e-18)
(130.67502 -14.339333 0)
(116.5204 -3.3272707 0)
(-38.933419 49.461744 3.0299889e-18)
(46.134998 37.220493 7.3044398e-16)
(167.00472 6.583109 -1.3141499e-15)
(179.48078 -19.985716 3.1608807e-16)
(168.65133 -25.778017 1.5964294e-16)
(151.35655 -28.203276 6.3876864e-17)
(136.35098 -19.391243 8.6448071e-18)
(128.48449 -15.1904 -1.2043886e-19)
(113.24683 -3.5968501 3.8508903e-17)
(-39.881283 52.537691 3.0126703e-18)
(33.256712 35.029814 -7.5606555e-16)
(161.98452 6.717647 6.5102917e-16)
(177.22617 -21.60104 -3.0988621e-16)