/*--------------------------------*- C++ -*----------------------------------*\
  =========                 |
  \\      /  F ield         | OpenFOAM: The Open Source CFD Toolbox
   \\    /   O peration     | Website:  https://openfoam.org
    \\  /    A nd           | Version:  11
     \\/     M anipulation  |
\*---------------------------------------------------------------------------*/
FoamFile
{
    format      ascii;
    class       volVectorField;
    location    "0.037";
    object      U;
}
// * * * * * * * * * * * * * * * * * * * * * * * * * * * * * * * * * * * * * //

dimensions      [0 1 -1 0 0 0 0];

internalField   nonuniform List<vector> 
880
(
(25 -7.768126373978579e-16 0)
(25 -5.323954373770224e-16 0)
(25 1.398734529315624e-15 0)
(24.99999997374382 -1.400301515360107e-09 0)
(25 7.514749474701129e-16 0)
(25 -8.601462876221645e-16 0)
(25.00000000000002 4.218490965803194e-15 0)
(25.00000081239902 -5.829487805277558e-07 0)
(25 0 0)
(25.00000000000001 1.259199037292588e-15 0)
(25 -7.594066998225654e-15 0)
(24.99999846534307 -6.633796658807472e-06 0)
(25 0 0)
(25 -1.002051955233004e-15 0)
(25 3.239404306698264e-13 0)
(24.99970951383447 -0.0001152750980284537 0)
(25 -5.739255230693335e-16 0)
(25 -4.775163649235371e-16 0)
(25.00000000000001 1.787913026482964e-15 0)
(25 1.022372415423979e-13 0)
(25 -3.545761807097479e-16 0)
(25 1.078550227007455e-15 0)
(25.00000000000003 6.369074443430263e-15 0)
(25 1.342333037405425e-14 0)
(25.00000000001889 -2.811473538399052e-11 0)
(24.99999999940617 5.471123107025729e-10 0)
(25.0000015317354 2.621100894167433e-06 0)
(24.99999256110904 -2.162797073241153e-05 0)
(24.99459440010535 0.01146849273325335 0)
(24.97370088395171 0.06621516864386585 0)
(24.96535085925409 0.1207615611471543 0)
(24.97049845481661 0.130535095859313 0)
(24.99999999959594 -3.222368714257518e-10 0)
(24.99999999941872 -4.430233879684748e-10 0)
(24.99999999934903 -5.006205494297867e-10 0)
(24.99999999986954 -1.746848894158287e-10 0)
(24.99999999156887 4.205277063571311e-08 0)
(24.99999999336506 5.648503128712321e-08 0)
(24.99999999343339 6.314688662121412e-08 0)
(24.9999999809232 2.363888059747312e-08 0)
(24.99998062525322 0.0001093949868862783 0)
(24.99997807393682 0.0001212914789229233 0)
(24.99997797871353 0.0001310723208870632 0)
(24.9999534922029 9.504616845436279e-05 0)
(24.96847105737591 0.1388145898056292 0)
(24.96903046481775 0.1509425467415119 0)
(24.96947913344421 0.155894199621457 0)
(24.95095281466641 0.1678242352956942 0)
(25.00411953544845 0.188828766061465 0)
(25.03336254890746 0.1093771604587003 0)
(25.01867872141759 0.02827664216455778 0)
(25.00273667368679 0.002718626571794876 0)
(24.99999281027478 0.0003193884956860759 0)
(25.00003221608594 0.0002276484709837385 0)
(25.00002948818879 7.713625975995702e-05 0)
(25.00000557669431 9.17412902705757e-06 0)
(24.99999999511084 2.386995737774296e-07 0)
(25.00000001901283 1.79572382883778e-07 0)
(25.00000001879346 6.410112166811354e-08 0)
(25.00000000359474 7.598405854888142e-09 0)
(24.99999999714952 -1.976430315494642e-09 0)
(24.99999999768111 -1.464074889336672e-09 0)
(24.99999999916243 -4.741377713258658e-10 0)
(24.99999999992833 -5.132950454373135e-11 0)
(25.00000000000001 -1.673728200616989e-12 0)
(25.00000000000001 1.253941706402025e-14 0)
(25 -8.468805229286237e-17 0)
(24.99999999999999 -5.726320018449455e-16 0)
(25.00000000011718 2.28879901401682e-10 0)
(25 -1.184373972707961e-12 0)
(25 -8.315586005517614e-13 0)
(25 -1.288125046664305e-13 0)
(25.00000014512471 2.837347685307043e-07 0)
(25.00000000053785 -1.48085970436328e-09 0)
(24.99999999976053 -1.120741209204418e-09 0)
(24.99999999988676 -2.09957603568757e-10 0)
(25.00008548633871 5.772792009625241e-05 0)
(25.00000035981026 -1.403612900774937e-06 0)
(24.99999977353169 -5.530411377710985e-07 0)
(24.99999994416033 -5.134129255481536e-08 0)
(24.9999999988062 -8.309303969871477e-10 0)
(24.99999999999968 -4.111823520735155e-12 0)
(25 3.920243667920511e-14 0)
(25 1.179956589186474e-16 0)
(24.99999988973138 -1.685349980370146e-07 0)
(24.99999999842341 -4.503857973011111e-09 0)
(24.99999999999598 -7.949516365141171e-11 0)
(25 -3.768006438836176e-14 0)
(25.00002231494874 9.909321601585627e-05 0)
(25.00000014325764 2.274501056269774e-06 0)
(24.99999999980845 2.993437314918528e-09 0)
(24.99999999998446 -2.323049677094591e-11 0)
(25.01442332876256 -0.04289612308704279 0)
(25.00001849405635 -0.0001306574367436976 0)
(25.00000000770329 -1.246044511152146e-07 0)
(24.99999999999288 -7.094642069008277e-11 0)
(24.99999999999999 -4.565206898744535e-12 0)
(24.99999998722709 7.828095796231806e-10 0)
(24.99994818509732 1.447455498757283e-05 0)
(24.86512126438874 0.07552422422376709 0)
(24.99999999884232 -1.038855792456637e-09 0)
(24.99999993944518 1.481895653683754e-07 0)
(24.99978823760003 0.0003540241204117594 0)
(24.60418513119667 0.4956804940010759 0)
(24.99999999813364 -1.630580585439033e-09 0)
(24.99999992544952 2.287512581666311e-07 0)
(24.99974691034702 0.0005182649265163012 0)
(24.59218069946796 0.6596538058925859 0)
(24.99999999766064 -2.065556337410249e-09 0)
(24.99999990870636 2.812831028872441e-07 0)
(24.9997103100274 0.00059711844993201 0)
(24.57633562929757 0.6982397146983976 0)
(24.55449466417144 0.733507121202695 0)
(24.99966464932546 0.0006892899370040351 0)
(24.99999988655881 3.484946812146992e-07 0)
(24.99999999701008 -2.623431167414532e-09 0)
(24.53087147958685 0.774305606648702 0)
(24.99960958814979 0.0008057293715922453 0)
(24.99999985827152 4.38740354445089e-07 0)
(24.99999999613737 -3.383461960805826e-09 0)
(24.50022760704245 0.8161805263371056 0)
(24.99953462391888 0.0009396026831140624 0)
(24.99999981613437 5.506325842129826e-07 0)
(24.99999999505014 -4.361130098768034e-09 0)
(24.47340636701869 0.8836496196377872 0)
(24.99945329787078 0.001166639847314523 0)
(24.99999977148555 7.520275756889854e-07 0)
(24.99999999291003 -6.19652608252203e-09 0)
(24.9999999948049 -4.50315062711468e-09 0)
(24.99999984284102 5.265024320490971e-07 0)
(24.99955132800332 0.0009562218555980497 0)
(24.49326216021851 0.8633566833601424 0)
(24.999999994882 -4.556167339296706e-09 0)
(24.9999998209892 5.403739181362805e-07 0)
(24.99954405740064 0.0009389940267102206 0)
(24.52182511969679 0.8144243282746026 0)
(25.0000000018541 -3.941463774717544e-09 0)
(24.99999980381287 5.904370621926202e-07 0)
(24.9995421413347 0.0009363090726096928 0)
(24.56330491751053 0.7457632093088963 0)
(24.99999998023524 -6.754008815007559e-09 0)
(24.99999990666349 3.480354969609237e-07 0)
(24.99979125531668 0.0005045566179049527 0)
(24.7875796183399 0.4050529220773987 0)
(24.99999990519009 -2.224888953735385e-07 0)
(24.99988251167869 -0.0001143973368462589 0)
(24.99910834583244 -0.005195364834793803 0)
(25.18114656477063 0.03286272995959413 0)
(24.99999996701099 -4.143813192279313e-08 0)
(24.99995036410644 -4.818232647614873e-05 0)
(24.98352692513198 -0.01031935918653822 0)
(24.32929229844549 -0.563801018148545 0)
(24.9999999731831 -2.962785263648434e-08 0)
(24.9999573420287 -3.468078833151049e-05 0)
(24.97471621959983 -0.009519508709723871 0)
(23.38953721166142 -0.3605313245347758 0)
(24.99999997892976 -2.094823607542398e-08 0)
(24.99995353641609 -2.80002048923208e-05 0)
(24.96659400697212 -0.005634249857354502 0)
(22.92393018169185 -0.02024207303488181 0)
(23.45362461836647 -0.05223464364326154 0)
(24.98437855270987 -0.007453061012833903 0)
(24.99997865653829 -2.324783807073234e-05 0)
(24.99999998475082 -2.322020166701775e-08 0)
(23.57793053720329 0.0343902340558514 0)
(24.98580643167557 -0.005478713169893235 0)
(24.99998168543016 -1.774166977827e-05 0)
(24.99999998650349 -1.656567607141682e-08 0)
(23.79016366781102 -0.03609726963531034 0)
(24.99027196019534 -0.004671270188712013 0)
(24.9999891181531 -1.234219006931739e-05 0)
(24.99999999136093 -1.013647586409541e-08 0)
(23.51964168411723 0.1314062591714212 0)
(24.98625605806352 -0.00475228152198609 0)
(24.99998464686991 -1.41654781452448e-05 0)
(24.99999999090639 -1.308555757555688e-08 0)
(24.44275341553271 0.09837232351090194 0)
(24.99752429988252 -0.0009270469310398456 0)
(24.99999760357435 -2.048324323513525e-06 0)
(24.99999999852143 -2.103382157081607e-09 0)
(24.9236653418385 0.008001559580105514 0)
(24.99987028432799 -8.223436387181457e-05 0)
(24.99999991941185 -9.331121793463042e-08 0)
(24.9999999998922 -5.659168983349744e-11 0)
(24.99789757260684 -0.007953997021623294 0)
(24.9999987624843 -1.629741913795493e-05 0)
(25.00000000026775 -1.593526670364015e-08 0)
(24.99999999999986 -1.857098024637189e-11 0)
(25.00720410602408 -0.02783847160467071 0)
(25.00002477340231 -7.783552764276224e-05 0)
(25.00000002672024 -9.539852455231016e-08 0)
(24.99999999961583 -1.52040341094629e-10 0)
(24.86241564402009 -0.0001445639095479139 0)
(24.99910254157702 -3.291368390273309e-07 0)
(24.99999833326717 -1.476391603323386e-10 0)
(25.00000000985458 4.147302426161736e-12 0)
(24.86265418216661 -0.0004254725692234101 0)
(24.99910379730645 -3.863461014641334e-07 0)
(24.99999833081215 6.873166279099114e-09 0)
(25.0000000096655 1.455595560817793e-10 0)
(24.86315513436021 -8.82854246084524e-05 0)
(24.99910320793073 3.737424560100097e-06 0)
(24.99999828355676 4.587565525265969e-08 0)
(25.00000000818478 1.000456070765313e-09 0)
(24.86256626863263 0.005330663063628265 0)
(24.99910570112674 2.667769495969962e-05 0)
(24.99999819179344 1.034821445436843e-07 0)
(25.00000000511606 1.506158919449165e-09 0)
(25.00720410606273 0.02783847159187474 0)
(25.00002477342902 7.78355320433153e-05 0)
(25.00000002675548 9.539873757403639e-08 0)
(24.99999999959948 1.512796974901473e-10 0)
(24.99789757265241 0.007953997026829175 0)
(24.99999876251557 1.629741961405425e-05 0)
(25.00000000033931 1.594400447694838e-08 0)
(24.99999999999898 1.836898539554353e-11 0)
(24.92366534185255 -0.008001559550768783 0)
(24.99987028432098 8.22343755412444e-05 0)
(24.99999991941024 9.331843115808989e-08 0)
(24.99999999989929 5.613638093861918e-11 0)
(24.44275341547834 -0.09837232351028055 0)
(24.99752429981072 0.0009270469350518754 0)
(24.99999760356917 2.048323457326031e-06 0)
(24.99999999853814 2.103210931158318e-09 0)
(24.99999998470251 2.320881922421961e-08 0)
(24.99997865645471 2.324784962919676e-05 0)
(24.98437855267354 0.007453061012218406 0)
(23.45362461835217 0.05223464369004571 0)
(24.99999998647395 1.657533435986111e-08 0)
(24.99998168542002 1.774166529562912e-05 0)
(24.98580643164614 0.005478713184607483 0)
(23.57793053718177 -0.03439023411279832 0)
(24.99999999140143 1.01439308695066e-08 0)
(24.9999891181089 1.234218279279321e-05 0)
(24.9902719601946 0.004671270192162069 0)
(23.79016366772738 0.0360972696218172 0)
(24.99999999089993 1.30778404608027e-08 0)
(24.99998464685309 1.416548666181449e-05 0)
(24.98625605800038 0.004752281492807081 0)
(23.51964168414182 -0.131406259134012 0)
(22.92393018171983 0.02024207299213339 0)
(24.96659400701482 0.005634249830359292 0)
(24.99995353644734 2.80001758492733e-05 0)
(24.99999997894189 2.09407111079271e-08 0)
(23.38953721171071 0.3605313245531732 0)
(24.9747162196446 0.009519508709055024 0)
(24.99995734210479 3.468079027334728e-05 0)
(24.9999999732577 2.962701464202248e-08 0)
(24.32929229844555 0.5638010181614 0)
(24.98352692518791 0.01031935919545642 0)
(24.99995036411289 4.818233143821823e-05 0)
(24.99999996707247 4.145024800213203e-08 0)
(25.18114656475437 -0.0328627299656876 0)
(24.99910834585606 0.005195364834881006 0)
(24.99988251170404 0.000114397349636624 0)
(24.99999990509723 2.224982416292216e-07 0)
(24.9999999948189 4.502378553659912e-09 0)
(24.9999998428022 -5.26504837932314e-07 0)
(24.99955132797759 -0.0009562218604564376 0)
(24.49326216015731 -0.8633566833590914 0)
(24.99999999487353 4.555332820881463e-09 0)
(24.99999982097238 -5.403727467741697e-07 0)
(24.99954405739886 -0.0009389940240372143 0)
(24.52182511970192 -0.8144243282647129 0)
(25.00000000181112 3.939795499492545e-09 0)
(24.99999980381602 -5.904329753043324e-07 0)
(24.99954214137157 -0.0009363090645420433 0)
(24.56330491751687 -0.7457632093080351 0)
(24.99999998016109 6.749383504319146e-09 0)
(24.99999990666539 -3.480283311848836e-07 0)
(24.99979125534399 -0.0005045566142337485 0)
(24.78757961834163 -0.4050529220788776 0)
(24.47340636691449 -0.8836496196460687 0)
(24.99945329791594 -0.001166639839060071 0)
(24.99999977142601 -7.520320498071283e-07 0)
(24.99999999291822 6.196902386560369e-09 0)
(24.50022760695192 -0.8161805263374751 0)
(24.99953462383601 -0.0009396026791715756 0)
(24.9999998161229 -5.506354384746108e-07 0)
(24.99999999503994 4.361415305469919e-09 0)
(24.53087147961227 -0.7743056066503289 0)
(24.99960958806576 -0.0008057293791382799 0)
(24.99999985822029 -4.387421922667125e-07 0)
(24.99999999614537 3.383290575872043e-09 0)
(24.55449466412226 -0.7335071212079418 0)
(24.99966464939848 -0.0006892899356359014 0)
(24.99999988655689 -3.484961318778336e-07 0)
(24.99999999701993 2.623424575157167e-09 0)
(25 4.642446213503154e-12 0)
(24.9999999871851 -7.852267833014971e-10 0)
(24.99994818510521 -1.447455082543477e-05 0)
(24.86512126447224 -0.07552422422229689 0)
(24.99999999886956 1.038466127362107e-09 0)
(24.99999993948723 -1.481883794262387e-07 0)
(24.99978823757066 -0.0003540241245190067 0)
(24.60418513119923 -0.4956804939932734 0)
(24.99999999814551 1.630528252879463e-09 0)
(24.99999992544578 -2.287517437510516e-07 0)
(24.99974691033816 -0.0005182649292545833 0)
(24.59218069942732 -0.6596538058946361 0)
(24.99999999767374 2.065523940842362e-09 0)
(24.99999990869764 -2.812838910277445e-07 0)
(24.99971031005655 -0.0005971184442212465 0)
(24.57633562928724 -0.6982397147000564 0)
(24.99999999999482 7.111185375982968e-11 0)
(24.9999999999809 2.325255226430839e-11 0)
(25 -4.8845366718515e-15 0)
(25 2.270457165977525e-17 0)
(25.00000000776117 1.24608491938491e-07 0)
(24.99999999981632 -2.994190606215221e-09 0)
(24.99999999996313 8.055760641029681e-11 0)
(25 -3.706414905024913e-14 0)
(25.00001849404213 0.0001306574294025129 0)
(25.00000014322102 -2.274497956406038e-06 0)
(24.99999999844945 4.501377393833003e-09 0)
(24.99999999999999 4.055086829577597e-12 0)
(25.01442332875931 0.04289612308497463 0)
(25.00002231494641 -9.909321470894219e-05 0)
(24.99999988972927 1.685351731789704e-07 0)
(24.99999999880557 8.306197044470463e-10 0)
(25.00000000000002 -3.763611968985257e-15 0)
(25 1.2326769598002e-13 0)
(24.9999999998813 2.063444797911967e-10 0)
(24.99999994414687 5.134074741705354e-08 0)
(25 1.300710853565716e-15 0)
(25 7.68885810589836e-13 0)
(24.99999999970901 1.124746647492435e-09 0)
(24.99999977353015 5.530430587244975e-07 0)
(25 2.404641184545544e-15 0)
(25 1.016489526618229e-12 0)
(25.00000000056116 1.480559429894595e-09 0)
(25.00000035980463 1.403612727210013e-06 0)
(25 1.673668725988452e-12 0)
(25.00000000011358 -2.29707973193346e-10 0)
(25.00000014508678 -2.837419521570487e-07 0)
(25.00008548635058 -5.772791441743821e-05 0)
(24.99999999718799 1.974217898680479e-09 0)
(24.99999999515953 -2.387010054017628e-07 0)
(24.99999281031445 -0.0003193885021475275 0)
(25.00411953545774 -0.1888287660658987 0)
(24.99999999771774 1.462904719240115e-09 0)
(25.00000001900523 -1.795598162032412e-07 0)
(25.00003221608886 -0.0002276484615217047 0)
(25.03336254895429 -0.1093771604682154 0)
(24.99999999916895 4.775532468439839e-10 0)
(25.00000001873305 -6.410393871046302e-08 0)
(25.0000294882046 -7.713625730680046e-05 0)
(25.0186787214258 -0.02827664216601177 0)
(24.99999999993116 5.154954778448041e-11 0)
(25.00000000357311 -7.604481371318561e-09 0)
(25.00000557668738 -9.174120401839652e-06 0)
(25.00273667373171 -0.002718626562067024 0)
(24.95095281464422 -0.1678242352800134 0)
(24.99995349212063 -9.504620939178275e-05 0)
(24.99999998095004 -2.364219658499011e-08 0)
(24.99999999988392 1.732087056006923e-10 0)
(24.96947913346674 -0.1558941996095152 0)
(24.99997797859932 -0.0001310723297675204 0)
(24.99999999344249 -6.314618035372386e-08 0)
(24.99999999934025 5.00949296770901e-10 0)
(24.96903046475241 -0.1509425467832582 0)
(24.99997807388246 -0.0001212914543783923 0)
(24.99999999336428 -5.649002711744595e-08 0)
(24.99999999942769 4.437838456388945e-10 0)
(24.96847105739177 -0.1388145897957113 0)
(24.99998062540496 -0.000109394886592277 0)
(24.99999999157962 -4.204934199148351e-08 0)
(24.99999999958897 3.217386139984491e-10 0)
(24.97049845478578 -0.1305350958580274 0)
(24.99999256111134 2.162789215554566e-05 0)
(25 -9.111987625840792e-14 0)
(25 -9.349922688293757e-14 0)
(24.96535085927117 -0.1207615611463416 0)
(25.00000153179066 -2.62108005257863e-06 0)
(25 5.786810595746405e-16 0)
(25.00000000000001 1.503786493140451e-15 0)
(24.9737008839199 -0.06621516863423423 0)
(24.99999999942944 -5.468538024596282e-10 0)
(25 3.709941798090211e-16 0)
(25.00000000000001 3.164775459731014e-15 0)
(24.99459440011303 -0.01146849271973972 0)
(25.00000000000988 2.51255475896402e-11 0)
(25 -1.061529421507592e-15 0)
(25.00000000000002 -3.618794575603534e-15 0)
(25 1.420908939734042e-15 0)
(25 1.279803919382267e-15 0)
(25 0 0)
(24.99999997338461 1.527801284433891e-09 0)
(24.99999999999999 -2.843418720158383e-19 0)
(25 1.213551968964858e-15 0)
(25 -1.811756261851014e-16 0)
(25.00000081292907 5.827969924150417e-07 0)
(25 -1.302932775725184e-15 0)
(25 -6.928373395390471e-16 0)
(25 -1.120766892735056e-15 0)
(24.99999846541012 6.633778514040053e-06 0)
(25 -7.403056102391271e-16 0)
(25 -1.297298308309145e-16 0)
(25.00000000000002 5.505488036328984e-14 0)
(24.99970951384597 0.0001152750702698979 0)
(25.00000074571004 9.737838255854984e-10 0)
(25.00002389626299 -2.739073494334931e-06 0)
(25.0001463164312 4.617467992066696e-05 0)
(24.99757398815509 -0.002770430874172577 0)
(25.00002389637351 2.739178049340549e-06 0)
(25.00014814422263 -1.122287651149673e-11 0)
(25.00031125658916 -0.0004015585079117529 0)
(24.98637958964646 -0.02309930942779899 0)
(25.00014631643125 -4.617458023832676e-05 0)
(25.00031125660147 0.0004015584809665986 0)
(24.99630278235554 -1.212597860757595e-11 0)
(24.76408978180768 -0.06811369328375073 0)
(24.99757398813071 0.002770430858846467 0)
(24.98637958962691 0.02309930939015026 0)
(24.76408978181318 0.06811369326445185 0)
(22.66178226440153 -4.763790473245461e-12 0)
(21.07713518442822 2.28347748934592 0)
(22.18312068025648 2.819730664408295 0)
(24.2834779055637 1.516460674981228 0)
(24.81133090475973 0.4664503192082011 0)
(21.54839683705299 4.780721257404772 0)
(21.88813093718534 5.013873904655714 0)
(23.36486847176671 4.094231198573181 0)
(24.08293063294118 2.453434311994066 0)
(22.44653357280876 5.705562035571536 0)
(22.69929276608537 5.893513588416047 0)
(23.54563179409323 5.48222161003059 0)
(24.00175699557277 4.130092315348847 0)
(22.76107355110174 5.911958453472514 0)
(23.14339059217156 6.181708364852843 0)
(23.8030356704997 5.866702180297475 0)
(24.13313346688636 4.566712413124904 0)
(24.1239159148415 4.731338818063292 0)
(24.13105481796982 4.791589688041148 0)
(24.14293838727081 4.809825969001088 0)
(23.78629712101293 5.288501073990878 0)
(23.78807708713957 5.970542430113196 0)
(23.79933663817347 6.001821148325938 0)
(23.81307648790858 6.010742764212169 0)
(23.95861905917354 6.39719577044806 0)
(23.14424621506427 6.251371956776766 0)
(23.17468108086805 6.263300079255994 0)
(23.19611210941271 6.267089833973738 0)
(23.95448117456606 7.334573520781912 0)
(22.74699178881925 5.924674086024091 0)
(22.76927884562927 5.934449226272032 0)
(22.78460719967076 5.937939494382088 0)
(25.18106828314941 8.064667141655018 0)
(25.60929637113489 3.910756611874715 0)
(25.97340445747949 1.619744034214124 0)
(25.32296685360249 0.3081704783433323 0)
(25.03396131767863 0.01662885100996647 0)
(26.52489112460581 4.191370211097365 0)
(26.72441713613563 1.313621919463055 0)
(25.52914201319169 0.1396925811927651 0)
(25.04821928636429 -0.0002936464186374811 0)
(28.39911978149723 2.299898268793438 0)
(27.57265324263291 -0.4498441190297554 0)
(25.74958775962203 -0.1990103413517506 0)
(25.07560153773614 -0.02820359458910469 0)
(22.01600107861543 0.5360297405508448 0)
(23.10858492941034 -0.1699445916205764 0)
(24.36359519175564 -0.172643503505521 0)
(24.90886080053833 -0.02900378094304381 0)
(25.00092210311942 -0.0002167361262364993 0)
(25.00001659709377 -5.388899218394924e-05 0)
(24.99999572264252 -1.062589465072693e-05 0)
(24.99999959848995 -2.79924391864789e-07 0)
(25.00133962310532 -0.0008874611413354696 0)
(25.00010193598044 -0.0001318337867360656 0)
(25.00000161739321 -5.78903288976739e-06 0)
(24.99999993341634 -1.419741996293993e-09 0)
(25.00302689517349 -0.002027060677133824 0)
(25.00024240138329 -0.0001658354957497175 0)
(25.00000954176194 -7.737525237462788e-06 0)
(24.99999996315561 -7.012132715152061e-08 0)
(24.99225476914138 -0.002407134175747857 0)
(24.99937474881142 -0.000195074117083378 0)
(24.99997473326565 -7.72337278839992e-06 0)
(24.99999975355413 -6.203890009118564e-08 0)
(24.9999999881391 2.593216748926632e-09 0)
(25.00000003645882 7.193535597940339e-10 0)
(24.9999880235446 -1.413127240199091e-05 0)
(25.26240168513302 -0.6596674189550126 0)
(24.99999999126951 3.564609842351423e-09 0)
(25.00000000655494 -3.875170222784415e-10 0)
(24.99999825931098 -4.743967367446305e-06 0)
(24.98429513730385 -0.02367947864744211 0)
(24.99999999819558 -7.505043316264427e-11 0)
(25.00000000088303 4.46021445639569e-10 0)
(25.00000008960416 -1.015553058080724e-06 0)
(22.69308937019449 1.216984474545548 0)
(25.00000000126182 9.875296393676267e-10 0)
(25.00000000085544 4.926510310293726e-10 0)
(24.99999979799076 1.564358754915901e-07 0)
(20.70689947276843 0.3285078627986371 0)
(19.03458903967804 5.50178366471108 0)
(17.79434093999851 9.749720916239367 0)
(18.26189430551159 10.86577163563198 0)
(18.32388589930028 10.96738490086342 0)
(15.3067748595262 7.65901154251718 0)
(16.57711557526484 11.15471014699496 0)
(17.33886816528404 12.27705291177858 0)
(17.41963803946513 12.37117711251994 0)
(12.89082021846288 7.443164951905737 0)
(16.0255734272343 11.18160099386656 0)
(17.12934255044934 12.1837591685657 0)
(17.23621518889517 12.22344307608761 0)
(12.56125595630061 5.697709026257132 0)
(14.71782312128539 9.617129078634491 0)
(15.50121710185456 10.51413777886158 0)
(15.6452717044296 10.5328822877362 0)
(18.31668877204 10.98301161732933 0)
(18.30368086928308 10.99950648506197 0)
(18.28693486115208 11.02115056712135 0)
(18.29726359391235 11.06034921644731 0)
(17.41843084049164 12.36965846373628 0)
(17.41619764734618 12.36660260582721 0)
(17.41536650707169 12.36656613864612 0)
(17.43765973977945 12.37948325817213 0)
(17.23274277516465 12.21746892959031 0)
(17.23085453912072 12.21276150994863 0)
(17.23241503705999 12.21199828764901 0)
(17.25104015656233 12.22006398107419 0)
(15.64658439880608 10.52775767309138 0)
(15.64384967987734 10.52445099075865 0)
(15.64336881514754 10.52309488371477 0)
(15.62661179412056 10.50217896578471 0)
(18.5549192712298 10.80289880306058 0)
(18.70227836304558 10.50501427319707 0)
(19.07026438873901 9.969102100090227 0)
(20.53098689704608 7.361303277607015 0)
(17.53440582463321 12.34971431947299 0)
(17.60300286549531 12.20648026003983 0)
(18.26203517786007 11.7883310220853 0)
(20.64241295143073 10.66366365990591 0)
(17.20710058240919 12.20157042307615 0)
(17.15488805800663 12.11794118832666 0)
(17.92908801181317 12.07117527273032 0)
(22.93263237552936 14.68840126488612 0)
(15.73810955979719 10.61197227267909 0)
(15.80152364440855 10.6716134080613 0)
(17.21802944439918 11.28786841420099 0)
(28.65629136561668 17.83839119262163 0)
(26.13490196316282 2.711672755772919 0)
(20.51161763573511 -4.804019282398767 0)
(6.965834825324194 -3.105378775420687 0)
(4.317014570471962 -0.1537586767245694 0)
(25.18447271135656 4.87946729456276 0)
(16.39248247700127 -5.606686219372631 0)
(0.9847383608487904 -3.232844473227124 0)
(-2.185609658346932 -0.2158119755117968 0)
(21.90950281634533 2.228463729433704 0)
(11.20468914903123 -10.53479955882566 0)
(-2.239981096082444 -2.456930496803535 0)
(-3.515240580507642 -0.4276148139144443 0)
(16.71173654382272 -8.436101011000162 0)
(8.401555996022056 -5.735997683278756 0)
(-1.261854534603372 -1.168153191065536 0)
(-1.586715185630309 -0.3458273511212517 0)
(4.816336006376031 -0.05061832151122009 0)
(4.923744294470032 0.1180065046017825 0)
(5.162096151339574 0.4612901621557396 0)
(3.935338146778578 3.274914977483188 0)
(-2.239586458390558 -0.09606983746330634 0)
(-2.221274268039778 0.2351688731194342 0)
(-1.506255894931534 1.747861320722325 0)
(-0.6870043993929522 6.694026570046643 0)
(-3.73738470681341 -0.2236630985958309 0)
(-3.793523809860929 0.2918714557903043 0)
(-3.107389061251171 2.586719527071666 0)
(-0.2922736177458007 9.064135403711953 0)
(-1.486218874942249 -0.2149570111931903 0)
(-1.582999671124866 0.2744282602132569 0)
(-1.268273197487155 2.730764017349833 0)
(-0.728449526735496 11.19257441928818 0)
(19.91448680629829 -3.282052246619885 0)
(23.4301779438671 -1.00757668507735 0)
(24.85578690158347 -0.5005636094712311 0)
(25.16048391856742 -0.9631273680325183 0)
(14.68164357425698 -3.147944894461631 0)
(21.56182423844092 -1.969670462934236 0)
(24.38446900590363 -1.413996704432241 0)
(25.68260583995034 -1.427849905785162 0)
(9.465494394293113 0.6381194386986986 0)
(18.89513709064152 -1.85498080231622 0)
(23.44179172656217 -2.284950750493728 0)
(28.65428045206554 -1.396325065686291 0)
(6.52106855507044 7.549106944608029 0)
(14.32358948653574 5.86980060120364 0)
(19.85896369688604 1.679189464602724 0)
(34.55473087168018 -0.1495945606234912 0)
(24.93459666843305 -2.370654426924824 0)
(22.70020366700922 -4.688781004865284 0)
(19.045804668931 -4.582614945941015 0)
(15.90363594073147 -2.585185405963678 0)
(28.55282793488545 -6.292023956642836 0)
(23.97882380508355 -11.55300909693877 0)
(15.50441364578136 -10.54659655914342 0)
(9.435601343791667 -6.904680457854615 0)
(30.45865836450282 -8.466814867767177 0)
(24.9024321358485 -16.03393651432988 0)
(13.64037241318342 -16.59136170961495 0)
(8.006353446204708 -12.42600242096109 0)
(19.88890718496407 -11.30835196100134 0)
(8.245078626831864 -13.76284317835954 0)
(2.054507919586041 -11.48051238194179 0)
(2.026001906998809 -8.851494912428356 0)
(1.704050154323846 -5.817318116317834 0)
(1.617498823837962 -1.47492502689171 0)
(1.629630986820566 -0.1822395695855928 0)
(1.640838279391991 -0.02981226093666819 0)
(4.095754022819829 -6.887465926896569 0)
(3.280530462909316 -1.684803895558629 0)
(3.194414614277916 -0.5406679709060898 0)
(3.185899563445863 -0.1284501565328168 0)
(6.74489624923106 -2.200088652453619 0)
(6.386958891029013 -0.5809156746654403 0)
(6.245706783085641 -0.2988454240190504 0)
(6.187417391479428 -0.08603710168064049 0)
(14.62659055312246 -0.7386706484803809 0)
(14.63547653134687 -0.2045945260895206 0)
(14.57718688655961 -0.1224140806271087 0)
(14.54450097969988 -0.03470679636241646 0)
(1.640838279391637 0.02981226096296056 0)
(3.185899563465227 0.1284501565238001 0)
(6.187417391467387 0.08603710169419211 0)
(14.54450097968418 0.03470679645186606 0)
(1.629630986810278 0.1822395695965723 0)
(3.194414614294196 0.5406679709254159 0)
(6.245706783104143 0.2988454240070021 0)
(14.57718688659037 0.1224140805068823 0)
(1.61749882383405 1.474925026866735 0)
(3.280530462899815 1.684803895595265 0)
(6.386958891046119 0.5809156746338496 0)
(14.63547653136185 0.2045945260942368 0)
(1.704050154331042 5.817318116315293 0)
(4.095754022820302 6.887465926901789 0)
(6.744896249241727 2.200088652448706 0)
(14.6265905531555 0.738670648418718 0)
(15.90363594074879 2.585185405984347 0)
(19.04580466894416 4.582614945944083 0)
(22.70020366705984 4.688781004825587 0)
(24.93459666850293 2.370654426942598 0)
(9.435601343808779 6.90468045787879 0)
(15.50441364575839 10.54659655916456 0)
(23.97882380503755 11.55300909688172 0)
(28.55282793493237 6.292023956641618 0)
(8.006353446193078 12.42600242095622 0)
(13.64037241316845 16.5913617095911 0)
(24.90243213584424 16.03393651435888 0)
(30.45865836450072 8.466814867736399 0)
(2.026001907000482 8.851494912422543 0)
(2.054507919583022 11.48051238194543 0)
(8.245078626831942 13.76284317834685 0)
(19.88890718496319 11.30835196102093 0)
(34.55473087167499 0.1495945606214462 0)
(19.85896369686517 -1.67918946457108 0)
(14.32358948656365 -5.869800601185286 0)
(6.521068555067512 -7.549106944598463 0)
(28.65428045208057 1.396325065680452 0)
(23.4417917266143 2.284950750472354 0)
(18.89513709063365 1.854980802337139 0)
(9.46549439429061 -0.6381194386802168 0)
(25.68260583997664 1.427849905771074 0)
(24.38446900596295 1.413996704435385 0)
(21.56182423843731 1.969670462949674 0)
(14.68164357425077 3.147944894493494 0)
(25.16048391859059 0.9631273680193276 0)
(24.85578690161795 0.5005636094675083 0)
(23.43017794387459 1.00757668510223 0)
(19.91448680627006 3.282052246646086 0)
(3.935338146785703 -3.274914977462691 0)
(5.162096151323907 -0.4612901621526079 0)
(4.923744294467196 -0.1180065046301207 0)
(4.816336006375669 0.05061832151544165 0)
(-0.6870043993772538 -6.69402657002214 0)
(-1.506255894930765 -1.747861320710633 0)
(-2.221274268022724 -0.2351688731218614 0)
(-2.239586458367061 0.09606983746554304 0)
(-0.2922736177400739 -9.064135403705396 0)
(-3.107389061236993 -2.58671952708205 0)
(-3.793523809870307 -0.2918714557894372 0)
(-3.737384706805196 0.2236630986013784 0)
(-0.7284495267304094 -11.19257441931311 0)
(-1.268273197482279 -2.730764017375786 0)
(-1.582999671141621 -0.2744282602107659 0)
(-1.486218874946712 0.2149570112066997 0)
(4.317014570491611 0.1537586767007368 0)
(6.965834825260155 3.105378775423223 0)
(20.51161763560162 4.804019282408767 0)
(26.13490196315452 -2.711672755763688 0)
(-2.185609658279503 0.2158119755016185 0)
(0.9847383607901612 3.232844473193171 0)
(16.39248247692657 5.606686219361737 0)
(25.18447271140165 -4.879467294573707 0)
(-3.515240580474167 0.4276148139082586 0)
(-2.239981096140977 2.456930496760007 0)
(11.20468914896122 10.53479955879621 0)
(21.9095028163823 -2.228463729449648 0)
(-1.58671518562408 0.3458273511133662 0)
(-1.26185453466199 1.168153191014064 0)
(8.401555996014777 5.735997683255082 0)
(16.71173654385359 8.436101010979613 0)
(20.53098689706875 -7.361303277585751 0)
(19.07026438873838 -9.969102100084921 0)