/*--------------------------------*- C++ -*----------------------------------*\
  =========                 |
  \\      /  F ield         | OpenFOAM: The Open Source CFD Toolbox
   \\    /   O peration     | Website:  https://openfoam.org
    \\  /    A nd           | Version:  11
     \\/     M anipulation  |
\*---------------------------------------------------------------------------*/
FoamFile
{
    format      ascii;
    class       volScalarField;
    location    "8.9";
    object      p;
}
// * * * * * * * * * * * * * * * * * * * * * * * * * * * * * * * * * * * * * //

dimensions      [0 2 -2 0 0 0 0];

internalField   nonuniform List<scalar> 
4455
(
140.82892
140.92718
141.12226
141.43733
141.85028
142.42928
143.1002
144.38783
144.7592
140.77482
140.886
141.09969
141.42658
141.87591
142.48656
143.29132
144.57086
145.47224
140.66851
140.80361
141.04012
141.38731
141.85695
142.50031
143.33387
144.71557
145.70908
140.51488
140.68256
140.94582
141.31457
141.80038
142.4829
143.37076
144.85188
146.06661
140.32354
140.52652
140.81866
141.20871
141.71331
142.43349
143.39703
144.99116
146.50912
140.10193
140.34148
140.66201
141.07116
141.59896
142.36044
143.39139
145.12591
146.93488
139.85783
140.13329
140.48029
140.90546
141.45292
142.2542
143.35035
145.25025
147.38586
139.60122
139.90733
140.27776
140.71648
141.28115
142.11947
143.27054
145.34906
147.84105
139.3407
139.66986
140.05813
140.50869
141.08716
141.96183
143.16738
145.42423
148.31317
139.08329
138.83626
138.60778
138.40201
138.22176
138.06928
137.94723
137.85777
137.80497
139.4262
139.18064
138.94027
138.70964
138.49341
138.29542
138.11879
137.96593
137.83641
139.82403
139.5776
139.32755
139.07792
138.83258
138.5954
138.36891
138.15561
137.95461
140.28014
140.03015
139.77099
139.50601
139.23668
138.96676
138.69958
138.43898
138.18087
140.86883
140.62181
140.36186
140.09107
139.80828
139.51793
139.2252
138.93855
138.65156
141.77917
141.55738
141.31067
141.04154
140.74452
140.42819
140.09528
139.75808
139.41466
143.04577
142.89519
142.71642
142.49795
142.2143
141.88473
141.5201
141.14284
140.75913
145.50029
145.47463
145.3272
145.07052
144.70753
144.27701
143.79912
143.28788
142.73523
148.92242
149.37498
149.25545
148.6899
147.85761
146.90146
145.89878
144.88154
143.85913
137.79968
137.78019
137.73754
137.68241
137.61133
137.52992
137.42849
137.31495
137.17807
137.75757
137.68257
137.59017
137.48048
137.35295
137.20852
137.0461
136.86566
136.66522
137.82241
137.72197
137.61721
137.50288
137.37505
137.23169
137.07149
136.89402
136.69843
137.99243
137.86272
137.73945
137.60923
137.46391
137.30043
137.1173
136.91464
136.69241
138.43041
138.29337
138.17728
138.05697
137.9184
137.75806
137.57547
137.37233
137.15049
139.13299
138.96407
138.82668
138.683
138.51645
138.3231
138.10315
137.86158
137.60481
140.44558
140.25804
140.10433
139.93105
139.72412
139.48466
139.218
138.93211
138.63846
142.22335
141.77241
141.31915
140.84414
140.34406
139.82289
139.29122
138.76259
138.26552
142.9494
142.13314
141.31744
140.5184
139.74226
138.99624
138.28735
137.61922
137.01808
136.60536
136.21199
136.09373
136.31959
136.85588
137.57792
138.38634
139.24361
140.13568
137.84601
137.49633
137.20831
136.99124
136.84849
136.78448
136.80131
136.92452
137.11543
138.35964
138.10369
137.85965
137.6331
137.42781
137.24769
137.09413
136.96943
136.87434
137.34315
137.08705
136.82832
136.56813
136.30731
136.04702
135.78818
135.53265
135.28136
136.91783
136.68018
136.43175
136.17283
135.90272
135.62164
135.32901
135.02556
134.711
136.45471
136.20359
135.9351
135.64951
135.34649
135.02579
134.68651
134.32851
133.95069
136.48672
136.25887
136.01165
135.74439
135.45623
135.14628
134.81325
134.45621
134.07354
136.44562
136.2053
135.944
135.66141
135.35756
135.02961
134.67701
134.29564
133.88569
137.00515
136.79526
136.57415
136.33957
136.08956
135.81501
135.51282
135.17718
134.8095
134.40593
133.96648
133.48742
132.9695
132.40526
131.79624
131.13392
130.41817
129.63947
133.44448
132.97114
132.46196
131.91885
131.33733
130.71604
130.04789
129.33421
128.56912
133.66444
133.2268
132.76007
132.26156
131.73041
131.16239
130.55659
129.90759
129.21434
133.55318
133.13447
132.69479
132.23166
131.7452
131.23126
130.68959
130.11402
129.50402
134.38634
134.05079
133.70534
133.34765
132.97847
132.59295
132.1914
131.76622
131.31737
135.03645
134.79826
134.56806
134.34383
134.12625
133.90924
133.69251
133.46603
133.2291
136.81036
136.776
136.77218
136.79398
136.84095
136.90404
136.98197
137.06348
137.14615
137.37811
137.70158
138.08387
138.51502
138.99235
139.50653
140.05433
140.62541
141.21574
141.05584
141.99823
142.96356
143.95163
144.96867
146.01258
147.08852
148.19083
149.32302
150.47715
141.81159
137.21681
132.96868
130.83457
128.85108
128.46948
127.7517
128.79968
151.65445
142.40772
137.27094
132.68368
130.31743
128.15408
127.67124
126.87047
127.8847
152.84473
142.98369
137.29705
132.35803
129.75305
127.40213
126.81073
125.92626
126.89618
154.04255
143.53237
137.28595
131.98903
129.14066
126.59395
125.88684
124.90959
125.82008
155.22021
144.02223
137.22036
131.5566
128.46471
125.7165
124.88901
123.82136
124.65674
156.36477
144.44384
137.08655
131.05537
127.72373
124.76804
123.81493
122.64536
123.39123
157.3786
144.74975
136.86199
130.47071
126.89935
123.73385
122.65243
121.38225
122.02733
158.22218
144.92813
136.52705
129.7909
125.98721
122.6126
121.39958
120.01773
120.55528
158.66936
144.87714
136.04114
128.99277
124.96548
121.38939
120.04036
118.56057
118.99139
117.34534
116.99447
118.54767
120.04019
123.7837
128.02256
135.32761
144.53144
158.63693
115.68297
115.30102
116.88634
118.53794
122.36452
126.7591
134.10804
143.20871
155.7388
113.77477
113.48519
115.07151
116.87747
120.7251
125.21678
132.48127
141.42363
153.20808
111.60974
111.53068
113.10794
115.05935
118.89462
123.46471
130.63799
139.47798
150.91318
109.16154
109.40998
110.99519
113.08692
116.91329
121.56916
128.67025
137.45784
148.58027
106.57418
107.13253
108.73035
110.971
114.792
119.54276
126.59027
135.3216
146.1305
103.81059
104.69502
106.30739
108.70244
112.53008
117.37301
124.37544
133.05329
143.58461
100.91156
102.10907
103.72346
106.28642
110.11965
115.04904
122.01414
130.62808
141.02296
97.796062
99.366707
100.9712
103.70899
107.55218
112.56049
119.49454
128.07609
138.43288
135.8066
125.37888
116.82284
109.90745
104.8201
100.98288
98.044073
96.46504
94.511059
133.13376
122.56325
114.00092
107.0918
101.9177
98.097897
94.934699
93.400931
90.998157
130.41606
119.60035
111.03663
104.11821
98.850337
95.057892
91.663669
90.191991
87.321766
127.63263
116.51058
107.92872
100.98971
95.614732
91.860261
88.220211
86.820773
83.439042
124.78006
113.2573
104.682
97.710128
92.224619
88.509417
84.62814
83.295239
79.40854
121.82273
109.86604
101.29503
94.280558
88.675401
85.001115
80.877345
79.615676
75.191291
118.75685
106.30132
97.775334
90.698731
84.991097
81.346781
77.001914
75.809094
70.854279
115.54624
102.59737
94.128665
86.972332
81.163902
77.541234
72.996243
71.857994
66.373522
112.19154
98.716048
90.357371
83.091767
77.205373
73.607303
68.903108
67.797743
61.872042
57.437786
63.589642
64.674602
69.44983
73.014731
78.91826
86.271686
94.413102
108.30514
53.169948
59.251432
60.357319
65.065895
68.584996
74.386035
81.797971
89.444673
103.58835
48.725714
54.827303
55.998575
60.558035
64.032097
69.686383
77.199823
84.407541
98.42468
44.174616
50.367863
51.628559
55.988268
59.401643
64.876973
72.529509
79.296058
92.834086
39.579487
45.893334
47.24948
51.385306
54.707157
59.975338
67.82405
74.319339
86.667195
35.228638
41.463717
42.91208
46.805568
50.008287
54.996083
63.124389
69.49061
79.733767
31.064847
37.109397
38.638903
42.277481
45.318577
49.932264
58.430596
65.160005
71.627645
27.258791
32.900292
34.48631
37.856745
40.710042
44.803925
53.695691
61.454158
62.327499
23.121207
28.895734
30.474035
33.572605
36.243098
39.641339
48.932093
58.798525
52.447818
19.269045
25.145153
26.586663
29.410056
31.85791
34.40044
43.545364
57.440218
45.696214
16.220723
21.693991
22.870506
25.331372
27.651181
29.583369
38.976198
57.204771
42.22384
13.89951
18.451242
19.403796
21.337528
23.675225
25.365134
35.706594
55.979401
43.928343
12.003829
15.417117
16.213105
17.28664
19.723146
20.813384
32.893535
53.760791
55.208695
10.471012
12.574512
13.290691
13.10187
15.650714
15.763385
30.11399
49.633545
52.590081
9.3319662
9.9258223
10.631505
8.8053022
11.406119
10.316858
26.904791
46.76279
48.370205
8.6233105
7.4613621
8.1966815
4.4848211
6.9400908
4.6049973
23.769658
47.191637
48.602639
8.3922433
5.2120066
6.002221
0.21415188
2.3148939
-1.0617821
21.223328
44.398652
46.469318
8.5409992
3.2401998
3.9872582
-3.9309423
-2.4832808
-7.195406
19.140148
42.269851
45.934082
45.642904
41.515526
17.560937
-12.178539
-7.0462678
-7.669801
2.2914523
1.6915178
9.0554699
45.453529
41.065539
14.374483
-17.149303
-11.225366
-10.922916
0.87300792
0.57466861
10.02307
45.088641
40.034414
10.897796
-22.127723
-15.391891
-13.901016
-0.22169207
-0.12102976
11.395614
44.483957
38.082209
7.1422903
-26.776388
-19.491129
-16.63591
-1.0525879
-0.43384583
13.166105
43.727445
36.307412
3.0903177
-31.386088
-23.545711
-19.104893
-1.5863979
-0.35756861
15.246248
42.839101
34.435574
-1.1953486
-35.788499
-27.543804
-21.29678
-1.8853027
0.089522908
17.636637
42.025621
32.722126
-5.4504225
-40.132128
-31.476063
-23.147446
-1.8946016
0.92760904
20.261987
40.800732
30.975887
-9.5693763
-44.219122
-35.254568
-24.598809
-1.6541555
2.1557995
23.106093
40.154208
30.015735
-13.351495
-48.608496
-39.325233
-25.591743
-1.0998596
3.8298883
26.432947
39.432171
26.583035
-18.737178
-54.761376
-44.144015
-26.148757
0.45107879
7.443099
32.419346
37.168962
18.406173
-36.284706
-68.387444
-49.286211
-24.273003
4.570641
14.045174
40.83815
35.25806
9.9610859
-45.090465
-78.61447
-51.248721
-19.966022
10.335352
22.06516
49.377306
34.213691
0.56973491
-61.980194
-88.154875
-50.100118
-13.301642
17.403076
30.934541
57.649229
31.408922
-9.0687766
-70.696168
-95.357156
-45.859458
-5.2680065
24.846588
40.110136
65.348256
27.045581
-18.634729
-85.444613
-100.62962
-39.017074
4.0325444
32.602244
49.333381
72.047761
22.081532
-27.843594
-94.034759
-102.48559
-29.708779
13.662375
40.247825
58.234996
77.726894
16.946872
-36.755051
-105.30525
-101.30372
-18.410547
23.394895
47.755122
66.63183
82.280436
11.932646
-46.22769
-111.02042
-94.763982
-5.6384248
32.291144
54.73277
74.104433
85.722406
19.050371
-28.125878
-103.41253
-92.522538
-7.17155
49.384007
70.861444
88.852125
105.40291
19.018745
-28.311435
-104.57912
-93.045178
-7.8712982
49.393784
70.342922
87.548219
104.49296
18.836153
-28.711065
-107.0805
-93.502911
-9.2902532
49.071006
69.967413
86.219467
103.39506
18.494306
-29.34508
-110.56004
-94.863069
-11.328929
48.22664
69.128748
84.85281
102.2442
18.200898
-30.065843
-113.41994
-97.8623
-13.796959
47.045541
68.053766
83.461615
101.17169
17.761306
-30.969606
-116.1568
-102.2396
-17.063715
45.644176
66.592484
82.125368
100.17126
17.287904
-32.027662
-119.4804
-106.3018
-21.249928
43.871222
65.083482
80.801437
99.308979
16.855058
-33.386238
-122.07352
-109.60358
-24.047084
42.041531
63.516972
79.230875
98.663721
16.535671
-34.884767
-123.55746
-111.09319
-25.398181
40.28927
62.03822
78.613374
97.599274
11.912501
-46.312153
-111.15211
-94.782354
-5.5874919
32.306818
54.737978
74.111
85.726884
16.932048
-36.83327
-105.44036
-101.33617
-18.368467
23.413621
47.761999
66.638715
82.285264
22.071684
-27.911277
-94.166207
-102.53076
-29.679025
13.682011
40.25605
58.242491
77.732187
27.039126
-18.69287
-85.572839
-100.68708
-39.000109
4.0509701
32.611244
49.341419
72.053632
31.404416
-9.1158964
-70.814362
-95.425554
-45.855617
-5.2532015
24.855333
40.118422
65.35463
34.209886
0.53435858
-62.093283
-88.229718
-50.108674
-13.292422
17.410106
30.94253
57.656032
35.257976
9.9359464
-45.187727
-78.690309
-51.26784
-19.964046
10.3395
22.071843
49.384147
37.174883
18.391238
-36.377885
-68.462792
-49.312236
-24.278715
4.5708982
14.049699
40.844587
39.444016
26.577836
-18.810228
-54.832751
-44.175906
-26.158924
0.44820445
7.444654
32.424651
9.0508643
1.6812136
2.2790385
-7.6909918
-7.0772123
-12.221931
17.530679
41.53392
45.669709
10.019626
0.56528675
0.86120775
-10.943966
-11.257753
-17.195561
14.338968
41.083586
45.479102
11.393322
-0.12931745
-0.23267828
-13.921595
-15.425466
-22.176889
10.858567
40.045943
45.112109
13.164965
-0.44097351
-1.0626676
-16.655788
-19.525681
-26.829067
7.0990887
38.089698
44.504443
15.246197
-0.36351025
-1.5955104
-19.123841
-23.580997
-31.442903
3.0425048
36.313714
43.74598
17.637639
0.084797286
-1.8934229
-21.314614
-27.579544
-35.849256
-1.247831
34.43954
42.855981
20.26397
0.92416536
-1.9016802
-23.163978
-31.511938
-40.196616
-5.5070774
32.724313
42.040961
23.108987
2.153676
-1.6601503
-24.6139
-35.290191
-44.287044
-9.6308643
30.975237
40.815366
26.436771
3.8291241
-1.1047368
-25.60502
-39.359935
-48.678721
-13.418494
30.015384
40.169334
45.961997
42.287743
19.112215
-7.235853
-2.51236
-3.951963
3.9744268
3.229128
8.5353081
46.497758
44.409725
21.196942
-1.0981806
2.2878966
0.193587
5.9890594
5.2003435
8.385586
48.632471
47.207396
23.745051
4.5724752
6.9151741
4.4648625
8.1832842
7.449301
8.6159352
48.400143
46.778244
26.881884
10.288064
11.383222
8.7861304
10.617991
9.9135316
9.3237597
52.613003
49.646881
30.093199
15.737971
15.629714
13.083609
13.277117
12.56214
10.461955
55.237137
53.773358
32.874682
20.790806
19.703869
17.269422
16.199595
15.404747
11.994056
43.956117
55.989157
35.689091
25.344806
23.657541
21.321403
19.390504
18.43896
13.88922
42.24632
57.21111
38.959976
29.564916
27.634934
25.316344
22.857577
21.681879
16.210081
45.715764
57.444268
43.532075
34.38408
31.843059
29.396055
26.5742
25.133278
19.25826
57.431619
63.584451
64.670591
69.445521
73.013108
78.919398
86.277525
94.422523
108.31347
53.162949
59.245285
60.35252
65.061137
68.581764
74.38603
81.803323
89.454629
103.59766
48.71797
54.820184
55.992717
60.551796
64.027909
69.685153
77.204396
84.418043
98.43508
44.166254
50.359784
51.62159
55.980706
59.396188
64.874311
72.532986
79.306854
92.845819
39.5704
45.884354
47.241398
51.376529
54.700124
59.970898
67.826071
74.330213
86.680344
35.218899
41.453918
42.902899
46.795665
49.999559
54.98959
63.124477
69.501071
79.748543
31.054519
37.098897
38.628705
42.26645
45.308115
49.92344
58.428212
65.169527
71.644531
27.24809
32.8892
34.475208
37.844645
40.697975
44.792619
53.690277
61.461959
62.346321
23.110446
28.884178
30.462179
33.559529
36.229606
39.627441
48.923115
58.803776
52.467144
112.19914
98.724899
90.363381
83.093745
77.204742
73.60393
68.899683
67.793437
61.866716
115.55326
102.60567
94.134667
86.974946
81.164009
77.538834
72.993398
71.854475
66.369014
118.76338
106.30909
97.781259
90.701811
84.991803
81.345282
76.999661
75.806282
70.850561
121.82881
109.87333
101.3008
94.283947
88.676601
85.000364
80.875671
79.61352
75.188284
124.78576
113.26415
104.68761
97.713735
92.226209
88.509276
84.62702
83.293641
79.4062
127.63799
116.51703
107.93414
100.99345
95.616643
91.860627
88.2196
86.819644
83.43732
130.42114
119.60638
111.04186
104.122
98.852508
95.058634
91.663499
90.191344
87.32059
133.13858
122.56893
114.00596
107.0956
101.92006
98.098988
94.93491
93.400692
90.997446
135.81118
125.38422
116.82768
109.91123
104.82261
100.98429
98.044627
96.465127
94.510784
117.34686
116.99607
118.54953
120.04238
123.78633
128.02565
135.33105
144.53498
158.64017
115.68441
115.30254
116.88813
118.54013
122.36719
126.76228
134.1116
143.21233
155.74214
113.77611
113.48663
115.07322
116.87964
120.7278
125.22006
132.48496
141.42742
153.21156
111.61097
111.53204
113.1096
115.06149
118.89734
123.46808
130.64182
139.48193
150.9168
109.16261
109.41121
110.99675
113.089
116.91602
121.57261
128.67422
137.46197
148.58402
106.57507
107.13359
108.73176
110.97299
114.79473
119.5463
126.59439
135.32592
146.13438
103.81125
104.69589
106.30867
108.70433
112.53279
117.37662
124.37973
133.05784
143.58861
100.91196
102.10973
103.72458
106.2882
110.12233
115.05272
122.0186
130.63287
141.02714
97.796152
99.367098
100.97206
103.7106
107.55479
112.56424
119.49919
128.08115
138.43724
118.99297
120.55689
122.02897
123.39287
124.65838
125.82171
126.89779
127.88629
128.80124
118.56221
120.01942
121.38397
122.64706
123.82305
124.91127
125.92792
126.87211
127.75332
120.04223
121.40144
122.65427
123.81676
124.89083
125.88863
126.8125
127.67299
128.4712
121.39156
122.61475
123.73597
124.77012
125.71854
126.59595
127.40409
128.156
128.85295
124.96805
125.98972
126.9018
127.72612
128.46704
129.14292
129.75525
130.31957
130.83665
128.99576
129.79379
130.47351
131.05808
131.55923
131.99158
132.36049
132.68605
132.97098
136.04447
136.53026
136.8651
137.08956
137.22327
137.28877
137.29978
137.27359
137.21937
144.88055
144.93145
144.75298
144.44699
144.02528
143.53534
142.98658
142.41053
141.81432
158.67256
158.22532
157.38173
156.36788
155.22327
154.04557
152.84769
151.65736
150.48
129.641
128.57071
129.21602
129.50584
131.31939
133.23133
137.14863
141.21839
149.32581
130.41966
129.33578
129.90923
130.1158
131.76818
133.46818
137.06588
140.62797
148.19357
131.13537
130.04942
130.55819
130.69132
132.1933
133.69459
136.9843
140.05681
147.09121
131.79766
130.71754
131.16396
131.23294
132.59479
133.91125
136.90628
139.50894
146.01521
132.40664
131.3388
131.73193
131.74683
132.98025
134.1282
136.84312
138.99468
144.97122
132.97084
131.92028
132.26305
132.23325
133.34938
134.34571
136.79608
138.51727
143.95412
133.48872
132.46335
132.76152
132.69633
133.70701
134.56987
136.77421
138.08604
142.96599
133.96775
132.97249
133.22821
133.13597
134.05241
134.8
136.77796
137.70367
142.0006
134.40716
133.44579
133.66581
133.55463
134.38791
135.03814
136.81225
137.38013
141.05813
137.00612
136.44665
136.48778
136.45581
136.91899
137.34435
138.36097
137.84739
136.60704
136.79625
136.20635
136.25996
136.20472
136.68138
137.0883
138.10508
137.49779
136.21375
136.57517
135.94508
136.01277
135.93627
136.43299
136.82962
137.8611
137.20983
136.09554
136.34062
135.66252
135.74554
135.65071
136.17412
136.56947
137.63461
136.99282
136.32147
136.09063
135.3587
135.45741
135.34773
135.90405
136.3087
137.42938
136.85014
136.85781
135.81611
135.03079
135.14751
135.02707
135.62302
136.04847
137.24931
136.7862
137.57993
135.51395
134.67822
134.8145
134.68783
135.33043
135.78968
137.09582
136.80308
138.38843
135.17835
134.29689
134.4575
134.32987
135.02703
135.53421
136.97118
136.92638
139.24579
134.8107
133.88696
134.07487
133.9521
134.71252
135.28298
136.87616
137.11737
140.13793
137.01966
138.26684
138.63974
137.60596
137.15162
136.69348
136.69946
136.66622
137.17902
137.62073
138.76385
138.93333
137.86269
137.37341
136.91567
136.89503
136.86664
137.31588
138.28879
139.29242
139.21917
138.10421
137.57652
137.1183
137.07247
137.04706
137.42941
138.99761
139.82403
139.48577
138.32413
137.75908
137.3014
137.23265
137.20946
137.53083
139.74357
140.34514
139.72519
138.51743
137.91939
137.46486
137.37599
137.35387
137.61222
140.51963
140.84515
139.93208
138.68395
138.05793
137.61015
137.50381
137.48139
137.68329
141.31862
141.32011
140.10532
138.82759
138.17821
137.74036
137.61811
137.59106
137.73842
142.13425
141.77331
140.25898
138.96496
138.29427
137.8636
137.72287
137.68345
137.78106
142.95045
142.2242
140.44648
139.13385
138.43128
137.9933
137.82328
137.75844
137.80055
143.8601
142.73603
140.75998
139.41548
138.6524
138.18171
137.95546
137.83727
137.80583
144.88241
143.28861
141.14363
139.75886
138.93935
138.43979
138.15644
137.96677
137.85863
145.89955
143.79979
141.52084
140.09602
139.22596
138.70036
138.3697
138.11961
137.94808
146.90211
144.27761
141.88542
140.42889
139.51866
138.9675
138.59616
138.29622
138.07011
147.85817
144.70807
142.21494
140.74517
139.80896
139.23738
138.83331
138.49418
138.22256
148.69035
145.071
142.49853
141.04214
140.0917
139.50667
139.07862
138.71037
138.40279
149.25581
145.32763
142.71695
141.31122
140.36244
139.77161
139.3282
138.94096
138.60852
149.37527
145.47501
142.89565
141.55788
140.62234
140.03072
139.5782
139.18129
138.83696
148.92268
145.50062
143.04619
141.77962
140.86932
140.28066
139.82459
139.4268
139.08394
140.82896
140.92721
141.12229
141.43736
141.8503
142.4293
143.10022
144.38785
144.75921
140.77494
140.8861
141.09978
141.42667
141.87599
142.48663
143.29137
144.5709
145.47228
140.66871
140.80379
141.04028
141.38745
141.85708
142.50042
143.33395
144.71564
145.70915
140.51517
140.68281
140.94603
141.31477
141.80056
142.48306
143.37089
144.85199
146.0667
140.3239
140.52684
140.81893
141.20897
141.71354
142.4337
143.3972
144.99131
146.50925
140.10236
140.34186
140.66235
141.07148
141.59925
142.3607
143.39161
145.12609
146.93502
139.85832
140.13373
140.48069
140.90583
141.45326
142.25451
143.35062
145.25046
147.38603
139.60178
139.90783
140.27822
140.7169
141.28154
142.11982
143.27085
145.34931
147.84125
139.3413
139.67041
140.05864
140.50916
141.08759
141.96223
143.16774
145.42451
148.3134
147.63936
148.33549
149.03339
149.85566
150.79964
151.81826
152.91126
154.0423
155.11547
148.33549
148.97648
149.70531
150.55952
151.52248
152.54562
153.62366
154.73484
155.78483
149.03338
149.70531
150.47294
151.34712
152.30939
153.32421
154.38481
155.4793
156.5444
149.85564
150.5595
151.34711
152.21738
153.16395
154.16238
155.20701
156.3004
157.40973
150.79961
151.52247
152.30938
153.16394
154.08247
155.06204
156.09476
157.20223
158.38238
151.81823
152.5456
153.32419
154.16236
155.06204
156.03225
157.07227
158.22098
159.46959
152.9112
153.62362
154.38478
155.20698
156.09473
157.07227
158.12938
159.34706
160.71693
154.04225
154.7348
155.47927
156.30037
157.2022
158.22097
159.34709
160.58986
161.95754
155.11544
155.78481
156.54438
157.40973
158.38239
159.46958
160.717
161.95767
163.7254
168.05078
164.67511
163.48518
161.65816
160.32506
159.05586
157.98631
157.05647
156.2999
158.14015
159.1655
159.12187
159.054
158.71941
158.21944
157.64891
156.99024
156.30494
154.54342
155.0789
155.20529
155.42876
155.45049
155.39532
155.27235
155.04081
154.68084
152.16827
152.48216
152.45843
152.63785
152.65041
152.68054
152.65068
152.61428
152.45707
150.40625
150.59078
150.57083
150.65156
150.62774
150.62657
150.59439
150.58438
150.51485
148.80601
148.93085
148.87653
148.96178
148.89872
148.92476
148.85538
148.84198
148.77062
147.38457
147.42567
147.38686
147.41016
147.36284
147.3475
147.30054
147.26646
147.21284
146.01299
146.00619
145.93471
145.95198
145.86861
145.86791
145.79091
145.76447
145.69471
144.70619
144.63853
144.56974
144.51565
144.44183
144.38207
144.32322
144.27041
144.2086
142.81697
141.44693
139.95129
138.22894
136.26666
133.71305
130.66332
126.98854
124.17259
142.89767
141.51839
140.0028
138.2532
136.20351
133.63533
130.45236
126.8738
123.39786
142.91892
141.53949
139.9798
138.20925
136.07385
133.47423
130.18699
126.50264
122.47439
143.00143
141.58219
140.04323
138.2012
136.07097
133.33689
129.97934
125.96237
121.48108
143.02596
141.63588
140.04283
138.23363
136.01897
133.2752
129.75995
125.48079
120.5281
143.12604
141.70044
140.11595
138.26951
136.04638
133.23087
129.64967
124.9783
119.66738
143.1632
141.77509
140.16749
138.36295
136.08422
133.31724
129.59824
124.78675
118.81272
143.24864
141.82785
140.23342
138.39299
136.15121
133.29873
129.61242
124.54501
120.15861
143.3646
141.96561
140.37325
138.58745
136.33657
133.62232
129.79459
124.8528
117.54864
124.7136
127.36134
130.53793
132.79354
134.30167
135.71613
137.08531
138.43163
139.71699
123.55372
126.50582
130.16095
132.5444
134.12021
135.61053
137.06192
138.4476
139.75909
122.17541
125.74402
129.86099
132.29704
133.90417
135.44067
136.94355
138.36964
139.7044
120.33143
124.91433
129.61405
132.11812
133.83335
135.44046
136.99826
138.43554
139.77808
118.00967
123.85556
129.11662
131.65749
133.4705
135.18683
136.82334
138.313
139.6849
115.25884
123.72628
129.31317
131.7276
133.58931
135.32056
136.95271
138.42375
139.78583
109.69973
122.01625
128.67169
131.10358
133.16717
135.05545
136.77579
138.28899
139.68035
105.6616
122.49435
129.15222
131.3233
133.34065
135.20948
136.90143
138.39175
139.76589
95.00926
120.97482
128.74236
130.96189
133.12113
135.08642
136.82078
138.32058
139.7119
140.96894
142.18993
143.44115
144.71252
146.04279
147.40773
148.84422
150.35552
151.97855
141.0063
142.23784
143.48374
144.76764
146.09552
147.4791
148.92236
150.45541
152.08282
140.97027
142.21942
143.48111
144.78186
146.12068
147.52079
148.97308
150.52402
152.16591
141.03365
142.28992
143.54734
144.85475
146.19235
147.60093
149.058
150.62276
152.27397
140.96119
142.23708
143.51285
144.83414
146.18509
147.60811
149.08269
150.66649
152.3343
141.04733
142.3159
143.58252
144.90128
146.24884
147.67374
149.14761
150.73587
152.40743
140.96476
142.25349
143.53963
144.87303
146.23226
147.66761
149.15269
150.75365
152.43638
141.04038
142.31852
143.59811
144.92497
146.28206
147.7149
149.20008
150.80076
152.48521
140.99555
142.28419
143.56878
144.90408
146.26284
147.70202
149.18814
150.79506
152.48121
153.71464
155.594
157.61389
159.78249
162.08617
164.54465
167.09312
169.76439
171.67193
153.84415
155.73432
157.79276
160.00315
162.39388
164.9537
167.66045
170.46427
172.52481
153.95383
155.86768
157.9665
160.22177
162.69816
165.36244
168.21555
171.1154
173.37985
154.08153
156.01094
158.14514
160.43253
162.9803
165.71062
168.68912
171.69986
174.22742
154.16198
156.11094
158.27446
160.5937
163.19838
165.99105
169.10165
172.23999
175.06938
154.2455
156.20531
158.39113
160.73208
163.38483
166.22511
169.47175
172.73021
175.89879
154.29013
156.26002
158.46664
160.82338
163.5181
166.39002
169.76334
173.14532
176.72138
154.34194
156.31472
158.53239
160.89679
163.6225
166.51149
170.00284
173.46295
177.68824
154.34386
156.32287
158.54576
160.922
163.65441
166.57132
170.11593
173.66517
177.82613
172.6272
165.46214
162.52097
159.4091
156.21875
153.12901
150.14916
147.25689
144.42038
173.78941
166.27321
163.24096
159.99493
156.72969
153.56036
150.56652
147.62601
144.77689
174.88387
167.01079
163.90714
160.58541
157.24685
154.02328
151.00138
148.03923
145.17671
175.99756
167.68794
164.49735
161.05696
157.70787
154.41069
151.39289
148.374
145.52245
177.16684
168.53541
165.20534
161.67531
158.25647
154.94879
151.87896
148.86825
145.98113
178.32916
169.10168
165.68459
162.05502
158.63058
155.23619
152.16905
149.09619
146.21951
179.75163
170.17221
166.44401
162.75333
159.27912
155.85512
152.7562
149.67157
146.78548
180.49526
170.44883
166.66586
162.92065
159.4465
155.97766
152.87521
149.76477
146.87768
182.95336
172.08304
167.64806
163.77781
160.25698
156.73441
153.59133
150.4489
147.54877
141.57767
138.72828
135.85103
132.95237
130.0099
127.02349
123.97199
120.84722
117.64034
141.89807
139.05493
136.15118
133.26392
130.29861
127.32425
124.25172
121.13723
117.91073
142.29962
139.45394
136.55974
133.67056
130.71804
127.74621
124.69196
121.58976
118.38509
142.60169
139.7738
136.85153
133.97853
131.00884
128.04916
124.98684
121.89285
118.69011
143.0721
140.22546
137.31079
134.43625
131.4648
128.52006
125.44687
122.38755
119.15953
143.27316
140.44212
137.51066
134.64554
131.67105
128.72593
125.66579
122.59297
119.40583
143.83024
141.00461
138.0616
135.2126
132.22336
129.30854
126.2243
123.20596
119.95723
143.91166
141.08487
138.14425
135.2903
132.31148
129.38381
126.32245
123.27799
120.09134
144.56504
141.74227
138.79034
135.95187
132.96326
130.06091
126.9889
123.98737
120.75535
113.96122
109.73296
105.44702
100.98283
96.479906
92.228702
88.205547
82.443249
74.99653
114.28639
110.1447
105.95351
101.61166
97.218038
93.138084
89.513499
84.522951
78.047729
114.80289
110.75021
106.67806
102.41438
98.221661
94.0867
90.73021
85.746963
80.56641
115.18316
111.25077
107.26623
103.11231
98.980268
94.955037
91.888636
88.737134
83.028055
115.71817
111.82511
108.02055
103.89899
99.940401
95.79615
93.074515
88.722641
91.069467
116.01439
112.30035
108.49238
104.55274
100.49541
96.492601
93.053649
92.677145
91.748239
116.66685
112.9812
109.44572
105.5241
101.72933
97.583802
94.424549
88.856809
112.63703
116.81001
113.28244
109.66823
105.96015
102.03048
98.005385
93.384382
91.157968
102.0489
117.60386
114.19756
110.87021
107.28175
103.73391
99.835011
97.373465
80.043875
140.04161
56.142852
43.075162
45.056838
42.259448
40.427202
44.476206
46.65196
47.255341
46.586495
57.388826
42.487931
45.232083
42.938278
43.412262
45.147829
46.888473
47.346751
46.702753
57.784019
41.700593
45.621768
42.839949
42.58137
45.361646
47.056346
47.417503
46.821332
56.137187
40.248462
46.338314
42.893724
44.251004
45.760242
47.190721
47.563607
46.931897
51.617961
38.395234
46.784845
43.109164
44.210597
46.146985
47.340695
47.686817
47.070669
46.50272
38.924461
48.04585
42.683997
44.8674
46.536058
47.435737
47.839383
47.199026
48.715619
50.333488
45.881908
43.436594
45.247036
46.815514
47.567406
47.966393
47.322387
48.173156
35.255056
46.802521
42.847656
45.541017
47.044038
47.629779
48.074126
47.404882
-26.030087
58.218324
44.127108
43.571391
46.365266
47.263423
47.75728
48.14172
47.446029
45.243829
43.774186
41.70524
39.396434
37.171794
33.736346
30.912023
21.810004
26.058381
45.478503
44.003142
41.853259
39.541902
37.071213
33.079923
29.851426
21.88021
27.314072
45.540612
43.935499
41.765795
39.287777
36.582006
32.223819
28.323927
22.204358
27.327024
45.628694
44.000847
41.695225
39.122891
36.145757
31.640112
27.434622
22.312095
29.228501
45.759502
44.043926
41.629085
38.950084
35.708803
31.142276
26.953928
24.359233
31.19477
45.849275
44.103524
41.584298
38.751387
35.33233
30.791301
26.993403
26.216931
33.120556
45.952557
44.115955
41.460625
38.454845
34.897964
30.399028
27.412145
28.449488
35.720736
46.005128
44.14465
41.4133
38.296695
34.645295
30.455274
27.619083
29.822737
36.739739
46.018082
44.019201
41.11768
37.776411
33.963967
29.905554
28.231642
32.3017
39.674627
26.179858
26.658196
26.984659
30.306777
33.003999
36.352373
35.517097
32.742057
30.024885
27.13997
26.265083
25.654721
29.06244
32.699945
36.41504
36.593988
34.81409
33.491847
28.105979
26.605778
26.323294
28.928005
32.433129
35.885284
37.022763
36.623097
36.255508
29.670736
26.282158
25.518888