/*--------------------------------*- C++ -*----------------------------------*\
  =========                 |
  \\      /  F ield         | OpenFOAM: The Open Source CFD Toolbox
   \\    /   O peration     | Website:  https://openfoam.org
    \\  /    A nd           | Version:  11
     \\/     M anipulation  |
\*---------------------------------------------------------------------------*/
FoamFile
{
    format      ascii;
    class       surfaceScalarField;
    location    "8.9";
    object      phi;
}
// * * * * * * * * * * * * * * * * * * * * * * * * * * * * * * * * * * * * * //

dimensions      [0 3 -1 0 0 0 0];

internalField   nonuniform List<scalar> 
8667
(
1.5884072
0.18937128
-6.7003529e-07
1.3984409
0.18996714
-9.1063427e-07
1.207056
0.19138641
-1.4511692e-06
1.0165908
0.19046624
-1.0772977e-06
0.82464014
0.19195192
-1.2407018e-06
0.63534328
0.18929736
-5.0163416e-07
0.44432921
0.19101456
-4.8804503e-07
0.26015057
0.18417786
7.7522458e-07
0.18124551
4.3129456e-07
0.078904627
1.5885562
0.37859289
1.3981657
0.38035767
1.2069896
0.3825625
1.0158381
0.38161776
0.824451
0.38333898
0.63388901
0.37985935
0.44393525
0.38096832
0.26021747
0.36789564
0.36398286
0.077480124
1.5885081
0.56786255
1.3981376
0.57072819
1.2068652
0.5738349
1.0154918
0.57299117
0.82353472
0.57529608
0.63324361
0.57015046
0.44287402
0.57133791
0.25885262
0.55191704
0.54743609
0.075399386
1.5884188
0.7572215
1.3983831
0.76076392
1.2067582
0.76545982
1.0154743
0.76427506
0.82299127
0.76777911
0.63214339
0.76099834
0.44137948
0.76210183
0.25702907
0.73626745
0.73092806
0.073537099
1.5884503
0.94654883
1.3984933
0.9507209
1.2070547
0.95689846
1.0154663
0.95586337
0.82287965
0.96036581
0.63138175
0.95249624
0.44035855
0.95312503
0.25531432
0.92131169
0.91415296
0.072089412
1.588516
1.1358106
1.3987366
1.1405003
1.2074233
1.1482118
1.0156594
1.1476272
0.82286849
1.1531567
0.63044991
1.1449148
0.43866906
1.1449059
0.25312346
1.1068573
1.097217
0.070059432
1.5885818
1.3250066
1.3990044
1.3300777
1.2079158
1.3393003
1.0159232
1.3396198
0.8229236
1.3461564
0.6302353
1.3376031
0.43778229
1.3373589
0.25086377
1.2937758
1.280456
0.067624769
1.588786
1.5139984
1.3992197
1.519644
1.2084947
1.5300253
1.0165261
1.5315885
0.82297874
1.5397037
0.62947139
1.5311105
0.43616775
1.5306625
0.24848067
1.4814629
1.4634174
0.065519256
1.5890157
1.7027605
1.3996395
1.7090202
1.2089342
1.7207307
1.0171428
1.7233798
0.8235274
1.7333191
0.62970943
1.7249284
0.43530944
1.7250625
0.24571781
1.6710545
1.6476296
0.061505561
1.8851682
1.5953701
2.0673415
1.5956045
2.249194
1.595926
2.4308722
1.5960998
2.6122357
1.5964125
2.7933147
1.596699
2.9742261
1.5968666
3.1545127
1.5974914
1.5973272
3.3349636
1.8921138
1.4122765
2.0749466
1.4127717
2.2576237
1.4132489
2.4399105
1.413813
2.6220772
1.4142457
2.8036637
1.4151125
2.985067
1.4154633
3.165995
1.4165634
1.4164676
3.3468546
1.905737
1.2272702
2.0904563
1.2280523
2.2748734
1.2288318
2.4586903
1.2299962
2.6422457
1.2306903
2.8252451
1.232113
3.0080217
1.2326868
3.1904413
1.2341438
1.2345212
3.3723877
1.9100396
1.0406104
2.096428
1.041664
2.2830413
1.0422184
2.4693755
1.043662
2.6557147
1.0443511
2.8417899
1.0460378
3.0277037
1.0467729
3.2133404
1.0485071
1.0492472
3.3986144
1.9223976
0.85153192
2.1116803
0.85238129
2.30124
0.85265869
2.4910551
0.85384693
2.6808586
0.85454759
2.8709097
0.85598681
3.0605637
0.85711886
3.2503366
0.85873421
0.86022645
3.4393574
1.9150067
0.66145363
2.1063183
0.66106974
2.2982588
0.66071814
2.4914056
0.66070012
2.6847638
0.6611894
2.879215
0.66153561
3.0735619
0.66277199
3.2689238
0.66337234
0.66489106
3.4642591
1.9159853
0.4705309
2.1095352
0.46751979
2.3039687
0.46628467
2.5015522
0.46311653
2.6998266
0.46291507
2.9003902
0.46097194
3.1011393
0.46202292
3.3035784
0.46093324
0.46282698
3.5056425
1.8593157
0.28226968
2.054292
0.27254353
2.2528694
0.26770732
2.4563838
0.25960205
2.6614602
0.25783866
2.8698381
0.25259407
3.0788446
0.25301639
3.2902394
0.24953845
0.25161744
3.501449
1.8385179
0.091381419
2.0491066
0.061954816
2.2732463
0.043567609
2.503913
0.028935393
2.7367067
0.025044928
2.9701274
0.019173361
3.2049408
0.018203047
3.4389886
0.015490647
3.6742993
0.016306725
3.3240703
0.010893282
3.3137574
0.010312887
3.30358
0.010177414
3.2941882
0.0093917273
3.2848849
0.0093033226
3.2765098
0.0083751414
3.2681488
0.0083609293
3.2608458
0.0073030765
0.0073383746
3.2535074
3.3385638
0.019184145
3.3309992
0.01787747
3.3235738
0.017602845
3.316874
0.016091521
3.3102826
0.01589471
3.3045203
0.014137414
3.2988474
0.014033816
3.2941416
0.012008904
0.012053157
3.2894268
3.3652937
0.026278095
3.3586889
0.024482282
3.3523768
0.023914905
3.3464534
0.022014924
3.3408779
0.021470249
3.3357213
0.019294007
3.3309724
0.018782731
3.3267174
0.016263923
0.01585913
3.3229114
3.393409
0.031483516
3.3886691
0.02922214
3.3842616
0.028322384
3.3801576
0.026118968
3.3763707
0.025257144
3.372901
0.022763649
3.3697426
0.021941217
3.3669014
0.019105033
0.01841428
3.3643463
3.4343503
0.036490584
3.4297116
0.03386089
3.4253378
0.032696134
3.4212749
0.030181931
3.4174484
0.029083573
3.4139361
0.026276001
3.4106331
0.025244144
3.4076106
0.022127583
0.021268088
3.4047568
3.4616143
0.039135462
3.4593126
0.036162526
3.4573526
0.034656132
3.4554934
0.032041138
3.4538958
0.030681216
3.4521464
0.028025338
3.4505943
0.026796311
3.4485776
0.024144309
0.023149393
3.4466963
3.5040623
0.040715621
3.5022578
0.037967029
3.5008814
0.036032572
3.4990909
0.033831669
3.4975342
0.032237843
3.4951927
0.03036687
3.4928157
0.029173298
3.4892116
0.027748402
0.026911332
3.4854497
3.5108798
0.031284779
3.5193625
0.029484362
3.5287149
0.026680139
3.5366183
0.025928249
3.5446849
0.024171268
3.5504714
0.024580394
3.5552581
0.02438662
3.5560566
0.026949874
0.028714469
3.5542535
3.6922203
0.013363809
3.7069174
0.014787222
3.7175639
0.01603362
3.7244422
0.019050017
3.7257084
0.022904988
3.7208306
0.029458243
3.7094379
0.035779285
3.6907548
0.045633
3.6678385
0.051630801
3.6514891
0.06808636
-0.051736953
3.6208732
0.066034961
-0.035419147
3.5843858
0.062672708
-0.026185296
3.5453107
0.061397487
-0.022322371
3.5046079
0.05842687
-0.017724055
3.4629921
0.057524437
-0.015908639
3.4211011
0.054964285
-0.01307331
3.3798905
0.054812537
-0.013601924
0.052821848
3.3390076
-0.011938905
3.5606594
0.061680438
3.5636682
0.063026138
3.5626384
0.063702481
3.5595485
0.064487408
3.5530434
0.064931936
3.5448735
0.065694335
3.533561
0.06627685
3.5212833
0.067090186
0.067735014
3.5063702
3.4924031
0.05472705
3.4989776
0.056451605
3.5039586
0.058721487
3.5080945
0.060351552
3.5104757
0.062550701
3.5120793
0.064090682
3.5120873
0.066268941
3.5113126
0.067864873
0.070139443
3.5089081
3.4566626
0.044760748
3.4668881
0.046226018
3.4761513
0.04945833
3.4856163
0.050886518
3.4939901
0.054176938
3.5024515
0.055629287
3.5096964
0.059024048
3.5169762
0.060585038
0.064138695
3.522977
3.41437
0.035147577
3.4243988
0.036197165
3.4342647
0.039592416
3.4445274
0.040623848
3.454484
0.044220284
3.4648453
0.045268035
3.4747714
0.049097975
3.4851484
0.050208
0.054313067
3.494974
3.3748315
0.024662397
3.3857554
0.025273186
3.3969114
0.028436465
3.4085319
0.029003374
3.4202868
0.032465335
3.4325551
0.032999786
3.4448672
0.036785834
3.457769
0.037306232
0.041458083
3.470624
3.3321803
0.015393466
3.3420351
0.015418452
3.3523091
0.018162432
3.3632205
0.018092017
3.3745202
0.02116561
3.3865439
0.020976034
3.3989358
0.024393954
3.4121538
0.024088284
0.027912818
3.425699
3.2983261
0.0064941456
3.3074632
0.0062813941
3.3174635
0.0081621175
3.3277213
0.007834261
3.3390419
0.0098449872
3.3506093
0.0094086085
3.363433
0.011570241
3.3764079
0.01111339
0.013515633
3.3908051
3.2600015
3.2662829
3.2744451
3.2822793
3.2921243
3.3015329
3.3131032
3.3242165
3.3377322
3.3506841
-0.012951891
3.3663344
-0.015650288
3.3814209
-0.01508654
3.3994812
-0.018060298
3.4169085
-0.017427331
3.4376174
-0.02070891
3.4576946
-0.020077153
3.4815074
-0.023812789
-0.023140072
3.5046474
3.4053527
-0.027499454
3.4214969
-0.031794502
3.4376975
-0.031287198
3.4557458
-0.036108552
3.473834
-0.035515569
3.4940691
-0.040943965
3.5142733
-0.040281328
3.5368862
-0.046425692
-0.045688574
3.5594347
3.4401922
-0.041992605
3.4549615
-0.04656384
3.4708244
-0.047150082
3.4869271
-0.052211208
3.5042986
-0.052887143
3.5218836
-0.058528949
3.5409353
-0.059333008
3.5601891
-0.065679459
-0.0666302
3.5811307
3.4841757
-0.055544375
3.4975917
-0.059979772
3.5118443
-0.061402668
3.5258853
-0.066252227
3.5409369
-0.067938812
3.5557312
-0.073323243
3.5717351
-0.075336899
3.5874657
-0.08141003
-0.083793765
3.6046293
3.505341
-0.065911351
3.5150506
-0.06968932
3.5254431
-0.071795195
3.5350911
-0.075900256
3.5455956
-0.078443291
3.5553084
-0.083036083
3.5660602
-0.086088698
3.5760151
-0.091364857
-0.094982586
3.5872039
3.5290753
-0.07200965
3.5338567
-0.074470729
3.5388553
-0.076793857
3.5425143
-0.079559195
3.5465658
-0.082494857
3.5493072
-0.085777436
3.5526563
-0.089437808
3.5547507
-0.093459209
-0.097909822
3.5576779
3.5059512
-0.06905269
3.5016279
-0.070147496
3.4968409
-0.072006806
3.4909711
-0.073689362
3.4846629
-0.076186738
3.4775108
-0.078625252
3.4699582
-0.081885265
3.4617745
-0.085275448
-0.089395735
3.4532604
3.490774
-0.053456554
3.4728063
-0.052179765
3.4543597
-0.053560183
3.4337373
-0.053067024
3.4127623
-0.055211681
3.3897155
-0.05557843
3.3664167
-0.058586488
3.34107
-0.059928762
-0.063974237
3.3156485
3.2990367
-0.013485664
3.2588515
-0.011994544
3.2194907
-0.014199398
3.1791654
-0.012741792
3.1396582
-0.015704415
3.0982358
-0.014156047
3.0578588
-0.018209506
3.0145914
-0.016661391
2.9726357
-0.022018533
0.066494442
2.92665
-0.020508661
0.09399003
3.2881529
0.10294574
3.4443047
0.10114648
3.5594771
0.090726205
3.5976242
0.073812271
3.6215432
0.052648788
3.6022942
0.027291737
3.5847917
3.5319392
0.071855222
2.8824078
-0.027613039
0.098976817
3.2610313
0.10812776
3.4351537
0.10535633
3.5622486
0.093495736
3.6094848
0.074907382
3.6401316
0.051826817
3.6253747
0.026610916
3.6100076
3.5585501
0.075852818
2.8328047
-0.026249703
0.10517786
3.2317063
0.11459562
3.425736
0.11261597
3.5642282
0.10146633
3.6206344
0.083076637
3.6585212
0.059751983
3.6486994
0.031320502
3.6384391
3.5898706
0.082928119
2.7858689
-0.035992394
0.11105949
3.2035749
0.12045888
3.4163366
0.11740258
3.5672845
0.10460216
3.6334348
0.084283141
3.6788403
0.058807531
3.674175
0.030652789
3.6665938
3.6205234
0.088787971
2.7326922
-0.035611185
0.11912024
3.1732426
0.1285896
3.4068672
0.12596754
3.5699066
0.11378474
3.6456176
0.093573449
3.6990516
0.067799866
3.6999486
0.0359663
3.6984274
3.6564897
0.098053635
2.6849134
-0.050274894
0.12597149
3.1453248
0.13504311
3.3977956
0.13116912
3.5737806
0.11721503
3.6595717
0.094813582
3.721453
0.066667672
3.7280945
0.035297987
3.7297971
3.6917877
0.10576692
2.6315768
-0.052430312
0.13621186
3.1148798
0.14518318
3.3888243
0.14138024
3.5775835
0.12777097
3.673181
0.10534039
3.7438836
0.076805165
3.7566297
0.041209195
3.7653931
3.7329969
0.11790428
2.5898684
-0.076195868
0.14401378
3.0887704
0.15205609
3.380782
0.14680441
3.5828352
0.13131436
3.688671
0.10650875
3.7686892
0.075502806
3.7876357
0.040544352
3.8003515
3.7735412
0.12954882
2.5378675
-0.077547937
0.15734754
3.0609716
0.16506483
3.3730647
0.15961458
3.5882855
0.14420597
3.7040796
0.11895963
3.7939355
0.086921913
3.8196734
0.046882008
3.8403914
3.8204232
-0.0076224811
3.8280457
-0.0064830904
3.839252
-0.0037683248
3.8169586
0.0055493191
3.7846179
0.018295548
3.6913334
0.037242548
3.5693385
0.057478094
3.3528291
0.074070707
3.044379
2.5551648
0.056773447
-0.012542233
3.8405879
-0.016296588
3.8430064
-0.014651813
3.8153138
-0.0061665727
3.7761326
0.0058355347
3.6793313
0.023664746
3.5515093
0.041328792
3.3351651
0.058993776
3.026714
2.559741
0.054417496
-0.011093275
3.8516812
-0.013209546
3.8451226
-0.01248628
3.8145906
-0.00495706
3.7686034
0.0056083981
3.6687658
0.022398632
3.534719
0.039724324
3.3178394
0.053872904
3.0125655
2.5637127
0.049901249
-0.015661477
3.8673427
-0.022551065
3.8520122
-0.023835576
3.8158751
-0.017679165
3.762447
-0.007382639
3.6584693
0.0087216692
3.5186147
0.024847968
3.3017131
0.040620458
2.996793
2.5690742
0.035259001
-0.014428649
3.8817713
-0.01947889
3.8570625
-0.020860723
3.8172569
-0.015004919
3.7565912
-0.0060630438
3.6495274
0.0090898547
3.5034618
0.024894838
3.2859081
0.037015615
2.9846722
2.5693972
0.036692585
-0.018985596
3.9007569
-0.028333072
3.86641
-0.032291883
3.8212157
-0.028158123
3.7524574
-0.019269531
3.6406388
-0.0046518992
3.4888442
0.010484567
3.2707716
0.025860341
2.9692964
2.5672315
0.028026071
-0.018031851
3.9187888
-0.025135594
3.8735137
-0.028518633
3.8245988
-0.0240773
3.7480161
-0.016576734
3.6331383
-0.0028666918
3.4751341
0.012087436
3.2558175
0.02437766
2.9570062
2.5599428
0.031666284
-0.022439024
3.9412278
-0.033257826
3.8843325
-0.039833082
3.831174
-0.037438241
3.7456213
-0.029887914
3.6255879
-0.01647967
3.4617259
-0.0015100989
3.2408479
0.015068321
2.9404278
2.5508964
0.024114707
-0.021059327
3.9622871
-0.029960913
3.8932341
-0.035334436
3.8365475
-0.031737714
3.7420246
-0.025580546
3.6194308
-0.013005749
3.4491511
0.0018232257
3.2260189
0.015180739
2.9270703
2.5375473
0.028529905
-0.0071343514
2.5226831
0.021998506
0.010921002
2.9090149
0.026115963
3.210824
0.038738505
3.4365286
0.044703234
3.613466
0.046070465
3.7406573
0.037465614
3.8451524
0.025185685
3.905514
3.9874728
-0.0084434694
2.5042614
0.026865203
0.0059672243
2.8946042
0.02083876
3.1959525
0.03260546
3.4247619
0.037805871
3.6082656
0.040816996
3.7376462
0.033724282
3.8522451
0.023378417
3.9158599
4.0108512
-0.0015048723
2.4849873
0.020778975
0.017912556
2.8751868
0.033299815
3.1805652
0.045388629
3.412673
0.050016206
3.6036381
0.050143578
3.7375188
0.040203039
3.8621856
0.02699208
3.9290708
4.0378433
-0.0038808325
2.4629652
0.025902943
0.01138644
2.8599195
0.02620869
3.1657429
0.037482093
3.4013996
0.041841388
3.5992788
0.044222852
3.7351374
0.035976514
3.870432
0.024857069
3.9401903
4.0627004
0.0021286644
2.4406854
0.020151088
0.022416493
2.8396317
0.037822814
3.1503366
0.049603414
3.389619
0.052922631
3.5959595
0.05193655
3.7361234
0.041173626
3.8811949
0.027729027
3.9536349
4.0904294
-0.0014805353
2.4167056
0.025460385
0.014274429
2.8238767
0.028851576
3.1357595
0.039525574
3.378945
0.043330895
3.5921542
0.045119643
3.7343347
0.036311071
3.8900035
0.025161451
3.9647845
4.1155909
0.0034746111
2.3932772
0.019953756
0.024127089
2.8032242
0.039453492
3.1204331
0.050578272
3.3678203
0.052977474
3.589755
0.051002658
3.7363095
0.040084247
3.9009219
0.027147001
3.9777217
4.1427379
-0.0014234472
2.3693865
0.025314185
0.014271768
2.787529
0.028569928
3.1061349
0.038397895
3.3579923
0.041781074
3.5863718
0.043070215
3.7350204
0.034380412
3.9096117
0.023961438
3.9881407
4.1666993
0.0020401328
2.3473627
0.019983611
0.022786508
2.7667827
0.037869893
3.0910515
0.048090292
3.3477719
0.049754689
3.5847074
0.046907257
3.7378678
0.03667708
3.9198419
0.025126159
3.9996916
4.1918255
-0.00665746
4.1984829
-0.0047744127
3.9978086
-0.0017859433
3.9168534
0.0043629098
3.7317189
0.011270027
3.5778003
0.019726775
3.3393151
0.029466482
3.0813118
0.033497504
2.7627516
2.3388442
0.042016068
-0.005609962
4.2040929
-0.0042045713
3.9964032
-0.0017311962
3.91438
-1.4030259e-05
3.7300018
0.0051837955
3.5726025
0.013561833
3.3309371
0.023340118
3.0715335
0.033643371
2.7524484
2.3367347
0.035752793
0.00092187548
4.203171
0.0052480033
3.9920771
0.010418474
3.9092096
0.017641692
3.7227786
0.024328705
3.5659155
0.03262031
3.3226455
0.04312904
3.0610248
0.046838045
2.7487394
2.3387427
0.044830058
0.003342863
4.1998282
0.0078583643
3.9875616
0.013001199
3.9040667
0.016468873
3.7193109
0.021636673
3.5607477
0.029802482
3.3144797
0.040794785
3.0500325
0.051548155
2.737986
2.3500034
0.040287479
0.010338114
4.18949
0.018964482
3.9789352
0.027093214
3.895938
0.035962774
3.7104413
0.043049188
3.5536613
0.050873104
3.3066558
0.062729196
3.0381764
0.068832656
2.7318825
2.3729933
0.045842787
0.013611659
4.1758784
0.02313851
3.9694084
0.032051626
3.8870249
0.037759635
3.7047333
0.043472513
3.5479484
0.050773759
3.2993545
0.063417961
3.0255322
0.081342315
2.7139582
2.4177657
0.036569909
0.021309473
4.1545689
0.035358571
3.9553593
0.047879677
3.8745038
0.059123261
3.6934897
0.066804548
3.5402671
0.07333568
3.2928234
0.086046546
3.0128213
0.10397935
2.6960254
2.4729982
0.04874679
0.025908963
4.1286599
0.040917761
3.9403505
0.054744109
3.8606774
0.063572041
3.6846618
0.070475459
3.5333637
0.07519685
3.288102
0.086456536
3.0015617
0.12225978
2.6602221
2.5468583
0.048399709
0.033371676
4.0952883
0.054024852
3.9196973
0.071882192
3.8428201
0.086963469
3.6695805
0.096213389
3.5241138
0.10050323
3.2838122
0.11068887
2.991376
0.15041056
2.6205005
2.5615247
0.13574419
-0.16655936
4.2618476
-0.33299454
4.0861325
-0.49594415
4.0057697
-0.6456551
3.8192915
-0.7755502
3.6540089
-0.87844157
3.3867035
-0.92542822
3.0383627
-0.93716645
2.6322387
2.5400857
-0.91572746
-0.16575513
4.4276028
-0.33576324
4.2561406
-0.50325291
4.1732594
-0.65781158
3.9738501
-0.79069046
3.7868878
-0.89042422
3.4864373
-0.93229971
3.0802382
-0.91374409
2.6136831
2.3105752
-0.68423359
-0.16383915
4.5914419
-0.33341561
4.425717
-0.50131945
4.3411632
-0.66344214
4.1359728
-0.7993417
3.9227873
-0.90390266
3.5909983
-0.93091986
3.1072554
-0.8518471
2.5346103
1.6494507
-0.19072264
-0.16143326
4.7528752
-0.33404645
4.5983302
-0.50518782
4.5123046
-0.67393871
4.3047237
-0.81463146
4.0634801
-0.9196871
3.6960539
-0.9211512
3.1087195
-0.79066499
2.4041241
0.9069293
-0.048143561
-0.15766833
4.9105435
-0.33137052
4.7720324
-0.50147968
4.6824137
-0.67914449
4.4823885
-0.82249503
4.2068306
-0.93005928
3.8036182
-0.90687061
3.0855308
-0.67326621
2.1705197
0.23598423
-0.002321144
-0.15279208
5.0633356
-0.33125659
4.9504969
-0.50442766
4.8555848
-0.68765272
4.6656136
-0.83681954
4.3559974
-0.93949388
3.9062925
-0.8597076
3.0057445
-0.41580774
1.7266198
-0.25724339
0.077419879
-0.14651094
5.2098465
-0.32690524
5.1308912
-0.49905618
5.0277357
-0.69129887
4.8578563
-0.84351626
4.5082148
-0.93196583
3.9947421
-0.76730474
2.8410834
-0.28250667
1.2418218
-0.60520699
0.065456927
-0.13914641
5.3489929
-0.32246855
5.3142134
-0.499852
5.2051192
-0.69715778
5.0551621
-0.85402361
4.6650806
-0.92534742
4.0660659
-0.6733775
2.5891135
-0.20972571
0.77816998
-0.87297302
0.058040321
-0.13393548
5.4829284
-0.31639387
5.4966718
-0.49258217
5.3813075
-0.69861491
5.2611948
-0.85784511
4.8243108
-0.89266267
4.1008834
-0.53548777
2.2319386
-0.097603189
0.3402854
-1.0451356
0.074559429
0.030518856
-1.1173823
0.041727793
0.27169757
0.099106688
0.54494714
1.958689
0.53911325
4.1067173
0.43493095
4.9284931
0.29402293
5.4021028
0.17798871
5.4973417
0.061729545
5.6129309
5.544658
0.024995947
-1.1866807
0.044302464
0.24979587
-0.12569323
0.52294806
1.6855368
0.53523097
4.0944344
0.42547199
5.0382521
0.28060528
5.5469695
0.1681883
5.6097587
0.055847116
5.7252721
5.6005051
0.040144001
-1.2723241
0.045499434
0.26080358
-0.34635281
0.50578957
1.4405508
0.53202394
4.0682001
0.42362881
5.1466472
0.27604732
5.694551
0.15911975
5.7266862
0.047584491
5.8368074
5.6480896
0.05498648
-1.3730444
0.045733771
0.27176963
-0.56313597
0.49177553
1.2205449
0.52539791
4.0345777
0.41211629
5.2599289
0.26177985
5.8448875
0.14881483
5.8396513
0.041893931
5.9437283
5.6899835
0.058024255
-1.4758989
0.044830222
0.26817947
-0.77329118
0.47673955
1.0119849
0.52082094
3.9904963
0.40825211
5.3724977
0.25554866
5.9975909
0.13875952
5.9564404
0.033830855
6.0486569
5.7238144
0.057427239
-1.5789494
0.045623342
0.25755039
-0.97341433
0.46025671
0.80927854
0.51172694
3.9390261
0.39476068
5.489464
0.2404218
6.1519298
0.1279349
6.0689273
0.02837257
6.1482193
5.7521869
0.054452522
-1.670044
0.036642067
0.24207266
-1.1610345
0.44107767
0.61027353
0.50501285
3.8750909
0.38871454
5.6057623
0.23282048
6.3078239
0.11717386
6.1845739
0.020750824
6.2446423
5.7729378
0.050520071
-1.763608
0.043043853
0.2245006
-1.335015
0.42194029
0.41283384
0.49252675
3.8045044
0.37029141
5.7279976
0.21634478
6.4617705
0.10603868
6.29488
0.016332346
6.3343486
5.7892701
0.048079794
-1.8150946
0.0034068235
0.20701569
-1.4939509
0.40051318
0.21933635
0.48309074
3.7219268
0.36631057
5.8447778
0.20993342
6.6181476
0.095820544
6.4089929
0.010634171
6.419535
5.7999043
0.34742933
-2.118767
-0.043756905
0.52137181
-1.6678934
0.56582465
0.1748835
0.38707262
3.9006789
0.090335524
6.1415149
-0.094037359
6.8025205
-0.15706823
6.4720238
-0.1577664
6.4202332
5.6421379
0.36902973
-2.4897528
0.0019560652
0.52608439
-1.824948
0.51700467
0.18396322
0.28600357
4.13168
0.00031909077
6.4271994
-0.1854159
6.9882555
-0.23423687
6.5208447
-0.19561408
6.3816104
5.4465238
0.38526803
-2.7719949
-0.10302588
0.55034548
-1.9900255
0.50944427
0.22486443
0.1653968
4.4757274
-0.13865968
6.7312558
-0.26354644
7.1131423
-0.26500496
6.5223033
-0.19713043
6.3137358
5.2493934
0.39316987
-2.9277819
-0.23738293
0.5439393
-2.1407949
0.43486095
0.33394279
0.068291605
4.8422968
-0.21351849
7.0130659
-0.32614619
7.22577
-0.31717344
6.5133305
-0.21740546
6.2139679
5.0319879
0.39223771
-2.9785451
-0.34147445
0.5440918
-2.292649
0.3838664
0.49416819
-0.070310567
5.2964738
-0.33567676
7.2784321
-0.37801589
7.2681091
-0.32578014
6.4610948
-0.19782319
6.0860109
4.8341647
0.38064111
-2.9809671
-0.37821917
0.50895271
-2.4209606
0.28900361
0.71411728
-0.16006977
5.7455471
-0.38059752
7.4989599
-0.4118158
7.2993274
-0.35824418
6.4075231
-0.20336076
5.9311275
4.630804
0.35729196
-2.9526842
-0.38557487
0.4630763
-2.5267449
0.19002515
0.98716843
-0.30720417
6.2427765
-0.47813622
7.6698919
-0.43939765
7.2605888
-0.34575447
6.31388
-0.16769357
5.7530666
4.4631104
0.33559526
-2.9449806
-0.34329883
0.41773081
-2.6088805
0.099837083
1.3050622
-0.36701839
6.7096319
-0.49038541
7.7932589
-0.44992376
7.2201272
-0.36241321
6.2263694
-0.16704575
5.5576991
4.2960646
0.31837649
-0.22928713
-3.03407
0.3684513
-2.6589553
-0.029464781
1.7029782
-0.54048159
7.2206487
-0.5840915
7.8368688
-0.46550438
7.10154
-0.3395388
6.1004038
-0.11773069
5.335891
4.1783339
-0.35975846
0.29975091
0.057398374
0.002609179
-0.77652891
0.41374084
0.0030296069
-1.2154452
0.4376068
0.0013094644
-1.368297
0.15733257
-0.004480748
-1.1695214
-0.19261801
-0.0061575517
-0.94571521
-0.2261483
0.0023420753
-0.73345483
-0.21387143
0.0016110488
-0.15121767
-0.58142116
-0.0008159926
-0.61328115
-0.00015329351
-0.35786109
0.59537171
0.062240298
-0.75134659
0.80722634
-1.1599506
0.84621085
-1.2461678
0.24354972
-0.96721522
-0.47157058
-0.6674668
-0.52589672
-0.37182057
-0.50951766
0.14913164
-1.1023734
-1.1450268
-0.3492505
0.87904682
0.065575384
-0.72509962
1.1830755
-1.1131985
1.2343098
-1.1580371
0.28838829
-0.82955873
-0.80004897
-0.42651521
-0.92894024
0.0032617854
-0.93929466
0.48788257
-1.5869942
-1.5921033
-0.34183533
1.153558
0.067324189
-0.69259105
1.5338312
-1.0448343
1.586553
-1.0334257
0.27697973
-0.64889334
-1.1845813
-0.21120062
-1.366633
0.29700092
-1.4474962
0.77385754
-2.0638508
-1.9804489
-0.32966071
1.4115252
0.071693486
-0.65228717
1.8564576
-0.97839476
1.9126606
-0.90017741
0.19876238
-0.42013473
-1.664624
0.042259775
-1.8290275
0.57060921
-1.9758456
1.0364153
-2.5296568
-2.3237927
-0.31538469
1.6547383
0.072171541
-0.62072045
2.1617934
-0.91238846
2.2043286
-0.7637003
0.050074209
-0.20694859
-2.2213757
0.29640637
-2.3323824
0.83449858
-2.5139378
1.2681945
-2.9633527
-2.6254721
-0.30514705
1.8865606
0.073324816
-0.58471936
2.4413657
-0.78053632
2.4001456
-0.54100572
-0.18945639
0.02275597
-2.7851374
0.55311045
-2.8627369
1.0729294
-3.0337568
1.4687202
-3.3591435
-2.892548
-0.28825465
2.0997249
0.075090266
-0.53573545
2.6888465
-0.58322977
2.4476399
-0.23252977
-0.54015638
0.25164351
-3.2693107
0.79295124
-3.4040446
1.2922637
-3.5330692
1.6436951
-3.7105749
-3.1262927
-0.27491639
0.080704281
2.2939371
-0.48026664
2.8941968
-0.42443074
2.391804
0.016456971
-0.98104409
0.49016373
-3.7430175
1.0196312
-3.9335121
1.4779659
-3.991404
1.788521
-4.0211299
-3.3356094
0.31880834
2.948822
-0.22966219
-3.0379682
0.36850582
2.6103303
-2.6600278
-0.030061658
-1.3088616
1.7074291
-0.5409997
-6.7126149
7.2235529
-0.58411706
-7.7934097
7.836527
-0.46543936
-7.2196344
7.1009567
-0.33951819
-6.2260899
6.1001687
-0.1177148
-5.5574114
5.335608
-4.295839
4.1781242
0.33609457
2.9563595
-0.34363204
0.41795567
2.5284692
0.09949987
-0.99040579
-0.36743433
-6.2456807
-0.49051357
-7.6703304
-0.44991795
-7.2602301
-0.36239857
-6.3136093
-0.16702611
-5.7527839
-4.4628651
0.35777059
2.9843593
-0.38577039
0.4633118
2.422928
0.18964559
-0.71673958
-0.30769179
-5.7483433
-0.47831084
-7.4997114
-0.43941026
-7.2991306
-0.34575275
-6.4072668
-0.16767899
-5.9308576
-4.6305441
0.38112342
2.9816168
-0.37838097
0.5092655
2.294786
0.28876516
-0.49623924
-0.16049778
-5.2990804
-0.38082856
-7.2793806
-0.41187349
-7.2680857
-0.35824211
-6.4608982
-0.20334648
-6.0857532
-4.8338905
0.3927107
2.930464
-0.34155781
0.54445362
2.143043
0.38365519
-0.33544081
-0.070763653
-4.8446615
-0.33594298
-7.0142013
-0.37810915
-7.2259195
-0.32581528
-6.513192
-0.19781715
-6.2137514
-5.0317077
0.39362038
2.7741363
-0.23729275
0.54435862
1.9923048
0.4347833
-0.22586548
0.067956835
-4.477835
-0.21382784
-6.7324166
-0.32628643
-7.1134609
-0.31721644
-6.522262
-0.21740787
-6.31356
-5.2491156
0.38570477
2.4914303
-0.10299871
0.55082995
1.8271796
0.50948636
-0.18452189
0.16508304
-4.1334317
-0.13897847
-6.4283551
-0.26372002
-6.9887194
-0.26508966
-6.5208924
-0.19714609
-6.3815035
-5.4462617
0.36942225
2.1200299
0.0019781601
0.52660644
1.6699954
0.51712961
-0.17504507
0.28578721
-3.9020893
6.3456697e-05
-6.1426314
-0.18561409
-6.8030418
-0.23433117
-6.4721753
-0.19564483
-6.4201899
-5.6419065
0.34780641
1.8158597
-0.043636269
0.52189285
1.495909
0.56602047
-0.21917269
0.38692541
-3.7229943
0.090079309
-5.8457853
-0.094230739
-6.6187318
-0.15718791
-6.4092181
-0.15780786
-6.4195699
-5.7997143
-0.061704989
5.5446612
-5.4829563
-0.17795604
5.6131326
-5.4968815
-0.29399605
5.4976207
-5.3815807
-0.43493116
5.4025655
-5.2616303
-0.53916166
4.9290165
-4.824786
-0.54501106
4.1070062
-4.1011568
-0.27170895
1.9579013
-2.2312034
-0.030494209
0.097945139
-0.33915988
-1.1175493
1.045304
0.041751137
-0.055822828
5.6004841
-0.16815209
5.7254618
-0.28057123
5.6100399
-0.42546193
5.5474562
-0.53527167
5.0388262
-0.52299649
4.094731
-0.24991446
1.6848193
-0.025070078
-0.12689925
-1.1869233
0.044303955
-0.047558519
5.6480426
-0.1590794
5.8369827
-0.27600849
5.726969
-0.4236141
5.6950618
-0.53206363
5.1472758
-0.5058917
4.0685591
-0.26104635
1.4399739
-0.040276636
-0.34766896
-1.2726929
0.04549296
-0.041869165
5.6899118
-0.14877244
5.943886
-0.26173478
5.8399313
-0.41209139
5.8454184
-0.52542759
5.260612
-0.49188306
4.0350145
-0.27198641
1.2200773
-0.055110114
-0.56454526
-1.3735149
0.045711824
-0.033805059
5.7237168
-0.13871393
6.0487949
-0.25549898
5.9567163
-0.40822124
5.9981406
-0.52085209
5.3732428
-0.47686799
3.9910304
-0.26837484
1.0115841
-0.05811584
-0.77480426
-1.4764384
0.04480767
-0.028348227
5.752065
-0.12788754
6.1483342
-0.24036631
6.0691951
-0.39471951
6.1524938
-0.51174424
5.4902676
-0.46038409
3.9396703
-0.25774105
0.80894111
-0.057519962
-0.97502535
-1.5795525
0.045594189
-0.020726365
5.7727914
-0.11712501
6.2447328
-0.23276116
6.1848313
-0.3886668
6.3083995
-0.50503052
5.6066313
-0.44123561
3.8758754
-0.2422842
0.6099897
-0.054540723
-1.1627688
-1.6706888
0.036595502
-0.01631014
5.7891015
-0.10598877
6.3344114
-0.21628154
6.295124
-0.37023278
6.4623507
-0.49253143
5.7289299
-0.42209132
3.8054352
-0.22471365
0.41261203
-0.050619847
-1.3368626
-1.7642987
0.04299012
-0.010612802
-0.095771275
-0.20986534
-0.36624644
-0.48310177
-0.40066079
-0.20722145
-0.048175103
0.0033858963
0.097490423
0.87321407
0.074599462
0.535414
-0.77708346
0.89273997
-2.5885294
0.85792252
-4.0663393
0.69863707
-4.6655006
0.49256915
-5.0555624
0.31637079
-5.2053824
0.13391422
-5.314425
-5.349042
0.20959302
0.60551354
0.058107509
0.67330524
-1.2407957
0.92545765
-2.8406818
0.85410558
-3.9949872
0.69718664
-4.5085816
0.49984471
-4.8582205
0.32244826
-5.0279859
0.1391253
-5.131102
-5.2099167
0.28242876
0.25761445
0.065470323
0.76730107
-1.725668
0.93207525
-3.005456
0.8435926
-3.9065046
0.69132942
-4.3563184
0.49905424
-4.6659453
0.32689184
-4.8558235
0.14649353
-4.9507037
-5.0634232
0.41567519
-0.23551208
0.077451343
0.85972969
-2.1697225
0.93960122
-3.0853275
0.83689701
-3.8038004
0.68768898
-4.2071104
0.50443096
-4.4826873
0.33124709
-4.6826396
0.15277443
-4.772231
-4.9106488
0.67315898
-0.90637235
-0.002298715
0.90692383
-2.4034873
0.93015913
-3.1085628
0.82256548
-3.6962067
0.67918038
-4.0637253
0.50148655
-4.3049935
0.33136888
-4.512522
0.15765753
-4.5985197
-4.7529913
0.79062105
-1.6488936
-0.048099826
0.92120507
-2.5340714
0.91977218
-3.1071299
0.81470179
-3.5911363
0.67397952
-3.923003
0.50519895
-4.1362129
0.33404427
-4.3413673
0.161424
-4.4258994
-4.5915673
0.85178847
-2.3100803
-0.1906018
0.93096231
-2.6132452
0.9039782
-3.0801458
0.79940625
-3.4865644
0.66348126
-3.787078
0.50133286
-3.9740645
0.33341766
-4.1734521
0.16383328
-4.256315
-4.427734
0.91370836
-2.5396918
-0.68409681
0.93234875
-2.6318856
0.89049553
-3.0382926
0.79075446
-3.3868233
0.6578554
-3.654179
0.5032722
-3.8194813
0.3357677
-4.0059476
0.1657513
-4.0862986
-4.2619827
0.93714047
-2.5612005
-0.91563178
0.92547318
-2.6202183
0.87851156
-2.991331
0.77560929
-3.2839211
0.64569508
-3.5242648
0.49596429
-3.6697505
0.33300196
-3.8429852
0.16655872
-3.9198554
-4.0954239
-0.006664124
4.1986165
-4.1919523
-0.0047880294
3.9979238
-3.9997999
-0.0018101134
3.9169579
-3.9199358
0.0043277515
3.7317942
-3.737932
0.011229909
3.5778218
-3.5847239
0.019683058
3.3392688
-3.3477219
0.029430911
3.081184
-3.0909319
0.033477427
2.7625969
-2.7666434
2.3387439
-2.347282
0.042015452
-0.0056172736
4.2042337
-0.0042186911
3.9965252
-0.0017552201
3.9144944
-3.9726563e-05
3.7300787
0.0051380273
3.572644
0.01350836
3.3308985
0.023292469
3.0713999
0.03361982
2.7522695
2.3366179
0.035745903
0.00091793452
4.2033158
0.0052355132
3.9922077
0.010397638
3.9093323
0.017606926
3.7228694
0.024285465