/*--------------------------------*- C++ -*----------------------------------*\
  =========                 |
  \\      /  F ield         | OpenFOAM: The Open Source CFD Toolbox
   \\    /   O peration     | Website:  https://openfoam.org
    \\  /    A nd           | Version:  11
     \\/     M anipulation  |
\*---------------------------------------------------------------------------*/
FoamFile
{
    format      ascii;
    class       volVectorField;
    location    "7.05";
    object      U;
}
// * * * * * * * * * * * * * * * * * * * * * * * * * * * * * * * * * * * * * //

dimensions      [0 1 -1 0 0 0 0];

internalField   nonuniform List<vector> 
4455
(
(99.980084 0.14743616 0)
(99.886788 0.19736539 -1.7419115e-18)
(99.664581 0.21352498 5.9842907e-18)
(99.488236 0.0081238485 2.5909795e-20)
(98.937234 -0.25498431 5.6455751e-18)
(98.536853 -0.81503034 -2.1324933e-17)
(97.443243 -1.5179637 9.4953175e-18)
(96.606566 -2.6999566 0)
(94.293638 -3.8593185 -5.8708091e-17)
(99.994543 0.19667742 -1.1291642e-17)
(99.885184 0.29677217 1.1029099e-17)
(99.634878 0.33102642 -1.359407e-17)
(99.442678 0.12504207 2.2700919e-17)
(98.889078 -0.11293945 -4.3657104e-17)
(98.35637 -0.79378831 4.7747337e-17)
(97.378836 -1.6280152 -4.5819392e-18)
(95.979894 -3.0755746 6.6921665e-18)
(93.572399 -5.4827235 2.5526351e-16)
(100.02664 0.23027675 -1.1732986e-17)
(99.881556 0.4220192 1.4889757e-17)
(99.677239 0.45230205 1.3312343e-17)
(99.319564 0.35487177 -1.3263072e-17)
(98.936636 0.036838677 5.8173231e-17)
(98.111221 -0.54962234 -3.2936333e-17)
(97.249787 -1.3990779 4.22697e-18)
(95.877634 -2.9706962 -9.4837672e-17)
(93.465955 -4.4753004 -1.8058523e-16)
(100.04109 0.27178363 1.2272708e-19)
(99.909232 0.49712919 -1.7461466e-18)
(99.617547 0.60720607 3.1415368e-17)
(99.361322 0.47661006 4.3196531e-18)
(98.854878 0.29344533 -5.3647904e-20)
(98.209807 -0.33986734 -6.3046354e-18)
(96.934818 -1.0688399 7.0400555e-17)
(95.67779 -2.7244697 1.8973212e-16)
(93.012966 -4.1148835 1.5061964e-16)
(100.0683 0.29854878 2.2689267e-17)
(99.926918 0.58923514 -2.5470881e-17)
(99.634502 0.74272084 3.2341332e-17)
(99.374262 0.67171491 3.3623589e-20)
(98.876745 0.52283422 -3.9757772e-17)
(98.166541 -0.11287341 -1.224227e-17)
(96.789625 -0.74573126 -5.549911e-17)
(95.302818 -2.7043282 -8.9296655e-17)
(92.581212 -4.0298255 -4.4439799e-16)
(100.08943 0.31997748 0)
(99.971006 0.66449596 0)
(99.627877 0.89354744 -5.6512828e-17)
(99.379541 0.78709012 -6.5005884e-17)
(98.841118 0.75622785 0)
(98.216533 0.11987388 -8.8270144e-17)
(96.620652 -0.35302555 -7.5173234e-18)
(95.114715 -2.5126588 -5.3837151e-18)
(91.894379 -3.4678314 5.4960749e-16)
(100.11689 0.32992472 0)
(99.992891 0.73053187 -1.5217256e-18)
(99.670239 1.0134527 1.7127726e-18)
(99.42158 0.94563368 6.3530653e-17)
(98.861738 0.96786596 -4.7061201e-18)
(98.223389 0.34860548 1.8782184e-16)
(96.503013 -0.058640875 0)
(94.741721 -2.4338804 0)
(91.347136 -3.3236236 2.5396246e-16)
(100.13884 0.33250146 4.2209137e-17)
(100.02359 0.77918975 0)
(99.721566 1.1230668 0)
(99.469855 1.100961 0)
(98.895673 1.195257 0)
(98.246468 0.62226915 -9.3705418e-17)
(96.459589 0.38211801 -1.0106011e-16)
(94.582268 -2.1243399 1.4829504e-16)
(90.398465 -2.6397821 3.1114816e-18)
(100.15646 0.32900152 -4.1563886e-17)
(100.05367 0.79947865 -1.4537961e-18)
(99.770226 1.1885762 -1.6575762e-18)
(99.521538 1.214144 3.7368726e-18)
(98.951 1.3493319 1.4479379e-16)
(98.267399 0.82133523 1.6444426e-16)
(96.395186 0.68006607 3.2153335e-16)
(94.217832 -1.9497976 -1.4553699e-16)
(89.840802 -2.3101843 -4.3733202e-16)
(100.16865 0.31795481 0)
(100.17585 0.30218834 7.6342636e-17)
(100.17301 0.27682737 -7.5730354e-17)
(100.16326 0.25064077 7.2104997e-17)
(100.15342 0.21594183 -7.0483953e-17)
(100.1291 0.18189358 1.4011426e-16)
(100.10935 0.14257846 -1.3602326e-16)
(100.08561 0.10300587 0)
(100.03239 0.047511869 0)
(100.08893 0.82377842 0)
(100.11754 0.81873918 1.328136e-18)
(100.15642 0.79947313 0)
(100.17955 0.75365497 3.7632657e-18)
(100.2061 0.69874224 7.6416174e-17)
(100.23263 0.62789082 -2.2785838e-16)
(100.22554 0.53907355 1.4738969e-16)
(100.26049 0.46602812 -2.2410245e-18)
(100.2163 0.30473215 1.412883e-16)
(99.834042 1.2715548 9.7298934e-17)
(99.908632 1.3219147 -1.9139841e-16)
(99.971946 1.3547061 1.8208874e-16)
(100.05988 1.3629135 -6.0099017e-18)
(100.11722 1.3465158 -8.5467604e-17)
(100.22861 1.3249088 -2.5901911e-18)
(100.27174 1.2456823 0)
(100.39611 1.2082505 4.8526024e-18)
(100.44331 1.0019872 -2.3492947e-18)
(99.601769 1.3714498 1.0190614e-16)
(99.700085 1.4951447 -2.0673636e-16)
(99.779371 1.5749828 1.9596506e-16)
(99.910121 1.6609352 -9.4805333e-17)
(99.995588 1.6804978 -5.9169036e-18)
(100.16196 1.7437496 2.8305099e-18)
(100.24801 1.6836817 0)
(100.42237 1.7037612 -2.6456582e-18)
(100.50741 1.5222964 1.5881584e-16)
(99.041208 1.5621285 -1.1631221e-16)
(99.158928 1.7907152 0)
(99.257955 1.9233762 -1.0644774e-16)
(99.406172 2.1353689 1.0976034e-16)
(99.537045 2.2004202 -9.834882e-17)
(99.724189 2.4023637 1.0163419e-16)
(99.897874 2.3968804 0)
(100.09357 2.5708072 0)
(100.30327 2.4746228 5.6468113e-18)
(98.346017 1.0884253 -1.4345424e-16)
(98.403989 1.4084896 -1.3630715e-16)
(98.519596 1.6178927 1.3103112e-16)
(98.600345 1.9219922 1.2464354e-16)
(98.773166 2.0802662 -1.2017616e-16)
(98.891324 2.3801833 0)
(99.112074 2.4688206 2.1960634e-16)
(99.255293 2.7183412 -1.4971258e-18)
(99.466528 2.713833 -4.068447e-16)
(96.384003 1.1277713 -1.702478e-16)
(96.324853 1.7319647 0)
(96.427056 2.1156678 0)
(96.503132 2.6791094 4.7054049e-18)
(96.762639 2.9872281 0)
(96.981034 3.5655843 0)
(97.332766 3.8039461 0)
(97.641781 4.3361081 0)
(98.003307 4.4428392 0)
(93.936374 -1.5676286 6.8121749e-18)
(93.466224 -0.77532349 0)
(93.240665 -0.11111576 6.1653363e-18)
(93.026353 0.94464937 -1.1296765e-17)
(93.039435 1.5635171 -1.6960689e-16)
(93.186307 2.5234353 -1.5937336e-16)
(93.386209 3.066049 3.0754265e-16)
(93.802559 3.8686573 2.9387005e-16)
(94.120606 4.34643 -2.780149e-16)
(88.23934 -1.355023 8.320754e-16)
(86.777134 0.93084752 -5.131631e-16)
(85.693947 2.3815001 4.8323922e-16)
(85.886066 4.8891302 -4.5765054e-16)
(86.351181 6.5538698 -6.4095906e-16)
(87.305766 8.8204391 1.1941103e-15)
(88.020971 9.7895972 -7.5167693e-16)
(89.214287 11.478323 -3.4959313e-16)
(90.11416 11.881092 3.2894128e-16)
(100.05889 0.069164608 -1.856802e-19)
(100.09767 0.089789557 1.9026039e-16)
(100.15926 0.11909771 -2.1854111e-19)
(100.23727 0.15196169 -1.9150707e-16)
(100.32939 0.18440189 1.8684322e-19)
(100.43627 0.21695908 1.9193874e-16)
(100.55924 0.24963462 -1.9287306e-16)
(100.69748 0.28269944 -1.8730781e-19)
(100.86525 0.32526644 -9.6394961e-17)
(100.26777 0.3765673 -2.0278388e-16)
(100.38119 0.41446671 2.038806e-16)
(100.46309 0.52927251 -2.0393773e-16)
(100.60983 0.52893008 0)
(100.72597 0.65372528 2.0456382e-16)
(100.89717 0.65004556 -3.2041849e-19)
(101.03948 0.77883038 -2.0564472e-19)
(101.24564 0.75182849 -2.0478551e-16)
(101.40038 0.88638493 1.0237621e-16)
(100.51651 1.127786 2.1603344e-16)
(100.66169 1.1929387 -2.1698986e-16)
(100.73418 1.3279608 -2.1761062e-16)
(100.88386 1.35749 2.1813662e-16)
(100.95914 1.4910302 -2.1897803e-16)
(101.13677 1.5132884 2.1823341e-16)
(101.22886 1.6602159 -2.1915796e-16)
(101.43953 1.6954612 5.8673176e-19)
(101.54424 1.8273738 2.1882277e-16)
(100.6489 1.6266981 -2.3214741e-16)
(100.70913 1.781562 -9.0983105e-19)
(100.84989 1.8424761 9.1546623e-19)
(100.9033 1.990456 0)
(101.05504 2.0271153 -3.7614595e-21)
(101.11923 2.1945188 -2.3308729e-16)
(101.30619 2.2297311 2.3691951e-16)
(101.39602 2.4333504 9.1826284e-19)
(101.63367 2.4621475 9.1764295e-19)
(100.49523 2.663247 -9.8081584e-19)
(100.53205 2.8634545 -2.5205761e-16)
(100.65543 2.9608062 -1.8270113e-19)
(100.64131 3.1200602 2.5379561e-16)
(100.76527 3.2078676 2.5416348e-16)
(100.77621 3.4061747 -2.5536739e-16)
(100.95869 3.4967892 -9.8974483e-19)
(101.00479 3.7484997 -9.8982441e-19)
(101.25371 3.832306 -9.896793e-19)
(99.683719 2.9229102 2.775578e-16)
(99.688115 3.1686831 0)
(99.846619 3.3125546 0)
(99.799689 3.5404586 2.7720282e-16)
(99.969284 3.675294 -2.8085693e-16)
(99.959184 3.9595584 -2.7977398e-16)
(100.19979 4.0956422 5.5891243e-16)
(100.23337 4.4387203 -1.7293651e-18)
(100.54745 4.5617826 -5.5828512e-16)
(98.315496 4.8741314 -1.2334673e-18)
(98.262429 5.2982335 0)
(98.41354 5.5171996 1.2325394e-18)
(98.323705 5.8487311 3.1007798e-16)
(98.53061 6.0300912 -3.1191636e-16)
(98.533165 6.4061786 3.1012807e-16)
(98.842739 6.5642059 -3.1092471e-16)
(98.914911 6.9458094 -1.2182373e-18)
(99.294763 7.0833276 3.0784773e-16)
(94.670989 4.8906722 -3.5292332e-16)
(94.843807 5.571045 3.5764998e-16)
(95.323416 5.9626102 -3.54852e-16)
(95.491956 6.5274848 3.5305412e-16)
(96.03012 6.8207488 -3.4686011e-16)
(96.324779 7.2821476 2.5999063e-18)
(96.934985 7.5178553 3.4892322e-16)
(97.277817 7.9096016 2.6744336e-18)
(97.893836 8.0607776 1.7007247e-16)
(91.257411 13.092317 0)
(91.642826 13.84927 -3.9444766e-16)
(92.645443 14.628735 6.5504495e-18)
(93.156178 14.958789 8.2010692e-18)
(94.214005 15.562399 7.6965415e-16)
(94.749898 15.549597 -3.8255954e-16)
(95.991911 15.571913 -3.7359113e-16)
(96.536514 14.976092 3.7528798e-16)
(97.753244 14.20733 1.8442715e-16)
(98.367547 12.794032 -2.1539573e-16)
(98.743912 11.943151 0)
(98.912633 11.022477 2.0935628e-16)
(99.00805 10.442272 -2.0935983e-16)
(98.526041 9.9266118 0)
(98.132543 9.3466964 0)
(97.519998 8.7375965 0)
(96.725979 8.5097394 -2.1417604e-16)
(96.046629 8.0439406 2.141761e-16)
(98.216936 8.2864357 -1.9371426e-16)
(98.558692 8.5352388 0)
(98.81709 8.6159703 0)
(99.087992 8.6775262 0)
(99.219676 8.6697886 0)
(99.332365 8.7472331 0)
(99.312518 8.7815119 0)
(99.293462 8.8981893 1.8219862e-16)
(99.137883 8.9740342 -3.6476673e-16)
(99.376177 7.3969544 -2.521106e-18)
(99.697859 7.6119656 -3.361052e-16)
(99.777687 7.8496708 0)
(100.08438 8.019901 -1.6430193e-16)
(100.144 8.2316943 1.6429921e-16)
(100.40732 8.3801148 0)
(100.43149 8.5849864 0)
(100.66483 8.7433209 0)
(100.64108 8.9630939 0)
(100.57682 4.9237314 2.9952823e-16)
(100.90171 5.0804031 0)
(100.93814 5.4426182 1.4673008e-16)
(101.27246 5.5932996 -2.9237908e-16)
(101.31116 5.9497829 1.4562898e-16)
(101.64832 6.0993996 0)
(101.68437 6.4642111 0)
(102.0364 6.6297751 0)
(102.06291 7.0121433 1.3985119e-16)
(101.30712 4.1150269 0)
(101.57892 4.2129683 2.643554e-16)
(101.6454 4.5126007 -3.9567869e-16)
(101.93481 4.6006771 1.3129982e-16)
(102.01628 4.9092365 1.2938269e-16)
(102.32983 4.9938505 -1.0213446e-18)
(102.42526 5.3209221 -2.5564533e-16)
(102.76783 5.4078968 2.534567e-16)
(102.87284 5.7592552 -1.2615967e-16)
(101.73162 2.7008384 0)
(101.99782 2.7423707 1.2021979e-16)
(102.10998 3.0065637 -1.2022574e-16)
(102.40579 3.0463308 0)
(102.53361 3.3347058 -2.3532087e-16)
(102.86473 3.375506 2.353319e-16)
(103.00683 3.6907134 1.1570468e-16)
(103.3716 3.7344436 -2.3033137e-16)
(103.52648 4.0833499 1.1463466e-16)
(101.77368 1.9036493 0)
(101.91137 1.9833503 0)
(102.12059 2.1477612 0)
(102.33389 2.1532578 -1.0916767e-16)
(102.50703 2.3752912 2.1754176e-16)
(102.79842 2.3689644 -2.1594729e-16)
(102.97431 2.6166797 1.0752524e-16)
(103.30788 2.595384 -1.056639e-16)
(103.50965 2.8847301 2.1033454e-16)
(101.64453 0.84355522 -2.0709845e-16)
(101.83457 1.0020704 6.053065e-19)
(102.10222 0.94425355 1.0266165e-16)
(102.30271 1.1173888 -1.0131226e-16)
(102.59737 1.0565992 1.0131226e-16)
(102.79541 1.2199537 0)
(103.14306 1.1880899 9.8910518e-17)
(103.33632 1.3146283 -1.9690694e-16)
(103.73266 1.3492228 9.7996415e-17)
(100.96689 0.3636253 4.3107808e-19)
(101.19578 0.41161549 9.7253617e-17)
(101.38331 0.47894341 9.6317007e-17)
(101.6227 0.50839333 -9.6317015e-17)
(101.85174 0.57042102 0)
(102.10008 0.59285909 0)
(102.37581 0.65872332 -9.3823798e-17)
(102.65283 0.6801794 1.8687778e-16)
(102.9757 0.7492083 -9.3053959e-17)
(103.27837 0.77645413 0)
(103.65521 0.85398111 -9.0355779e-17)
(103.97919 0.87197647 1.0342732e-18)
(104.40495 0.95706324 1.1076159e-18)
(104.78049 0.97055827 1.18192e-18)
(105.24382 1.0733428 8.7031966e-17)
(105.66704 1.0895941 8.4424298e-17)
(106.21852 1.1771809 -8.4424303e-17)
(106.66851 1.2034399 0)
(103.95365 1.3983168 0)
(104.36508 1.540952 0)
(104.65595 1.4923676 -9.3729227e-17)
(105.06703 1.7201286 1.2251775e-18)
(105.40447 1.6557974 1.2925925e-18)
(105.88142 1.8891724 9.121937e-17)
(106.2299 1.8489884 8.8429725e-17)
(106.77552 2.1116657 -8.8429707e-17)
(107.16575 2.0806487 0)
(103.88532 2.8616701 -1.0466476e-16)
(104.10698 3.1836377 0)
(104.52893 3.161001 0)
(104.77508 3.5284223 -1.0000095e-16)
(105.25279 3.5104296 1.9868598e-16)
(105.52417 3.9284423 -1.3889036e-18)
(106.05645 3.9091885 -1.4673778e-18)
(106.36718 4.3850946 -9.5818396e-17)
(106.96633 4.3626349 0)
(103.93038 4.1345243 -1.1234385e-16)
(104.10149 4.5238391 1.1234586e-16)
(104.54672 4.5798666 0)
(104.73325 5.0067405 0)
(105.22217 5.0704203 1.0706969e-16)
(105.42497 5.5400026 -1.0706664e-16)
(105.96287 5.6117661 1.0404963e-16)
(106.18575 6.1347918 -5.2830547e-17)
(106.78213 6.2166829 -5.1217006e-17)
(103.25097 5.8555605 -1.2378847e-16)
(103.36068 6.2370089 1.2379217e-16)
(103.77389 6.3522818 0)
(103.87686 6.7654077 0)
(104.31972 6.9071261 0)
(104.41764 7.3689767 0)
(104.91277 7.5471168 0)
(105.0111 8.0888283 0)
(105.58126 8.311104 0)
(102.43512 7.2065546 -1.3984842e-16)
(102.44245 7.6152851 1.3742349e-16)
(102.83686 7.8571877 -1.3740381e-16)
(102.81536 8.3196458 1.3492797e-16)
(103.24466 8.6195239 -1.3492038e-16)
(103.19471 9.1581003 0)
(103.67676 9.5239653 0)
(103.59965 10.163486 0)
(104.1553 10.599016 0)
(100.8543 9.183247 0)
(100.759 9.4363955 -1.5672221e-16)
(100.94363 9.7305169 1.5668858e-16)
(100.77113 10.034486 0)
(100.95988 10.408957 1.5417418e-16)
(100.70865 10.805587 -1.5416342e-16)
(100.94409 11.293272 0)
(100.6086 11.827057 7.5927074e-17)
(100.9102 12.421804 -1.5146043e-16)
(99.06913 9.2275189 1.822629e-16)
(98.744298 9.3375173 1.8183751e-16)
(98.651167 9.742074 -1.8186679e-16)
(98.16069 9.9235006 1.8222109e-16)
(98.044803 10.474707 -3.6496698e-16)
(97.371673 10.828434 3.6563334e-16)
(97.255462 11.510686 -3.663814e-16)
(96.439618 11.961274 1.8335858e-16)
(96.392542 12.972287 0)
(95.333393 7.8039337 -2.1803768e-16)
(94.247563 7.7095861 2.1803694e-16)
(93.669307 7.7254424 0)
(92.550401 7.3867755 0)
(91.791339 7.9483212 0)
(90.588251 7.6641206 0)
(89.928691 8.4158957 0)
(88.370622 8.5882416 -1.1725032e-16)
(87.685007 9.5628145 1.1725293e-16)
(86.029384 9.7446835 1.2010757e-16)
(95.3551 13.62439 0)
(100.53535 13.200145 7.5532396e-17)
(104.06193 11.37132 0)
(105.68903 8.9632126 0)
(107.03702 6.8076946 0)
(107.31859 4.8964018 4.5469094e-17)
(107.78042 2.3762766 4.1850684e-17)
(107.28331 1.309836 3.9948281e-17)
(85.473144 11.183476 -1.2008721e-16)
(95.415738 14.687395 0)
(100.88344 13.861991 0)
(104.7216 11.875779 6.2495258e-17)
(106.35325 9.2234799 0)
(107.70415 6.8891138 -4.8547628e-17)
(107.98056 4.8577071 -9.0035167e-17)
(108.21204 2.3417647 -8.2832855e-17)
(107.79944 1.3376511 -7.9053592e-17)
(83.320314 12.126999 0)
(94.346005 15.735084 0)
(100.55933 14.921748 7.3997186e-17)
(104.63442 12.808854 -6.2501549e-17)
(106.4942 10.005648 0)
(108.01165 7.5589438 4.8546903e-17)
(108.39443 5.4486202 4.4570685e-17)
(108.9065 2.6640002 4.0983781e-17)
(108.48179 1.4333965 3.9105302e-17)
(82.833403 13.845529 1.2466673e-16)
(94.475274 16.981386 0)
(100.92655 15.643679 -1.4734272e-16)
(105.4256 13.367772 0)
(107.27584 10.286555 0)
(108.77188 7.6293515 -4.6517248e-17)
(109.13246 5.3846184 -4.2630243e-17)
(109.3816 2.6456362 0)
(109.0688 1.4713028 -3.7276575e-17)
(80.780199 15.210431 -1.2466566e-16)
(93.323954 18.516223 -9.2970034e-17)
(100.72904 17.006471 7.3343724e-17)
(105.38142 14.482672 0)
(107.48209 11.207032 0)
(109.15348 8.3861905 4.651691e-17)
(109.61363 6.0304662 4.2628396e-17)
(110.16161 3.0071826 0)
(109.82708 1.5722602 3.727657e-17)
(80.043836 17.919076 0)
(93.566049 19.834162 9.2963687e-17)
(101.17236 17.811075 -7.1687763e-17)
(106.31805 15.056826 0)
(108.39931 11.48109 0)
(110.01924 8.4277352 -4.4240513e-17)
(110.42479 5.9274962 -4.0480417e-17)
(110.70722 2.9547373 0)
(110.48718 1.6145453 -3.5258597e-17)
(78.537758 19.947754 0)
(92.597679 21.918114 0)
(101.16038 19.475603 7.1687678e-17)
(106.40759 16.388506 -2.8580283e-17)
(108.70829 12.538806 -2.4434182e-17)
(110.49661 9.2721046 6.5740861e-17)
(110.99676 6.6255594 6.0144263e-17)
(111.54722 3.3815699 0)
(111.31445 1.7091352 5.2351583e-17)
(76.978212 23.78238 0)
(92.959177 23.344121 -4.5846968e-17)
(101.72848 20.369395 0)
(107.44011 16.922288 2.8564963e-17)
(109.76959 12.773543 2.4421201e-17)
(111.47461 9.2672719 -6.5904048e-19)
(111.88425 6.468063 -3.870478e-17)
(112.15152 3.2993712 0)
(112.03744 1.7379331 -1.7092989e-17)
(77.015066 26.952913 -6.3777139e-17)
(92.452154 26.256028 4.5835769e-17)
(102.05971 22.446925 0)
(107.82836 18.583907 0)
(110.28335 14.072863 0)
(112.11165 10.25363 -4.0959836e-17)
(112.58932 7.2413085 6.3995377e-19)
(113.11003 3.7411872 0)
(112.90432 1.8146534 0)
(114.02322 1.8266929 0)
(113.70978 3.6630606 0)
(113.50081 6.9377163 -4.4633612e-19)
(113.13963 10.055366 2.1118083e-17)
(111.42213 14.024346 0)
(108.97583 18.847168 -3.4430921e-18)
(102.79703 23.27701 -5.978436e-19)
(93.495016 27.534209 -3.7132853e-17)
(75.328826 31.111668 1.1796073e-16)
(114.86156 1.806647 -7.443921e-18)
(114.78302 3.9751607 -1.0113899e-18)
(114.37838 7.6204549 9.2726263e-18)
(113.98474 10.913375 -2.7984074e-20)
(112.30434 15.110566 -9.2175362e-18)
(109.85495 20.298034 1.2354319e-17)
(104.01043 25.087811 -4.344226e-18)
(94.054066 30.594661 4.7777377e-17)
(77.610527 34.755617 -5.9571448e-17)
(115.81755 1.7849286 1.4718245e-17)
(115.48959 3.7831589 0)
(115.36014 7.1926006 1.6950143e-17)
(115.18889 10.634837 -8.9920436e-18)
(113.64022 15.069652 9.3448477e-18)
(111.36956 20.449655 -2.300084e-17)
(105.21106 26.00037 -1.9210129e-17)
(96.559973 31.32706 1.0443755e-17)
(81.002131 37.942261 1.4237004e-18)
(116.82471 1.7538206 -7.2725149e-18)
(116.54752 4.1293853 -9.4805589e-19)
(116.39143 7.8532851 -7.3679928e-18)
(116.11237 11.315408 1.0246881e-17)
(114.74609 15.821113 3.6473482e-18)
(112.69642 21.721161 1.2123794e-17)
(107.42377 27.586718 1.5257432e-17)
(98.226616 34.270041 5.5408888e-18)
(83.718821 41.220524 -6.3436968e-18)
(117.83669 1.7125629 1.6618697e-18)
(117.44636 3.8502451 -1.7782029e-18)
(117.38116 7.2915909 -9.842334e-19)
(117.56381 11.178238 3.1394297e-18)
(116.33915 15.886017 -3.7170059e-18)
(114.50727 22.000308 -4.0838537e-18)
(108.62765 28.369719 -3.9302545e-18)
(101.02431 34.665633 4.4372752e-18)
(84.823951 43.098292 -7.5333663e-18)
(118.84665 1.6529804 -1.6803268e-18)
(118.44746 4.1918905 1.7995864e-18)
(118.56085 7.8772756 -9.4144301e-19)
(118.4713 11.531131 -4.5581749e-20)
(117.54759 16.377189 -1.1293701e-18)
(115.96902 22.851135 2.7630666e-18)
(111.1381 29.665253 -3.7576216e-18)
(102.6722 37.636245 4.2528109e-18)
(86.868009 44.943557 0)
(119.84797 1.5761493 -1.5183645e-18)
(119.442 3.7909718 -8.3769317e-19)
(119.51958 7.1856164 -8.4393026e-19)
(120.07096 11.308835 -9.7534711e-19)
(119.26507 16.258437 -1.0005014e-18)
(118.07383 23.126574 2.6723738e-18)
(112.50608 30.275263 -6.546378e-18)
(105.56116 37.935633 9.1121625e-18)
(88.551027 45.324291 -5.8679539e-18)
(120.84002 1.4747458 4.4263097e-18)
(120.43696 4.165539 3.1142093e-18)
(120.77984 7.604182 4.2435315e-18)
(121.1057 11.495218 4.437543e-18)
(120.68454 16.450846 3.129889e-18)
(119.66764 23.63534 -1.1384861e-18)
(115.2739 31.410528 -3.3246762e-18)
(107.63563 40.953939 -1.0664751e-18)
(91.576682 46.408039 -6.6951101e-18)
(121.80823 1.3587575 -8.4140869e-18)
(121.43963 3.6137877 -3.1530216e-18)
(121.75236 6.8810646 -1.0437056e-17)
(122.59378 11.121079 -2.6947776e-18)
(122.38403 16.190706 6.144644e-18)
(121.93391 23.627495 3.3097667e-18)
(116.94245 31.54894 -1.5722167e-17)
(110.68359 41.05999 3.4945224e-18)
(93.452491 47.023636 1.2644699e-17)
(96.530532 49.021746 -1.1651694e-17)
(112.97112 44.020461 4.3126138e-18)
(120.05528 32.666097 2.1539295e-17)
(123.81372 23.908666 -2.9765058e-18)
(123.97046 16.017188 9.6011536e-19)
(123.78785 11.068511 4.4943804e-18)
(122.91665 7.0094267 7.1081766e-18)
(122.36212 3.9015922 -3.6463717e-19)
(122.73733 1.2192315 1.109459e-17)
(98.486833 50.168515 4.2677791e-17)
(116.1733 43.776301 2.8012739e-18)
(121.93289 32.241753 -2.6804864e-17)
(126.0997 23.518143 -8.4705896e-19)
(125.63699 15.452129 -5.7924432e-18)
(125.16794 10.467357 -5.4279593e-18)
(123.97077 6.2459071 -1.1772814e-17)
(123.35269 3.3363087 0)
(123.61861 1.0646984 -5.2671642e-18)
(102.02866 52.322171 -5.4177679e-17)
(119.06859 46.632621 2.5713044e-17)
(125.44299 32.919141 1.3497172e-17)
(128.23111 23.508341 -7.3814719e-19)
(127.23702 14.929565 1.0124909e-17)
(126.32367 10.149971 -5.8607831e-20)
(124.94373 6.1527749 2.205057e-18)
(124.17202 3.4489222 9.4495772e-18)
(124.4338 0.89412744 9.3555018e-18)
(104.22194 52.978304 -9.4132173e-18)
(122.48353 45.97993 4.1233911e-19)
(127.37644 31.845233 -1.6643428e-18)
(130.48285 22.667133 0)
(128.89232 14.097305 -1.0355989e-17)
(127.61872 9.4539027 0)
(125.94053 5.3025033 9.8612368e-18)
(125.03012 2.8832018 -1.9175183e-17)
(125.17272 0.715209 -5.7531705e-19)
(108.09586 54.665153 -3.2247245e-18)
(126.06656 48.63738 -1.4604911e-17)
(131.24994 31.816726 1.2122776e-18)
(132.61224 22.170046 0)
(130.40896 13.201224 -7.9902642e-18)
(128.63 8.7783938 8.362832e-18)
(126.76249 4.9988229 5.4884711e-19)
(125.7514 2.8438231 1.8758916e-17)
(125.82159 0.52744575 -9.0018297e-18)
(110.64506 54.736784 -3.2547061e-17)
(129.64402 47.397307 -4.53552e-18)
(133.23603 30.09388 -9.7440298e-20)
(134.76411 20.862229 -5.4043193e-19)
(131.82425 12.027651 9.7668197e-19)
(129.72328 7.9056428 -1.6321791e-17)
(127.58928 4.1010919 5.0433634e-19)
(126.42569 2.2669563 -9.1991931e-18)
(126.37256 0.33923504 0)
(115.00613 56.178868 2.2625067e-17)
(133.78855 49.520909 7.2413348e-18)
(137.23101 29.529876 5.7980662e-20)
(136.69381 19.863023 -2.0063178e-19)
(133.21427 10.787069 5.7787156e-18)
(130.54641 7.0217227 8.1237036e-18)
(128.19684 3.6074659 5.4887806e-19)
(126.95532 2.1353744 -5.0294921e-19)
(126.81915 0.15654969 0)
(118.05023 55.668112 0)
(137.62332 47.537536 4.8907633e-19)
(139.24322 27.06194 -4.1701487e-19)
(138.55272 17.942163 8.8921756e-19)
(134.34976 9.3067162 -1.4813281e-19)
(131.33291 5.9641023 1.195374e-17)
(128.81146 2.7302013 -1.475461e-17)
(127.43386 1.5677063 1.6157103e-17)
(127.16148 -0.008822068 1.5556095e-17)
(123.28049 56.833553 1.5532293e-17)
(142.1294 48.781563 -3.0769296e-17)
(143.18226 25.874801 1.0460499e-18)
(140.20828 16.575751 -7.372168e-19)
(135.41344 7.8814633 -3.047213e-19)
(131.87346 4.9596974 -1.236268e-17)
(129.15376 2.1045563 1.5923524e-17)
(127.724 1.3224507 -1.6847457e-17)
(127.39517 -0.1525135 -2.8306994e-19)
(127.53146 -0.2669233 -1.540407e-17)
(128.02612 0.85794571 1.5347817e-17)
(129.51304 1.3074734 0)
(132.32645 3.7851048 -4.4651235e-19)
(136.0908 6.0997298 3.9638095e-18)
(141.53985 13.865486 -7.5815523e-18)
(145.02479 22.492721 0)
(146.46516 45.69261 -1.5267683e-17)
(127.34375 55.968316 -1.515594e-17)
(127.57413 -0.33210211 0)
(128.04945 0.5192142 -1.5888778e-17)
(129.55799 0.58522153 0)
(132.44879 2.5677134 -3.9211194e-19)
(136.78374 4.3099327 -5.5703155e-18)
(142.73709 11.713293 8.857e-18)
(148.92217 19.877405 -3.1747778e-17)
(151.71648 45.25366 4.3314229e-17)
(135.46502 56.569725 -3.4406986e-17)
(127.54233 -0.36603457 0)
(128.10128 0.16480506 0)
(129.55321 -0.084162182 -1.4529256e-17)
(132.4608 1.4947779 0)
(136.81048 2.4256124 2.5058123e-18)
(143.18213 8.5000642 1.2085265e-17)
(150.08055 15.380003 2.8528006e-17)
(156.36998 40.027989 3.4139531e-18)
(141.17205 54.930573 -3.2626485e-17)
(127.44356 -0.35318909 0)
(127.99728 -0.099945066 0)
(129.31408 -0.6665668 1.4830456e-17)
(132.0929 0.3602761 1.0287523e-17)
(136.80248 0.79276854 2.9069636e-18)
(143.49212 6.2904391 -1.2771282e-17)
(152.86314 12.002057 0)
(160.72661 37.459255 -9.171158e-17)
(151.77247 54.210635 7.1715411e-17)
(127.31671 -0.26969827 2.7313142e-19)
(127.79382 -0.32674944 -2.9573616e-19)
(129.03194 -1.1253127 0)
(131.70203 -0.46900339 7.4758398e-19)
(136.2718 -1.049953 -4.8511381e-18)
(142.90869 2.999031 -3.4331915e-19)
(152.79516 6.9548606 -4.1873789e-17)
(163.86398 29.986959 1.0211456e-16)
(158.82258 51.431317 -1.802199e-16)
(127.20792 -0.10727968 -2.9169123e-19)
(127.5206 -0.44132421 3.1631292e-19)
(128.54517 -1.490854 0)
(131.00283 -1.2883051 -1.2418851e-17)
(135.75407 -2.2101133 3.2732264e-18)
(142.36796 1.2765586 2.8987503e-19)
(153.93285 3.5419619 4.3305729e-17)
(165.83635 24.949389 0)
(171.66808 48.961912 1.8202329e-16)
(127.15957 0.11151709 3.115924e-19)
(127.29583 -0.45796425 2.0651238e-17)
(128.18687 -1.6431359 -4.9147065e-19)
(130.32379 -1.8818869 1.4888318e-17)
(134.63918 -3.871446 6.7142217e-18)
(140.86536 -1.6224486 0)
(152.22005 -1.1194208 0)
(166.10921 14.534868 1.0946438e-16)
(178.04096 44.53295 0)
(127.18312 0.29954122 0)
(126.93908 -0.34003448 -2.1421936e-17)
(127.49762 -1.8235698 0)
(129.454 -2.3139993 -1.5996926e-17)
(133.70609 -4.4882252 -5.4552409e-18)
(139.80537 -2.6765206 -8.5847375e-18)
(151.7835 -3.907481 0)
(164.90691 8.4307564 -1.2648655e-16)
(188.80158 39.02397 3.8119918e-16)
(127.34176 0.42372596 0)
(126.8593 -0.11715448 0)
(127.10847 -1.6365544 -6.1695629e-19)
(128.61288 -2.5807687 -1.6449382e-19)
(132.2938 -5.8592257 9.543112e-19)
(138.03201 -5.0423927 8.8619061e-18)
(148.86432 -7.7657313 0)
(160.63673 -4.4182026 0)
(189.16908 20.234395 -3.8224075e-16)
(127.19708 0.65428733 -7.6111388e-19)
(126.49813 0.17473536 9.5921998e-20)
(126.4688 -1.3896845 2.512729e-17)
(127.72158 -2.6500834 0)
(131.21474 -5.9903262 0)
(137.27429 -5.556206 9.5235583e-19)
(148.78703 -8.1438085 2.9613241e-17)
(157.92233 -2.0056929 -1.3749081e-18)
(202.4341 24.832881 0)
(127.88054 0.69857912 -7.8320825e-19)
(126.58388 0.4450735 9.4301618e-20)
(126.23374 -1.0767009 -2.2690555e-17)
(126.54514 -2.5869723 0)
(129.94593 -6.464309 0)
(137.12566 -6.6642675 -1.001151e-18)
(149.88844 -8.6644265 -9.3961606e-17)
(162.87697 -0.63374135 1.6439599e-18)
(203.40621 21.145768 -7.9257159e-16)
(128.20371 1.3310726 0)
(126.36202 1.0451925 5.3139885e-17)
(125.61758 -0.72954032 0)
(126.1174 -2.8646399 9.9077233e-19)
(129.84716 -7.3603143 -1.0817013e-18)
(137.86182 -8.8234336 1.2063504e-18)
(151.9365 -11.42015 1.4047301e-16)
(169.12561 -3.9224786 -2.0748285e-18)
(192.47964 18.701679 7.4837021e-16)
(129.29558 1.2211541 5.4672758e-17)
(126.81125 1.4588662 -5.0610839e-17)
(125.59047 -0.30735669 5.152185e-17)
(125.23471 -2.7848125 4.4486321e-17)
(128.83376 -8.4250522 -2.4247541e-17)
(138.12325 -10.258596 -1.7220141e-17)
(154.03734 -13.048773 -7.7376943e-17)
(168.79057 -4.4892892 -2.4780571e-16)
(174.07439 23.364979 0)
(129.80514 1.8153487 -1.0984488e-16)
(126.6771 2.4067865 5.5300098e-17)
(125.06782 0.15227127 -4.983744e-17)
(124.61821 -2.8608935 3.2021808e-18)
(128.43594 -9.199317 2.3294937e-17)
(138.79157 -13.138455 -2.7650639e-18)
(154.54398 -16.78427 0)
(168.78026 -8.3102883 2.3868104e-16)
(146.24794 40.909399 0)
(131.37804 1.9885008 1.0971835e-16)
(127.48544 2.9847993 -5.279485e-17)
(125.2296 0.80857664 5.4970437e-17)
(123.44691 -2.3255385 -4.6147512e-17)
(126.94186 -10.392928 -8.2267662e-20)
(137.92431 -14.62086 1.9913977e-17)
(155.10507 -18.740048 -9.7728658e-17)
(166.41108 -9.1767508 -3.2678766e-16)
(110.94703 61.348734 5.3861343e-16)
(132.62634 2.69584 -5.548822e-17)
(127.40907 4.3532265 1.7246715e-18)
(124.61375 1.6080731 -5.2737671e-17)
(122.67728 -2.0717265 1.1381063e-18)
(126.05529 -10.802256 -1.2273974e-18)
(138.0741 -17.694947 2.1623893e-17)
(153.59973 -23.128753 2.0392772e-16)
(162.6121 -11.583262 3.0925487e-16)
(95.839085 59.755401 -5.1019103e-16)
(134.38377 2.5099208 -8.5173413e-19)
(128.5759 5.0145518 9.0371711e-19)
(125.00165 2.4980514 5.5851179e-17)
(121.25844 -1.0658612 5.2437549e-17)
(124.17287 -12.158073 -3.0417879e-17)
(136.69409 -19.298767 -4.0760226e-17)
(151.25346 -25.286025 -2.1903873e-16)
(156.14017 -12.029462 -3.6333612e-16)
(53.487764 54.551293 5.5864966e-16)
(136.05298 3.0450223 5.477324e-17)
(128.77435 6.8404954 -8.6088002e-19)
(124.43779 3.6787499 3.6633184e-18)
(120.62828 -0.52389427 -5.0841885e-17)
(122.96247 -12.004617 2.9226359e-17)
(136.23189 -22.607336 2.1486056e-17)
(147.49663 -31.116511 1.1292518e-16)
(141.47693 -18.137027 3.4560956e-16)
(-14.681144 -19.669694 -5.3205634e-16)
(-20.730966 -4.6582454 -8.9567016e-16)
(129.26029 -17.598818 -4.9127787e-18)
(143.7978 -33.077408 1.5244461e-18)
(132.85284 -23.992556 -1.300182e-18)
(120.91689 -13.114966 0)
(119.10449 1.010842 -1.0258086e-18)
(124.94327 4.8592108 -1.2169177e-16)
(130.61772 7.7181132 -6.393412e-17)
(138.27475 2.9526769 -1.0877752e-16)
(-19.990273 -3.6809005 8.6762027e-16)
(120.32124 -21.536913 0)
(141.6849 -38.547116 0)
(131.36925 -26.480994 2.3022136e-17)
(119.66907 -12.156848 0)
(119.08277 2.3114083 1.343171e-16)
(125.13045 6.4007361 1.9361169e-16)
(131.39846 9.5824017 6.0698228e-17)
(140.82251 3.7280384 -5.371641e-17)
(-27.035874 -0.49743413 5.6841902e-18)
(109.6906 -20.522885 -4.5803168e-18)
(137.09957 -38.975937 0)
(127.62542 -27.225424 -2.2517074e-17)
(117.12208 -12.569737 0)
(117.51795 4.2337665 -1.3305498e-16)
(125.90215 7.8982428 -1.2642669e-16)
(133.66953 10.54276 -1.4271565e-18)
(143.49688 3.5065323 1.0676765e-16)
(-28.405204 -0.061023208 1.6016564e-15)
(102.0349 -26.3724 -9.6324217e-16)
(134.21825 -43.986261 4.4707518e-18)
(125.22149 -29.682858 0)
(115.81802 -10.846031 1.1200217e-16)
(117.84679 5.9425362 0)
(126.39032 9.7061227 1.0606862e-18)
(135.07792 12.555032 -1.4337052e-18)
(145.75497 3.483975 4.2897873e-19)
(-28.335027 7.371563 -1.5400763e-15)
(92.297471 -25.14992 -1.0350437e-17)
(129.05194 -44.103711 3.2341656e-16)
(120.89114 -30.192431 -1.0811898e-18)
(112.79511 -10.839671 1.1349918e-17)
(116.2291 8.4611509 0)
(127.61018 11.508897 1.3643092e-16)
(137.75711 13.33174 0)
(148.78533 3.297472 0)
(-25.820465 11.682662 5.0655329e-18)
(85.661164 -30.830571 9.0090975e-16)
(125.77324 -49.233769 -6.1927042e-16)
(118.32062 -32.26006 -2.2911059e-17)
(111.62645 -8.4822529 -1.1907849e-16)
(117.30766 10.549359 -1.5843697e-16)
(128.63037 13.382069 -1.3226939e-16)
(139.68191 15.259797 -1.4205372e-18)
(151.74125 3.4707968 9.3425114e-17)