/*--------------------------------*- C++ -*----------------------------------*\
  =========                 |
  \\      /  F ield         | OpenFOAM: The Open Source CFD Toolbox
   \\    /   O peration     | Website:  https://openfoam.org
    \\  /    A nd           | Version:  11
     \\/     M anipulation  |
\*---------------------------------------------------------------------------*/
FoamFile
{
    format      ascii;
    class       volScalarField;
    location    "0.17";
    object      p;
}
// * * * * * * * * * * * * * * * * * * * * * * * * * * * * * * * * * * * * * //

dimensions      [0 2 -2 0 0 0 0];

internalField   nonuniform List<scalar> 
880
(
79.99999999999999
80.00000000180805
80.00020397749086
80.10410887021929
80.00000000000001
80.00000000693153
80.00050641316105
80.28571285078723
80.00000000000652
80.00000009916133
80.00168732775501
80.73763346446643
79.99999999998893
79.99999992695069
80.00578451582342
81.59707087019574
79.99999999986488
80.00000000069394
80.00000003301649
80.00000370646022
80.00000005723179
80.00000060375658
80.000038066854
80.00010381581313
80.02364135669087
80.04389299718284
80.10836836120023
80.03027429512066
83.90161306354372
86.42423991407985
88.25998571547964
89.17330547930258
80.00002558917092
80.00015239240584
80.00115933477883
80.00109063402546
80.00136056053856
80.00360481802926
80.0087841133904
80.01362216132206
80.29901760080365
80.51101814469834
80.78454204430204
81.08161665394196
90.25572417037726
91.79034926828261
93.0828805514785
93.54173403138127
89.7480202165265
87.72425747213975
87.13665123747194
86.56552908335563
82.11299882467698
82.58576900806109
82.97890915090944
83.14606766241359
80.05198154392158
80.1108990902358
80.17531258466727
80.23850781456943
80.00392447666299
80.01096567627806
80.02235898403625
80.02977673808468
80.03078567667959
80.02645392194621
80.01951420313735
80.01164701348624
80.28261103316427
80.27611924434218
80.24600523820033
80.19949711948775
83.15385195209815
82.9183632960893
82.59790453805338
82.20289336662539
86.24921513407979
86.04446090695393
85.60508794943884
85.01302376232438
84.37035367359516
81.7768344766975
80.14064034252984
80.00536184415145
83.44257718824767
81.27089740677248
80.07985941090953
80.00165432532752
84.87185537497379
80.70455195256578
80.02495442732739
80.00000003653234
98.43751165339184
80.72042650873104
80.00798555955421
80.00021033863074
80.00056015140979
80.01484998870657
82.11560625700362
126.5867668081092
80.00224622090279
80.04669342324331
83.78722530755647
131.522593942481
80.00651564864408
80.10723081095499
86.36668337769663
138.1808784671261
80.01712194419395
80.25100087409105
89.88919585879127
143.731435529667
149.0121741439057
94.19264527590063
80.46812743138307
80.03565082272974
153.5229305661877
99.43504389030285
80.86714966853216
80.07012259127083
157.0637709977253
105.4489534869462
81.42276388741568
80.11631812294533
157.3651640073548
111.7902976389689
82.37223063742702
80.19946945271109
80.31091168635176
83.56785459837366
117.1868838159555
154.6739016004886
80.43787628201071
83.92861154426046
111.7469530659629
141.9019652878519
80.56551205042805
82.95085625575598
102.4556246977971
125.927657177002
80.16982864839228
81.6499973396628
92.26931886972413
105.4338740014346
80.38023586496915
82.22350610965196
87.14792401316124
81.04881677500028
80.34369369142655
81.22649822471899
81.79891615701391
59.13004015413279
80.14183918083252
80.6525601800581
79.57035746721824
47.82448279923573
80.01342186231521
80.28878607678543
77.28167940335018
45.61051934541837
45.02464055529744
75.70724813747442
79.84510016518594
79.98599168919479
44.80502874700283
74.56612952338854
79.56024417838606
79.97948133303093
45.31451209304063
73.86827060376309
79.44545829204181
79.9817205065436
42.9224077441217
72.44750374900779
79.36545456726205
79.98694946839584
46.30525254385173
72.98984094155708
79.53822744717111
79.99306694752245
48.82659067713144
74.48922669414084
79.75930153894348
79.99751427089025
50.27434316273638
75.782582018672
79.87459201808802
79.99903285770701
54.21717024761829
77.62931094163287
79.96847990087808
79.9996572215377
69.28392414567735
77.90195323801724
79.8369447158239
79.99651660578924
67.72612714214929
77.82656435662177
79.85146361080066
79.99696603815352
64.372094595493
77.67032355496761
79.86641455877415
79.99745130886035
60.68607290836823
77.43878712461519
79.87879905090929
79.99797400096219
54.21717024759634
77.62931094158964
79.96847990092654
79.99965722138873
50.27434316274953
75.78258201861519
79.87459201800255
79.99903285761431
48.82659067710148
74.48922669407646
79.7593015388417
79.99751427081206
46.30525254383519
72.98984094148101
79.53822744718875
79.99306694751768
79.98599168925459
79.84510016523703
75.70724813747073
45.0246405550709
79.97948133303017
79.56024417839819
74.56612952337093
44.80502874686662
79.98172050656429
79.44545829206362
73.86827060362171
45.31451209290159
79.9869494684098
79.36545456738499
72.44750374895094
42.9224077440814
45.61051934522665
77.28167940331276
80.2887860767428
80.01342186236218
47.82448279912195
79.57035746718272
80.65256018006498
80.14183918083577
59.13004015397495
81.79891615700234
81.22649822472418
80.34369369148952
81.04881677496849
87.14792401305722
82.22350610943599
80.38023586508025
80.31091168624704
83.56785459879448
117.1868838165051
154.6739016005512
80.43787628197346
83.92861154421794
111.7469530662527
141.9019652879005
80.56551205027824
82.95085625581673
102.4556246977829
125.9276571769388
80.16982864841464
81.64999733940428
92.26931886971931
105.4338740014061
157.3651640074254
111.79029763918
82.37223063712038
80.19946945303695
157.0637709979467
105.4489534870122
81.42276388737591
80.11631812287402
153.5229305663051
99.43504389083887
80.86714966929222
80.07012259133245
149.0121741438616
94.19264527562865
80.46812743093358
80.03565082276442
80.00056015142729
80.0148499886994
82.11560625689928
126.5867668080245
80.00224622105915
80.04669342335148
83.78722530751631
131.5225939424227
80.00651564884113
80.1072308110287
86.36668337776543
138.1808784670679
80.01712194418255
80.25100087439864
89.88919585891904
143.7314355297158
80.00021033863499
80.00000003651184
80.00165432542781
80.00536184415104
80.00798555938124
80.02495442725309
80.07985941086653
80.14064034249797
80.7204265086627
80.70455195259936
81.2708974067105
81.77683447663711
98.43751165332351
84.87185537498603
83.44257718826601
84.37035367358638
80.01164701352312
80.19949711954341
82.2028933666862
85.01302376237039
80.0195142030902
80.24600523827694
82.59790453811028
85.6050879494684
80.02645392194549
80.27611924438057
82.91836329602049
86.04446090677295
80.03078567663628
80.28261103318046
83.15385195212356
86.2492151340947
80.00392447697442
80.05198154327587
82.11299882489948
89.74802021655728
80.01096567637094
80.11089908997732
82.5857690082272
87.72425747212748
80.02235898415236
80.17531258466077
82.97890915086562
87.136651237378
80.0297767380688
80.23850781472333
83.14606766242798
86.56552908323441
93.54173403138118
81.08161665398362
80.01362216105213
80.00109063583859
93.08288055144696
80.78454204442201
80.00878411410021
80.00115933306883
91.79034926829601
80.51101814477755
80.00360481946099
80.00015238955042
90.25572417032846
80.29901760079888
80.00136056017747
80.000025590023
89.17330547925584
80.03027429514312
80.00010381571126
80.00000370633448
88.25998571545247
80.10836836121558
80.00003806691265
80.0000000330145
86.42423991405907
80.04389299716343
80.0000006037061
80.0000000006789
83.90161306352589
80.02364135663133
80.00000005718174
79.9999999999342
79.99999999999999
80.00000000180647
80.00020397751307
80.10410887015965
80
80.00000000688622
80.00050641315757
80.28571285080274
80.00000000001552
80.00000009909533
80.0016873277348
80.73763346447851
79.99999999997256
79.99999992690663
80.00578451578696
81.59707087014137
80.26453665929634
80.66316542479881
81.58153935728654
84.64190592381834
80.66316542479359
81.26707523137422
83.3624852856065
89.013184512824
81.58153935725331
83.36248528558752
88.07444148044544
96.59234721236287
84.64190592383635
89.01318451288284
96.59234721245464
107.5095246106706
119.5029865249644
109.7021563698677
105.1463212154143
96.878714008031
116.8233553186195
114.18477247677
114.1789248039305
109.6015683738951
117.1789765799
116.2647725785371
116.0084184822773
113.9986869068552
116.8942267764741
116.3163702937967
116.148486257703
114.7474708584654
113.8873116095924
113.6005775447443
112.9497015413346
110.8514019162538
114.8070774593796
113.8482049039167
113.1041169263312
111.0098646789954
114.9151261368112
113.9547547474566
113.2719532693142
111.2723577206307
115.2300130289883
114.0513622776874
113.3458799130337
108.5454087840573
86.16606224559932
76.59686837267039
77.0755113232246
78.23731991616718
78.60027893349549
73.69535280949576
76.49803716971496
77.93863747643887
71.77913152111579
73.69963511458994
77.12825622004496
78.51935205639573
62.28876648020064
71.47852455988766
76.18096741737097
77.69085063987653
79.18944889288645
80.20815944508891
81.06433425440994
81.55326901380178
78.96420350222765
79.98457494637091
80.8778978538753
81.45589284476992
79.28294554560443
80.04515629852601
80.71242023752907
81.31454002386823
78.72201249283985
79.82461176416341
80.84081676268208
81.39845869006625
81.63474862711752
82.04640318149288
101.8971816589587
139.3087681882953
81.58702467675691
82.18749708472197
108.6811638424358
140.2468579744035
81.52351065886957
82.52169547833945
112.2752969824935
139.2048305492729
81.68460281734163
82.82559327381293
116.2312910326139
142.156723988933
192.1168960345622
184.5728121344365
180.2183468024409
176.4453965305689
194.5431299902856
187.0960423303262
181.3305456112579
176.8801248894039
193.4462693977673
188.4422799509107
182.1915835057836
177.4128874743196
191.8670605049201
189.8392611064476
183.5437351837527
177.9532138000616
176.0278727553194
174.94674592415
173.686436482048
176.1718743606119
176.1841439840444
174.792813852198
173.0444413789263
176.2616354954767
176.0950434960437
174.4282553549083
172.7765288546458
175.9066224282851
176.471101561602
174.6249909587338
173.0580848802894
175.9759273929813
173.4207428786498
158.2738613129777
141.3675743670518
118.4306021802247
175.9907810967743
162.3631172038799
144.0164195407508
126.9941234864297
177.5022787731816
166.4734143872613
147.4980972400327
134.2610058718555
178.0402936078858
170.0355325496825
153.2523591116694
151.5975566666426
72.97461859840432
17.28557751866694
5.310814609477308
7.306300369105919
57.28968022826216
11.48036258375352
5.402299870273721
7.030921338033154
39.54076299169682
7.099285388308939
5.65877382043371
7.760901161830087
22.46250366656168
4.429420320956467
6.115842146770364
7.926646541723548
11.14465526639672
14.52978799630336
18.01882983921897
18.85684808961001
11.00310873967439
14.83219450592866
18.3132854807015
19.5449045050327
11.49957732089853
15.18227672718262
18.25110169813213
20.86482540977613
11.77272316950107
15.71581493319042
19.08939276557874
22.61562217134043
28.22504306542141
29.77089446103017
30.37533270995511
32.27255290087943
28.69416278463175
31.4232072892607
31.30773893354308
33.57098405017572
27.88114332654435
31.93089768076148
31.91117362607978
33.38387991320877
25.99793169945996
31.66063979597161
32.47929171190328
35.93108440285377
26.06279679076057
24.21101834469189
26.37594238981942
27.80903770029067
25.31531221643129
22.19156093550483
21.14543620290675
21.27835391651447
22.32741758169083
21.9246340319804
21.94564858351567
21.62830303264129
17.38209061833034
20.04194446910767
20.81327721293896
20.4357572915738
19.89226465592789
19.4687723700712
19.38975772242587
19.36600882333502
20.51738597646741
19.45440989949324
19.08466424675582
19.07239273725087
20.69079215998449
20.39929429967284
20.04066522787657
19.75475059843124
25.78728083977787
24.31420486596002
23.19590148309365
22.63779203742425
19.36600882333531
19.07239273725355
19.7547505984292
22.63779203742485
19.38975772242573
19.08466424675507
20.04066522787632
23.19590148309807
19.46877237007106
19.45440989949244
20.3992942996731
24.31420486596739
19.89226465592687
20.51738597646374
20.69079215998679
25.78728083978472
27.80903770029921
26.37594238985163
24.21101834472018
26.06279679077678
21.27835391652255
21.14543620291948
22.19156093550335
25.31531221642151
21.62830303263926
21.94564858351331
21.92463403198354
22.32741758169215
20.43575729157499
20.81327721294083
20.04194446910807
17.38209061832855
35.93108440284905
32.47929171191431
31.66063979599053
25.99793169950891
33.38387991320351
31.91117362608734
31.93089768077486
27.88114332658579
33.57098405016788
31.30773893354541
31.42320728926962
28.69416278466106
32.27255290087413
30.37533270995732
29.77089446102106
28.22504306542599
18.85684808967678
18.01882983925614
14.5297879963133
11.14465526637975
19.54490450510618
18.31328548075127
14.83219450596034
11.00310873967578
20.86482540984212
18.25110169817831
15.18227672721457
11.49957732090012
22.61562217140327
19.08939276563166
15.71581493323313
11.77272316950872
7.306300369099313
5.310814609459503
17.28557751852916
72.97461859830963
7.030921338032574
5.402299870262969
11.48036258371495
57.28968022818196
7.760901161825695
5.658773820423146
7.099285388303032
39.54076299167875
7.926646541722342
6.11584214675972
4.429420320948656
22.46250366656373
118.4306021801214
141.3675743670024
158.273861312927
173.4207428786073
126.994123486366
144.0164195407241
162.3631172038676
175.9907810967751
134.2610058718254
147.4980972400127
166.4734143872437
177.5022787732173
151.5975566666264
153.252359111695
170.0355325497144
178.0402936079473
176.1718743605329
173.686436482147
174.9467459240595
176.0278727555917
176.2616354954942
173.0444413790749
174.7928138521578
176.1841439842698
175.9066224284057
172.776528854781
174.4282553549367
176.0950434962141
175.975927393166
173.0580848804496
174.6249909587878
176.4711015617431
176.4453965304945
180.2183468023523
184.5728121343108
192.1168960344112
176.8801248892958
181.3305456111956
187.0960423302033
194.5431299901038
177.4128874741665
182.1915835057326
188.4422799507854
193.4462693975957
177.9532137998854
183.543735183724
189.8392611062954
191.8670605047423
139.3087681881902
101.8971816588858
82.04640318153865
81.63474862715739
140.246857974283
108.6811638423352
82.18749708475352
81.58702467679653
139.2048305492173
112.2752969823828
82.52169547836496
81.52351065889425
142.1567239888372
116.2312910324835
82.82559327383322
81.6846028173898
81.55326901389587
81.0643342543927
80.20815944495332
79.18944889291899
81.45589284486951
80.87789785384571
79.98457494621528
78.9642035022714
81.3145400239752
80.7124202375177
80.04515629838502
79.28294554566347
81.39845869016918
80.84081676264383
79.82461176401776
78.72201249289269
78.23731991607606
77.07551132315996
76.59686837267282
86.16606224565943
77.93863747632953
76.49803716966647
73.69535280952735
78.6002789335414
78.51935205627426
77.1282562199962
73.69963511465301
71.77913152115387
77.69085063975784
76.18096741731128
71.47852455998107
62.28876648024868
110.8514019163054
112.949701541202
113.6005775447554
113.8873116095565
111.009864678985
113.104116926246
113.8482049039767
114.8070774593536
111.2723577205794
113.2719532692294
113.9547547475071
114.9151261367867
108.5454087839944
113.3458799129746
114.0513622777551
115.2300130289565
114.7474708582895
113.9986869068028
109.601568373917
96.87871400809192
116.1484862575289
116.0084184822469
114.1789248039237
105.1463212154145
116.3163702936079
116.264772578465
114.1847724767589
109.7021563698153
116.8942267763015
117.1789765798431
116.8233553185568
119.502986524898
55.82141768556073
77.58900514348537
79.92204833968704
79.99930276331442
55.28989307289949
77.13082110830611
79.89765085869603
79.99895378294551
56.95943289539711
77.12084882443149
79.89261304651122
79.99876475308473
58.0937527136791
77.20883688078641
79.88654108290795
79.99844736252673
79.9965166058777
79.83694471572259
77.90195323801612
69.28392414570946
79.9969660381408
79.85146361075223
77.82656435662629
67.72612714218178
79.99745130892076
79.86641455871819
77.67032355495245
64.37209459549472
79.99797400096487
79.87879905088985
77.43878712461327
60.68607290833511
79.99844736246186
79.99876475309328
79.99895378297101
79.99930276323185
79.88654108284682
79.89261304647954
79.89765085864499
79.92204833965748
77.20883688079284
77.12084882439247
77.13082110834566
77.58900514349499
58.09375271364708
56.95943289534267
55.28989307285912
55.82141768551441
)
;

boundaryField
{
    back
    {
        type            empty;
    }
    inlet
    {
        type            zeroGradient;
    }
    front
    {
        type            empty;
    }
    top
    {
        type            zeroGradient;
    }
    outlet
    {
        type            fixedValue;
        value           uniform 80;
    }
    bottom
    {
        type            zeroGradient;
    }
    wall
    {
        type            zeroGradient;
    }
}


// ************************************************************************* //
