/*--------------------------------*- C++ -*----------------------------------*\
  =========                 |
  \\      /  F ield         | OpenFOAM: The Open Source CFD Toolbox
   \\    /   O peration     | Website:  https://openfoam.org
    \\  /    A nd           | Version:  11
     \\/     M anipulation  |
\*---------------------------------------------------------------------------*/
FoamFile
{
    format      ascii;
    class       volScalarField;
    location    "0.7";
    object      p;
}
// * * * * * * * * * * * * * * * * * * * * * * * * * * * * * * * * * * * * * //

dimensions      [0 2 -2 0 0 0 0];

internalField   nonuniform List<scalar> 
5472
(
101.11111
99.140744
97.178698
95.242312
93.312609
91.451973
89.624421
87.870339
86.201261
84.608716
83.117712
81.721
80.448783
79.285591
78.248979
77.316087
76.455952
75.713861
75.068073
101.46942
99.634699
97.812041
95.979766
94.147104
92.362795
90.584224
88.876879
87.228715
85.65133
84.163865
82.759014
81.474102
80.266531
79.179829
78.179022
77.280786
76.511834
75.814535
101.7842
100.09727
98.400039
96.667426
94.948266
93.237718
91.518882
89.863701
88.238002
86.678542
85.186708
83.76929
82.456677
81.21451
80.096951
79.044555
78.125067
77.306408
76.561246
102.03843
100.49654
98.914135
97.300071
95.689046
94.046862
92.405656
90.803264
89.207366
87.677124
86.176461
84.757
83.415961
82.155715
81.004478
79.919265
78.977402
78.093127
77.316593
102.23115
100.81004
99.347966
97.862231
96.340714
94.777841
93.222261
91.665198
90.116376
88.605056
87.111886
85.710326
84.350798
83.090766
81.89543
80.796493
79.809919
78.881688
78.075114
102.36475
101.05745
99.720502
98.349074
96.924085
95.467953
93.986378
92.47744
90.985637
89.496351
88.031564
86.627464
85.260097
84.002014
82.785789
81.67483
80.632885
79.688923
78.836004
102.46618
101.26223
100.02006
98.742528
97.427643
96.074597
94.664381
93.230428
91.788016
90.334953
88.903765
87.499501
86.143725
84.862247
83.636193
82.512288
81.450061
80.489084
79.590154
102.50399
101.41891
100.27965
99.094599
97.87784
96.601293
95.282184
93.930018
92.532072
91.125272
89.719086
88.343766
87.005283
85.719884
84.497434
83.346416
82.270625
81.280079
80.354258
102.49407
101.51111
100.47588
99.392873
98.253836
97.067214
95.840313
94.556472
93.224173
91.861774
90.492672
89.141874
87.811055
86.535862
85.313228
84.156671
83.069015
82.059645
81.117837
102.46553
101.56566
100.62791
99.634834
98.58543
97.49064
96.334939
95.117092
93.856262
92.554725
91.231412
89.908131
88.599834
87.330886
86.106541
84.947051
83.848849
82.827131
81.866512
102.41652
101.59514
100.73711
99.829803
98.874329
97.857014
96.76848
95.619673
94.420144
93.170743
91.896392
90.616357
89.342258
88.094331
86.88414
85.722527
84.620555
83.58723
82.615743
102.33776
101.59519
100.81641
99.992855
99.118174
98.175837
97.161936
96.088857
94.954248
93.758233
92.534926
91.284048
90.033722
88.804528
87.614602
86.46205
85.365142
84.326545
83.352601
102.24069
101.57941
100.87565
100.11719
99.31193
98.439663
97.500678
96.491317
95.413139
94.286201
93.123426
91.918029
90.710347
89.507091
88.324486
87.183461
86.095258
85.055006
84.080052
102.14831
101.54519
100.91501
100.23105
99.486884
98.674911
97.803801
96.855659
95.83594
94.765413
93.648707
92.488474
91.325517
90.150995
88.99748
87.87764
86.800886
85.769687
84.800551
102.07556
101.5154
100.94008
100.31929
99.630311
98.874532
98.064751
97.175904
96.225118
95.215773
94.147009
93.038644
91.911672
90.763722
89.638734
88.536217
87.471191
86.456991
85.502036
101.9941
101.49616
100.97024
100.39958
99.767181
99.068691
98.298485
97.459437
96.56501
95.605001
94.58914
93.537408
92.457495
91.349341
90.253125
89.171775
88.128531
87.131244
86.18729
101.91235
101.45903
100.98226
100.45441
99.868153
99.224114
98.511998
97.732961
96.891852
95.977311
95.006676
93.993386
92.941789
91.88365
90.82201
89.768751
88.750216
87.774128
86.854325
101.87574
101.46955
101.02486
100.53472
99.981309
99.366835
98.693845
97.962989
97.168452
96.309482
95.400125
94.433308
93.424053
92.39646
91.359496
90.337467
89.339589
88.384556
87.485785
101.81811
101.45014
101.05256
100.6061
100.09427
99.521319
98.887764
98.194272
97.432473
96.614077
95.743371
94.816973
93.856818
92.868157
91.866215
90.872416
89.90037
88.973124
88.093639
101.83003
101.48293
101.09809
100.67839
100.19803
99.660644
99.069774
98.409171
97.688319
96.91377
96.074172
95.179893
94.252047
93.298462
92.331107
91.363374
90.416827
89.515883
88.663443
101.82268
101.51666
101.16684
100.76913
100.32126
99.814369
99.248257
98.624448
97.935787
97.192081
96.39509
95.53777
94.633611
93.709863
92.767703
91.82185
90.898388
90.01929
89.19047
101.85924
101.5716
101.23994
100.86726
100.44752
99.964264
99.42679
98.837235
98.173068
97.454667
96.680669
95.847109
94.985532
94.085227
93.16185
92.235553
91.326064
90.467765
89.660314
101.86507
101.63534
101.34498
100.99443
100.60228
100.14732
99.63521
99.073665
98.427596
97.735922
96.99129
96.183125
95.336186
94.458033
93.565046
92.643795
91.751367
90.918214
90.124379
101.92527
101.71292
101.45258
101.12895
100.76399
100.33747
99.842404
99.292958
98.672854
97.979926
97.226453
96.430313
95.5865
94.714404
93.834346
92.925004
92.043383
91.226565
90.447547
102.00593
101.82356
101.58842
101.29882
100.96256
100.574
100.12506
99.61325
99.04589
98.403918
97.695385
96.914495
96.050663
95.164824
94.255807
93.317759
92.434077
91.601212
90.816431
102.0572
101.92732
101.72684
101.46308
101.14521
100.7593
100.30041
99.771088
99.173871
98.508297
97.775677
97.011002
96.160612
95.281067
94.39091
93.456498
92.571995
91.745258
90.968008
102.09233
102.04315
101.93647
101.76135
101.52495
101.22486
100.85336
100.39989
99.862895
99.246319
98.547161
97.729307
96.830095
95.866137
94.867861
93.873258
92.92005
92.036565
91.198273
74.503393
74.005131
73.543362
73.112694
72.697031
72.277144
71.814014
71.280314
70.60488
69.762267
68.732029
67.469218
65.965349
64.129836
61.96071
59.344513
56.274381
52.605828
48.320669
75.189925
74.629688
74.116841
73.629443
73.149251
72.662775
72.126405
71.494098
70.721043
69.745424
68.587052
67.183369
65.572777
63.642106
61.445304
58.879998
55.909264
52.565588
48.686136
75.875364
75.233691
74.653331
74.093067
73.539712
72.965975
72.33951
71.594944
70.702304
69.616011
68.336897
66.834112
65.1133
63.176925
60.984248
58.563477
55.855104
52.900921
49.69952
76.558237
75.855718
75.199621
74.568234
73.933087
73.284708
72.562598
71.729515
70.732751
69.589493
68.245548
66.748334
65.041117
63.212574
61.22209
59.093645
56.908248
54.644776
52.42058
77.244344
76.479333
75.738169
75.048671
74.347634
73.635679
72.839754
71.94338
70.907279
69.744889
68.42927
66.999221
65.480249
63.890452
62.32017
60.765107
59.356781
58.121576
57.138448
77.961875
77.107766
76.296824
75.54213
74.796257
74.023938
73.188194
72.256899
71.252821
70.115817
68.941368
67.678082
66.481657
65.324524
64.331754
63.552543
63.058451
62.891613
63.118954
78.674614
77.732472
76.876963
76.064472
75.291461
74.474028
73.629807
72.712125
71.775162
70.745936
69.772943
68.819678
68.03041
67.429871
67.103121
67.099239
67.479853
68.253805
69.433786
79.38651
78.368789
77.472194
76.620862
75.823573
74.990022
74.167388
73.317098
72.482582
71.657908
70.949526
70.391142
70.075337
70.050336
70.380047
71.080802
72.18839
73.683709
75.526308
80.09934
79.031554
78.094062
77.209895
76.39169
75.578951
74.814276
74.077484
73.408317
72.844409
72.464735
72.331625
72.509024
73.028281
73.924667
75.197377
76.840475
78.811089
81.012231
80.808309
79.706768
78.733253
77.836167
77.024717
76.269984
75.596643
75.010806
74.556162
74.285314
74.26627
74.554773
75.186713
76.175929
77.528262
79.221737
81.197552
83.381957
85.614231
81.527494
80.390755
79.393527
78.504445
77.727178
77.054701
76.505897
76.105972
75.896476
75.936512
76.271034
76.943
77.963087
79.330591
81.011703
82.952417
85.058325
87.218846
89.271284
82.23826
81.08736
80.087176
79.224161
78.508322
77.932546
77.527537
77.329396
77.379713
77.721275
78.389231
79.399448
80.734537
82.375296
84.237952
86.244636
88.27122
90.236021
92.017326
82.943699
81.799134
80.80637
79.989429
79.341248
78.889866
78.64854
78.667825
78.977624
79.598073
80.549352
81.835965
83.39861
85.195981
87.099816
89.037923
90.888619
92.610214
94.110977
83.65617
82.514706
81.541772
80.787954
80.221536
79.906925
79.838256
80.076469
80.624308
81.504911
82.694548
84.179821
85.859673
87.669938
89.485992
91.250565
92.86903
94.31533
95.541609
84.369204
83.23238
82.301416
81.604317
81.146105
80.976773
81.085427
81.529914
82.294002
83.394036
84.768577
86.369687
88.07882
89.82119
91.491199
93.041045
94.429641
95.642391
96.641014
85.062367
83.940112
83.061671
82.433932
82.098296
82.068409
82.352125
82.989085
83.940018
85.189125
86.659154
88.281504
89.930874
91.541405
93.034681
94.387237
95.564495
96.554887
97.33602
85.749554
84.652148
83.814895
83.275648
83.070415
83.170688
83.626754
84.439071
85.557608
86.928065
88.451785
90.027012
91.569745
93.025729
94.333782
95.485714
96.458642
97.239594
97.838475
86.404112
85.33761
84.562897
84.126271
84.02051
84.249495
84.865456
85.805678
87.018607
88.398675
89.8813
91.384208
92.834189
94.159464
95.320169
96.285825
97.055171
97.666008
98.140649
87.031722
85.998981
85.296028
84.958771
84.966485
85.337891
86.080811
87.135247
88.43272
89.855835
91.342342
92.769817
94.074494
95.187422
96.11736
96.894012
97.524053
98.003096
98.361784
87.625637
86.6354
86.000274
85.728685
85.829051
86.33141
87.196005
88.318397
89.601445
90.977919
92.378671
93.674842
94.832939
95.836763
96.68508
97.349931
97.873334
98.274349
98.573677
88.183761
87.250618
86.687683
86.521204
86.738544
87.317707
88.258545
89.46085
90.814139
92.221962
93.552033
94.727215
95.718856
96.532039
97.2121
97.771553
98.199752
98.519707
98.729727
88.671591
87.767827
87.246187
87.153692
87.462204
88.159364
89.195976
90.421139
91.719623
92.996105
94.17063
95.209627
96.141052
96.951216
97.614829
98.095071
98.439469
98.707876
98.918392
89.157556
88.307687
87.880834
87.862867
88.255655
89.055498
90.161105
91.422765
92.738311
93.997483
95.137393
96.139567
96.975539
97.616443
98.063882
98.374395
98.604354
98.812943
98.986906
89.487819
88.655152
88.263681
88.323835
88.798996
89.677183
90.837337
92.100453
93.348797
94.517205
95.58
96.514309
97.247386
97.78081
98.160097
98.493591
98.815326
99.096387
99.372221
89.853219
89.062275
88.769055
88.911453
89.529871
90.570094
91.819281
93.108068
94.352835
95.518934
96.518515
97.296565
97.846663
98.232996
98.605897
98.942646
99.165663
99.280394
99.312396
90.009484
89.239793
88.947116
89.1266
89.782692
90.880609
92.187553
93.491579
94.72709
95.817526
96.75986
97.476717
97.963389
98.412428
98.810338
99.06582
99.207829
99.336138
99.452622
90.167937
89.37835
89.170827
89.594588
90.603737
91.988912
93.383211
94.686203
95.966979
96.962246
97.681206
98.232877
98.662106
99.018987
99.231873
99.337552
99.395186
99.415499
99.406673
43.350017
37.376544
30.518171
22.647991
13.914821
5.0504334
-3.751116
-11.624089
-18.263467
-23.645825
-26.925073
-27.943527
-26.69585
-23.131996
-17.759622
-12.443652
-7.4346644
-3.6162369
-1.1677353
44.303216
39.0987
33.092023
26.381768
18.865127
11.071517
3.3423195
-3.6644018
-9.2095453
-13.262778
-15.312544
-15.04756
-12.69348
-9.1899657
-4.4873549
0.317813
5.371667
9.5842405
12.129442
46.099175
41.913553
37.12202
31.773684
25.826654
19.528525
13.265301
7.5051467
3.1005958
0.22189854
-0.95686297
-0.34202796
1.94878
5.9132013
11.118246
16.902988
22.842585
27.789322
30.712469
49.905974
46.886259
43.440709
39.633597
35.483234
31.151273
26.876989
22.993704
19.98055
18.090044
17.678897
18.990315
21.959429
26.638988
32.371399
38.791837
44.556571
49.223833
51.72367
55.99306
54.217854
52.042894
49.785691
47.512357
45.298844
43.279954
41.507973
40.333193
40.033437
40.889473
43.131196
46.801263
51.501974
57.067276
62.754603
68.377409
72.210525
74.30822
63.285554
62.638613
61.511266
60.494944
59.720173
59.144076
58.864933
58.971393
59.544061
60.728602
62.62512
65.462501
69.451583
74.39643
79.721585
85.054387
89.484114
92.875035
94.589555
70.587657
70.785489
70.46667
70.382341
70.640184
71.196298
72.061232
73.328354
74.990581
77.238595
80.158562
83.523502
87.429767
91.958689
96.635148
101.22749
105.15481
107.99025
109.39946
77.294566
78.024556
78.266001
78.758403
79.589235
80.762591
82.264523
84.136372
86.420169
89.049372
92.137541
95.791406
99.730275
103.96831
108.44436
112.53256
116.14954
118.59111
119.87055
83.085914
84.005438
84.48827
85.26729
86.387342
87.823218
89.564583
91.573373
93.907778
96.532512
99.482982
102.83603
106.43975
110.24888
114.17697
117.74976
120.71406
122.87579
123.84053
87.610301
88.564145
89.171608
90.070213
91.280068
92.754616
94.470665
96.39002
98.524127
100.88577
103.50358
106.34446
109.36066
112.53918
115.76041
118.70209
121.14433
122.85987
123.65124
91.027748
91.98171
92.67053
93.581452
94.749215
96.117481
97.656747
99.355754
101.17552
103.17917
105.35604
107.61848
110.00116
112.47811
114.94361
117.20973
119.09762
120.41689
121.00178
93.508349
94.418222
95.118566
95.964402
97.02388
98.231526
99.560725
101.00647
102.50761
104.15098
105.88567
107.63947
109.46808
111.31269
113.11907
114.7822
116.18047
117.16918
117.62975
95.328649
96.149895
96.79913
97.534913
98.43784
99.442183
100.54335
101.72388
102.92833
104.23789
105.58893
106.94714
108.34925
109.72166
111.04666
112.25872
113.27448
114.02153
114.36925
96.542577
97.252266
97.81535
98.463477
99.240969
100.07628
100.99283
101.94372
102.90352
103.93099
104.96507
106.00756
107.05754
108.06886
109.02425
109.89485
110.62357
111.16528
111.40087
97.426029
97.990455
98.458284
98.999112
99.621964
100.29799
101.03556
101.78189
102.54724
103.34632
104.13434
104.92729
105.70035
106.43968
107.11937
107.73546
108.24497
108.60003
108.76107
97.937325
98.402791
98.811298
99.26646
99.767574
100.32456
100.91031
101.49521
102.09093
102.69212
103.28449
103.87559
104.45037
104.9993
105.5061
105.94967
106.30925
106.56314
106.68236
98.28372
98.64957
98.995436
99.368651
99.772228
100.21956
100.67935
101.1406
101.60746
102.07477
102.53947
102.99581
103.44406
103.86732
104.25527
104.5863
104.85864
105.07131
105.16816
98.491594
98.79509
99.080278
99.38135
99.718227
100.08373
100.45043
100.81983
101.19358
101.56489
101.92849
102.28436
102.63071
102.9521
103.23875
103.48725
103.69109
103.8524
103.92784
98.648765
98.902918
99.136565
99.387038
99.655427
99.935471
100.22317
100.52068
100.81714
101.10487
101.3859
101.66196
101.91941
102.15814
102.36792
102.54946
102.69122
102.79185
102.84213
98.829394
99.011082
99.195
99.392729
99.599582
99.82238
100.05306
100.28547
100.50733
100.7247
100.93938
101.14552
101.33709
101.51829
101.67867
101.81198
101.91317
101.98574
102.0213
98.921842
99.108595
99.256665
99.394236
99.55352
99.730092
99.910291
100.08794
100.25989
100.43213
100.59886
100.75609
100.90672
101.04536
101.16887
101.2697
101.35171
101.41835
101.44539
99.088933
99.19866
99.302798
99.413537
99.545192
99.685429
99.824461
99.957414
100.08952
100.2219
100.34917
100.46906
100.58362
100.68951
100.7826
100.86179
100.92689
100.97959
101.00147
99.106072
99.246433
99.342898
99.439409
99.547383
99.651854
99.755598
99.861437
99.966739
100.06845
100.16745
100.26114
100.34735
100.4265
100.49627
100.55813
100.60471
100.64168
100.65796
99.527188
99.50128
99.501309
99.529923
99.584939
99.656206
99.735629
99.815547
99.892982
99.967791
100.04107
100.11106
100.17675
100.23795
100.29175
100.33623
100.36892
100.39687
100.40904
99.338903
99.401257
99.484324
99.559865
99.627297
99.688452
99.746232
99.800865
99.854268
99.909331
99.964832
100.01516
100.0625
100.10594
100.14612
100.17925
100.19757
100.2175
100.23293
99.532117
99.580747
99.614249
99.659189
99.704777
99.742472
99.778597
99.8151
99.85212
99.891712
99.930139
99.963458
99.993703
100.02327
100.05333
100.08445
100.10452
100.11135
100.11698
99.363472
99.52625
99.645699
99.713908
99.763073
99.805007
99.842562
99.877869
99.908514
99.932722
99.951038
99.968441
99.98594
99.998581
100.00459
100.00812
100.01962
100.04064
100.04501
-1.453099
-4.3370773
-8.4927006
-13.739328
-19.189413
-24.590153
-27.980784
-29.131918
-28.023446
-24.635548
-19.196331
-12.456712
-4.4260315
4.4802377
13.441093
22.242324
30.171125
37.085935
43.092157
11.867228
8.896577
4.4339835
-0.83308487
-5.7360955
-10.497558
-14.027217
-16.303351
-16.440742
-14.222973
-10.0829
-4.4109975
2.7636374
10.605851
18.473019
26.058034
32.824646
38.853085
44.066094
30.507956
27.2071
22.046053
15.939855
10.120272
4.8363162
0.92789649
-1.3120231
-1.8337471
-0.55268003
2.4313738
6.9669048
12.828945
19.174185
25.543258
31.538296
36.917423
41.715905
45.906394
51.627648
49.015512
44.179549
38.331958
31.817826
26.094897
21.453723
18.539648
17.304553
17.759202
19.707475
22.772638
26.67487
30.961471
35.307876
39.466866
43.29563
46.746496
49.766885
74.115291
71.777016
67.853699
62.257573
56.695122
51.227538
46.586336
42.985793
40.799723
39.999619
40.329455
41.491693
43.238133
45.240114
47.441765
49.705414
51.958601
54.125726
55.89491
94.448208
92.535352
89.104825
84.605792
79.375999
74.153626
69.327789
65.417635
62.666328
60.790401
59.586214
58.999027
58.874391
59.140189
59.706244
60.473236
61.470365
62.577178
63.217473
109.50604
108.22734
105.34939
101.42214
96.710352
91.984412
87.442635
83.538892
80.162353
77.255298
75.039468
73.368378
72.082275
71.203174
70.64185
70.380092
70.449919
70.749644
70.548554
119.8331
118.51728
116.05164
112.4572
108.40296
103.94302
99.720209
95.783888
92.128008
89.047976
86.422532
84.145629
82.271338
80.761011
79.58641
78.7511
78.255977
78.011907
77.284925
123.88558
122.88321
120.71604
117.72849
114.1443
110.20927
106.40709
102.80702
99.46418
96.523949
93.901965
91.573153
89.567563
87.82123
86.382976
85.259232
84.475942
83.994417
83.080408
123.6385
122.84061
121.11889
118.67351
115.73259
112.50984
109.33736
106.32446
103.49606
100.8863
98.52376
96.392843
94.475587
92.758271
91.278295
90.067862
89.163729
88.550508
87.597614
121.00893
120.42562
119.10196
117.20995
114.94147
112.47365
109.99981
107.6162
105.36093
103.18948
101.18079
99.363186
97.6654
96.125901
94.752946
93.583272
92.668944
91.970356
91.012308
117.64296
117.19645
116.206
114.80551
113.13876
111.32879
109.48404
107.65299
105.89863
104.1665
102.51737
101.01465
99.567701
98.23773
97.02821
95.966266
95.119023
94.40901
93.494129
114.37542
114.04031
113.29346
112.27756
111.06511
109.73931
108.36631
106.9633
105.60183
104.25174
102.93807
101.73199
100.54947
99.446472
98.442639
97.53738
96.797839
96.141769
95.317243
111.39717
111.16399
110.62475
109.89798
109.0301
108.07663
107.06658
106.01726
104.97288
103.93906
102.90967
101.94756
100.99663
100.07794
99.240582
98.462116
97.810279
97.241008
96.532395
108.75833
108.59265
108.24071
107.73329
107.12031
106.44225
105.70455
104.93192
104.13794
103.34939
102.54949
101.78233
101.03592
100.29829
99.622488
98.99786
98.452255
97.974281
97.406002
106.68682
106.56169
106.31121
105.95212
105.50914
105.00361
104.4541
103.87873
103.28664
102.69361
102.09154
101.49386
100.9083
100.32295
99.76633
99.261613
98.8009
98.385886
97.920962
105.17474
105.0754
104.86406
104.5914
104.25972
103.87187
103.4476
102.99742
102.5395
102.074
101.60658
101.13842
100.67498
100.21488
99.769858
99.366416
98.98651
98.630917
98.263311
103.93023
103.85649
103.69439
103.48958
103.24171
102.95408
102.63245
102.28508
101.92693
101.56158
101.18971
100.81594
100.44579
100.07795
99.713232
99.378138
99.072889
98.777631
98.471272
102.83884
102.79019
102.68921
102.54776
102.36695
102.15698
101.91787
101.66034
101.38383
101.10116
100.81211
100.51543
100.21815
99.929261
99.648108
99.380929
99.132123
98.890579
98.622763
102.01427
101.98047
101.90699
101.80725
101.67435
101.5147
101.3334
101.14132
100.93499
100.72033
100.50195
100.2795
100.04784
99.818616
99.595794
99.387778
99.190461
99.01055
98.824569
101.44007
101.41357
101.34665
101.26506
101.16372
101.04046
100.90207
100.75127
100.59362
100.42679
100.2544
100.0816
99.903588
99.724757
99.550555
99.390884
99.252036
99.104047
98.916814
100.99948
100.97697
100.9239
100.85726
100.77757
100.68509
100.57959
100.46426
100.34474
100.21715
100.08489
99.952621
99.818233
99.678451
99.540686
99.410762
99.299243
99.196426
99.092589
100.65701
100.64035
100.60296
100.55558
100.49321
100.4234
100.3441
100.25726
100.16327
100.06388
99.961743
99.856324
99.749941
99.644491
99.538351
99.429541
99.32988
99.23033
99.102518
100.40844
100.39671
100.36822
100.33451
100.29018
100.23638
100.17424
100.10722
100.0362
99.962082
99.886193
99.807713
99.726962
99.646066
99.573019
99.517316
99.486994
99.480951
99.495275
100.23251
100.21595
100.19496
100.17673
100.14317
100.10293
100.05767
100.01034
99.961056
99.905332
99.848979
99.794397
99.739112
99.681132
99.618694
99.550601
99.476445
99.395225
99.331096
100.11576
100.11022
100.10615
100.08728
100.05477
100.02597
99.995898
99.962444
99.927232
99.887366
99.847617
99.810691
99.77449
99.738879
99.701178
99.654466
99.609515
99.576198
99.525964
100.04617
100.04077
100.01718
100.00568
100.00347
99.997354
99.987711
99.971998
99.954765
99.936955
99.912698
99.881393
99.845031
99.80635
99.764492
99.715537
99.645952
99.525526
99.362254
48.087134
52.398796
56.079095
59.157057
61.77965
63.945492
65.781147
67.284155
68.542906
69.579451
70.418577
71.088456
71.632512
72.101952
72.525277
72.947873
73.384759
73.848924
74.337407
48.468051
52.359915
55.715284
58.695066
61.262274
63.461529
65.391783
67.007509
68.406598
69.56993
70.54246
71.317846
71.958311
72.502239
72.992613
73.478207
73.966767
74.483385
75.034792
49.520244
52.712043
55.679139
58.387122
60.810709
63.008781
64.947462
66.673828
68.17114
69.452975
70.536331
71.43246
72.180273
72.813025
73.390828
73.947026
74.507185
75.089465
75.726296
52.273265
54.491697
56.757557
58.933293
61.061845
63.059318
64.890678
66.595377
68.092893
69.433338
70.574877
71.574437
72.409309
73.135682
73.78794
74.424765
75.056061
75.71315
76.411817
57.033861
58.007982
59.2353
60.633114
62.181854
63.75003
65.342395
66.856934
68.288995
69.594242
70.757131
71.794256
72.692366
73.489861
74.203116
74.906338
75.59587
76.340008
77.102688
63.046881
62.80979
62.964946
63.449212
64.219486
65.2031
66.358843
67.54938
68.80931
69.975151
71.113024
72.114327
73.046684
73.883686
74.656263
75.403079
76.157494
76.969461
77.825102
69.38635
68.195081
67.410455
67.019043
67.011971
67.328978
67.922604
68.705061
69.652729
70.619914
71.643437
72.579778
73.495062
74.340374
75.158375
75.930732
76.743124
77.596326
78.541466
75.497238
73.645235
72.138827
71.020127
70.308301
69.968527
69.983565
70.291043
70.841038
71.543311
72.362314
73.194433
74.04115
74.862968
75.696834
76.491993
77.343303
78.239181
79.255841
80.996739
78.78735
76.805716
75.152375
73.869092
72.963326
72.433597
72.246422
72.369286
72.741509
73.298603
73.961853
74.69503
75.458644
76.270957
77.087412
77.969674
78.908114
79.973797
85.602205
83.365941
81.173143
79.189421
77.485256
76.12267
75.122923
74.481637
74.183103
74.19397
74.457104
74.905172
75.485908
76.157096
76.910618
77.719771
78.612556
79.586725
80.688368
89.259285
87.206426
85.040553
82.928559
80.979777
79.290268
77.911967
76.881919
76.199152
75.855322
75.806084
76.007516
76.401189
76.945765
77.618706
78.396771
79.281299
80.275077
81.411174
92.006507
90.224971
88.256893
86.226817
84.212489
82.342869
80.692996
79.347785
78.327136
77.649941
77.298196
77.242175
77.433921
77.832515
78.403808
79.12227
79.980564
80.977513
82.126197
94.100821
92.600788
90.875782
89.022022
87.080089
85.171402
83.365714
81.795553
80.498614
79.536381
78.905492
78.588138
78.56078
78.796693
79.239498
79.891546
80.706258
81.696466
82.835436
95.535116
94.307893
92.858637
91.23887
89.468564
87.648856
85.832464
84.145395
82.651217
81.45132
80.55889
80.004156
79.75877
79.821899
80.127766
80.689848
81.446288
82.414403
83.555375
96.631588
95.635254
94.420111
93.030024
91.477542
89.803985
88.055666
86.341881
84.733504
83.350541
82.239421
81.465775
81.014213
80.897344
81.061203
81.509187
82.207772
83.137107
84.274044
97.321167
96.54514
95.557524
94.378233
93.023146
91.527378
89.91206
88.255596
86.62722
85.147995
83.892248
82.928445
82.288289
81.993252
82.018939
82.345845
82.970656
83.847544
84.971728
97.819612
97.223494
96.446508
95.475964
94.322822
93.013335
91.554594
90.007641
88.426989
86.892714
85.516952
84.383831
83.568491
83.106675
82.995874
83.194308
83.730126
84.562992
85.661241
98.11832
97.655203
97.049204
96.276878
95.309611
94.148673
92.81884
91.364979
89.861164
88.37005
86.983798
85.762119
84.810348
84.192255
83.953254
84.04737
84.482029
85.25425
86.317799
98.324519
97.981993
97.512041
96.88555
96.107068
95.176078
94.063941
92.75269
91.318686
89.832409
88.398859
87.095315
86.027553
85.281045
84.905063
84.887856
85.219651
85.920386
86.949767
98.547243
98.256854
97.86141
97.341065
96.674885
95.825638
94.823002
93.663979
92.360817
90.957919
89.575386
88.284952
87.150784
86.281169
85.772382
85.661956
85.927265
86.559737
87.547789
98.714393
98.504673
98.18508
97.758139
97.199164
96.520771
95.705766
94.714775
93.535963
92.200415
90.789445
89.428736
88.217742
87.2679
86.684269
86.461186
86.619974
87.178532
88.109475
98.916693
98.69349
98.425828
98.082642
97.602891
96.942693
96.133894
95.201985
94.159383
92.980338
91.699172
90.394557
89.159674
88.1162
87.412406
87.096849
87.181146
87.696776
88.599665
98.979447
98.793343
98.584825
98.355277
98.046548
97.599596
96.964984
96.133575
95.130902
93.983616
92.720097
91.399107
90.128654
89.013184
88.207288
87.809206
87.821766
88.242496
89.088358
99.352216
99.083371
98.797378
98.473667
98.139982
97.762578
97.233363
96.509916
95.582411
94.509384
93.334705
92.081496
90.810688
89.640551
88.752395
88.272416
88.208027
88.591136
89.418894
99.302883
99.266138
99.149786
98.92293
98.582366
98.206506
97.819768
97.278105
96.543413
95.521945
94.343972
93.092156
91.795712
90.537634
89.487793
88.862196
88.713939
89.001586
89.785877
99.444083
99.325292
99.193831
99.04861
98.788439
98.384648
97.927555
97.427903
96.688647
95.793611
94.712164
93.475943
92.165978
90.849836
89.741796
89.078976
88.895377
89.181485
89.94187
99.402792
99.408954
99.385813
99.325437
99.216341
98.998869
98.636805
98.200374
97.635853
96.922689
95.942475
94.669099
93.365223
91.964087
90.568072
89.549409
89.118317
89.322682
90.100274
74.901098
75.551235
76.294713
77.16009
78.097209
79.133828
80.301503
81.575523
82.975675
84.469967
86.061739
87.735134
89.491017
91.32088
93.184429
95.113318
97.047876
99.007671
100.97546
75.656289
76.356646
77.126894
78.025775
79.03198
80.118511
81.33003
82.618718
84.026552
85.517688
87.094032
88.747071
90.45755
92.23717
94.023585
95.855596
97.687397
99.510271
101.3439
76.412168
77.156346
77.97791
78.896868
79.9526
81.071824
82.31659
83.633505
85.053845
86.549586
88.10979
89.739476
91.398137
93.117752
94.82964
96.549102
98.283665
99.983275
101.66946
77.174161
77.949105
78.835193
79.779307
80.864408
82.018832
83.280937
84.625346
86.046573
87.551885
89.085109
90.683662
92.289196
93.932462
95.577708
97.189816
98.805299
100.38994
101.93289
77.935736
78.744012
79.670263
80.662463
81.760469
82.958536
84.220921
85.583683
86.988492
88.485362
89.999521
91.551032
93.111658
94.670016
96.237236
97.760362
99.246621
100.71129
102.13504
78.700072
79.556803
80.497971
81.543472
82.655837
83.873471
85.135111
86.506002
87.914609
89.382816
90.874783
92.368631
93.881823
95.36521
96.824455
98.252086
99.62634
100.96767
102.28162
79.459449
80.361279
81.320946
82.38438
83.511458
84.739632
86.024525
87.382901
88.790868
90.225975
91.680584
93.126107
94.564195
95.976672
97.334225
98.654826
99.937351
101.184
102.39431
80.226393
81.155456
82.146033
83.222772
84.376658
85.60175
86.890571
88.232829
89.612954
91.021793
92.429423
93.828915
95.185269
96.510914
97.793307
99.015693
100.20339
101.34805
102.44
80.994404
81.939669
82.949569
84.037582
85.196249
86.421897
87.700984
89.036938
90.39019
91.761479
93.126505
94.460352
95.748395
96.981488
98.176434
99.321888
100.40957
101.45294
102.44509
81.746926
82.710592
83.733155
84.83182
85.993408
87.221346
88.495806
89.808643
91.135341
92.459198
93.764215
95.03013
96.251081
97.411983
98.513103
99.570152
100.57158
101.51689
102.42412
82.49976
83.474057
84.509424
85.614062
86.778381
87.991833
89.243325
90.521065
91.804392
93.078149
94.330575
95.535537
96.689462
97.78226
98.804532
99.769028
100.68796
101.55492
102.38319
83.242445
84.217571
85.258612
86.356991
87.511838
88.700979
89.937617
91.192776
92.446939
93.672804
94.871727
96.009493
97.08942
98.107483
99.054116
99.93404
100.76659
101.55491
102.30414
83.974249
84.948913
85.99241
87.082988
88.230795
89.414774
90.620297
91.831317
93.03834
94.203058
95.337389
96.415772
97.429768
98.375894
99.253534
100.06469
100.82585
101.53414
102.20775
84.701612
85.67027
86.702702
87.781044
88.905762
90.059899
91.234531
92.40197
93.567422
94.68577
95.762636
96.787664
97.736643
98.614626
99.43612
100.18499
100.8696
101.50375
102.11701
85.406632
86.362024
87.376917
88.443989
89.550272
90.678799
91.827487
92.956954
94.072538
95.14451
96.154786
97.115066
98.005429
98.814593
99.572243
100.26503
100.88866
101.47355
102.03749
86.097457
87.040785
88.03813
89.08513
90.166547
91.26579
92.37623
93.458488
94.515929
95.538306
96.495469
97.395638
98.239869
99.008841
99.714046
100.3552
100.92671
101.45061
101.94508
86.766976
87.688257
88.663427
89.685978
90.739932
91.80258
92.868959
93.922266
94.935994
95.913015
96.82776
97.673036
98.459598
99.169228
99.812393
100.40412
100.93251
101.41198
101.8689
87.402676
88.303593
89.256541
90.255882
91.282662
92.318242
93.34878
94.364431
95.330282
96.245366
97.10734
97.902464
98.639842
99.312861
99.925319
100.48552
100.9788
101.42162
101.82834
88.012174
88.894229
89.820955
90.792965
91.792367
92.796004
93.7833
94.750938
95.680611
96.552905
97.375361
98.136964
98.83483
99.470219
100.03975
100.5543
101.00433
101.40134
101.76973
88.584331
89.438141
90.34147
91.287657
92.258046
93.230215
94.182105
95.113246
96.013616
96.851466
97.631392
98.35333
99.012204
99.608751
100.1468
100.62885
101.05329
101.43647
101.77998
89.114669
89.942896
90.825569
91.750687
92.696519
93.643968
94.568902
95.475206
96.337252
97.133023
97.879339
98.571678
99.192502
99.763288
100.27194
100.72106