/*--------------------------------*- C++ -*----------------------------------*\
  =========                 |
  \\      /  F ield         | OpenFOAM: The Open Source CFD Toolbox
   \\    /   O peration     | Website:  https://openfoam.org
    \\  /    A nd           | Version:  11
     \\/     M anipulation  |
\*---------------------------------------------------------------------------*/
FoamFile
{
    format      ascii;
    class       volScalarField;
    location    "0.125";
    object      Ma;
}
// * * * * * * * * * * * * * * * * * * * * * * * * * * * * * * * * * * * * * //

dimensions      [0 0 0 0 0 0 0];

internalField   nonuniform List<scalar> 
880
(
1.11801663592382
1.118016635923345
1.118016483277711
1.117979995818112
1.11801663592382
1.118016635921334
1.118016061048911
1.117737684123955
1.11801663592382
1.118016635939601
1.118013618668497
1.116820623004046
1.118016635923821
1.118016635405266
1.117997002841149
1.110860980009944
1.118016635923578
1.118016635922798
1.118016635899945
1.118016633664345
1.118016637002066
1.118016635055915
1.118016639907115
1.118016245606543
1.117906258551188
1.117785417236169
1.117598807121189
1.118064017289059
1.088751988816312
1.065454010627344
1.056688109558761
1.054530772641819
1.1180165858411
1.118016160588148
1.118014644472578
1.118014648802093
1.11801172644415
1.118001323966304
1.117994223781639
1.117993844650652
1.11624178124319
1.115072407310382
1.114542446218423
1.114412963848938
1.053218877250991
1.048372640849582
1.050531514574414
1.052216676319688
1.095588585400133
1.116681551139919
1.126852031350766
1.136313787129682
1.110350988446695
1.110457507905906
1.114646564177664
1.118132401213807
1.117922824221877
1.117795506861216
1.117815304644452
1.117943344150191
1.118010957591408
1.118002555399838
1.11798914843241
1.117982988847046
1.117984657495851
1.11799256270511
1.118003859694806
1.118012403158553
1.118025650797033
1.118085349409139
1.11808891179583
1.118053540367833
1.120172609539425
1.121176881135415
1.121040787516559
1.120062035374349
1.140601824139908
1.140357196839018
1.137637696634086
1.133622052593683
1.128963932316897
1.118949841349046
1.118025774445689
1.118015861683609
1.123598143931579
1.118272652942393
1.118017693732083
1.118016570449415
1.115658347137403
1.118017261267145
1.118016633189139
1.118016631806061
1.042893476772576
1.116817610206495
1.118013123605764
1.118016580230909
1.118016169822116
1.117986257685463
1.110101691054665
0.841719944264954
1.118013713249031
1.117932981072283
1.103034107696244
0.8259649512389869
1.118010650100312
1.117794857880488
1.092670889780924
0.8068993417960797
1.117994241521622
1.117656170378087
1.082800807561923
0.8103806354200649
0.8147838969797504
1.071185089737982
1.117362231681245
1.117984875141926
0.8241577273376692
1.062942190865289
1.117187569731722
1.117943543720649
0.8289141184437485
1.051070296082746
1.116698105748776
1.117931710708736
0.8337513034888773
1.039912215275576
1.116266251395235
1.117858249403261
1.11781561941251
1.115222263618378
1.023561006065142
0.8490236866062886
1.117666928110455
1.114726072470598
1.033383784465516
0.8933785669725091
1.117784220599616
1.115709506607657
1.066931763337162
0.9801634299092467
1.117586120183719
1.116702633399008
1.102445303158134
1.080632699121892
1.11760720041276
1.117256372817071
1.135090808641172
1.252079251801756
1.117625269071736
1.122026500497384
1.148538280915865
1.303464492155047
1.117952965624927
1.120745903285251
1.139231662776037
1.203262867897849
1.118036646365711
1.118532288575195
1.116493823216458
0.987802194563254
0.8737679455418199
1.099825018933301
1.117723520530861
1.118022858596913
0.8076530998698757
1.085681978462054
1.11713824539138
1.11800794720292
0.7715464652250563
1.077743419488327
1.117002886677248
1.11801478098443
0.7216262509879287
1.070170184519144
1.1167357982099
1.118011000794182
0.7863674137718307
1.082651748048374
1.117290531908604
1.118014417443857
0.892861570652091
1.097071712367027
1.117723233331801
1.118015779216534
0.9866197751018908
1.107688991888242
1.117918467805229
1.118016422919448
1.049460866818209
1.114095400545855
1.118005353975933
1.118016618431108
1.011199613377533
1.11008888328363
1.117786021806243
1.118014304626299
1.019928575367082
1.110596432048946
1.117796717256493
1.118014363693108
1.01862124570102
1.110515500396054
1.117806958028208
1.118014475054862
1.017309479632485
1.111032331892159
1.117836719081153
1.118014824375671
1.04946086681859
1.114095400548066
1.118005353978911
1.118016618433969
0.9866197751021826
1.107688991890722
1.117918467807369
1.118016422920666
0.8928615706523818
1.097071712368761
1.117723233332147
1.118015779217255
0.7863674137706949
1.082651748049931
1.117290531907721
1.118014417443665
1.118022858595221
1.117723520529749
1.099825018931175
0.8737679455406534
1.118007947202067
1.117138245391494
1.085681978460459
0.8076530998682991
1.118014780983768
1.117002886677819
1.077743419490131
0.7715464652234982
1.11801100079391
1.116735798207897
1.070170184520014
0.7216262509867739
0.9878021945612248
1.116493823216041
1.11853228857628
1.118036646366279
1.203262867896124
1.139231662776337
1.12074590328452
1.117952965625086
1.303464492154982
1.148538280915828
1.122026500497096
1.117625269070613
1.252079251801676
1.135090808642794
1.117256372819052
1.117607200411243
1.117815619414035
1.115222263611383
1.023561006061679
0.8490236866064432
1.117666928110255
1.114726072468733
1.033383784463137
0.8933785669720193
1.117784220597548
1.115709506606239
1.066931763337167
0.9801634299097395
1.117586120187106
1.116702633400204
1.102445303158369
1.080632699121908
0.8337513034895569
1.039912215276042
1.116266251404051
1.117858249397595
0.8289141184430001
1.051070296081067
1.116698105740364
1.117931710709835
0.8241577273378298
1.06294219086509
1.117187569737332
1.117943543719727
0.8147838969799299
1.071185089736774
1.117362231678423
1.117984875141713
1.118016169821771
1.117986257684058
1.11010169105339
0.8417199442632732
1.118013713246251
1.117932981072205
1.103034107701526
0.8259649512410566
1.118010650097456
1.117794857878388
1.092670889777815
0.8068993417968059
1.117994241521488
1.117656170380192
1.082800807564608
0.8103806354205294
1.118016580230785
1.118016631806382
1.118016570448411
1.118015861683713
1.118013123608602
1.118016633190357
1.118017693733104
1.118025774446184
1.116817610207924
1.118017261266517
1.118272652943293
1.118949841349816
1.042893476773697
1.115658347137063
1.123598143931082
1.128963932317068
1.11801240315788
1.118053540366822
1.120062035373603
1.133622052593291
1.118003859695367
1.118088911794326
1.121040787516528
1.137637696633694
1.1179925627051
1.118085349408576
1.121176881136605
1.140357196840818
1.117984657496931
1.118025650797538
1.120172609538936
1.140601824140566
1.118010957591304
1.117922824223669
1.110350988446478
1.095588585398975
1.118002555401755
1.117795506860845
1.110457507905001
1.116681551139804
1.117989148430922
1.117815304645838
1.114646564178628
1.126852031351981
1.117982988847662
1.11794334415072
1.118132401213651
1.136313787130925
1.052216676320221
1.114412963848783
1.117993844652422
1.118014648801167
1.050531514575342
1.114542446217138
1.117994223784145
1.118014644472843
1.048372640849633
1.115072407309976
1.118001323969173
1.118016160588399
1.053218877251531
1.116241781243878
1.118011726445458
1.118016585839013
1.054530772642439
1.118064017286724
1.118016245606704
1.11801663366328
1.056688109559438
1.117598807122957
1.118016639908293
1.11801663589994
1.065454010628083
1.117785417237126
1.11801663505795
1.118016635922789
1.08875198881724
1.117906258551955
1.118016637000872
1.118016635923615
1.118016635923821
1.118016635923322
1.118016483277042
1.117979995817363
1.11801663592382
1.118016635921954
1.11801606104874
1.117737684125113
1.11801663592382
1.118016635940156
1.118013618668506
1.116820623003976
1.11801663592382
1.118016635407163
1.117997002841872
1.11086098001054
1.117878469791758
1.117306705163152
1.114053789299118
1.093413750260915
1.117306705161875
1.115117746408056
1.102644842306601
1.051601657098318
1.114053789299038
1.102644842307145
1.057677000381279
0.9571014758916243
1.09341375026144
1.05160165709975
0.9571014758918155
0.8344147360095824
0.794399758239053
0.8393284687200036
0.924455935307212
1.001885494445289
0.8503340164991873
0.8627363192822324
0.9020915977309565
0.9575536128990751
0.8823873835730243
0.8959486039277613
0.9299825442338185
0.965599611421434
0.9159525263813083
0.923523217949728
0.9471356631418842
0.9704662495369892
0.9846287653583582
0.9936338168137333
1.000085676661958
1.014626729083917
0.9718885520215889
0.9921976610966066
1.000481792027299
1.03784507466136
0.9520151738687431
0.9841343531127134
0.9978817370987353
1.100398049821101
0.9303020351567219
0.9364841734589981
0.9473883219331453
1.183341228007608
1.205406835050333
1.21254124864428
1.175589397903751
1.16482883348242
1.292868410060648
1.287494906923382
1.227725597977927
1.19629821680428
1.432686985738435
1.335538401847403
1.254774292616775
1.213245195091708
1.15955418167574
1.056752162309428
1.029281738566227
1.034201358096131
1.159233852183168
1.15241425850527
1.145527623028139
1.139942095154763
1.179516890421497
1.166337996438723
1.15570911274491
1.147928583079841
1.190359220255173
1.174866419158071
1.162868955126345
1.153864350012456
1.049880614205264
1.069538344372075
1.087929578885767
1.104920047682818
1.136290735102458
1.128335201785851
1.080305833418211
0.8102824870403037
1.143037806752907
1.131811984489609
1.040892936804875
0.656088793167941
1.148029277966569
1.134580500020971
0.9713366367937931
0.5008646073870255
1.112747623383807
1.120588729046592
0.830016862054977
0.2519213498807488
0.6001916301247265
0.6597689534667069
0.6943907262555752
0.7325611323052358
0.5462858940964698
0.6388605535042753
0.6916434635067947
0.7331642219578379
0.4357806459333946
0.5732970005274972
0.6620529868115913
0.7208904826767665
0.2188859370202816
0.3617038685103038
0.5068068046764844
0.6088035434120437
0.7534166753353205
0.7615203328700357
0.7663305152114888
0.7757348029720398
0.7513006676968446
0.7597566730494939
0.7657937088785564
0.7761206047692656
0.7479845614671728
0.7581689780088914
0.7650801246086489
0.7756237431128776
0.6819594178792038
0.717601145684409
0.7342301569049455
0.7419605154880333
0.7940744055474501
0.8412819115882011
0.9267673566521257
1.040262195889723
0.7958300545800659
0.8393319429016382
0.9231538226266782
1.071750825730856
0.7957394074461771
0.8307864614147465
0.9404951300974299
1.361750445953466
0.7714123311671502
0.8083923002327671
0.9611386288514161
1.894709520435942
1.244400484358235
1.453696798351615
0.524496825183312
0.2261288544063128
1.327275206188638
1.206910431842471
0.2386888447027306
0.1235658722658022
1.414917742561766
0.8623461330333035
0.1413390959916117
0.136794063827297
1.135658886580793
0.3668359819841789
0.1689341173334503
0.1063517570787909
0.1382186493966585
0.09710145578536142
0.06794700167381007
0.04475959358328103
0.06278843857067505
0.02616275762045929
0.04445806064759095
0.08153597216736642
0.08657921130572788
0.07953684630871115
0.102657324041408
0.1313770277720533
0.07757622052770978
0.09032709599236134
0.1299239742339625
0.1406574046850101
0.3249880789803292
0.6766625830430439
0.9119104742337849
1.108218781324746
0.1343626824375767
0.487506223587696
0.7810408620006216
1.0262914866505
0.07491094135504937
0.2438614851809927
0.5650768523883953
0.9245629940654531
0.08252987449940895
0.06207146047066637
0.4329974907771266
0.9813694477486888
1.313221502947315
1.538601925158537
1.399730303257587
0.9637600603102829
1.183769436531603
1.229568355602535
1.03895679517353
0.6849294875733511
1.084061053060039
0.8645749211764079
0.5756663707444243
0.2801054430861841
0.836197257758423
0.3997479153860961
0.2012316660077312
0.1658083469019844
0.1780392673895569
0.1753633230091909
0.1458674890099068
0.1140661256317808
0.1292942305093195
0.1470580271335814
0.1845209227502976
0.1785558831019765
0.206396146896633
0.0789156529783195
0.1590741963332442
0.1735756215254902
0.5412125183728747
0.3217727474713867
0.2162051473771571
0.1875946043688167
0.1140661256316096
0.1785558831019521
0.1735756215256425
0.1875946043675279
0.1458674890095602
0.1845209227499794
0.1590741963332974
0.2162051473773946
0.1753633230087309
0.1470580271331825
0.07891565297825429
0.3217727474719352
0.1780392673891274
0.1292942305092448
0.2063961468967641
0.5412125183732149
0.9637600603092999
1.399730303256469
1.538601925158107
1.313221502946601
0.6849294875734
1.038956795173565
1.229568355602816
1.18376943653122
0.2801054430863156
0.5756663707446744
0.864574921176575
1.08406105306015
0.1658083469017985
0.2012316660075913
0.3997479153859699
0.8361972577587272
0.9813694477488297
0.4329974907771798
0.06207146047080659
0.08252987449934934
0.9245629940652806
0.5650768523883858
0.2438614851812293
0.07491094135522214
1.026291486649863
0.781040862000287
0.487506223587471
0.1343626824370807
1.108218781323828
0.9119104742332697
0.6766625830425823
0.3249880789794189
0.04475959358444276
0.06794700167325958
0.09710145578430919
0.1382186493979015
0.08153597216735277
0.04445806064865234
0.02616275762139359
0.06278843857161005
0.1313770277718448
0.102657324041702
0.07953684630952883
0.08657921130594243
0.1406574046849842
0.1299239742345167
0.09032709599294815
0.07757622052734013
0.226128854405075
0.5244968251778582
1.453696798347689
1.244400484357459
0.1235658722656661
0.2386888447004414
1.206910431840348
1.327275206188599
0.1367940638263808
0.1413390959920537
0.8623461330313092
1.414917742561391
0.1063517570777957
0.1689341173338508
0.3668359819825656
1.135658886581402
1.040262195889923
0.92676735665262
0.8412819115881133
0.7940744055476164
1.071750825730793
0.9231538226266597
0.8393319429016181
0.7958300545803186
1.36175044595303
0.9404951300974201
0.8307864614147827
0.7957394074465035
1.89470952043507
0.9611386288513664
0.8083923002328094
0.7714123311672092
0.775734802972515
0.7663305152112683
0.7615203328703346
0.7534166753355487
0.7761206047697135
0.7657937088783788
0.7597566730496312
0.7513006676970675
0.7756237431133686
0.7650801246084822
0.7581689780090504
0.7479845614673037
0.7419605154886938
0.7342301569049282
0.7176011456842327
0.681959417877109
0.7325611323057073
0.6943907262554951
0.6597689534684904
0.6001916301235803
0.733164221958175
0.6916434635067777
0.638860553505412
0.5462858940961046
0.7208904826766424
0.6620529868117303
0.5732970005278556
0.4357806459335577
0.6088035434106959
0.5068068046785013
0.3617038685096828
0.2188859370207691
0.8102824870402356
1.080305833418945
1.128335201784984
1.136290735102478
0.656088793167979
1.040892936805863
1.131811984489074
1.143037806752742
0.5008646073886635
0.9713366367952596
1.134580500020165
1.148029277966057
0.251921349882339
0.8300168620565458
1.120588729044362
1.112747623382809
1.139942095152494
1.145527623029441
1.152414258505792
1.159233852183636
1.147928583076557
1.155709112747739
1.166337996438503
1.17951689042226
1.153864350009626
1.162868955129771
1.174866419157883
1.190359220255839
1.10492004767925
1.087929578889474
1.069538344370204
1.049880614205918
1.164828833483429
1.175589397904895
1.212541248643732
1.205406835049265
1.196298216805385
1.227725597979324
1.2874949069218
1.292868410059522
1.213245195092962
1.254774292618377
1.335538401845469
1.43268698573703
1.034201358096008
1.029281738568458
1.056752162309079
1.15955418167693
1.014626729084577
1.000085676663576
0.993633816813443
0.9846287653582126
1.037845074661955
1.000481792028373
0.992197661095844
0.9718885520211751
1.100398049821084
0.9978817370992238
0.9841343531114652
0.9520151738684178
1.183341228006914
0.9473883219334935
0.9364841734584834
0.9303020351581838
0.9704662495385916
0.9655996114216697
0.9575536128996011
1.00188549444527
0.9471356631432075
0.9299825442340468
0.9020915977315453
0.9244559353073126
0.9235232179517375
0.8959486039284005
0.8627363192827026
0.839328468720849
0.9159525263842537
0.8823873835745779
0.8503340164997839
0.7943997582405001
1.057980319874488
1.113048926653432
1.117953093036439
1.118016340551415
1.055130258347388
1.113555272853985
1.117943800983821
1.118016158427916
1.039675201721426
1.112981783037467
1.117923278730661
1.118015916773204
1.0128605678417
1.11170619772316
1.117880133773452
1.118015416600758
1.118014304624989
1.117786021805954
1.110088883283504
1.011199613373708
1.118014363693183
1.117796717255665
1.110596432048721
1.019928575369018
1.118014475054592
1.117806958029788
1.110515500395639
1.018621245702783
1.118014824375642
1.11783671908259
1.111032331891335
1.017309479633822
1.118015416601958
1.118015916772355
1.11801615842723
1.118016340553258
1.117880133774848
1.11792327873065
1.117943800983302
1.117953093035628
1.111706197723111
1.11298178303762
1.113555272853307
1.1130489266546
1.012860567841842
1.039675201721593
1.055130258346637
1.057980319874393
)
;

boundaryField
{
    back
    {
        type            empty;
    }
    inlet
    {
        type            calculated;
        value           nonuniform List<scalar> 
16
(
1.11801663592382
1.11801663592382
1.11801663592382
1.11801663592382
1.118016635923578
1.11801663592418
1.118016635914476
1.118016634638785
1.118016634638554
1.118016635914471
1.118016635924168
1.118016635923615
1.11801663592382
1.11801663592382
1.11801663592382
1.11801663592382
)
;
    }
    front
    {
        type            empty;
    }
    top
    {
        type            calculated;
        value           uniform 0;
    }
    outlet
    {
        type            calculated;
        value           nonuniform List<scalar> 
16
(
1.118013626314956
1.118013687819027
1.118013819287862
1.11801424533004
1.118016248712463
1.118016018426374
1.118015701991093
1.118015034031655
1.118013626313881
1.118013687819026
1.118013819287738
1.118014245330005
1.118015034032722
1.118015701990228
1.118016018425816
1.118016248714224
)
;
    }
    bottom
    {
        type            calculated;
        value           uniform 0;
    }
    wall
    {
        type            calculated;
        value           uniform 0;
    }
}


// ************************************************************************* //
