/*--------------------------------*- C++ -*----------------------------------*\
  =========                 |
  \\      /  F ield         | OpenFOAM: The Open Source CFD Toolbox
   \\    /   O peration     | Website:  https://openfoam.org
    \\  /    A nd           | Version:  11
     \\/     M anipulation  |
\*---------------------------------------------------------------------------*/
FoamFile
{
    format      ascii;
    class       volScalarField;
    location    "0.1205";
    object      T;
}
// * * * * * * * * * * * * * * * * * * * * * * * * * * * * * * * * * * * * * //

dimensions      [0 0 0 1 0 0 0];

internalField   nonuniform List<scalar> 
880
(
300
300
299.9999999999852
300.0004294759361
300
300
300.0000000013978
300.0019490880642
300
300
300.0000000247551
300.0097500897934
300.0000000000001
300
300.0000006626149
300.0160365220537
300
300
299.9999999999999
299.9999999985779
300
300
299.9999999999997
300
299.9999961684976
300.0000566817373
300.0413825408267
299.9262067883679
301.1865873476658
304.8337403075295
308.0541802515289
309.2350158782779
300.0000063655876
300.0000362949313
300.0000471213658
300.0000320967869
300.0001549151292
300.0004308353447
300.0012628295553
300.0009472500478
300.0887261488222
300.1942510180295
300.3336620641421
300.3479157200338
310.7402121099813
312.6250052853594
314.1909136009033
316.2337916833113
315.608495418488
312.7733317365776
310.2455174546436
308.2705353151844
300.6123541787795
301.0941829900759
301.3839816043741
301.266998482209
300.0027831912093
300.0072059500212
300.014367642127
300.0171261214318
300.0001125698113
300.0002921341345
300.0006008820346
300.0006549966428
300.0005103163012
300.0002449787199
300.0000556704153
300.0000036196156
300.0150492591902
300.010368111175
300.0044190560441
300.0008625746171
301.0101655902483
300.7058729598933
300.3834765140761
300.12681933485
306.2504397335654
304.4109551445351
302.9222534255442
301.7026407382349
300.7241423561883
300.021696432293
300.0000637088879
300.0000000455476
300.173404003329
300.0019998603543
300.000004695594
300.0000000102925
300.008233223639
299.9996312561891
299.9999863291893
300.0000003645088
302.9431147681391
300.0166086629719
299.9997862459502
299.9999790480971
299.9999547868203
299.9998944456202
300.0968121245262
323.008249539368
299.9999901020665
300.0011166125718
300.5516332606214
340.1587661489422
300.0001225371756
300.002983986715
301.1562582875483
350.5988014165222
300.0003997371773
300.010268967738
302.1791588955284
359.4935513793543
366.9318552209876
303.252437520432
300.014762000385
300.0006017110325
374.7470253347956
304.7298251705791
300.030172545669
300.001143323487
380.2510342764909
305.8620247920098
300.0341180571009
300.0012326053944
385.5074583001793
307.4038155795203
300.0582800124595
300.0022648107297
300.0025583901315
300.06993133395
309.2541249118437
390.2046291451293
300.0040077642017
300.1097881867905
311.6156995464045
390.1567566564333
300.0077521992689
300.1504816553229
311.8768403003485
381.9158000900619
299.999891219685
300.0620285852187
307.3042655683259
360.5268662848554
300.0137470198164
300.2951078164384
308.5332475294901
339.7121913567702
300.0156468025041
300.3941482876985
305.3174542874613
317.4719193161735
300.0020799286617
300.2098954301578
304.3745096583676
313.3024333307421
299.9948005923813
299.9751373749511
302.5826774354163
317.0383485095823
312.6373109817782
299.8879930156934
299.8462755826312
299.9960243581892
305.2101969079449
298.7709362703148
299.8346387778987
299.9984586240369
297.81691793977
297.97879822795
299.8859882986234
299.9995248218713
288.8963919925861
297.6952085879049
299.9194295478468
299.9996219616016
284.3713543749527
298.5227730688091
299.9738317367528
299.9998807579079
281.5093548826776
299.2479354638501
299.9928609483207
299.9999723683992
281.5283059114435
299.5171142985729
299.9969247830073
299.9999908147482
284.2649026431102
299.7648131179201
299.9989624612646
299.9999954152779
297.0902601963537
299.5879015824718
299.9863110146409
299.9998742952467
298.2191988929404
299.6119664884815
299.985840845228
299.9998722339164
298.7761028135462
299.6151268672863
299.9837562560097
299.9998626746828
300.0610259992868
299.6880275280846
299.9760465840877
299.9998201324265
284.2649026426242
299.7648131170857
299.9989624599919
299.9999954175487
281.5283059110188
299.5171142980774
299.9969247805276
299.9999908146209
281.5093548822964
299.247935465106
299.9928609487631
299.9999723685835
284.3713543753344
298.5227730711197
299.9738317368509
299.9998807571404
299.9960243581704
299.8462755843215
299.8879930158769
312.6373109816445
299.9984586260204
299.8346387788563
298.7709362711689
305.210196908577
299.9995248202236
299.8859883005725
297.9787982268034
297.816917940144
299.9996219622246
299.9194295484671
297.6952085898392
288.8963919918331
317.0383485083997
302.5826774335713
299.9751373722078
299.9948005908012
313.3024333284454
304.3745096571144
300.2098954286748
300.0020799261142
317.471919316728
305.3174542861753
300.3941482879894
300.0156468026997
339.7121913570466
308.5332475290376
300.2951078154761
300.0137470232546
300.0025583890059
300.0699313370334
309.2541249135403
390.2046291458927
300.004007764028
300.1097881886981
311.6156995477673
390.1567566565562
300.0077522002825
300.1504816554207
311.8768402992831
381.91580009007
299.9998912234086
300.0620285855755
307.3042655674337
360.5268662846809
385.5074583015261
307.4038155797585
300.0582800141742
300.0022648111579
380.2510342779394
305.8620247959407
300.0341180555369
300.0012326057952
374.7470253346224
304.7298251679458
300.030172554026
300.0011433224836
366.9318552220615
303.2524375193643
300.0147619937411
300.0006017102925
299.999954788437
299.9998944467806
300.0968121246517
323.0082495383774
299.9999901015177
300.0011166116759
300.5516332615856
340.1587661491362
300.0001225361235
300.0029839838923
301.1562582869834
350.5988014166842
300.0003997357603
300.0102689726808
302.1791588966725
359.4935513794121
299.9999790475824
300.0000003653097
300.000000010395
300.0000000451805
299.9997862445131
299.9999863296125
300.0000046973175
300.0000637073334
300.0166086633592
299.9996312566169
300.0019998589645
300.0216964324505
302.9431147686015
300.0082332242574
300.1734040028718
300.7241423565531
300.0000036176776
300.0008625750868
300.1268193366042
301.7026407385997
300.000055670268
300.00441905551
300.3834765160515
302.9222534255064
300.0002449800423
300.0103681114346
300.7058729588477
304.410955144096
300.0005103165116
300.0150492593082
301.0101655913672
306.2504397329093
300.0001125679344
300.0027831897086
300.6123541791063
315.6084954186746
300.000292132101
300.0072059497825
301.0941829905539
312.773331735811
300.0006008808689
300.0143676435435
301.3839816045399
310.2455174540503
300.0006549957191
300.0171261226674
301.2669984822743
308.2705353141619
316.2337916842912
300.3479157225615
300.0009472491975
300.0000320959417
314.1909136012787
300.3336620655994
300.0012628293637
300.0000471211318
312.6250052864606
300.1942510171476
300.0004308355692
300.0000362951467
310.7402121097315
300.0887261474715
300.0001549145304
300.000006366275
309.2350158785703
299.9262067902014
300
299.9999999990918
308.0541802506958
300.0413825357432
300
300.0000000000001
304.8337403070784
300.0000566812797
300
300
301.1865873474305
299.9999961679457
300
299.9999999999999
300
299.9999999999999
299.9999999999932
300.0004294762458
300.0000000000002
300
300.000000001389
300.0019490837232
300
300
300.0000000249028
300.0097500869546
300
300
300.0000006615065
300.0160365227879
300.0009700509887
300.0036112199809
300.0165834900714
300.2558426551165
300.003611250943
300.0046019720943
300.0152004080262
300.9894769724385
300.0165834690686
300.0152003578902
300.3829492766267
306.2675600367977
300.2558426338888
300.9894769549914
306.2675600916489
325.9205529382328
354.8766243463999
335.832989026092
322.6436890727724
310.7068468084582
351.013806683875
346.3311169394648
341.9194542025621
333.067816205315
347.9077696286376
345.8216604715202
343.7680666614072
339.6695267351733
346.3722683975929
345.339867455896
344.6598609982504
342.5767563858911
344.4384047255394
345.0866345913063
345.928410281776
348.1496435648812
344.6097644496897
344.5929385515612
345.2476898688853
347.5079791658974
344.8317381010127
344.0768364133625
344.5237855957743
345.8573371094248
345.2882759744906
343.8643828479957
344.2865202345507
342.1084553634108
331.253689140569
313.4964211616481
304.7829608199228
304.2473359121264
322.2002892004936
305.1204889580492
302.7404427168217
304.9273683894558
311.8338591531073
298.5890263728796
303.7023738847253
306.4230645692825
287.6702203875898
291.3504208887616
303.1355561439705
305.9814097869754
303.5075706746162
302.7821440820325
302.3963303304413
302.2562757538185
304.4908725273398
303.3120664445935
302.7739697543203
302.2478736481851
305.7129845765702
304.1391523191202
303.2896536305335
302.4986965600975
305.1630751497967
303.5329625110658
302.7303398161808
302.2471583044739
301.4233463370004
300.5629148324114
300.0805285485831
331.9544503900838
301.284766698769
300.545807090645
300.0637855537592
348.5578147621505
301.4229267240503
300.6357354823983
300.2615859518847
357.7834534973787
301.0988468336584
300.3411956472623
300.5903342590805
363.0820952245065
408.6069247241836
419.2996656734773
422.1944920483166
424.5874540007703
422.4428567154225
425.2163950098004
422.8445861037173
422.239260272103
425.3675532031857
423.2513838537162
421.9253516391939
419.2652856873707
433.8363638238163
427.3556990728723
421.956117737767
417.8972949354209
426.03081670379
430.0247385974906
432.6339543823778
435.169151083997
421.8825311618727
424.682367004919
426.6020322652972
429.1674553638688
416.6071213102359
418.3720516020435
419.9752196909674
422.5055371691009
414.6059404651938
415.731328934402
416.987835521007
419.5732089004741
435.0423705262527
429.7943886138671
418.0688951511835
399.4558181304719
429.4686907858684
425.1649244450564
415.245259713351
415.3969486152726
423.1370926024355
420.0389454659859
415.2369346199844
428.2767573512126
419.9800284597122
418.4400923356117
419.2599831769634
409.2190868821298
362.917634558591
297.1663253896995
207.8624360864956
207.8523688470584
350.2711327729613
261.1645382198669
191.174291770954
175.4124424860847
316.6219165958739
214.4347548836687
167.7741541863817
157.7585927474435
241.1764852010953
157.3921011609833
167.7906448067877
152.2270128124699
218.7827894128165
225.0729551569113
229.2532449529725
228.5376934836977
183.3796872738875
191.2550411334825
201.593468287779
217.8697453704113
158.4177064178072
163.2140163924775
182.4755982562813
218.1515853058
148.5765419209173
151.3783201825736
175.9856316459983
224.8226629059738
264.6194743727385
256.8020770117612
253.1046550317873
258.4614277214034
273.3827814922219
268.6770513814889
260.0849638182918
264.4725840919718
266.5709602096732
277.6168841835012
273.3353935286055
279.2080147756687
248.4856865169739
267.8415999530419
272.8930350888339
289.5036014043875
237.2716042813751
213.1930144923685
181.8870487058828
196.3731298317598
240.9610709486504
214.5299402194699
180.1591934474535
214.8538794838186
242.7679344813131
183.2802220017149
204.7360639510873
210.3909738070389
215.3903336609881
157.0668424128625
198.3498911360408
181.7564013713
173.8199505814599
172.2558318821014
168.4982677116325
168.1411290941014
186.285239462961
174.2753030835393
172.4070327744032
171.6355475171344
217.270532815939
207.7790222191007
208.7760032517731
210.5215034149499
252.4135219985291
270.4916989518287
263.015840610093
259.2644819584126
168.1411290941694
171.6355475171213
210.5215034149039
259.2644819579688
168.4982677118835
172.4070327743876
208.7760032518285
263.0158406098128
172.2558318823114
174.2753030837281
207.779022219149
270.491698951558
173.8199505816306
186.2852394633228
217.270532815989
252.4135219984547
196.3731298315962
181.8870487055821
213.1930144918244
237.2716042806346
214.8538794838836
180.1591934475774
214.5299402193066
240.961070948174
210.3909738071166
204.7360639511978
183.2802220014735
242.7679344811719
181.7564013713297
198.3498911359476
157.0668424128894
215.3903336607928
289.5036014042481
272.8930350885881
267.8415999521291
248.4856865154978
279.2080147754925
273.3353935284467
277.6168841828083
266.5709602080886
264.4725840917195
260.0849638181509
268.677051380758
273.3827814907712
258.461427721126
253.1046550316673
256.8020770109557
264.6194743715517
228.5376934832498
229.253244953446
225.0729551574074
218.7827894124949
217.8697453699481
201.5934682885447
191.255041134097
183.3796872735564
218.1515853053338
182.4755982568152
163.2140163929521
158.4177064177211
224.822662905148
175.9856316461508
151.378320182928
148.5765419209715
207.8523688454202
207.8624360850135
297.16632538956
362.9176345587188
175.4124424848614
191.174291769704
261.1645382193568
350.2711327723591
157.7585927465888
167.7741541853208
214.4347548832677
316.621916595603
152.2270128118908
167.7906448044329
157.3921011593003
241.1764852006867
399.4558181304311
418.0688951514217
429.7943886137291
435.0423705263119
415.3969486153876
415.2452597135981
425.1649244451618
429.4686907862124
428.2767573514445
415.2369346202842
420.0389454664352
423.1370926030863
409.219086882153
419.2599831774909
418.4400923361798
419.9800284605589
435.1691510839136
432.6339543828796
430.02473859853
426.0308167044711
429.1674553641236
426.6020322656739
424.6823670055556
421.8825311627314
422.5055371695371
419.9752196913353
418.3720516024582
416.607121311197
419.5732089011313
416.9878355213239
415.7313289348368
414.6059404665818
424.587454001258
422.1944920467899
419.2996656732159
408.6069247236257
422.2392602726806
422.8445861017221
425.2163950102108
422.4428567138698
419.2652856881805
421.9253516373778
423.2513838533602
425.3675532004917
417.8972949363503
421.9561177362968
427.3556990722957
433.8363638205645
331.954450387441
300.0805285422584
300.5629148342075
301.4233463367509
348.5578147590427
300.0637855482654
300.5458070934668
301.2847666977726
357.7834534944378
300.2615859498957
300.6357354856731
301.4229267223312
363.0820952213467
300.5903342601791
300.3411956504377
301.0988468315231
302.2562757536937
302.3963303302349
302.7821440815736
303.5075706741609
302.2478736483008
302.7739697539762
303.3120664442829
304.4908725268332
302.4986965603827
303.2896536299916
304.1391523190828
305.7129845759765
302.2471583046011
302.7303398156092
303.5329625113337
305.1630751491079
304.2473359109679
304.7829608196169
313.4964211605146
331.2536891404336
304.9273683885101
302.7404427166463
305.120488956793
322.2002892004569
306.4230645685124
303.7023738844768
298.5890263718541
311.8338591529407
305.9814097860937
303.1355561438641
291.3504208876357
287.6702203869351
348.1496435645244
345.9284102820206
345.0866345936133
344.4384047272892
347.5079791652016
345.2476898692712
344.592938553684
344.609764450366
345.8573371085848
344.5237855954205
344.0768364149333
344.8317381015372
342.1084553626642
344.2865202337041
343.8643828491878
345.2882759747803
342.5767563846278
339.6695267365087
333.0678162017085
310.7068468117521
344.6598609963899
343.768066661101
341.9194542025878
322.6436890704812
345.3398674547298
345.8216604705989
346.3311169393261
335.8329890235755
346.3722683968834
347.9077696265306
351.0138066794419
354.8766243451926
287.9733236179213
299.7120979909939
299.997343118921
299.999988190262
291.1177225670679
299.72566502934
299.9963697098574
299.9999774233421
295.4922500361028
299.7422763310457
299.9943284455023
299.9999572476624
299.8478670717814
299.7454451652835
299.9811911255459
299.9998664891544
299.9998742962331
299.9863110147653
299.5879015815514
297.0902601946088
299.9998722348815
299.9858408464328
299.611966486855
298.2191988931017
299.9998626731135
299.9837562574742
299.6151268661073
298.7761028126385
299.9998201286538
299.9760465856554
299.6880275253268
300.0610259982928
299.9998664879537
299.9999572456774
299.9999774181205
299.9999881859156
299.9811911261381
299.9943284455383
299.9963697094145
299.997343117415
299.7454451646421
299.7422763296308
299.7256650305384
299.7120979900816
299.8478670708953
295.4922500342602
291.1177225661386
287.9733236185596
)
;

boundaryField
{
    back
    {
        type            empty;
    }
    inlet
    {
        type            zeroGradient;
    }
    front
    {
        type            empty;
    }
    top
    {
        type            zeroGradient;
    }
    outlet
    {
        type            fixedValue;
        value           uniform 300;
    }
    bottom
    {
        type            zeroGradient;
    }
    wall
    {
        type            zeroGradient;
    }
}


// ************************************************************************* //
