/*--------------------------------*- C++ -*----------------------------------*\
  =========                 |
  \\      /  F ield         | OpenFOAM: The Open Source CFD Toolbox
   \\    /   O peration     | Website:  https://openfoam.org
    \\  /    A nd           | Version:  11
     \\/     M anipulation  |
\*---------------------------------------------------------------------------*/
FoamFile
{
    format      ascii;
    class       volScalarField;
    location    "0.27";
    object      Ma;
}
// * * * * * * * * * * * * * * * * * * * * * * * * * * * * * * * * * * * * * //

dimensions      [0 0 0 0 0 0 0];

internalField   nonuniform List<scalar> 
880
(
1.11801663592382
1.118016635762047
1.117995591416587
1.110943116829079
1.11801663592382
1.118016635412938
1.117976725793257
1.107565977329481
1.11801663592368
1.118016635456262
1.117918266083246
1.102717004264191
1.118016635917514
1.118016637398356
1.117752262955293
1.086469322193003
1.118016636038218
1.118016635794447
1.118016631601708
1.118016210906539
1.11801670140323
1.118015967627407
1.118012242487497
1.118020192046704
1.117237472685458
1.116574801102204
1.115669876385275
1.115874849153627
1.051539985448619
1.01755019036033
0.9992714795868
0.9943918203137578
1.118015962238534
1.11801152881897
1.1180065326655
1.117965064630319
1.117934205211759
1.117781241452498
1.117501746367449
1.117092245662306
1.109911956398486
1.104927377305128
1.09892140759241
1.093538785063846
0.9887315671805273
0.9840216122933461
0.9819844803393512
1.000074177871981
1.054766592993942
1.084912318147813
1.097241168696769
1.107447836622335
1.08103822362736
1.081267407339549
1.085522103967839
1.092353063584397
1.114921367039551
1.112378214693725
1.11004695277467
1.108560145761864
1.117776331060645
1.117428640400174
1.116918734890183
1.116350833706127
1.115854932862072
1.115389064515911
1.115015699768803
1.114875458325331
1.10892120726867
1.110925286825301
1.113921611512424
1.117435451982687
1.100562711258376
1.108592910844819
1.116209558314976
1.12279952179524
1.11613049363307
1.122603555104125
1.128908888184482
1.1343685193132
1.136893019174476
1.128198835898742
1.120446366096011
1.114929424134148
1.136874508940966
1.132102012286922
1.122302488230537
1.115177502601553
1.052674984291362
1.130083740962073
1.123980350628601
1.115749281008074
0.776065476464769
1.101507304173745
1.124205233162948
1.116268668860816
1.116547779350251
1.12122301630254
1.0482801114169
0.6144177787951657
1.116845257977235
1.116008826251231
1.000503491525688
0.6307860147010754
1.116741302749353
1.107380769685065
0.9378536529777042
0.6339105818236684
1.115779399764521
1.094177871782371
0.8852715694137441
0.6531786455570877
0.6783001514580557
0.8442200753977802
1.071921183628649
1.113556926873965
0.7069681290423849
0.8170615262587752
1.042848176917729
1.108795230685247
0.7427178662030183
0.8272433650869767
1.00962870967503
1.101501323641791
0.7902899107841238
0.8641191750763718
0.9904014713985879
1.089855744077715
1.075611522439698
1.002904655269277
0.9228838791201651
0.8532849911168461
1.074182957412266
1.047465795285573
1.009653749769481
0.9357532739353021
1.087601315293338
1.09708293204326
1.100044378622103
1.040306214933227
1.089510772172562
1.124808493902206
1.178065794003393
1.163757824229141
1.093581265593694
1.156743308528487
1.241461977785796
1.350855305420487
1.105377084624143
1.177170056498308
1.280223718379188
1.554519398925724
1.115399431448182
1.176975854388567
1.284391748983595
1.722583278274892
1.120911227838912
1.164967922972041
1.257580734883487
1.489350763116163
1.148216026528098
1.234093500778652
1.155695529226671
1.123447140042276
0.9946665338661516
1.202999894627616
1.145833015533311
1.122912912265909
0.8781907115975333
1.170167816791335
1.136807638346533
1.120724364540525
0.7432090957136454
1.123103715265795
1.126466970043448
1.119323024568157
0.7035655343438096
1.078010251953532
1.114673221109146
1.118346199033956
0.7482604063460472
1.050881368411362
1.109821109526948
1.117811624359947
0.7523221104411307
1.038116434028158
1.109593064008558
1.11778525989282
0.8133326035570507
1.060393128908294
1.113562884928051
1.117919112860606
0.809270031889036
1.031661424610143
1.107047703876645
1.117507315862199
0.8043753485124303
1.028347437915369
1.106414804253008
1.117490374394876
0.7883568416341081
1.023928594420042
1.105412942132737
1.117461438270129
0.7777997758189226
1.022576654701463
1.105100461661567
1.117446879398104
0.8133326035582439
1.060393128911187
1.113562884932111
1.117919112865916
0.7523221104411579
1.038116434030642
1.109593064009684
1.117785259895674
0.7482604063468575
1.050881368413282
1.109821109528225
1.117811624361904
0.7035655343430413
1.07801025195636
1.114673221109881
1.118346199034469
1.123447140040879
1.155695529224719
1.234093500777755
1.14821602652769
1.12291291226569
1.145833015532229
1.202999894627198
0.9946665338641071
1.120724364539043
1.136807638345399
1.170167816795481
0.878190711596003
1.119323024567186
1.126466970041325
1.123103715268813
0.743209095712968
1.489350763117088
1.25758073488265
1.164967922972076
1.120911227838785
1.722583278276325
1.284391748983716
1.176975854387315
1.115399431450373
1.55451939892698
1.280223718379248
1.177170056498904
1.105377084625025
1.350855305420679
1.241461977787641
1.156743308531377
1.093581265590128
1.075611522437687
1.002904655268962
0.922883879116897
0.8532849911165651
1.074182957412382
1.0474657952865
1.009653749768177
0.9357532739347423
1.087601315296815
1.097082932039949
1.100044378621609
1.040306214933435
1.089510772165168
1.124808493902928
1.178065794003893
1.163757824229037
0.7902899107838345
0.8641191750753728
0.9904014713979796
1.089855744069306
0.742717866203179
0.8272433650867959
1.009628709674246
1.101501323641097
0.7069681290428991
0.8170615262588736
1.042848176920711
1.108795230682915
0.6783001514582337
0.8442200753975481
1.071921183624925
1.113556926872948
1.116547779349815
1.121223016302433
1.048280111417343
0.6144177787949725
1.116845257972249
1.116008826250339
1.000503491528016
0.630786014703148
1.116741302743211
1.107380769676272
0.9378536529766189
0.6339105818254022
1.115779399761482
1.094177871787509
0.8852715694140969
0.6531786455565293
1.116268668861188
1.115749281008975
1.115177502598999
1.114929424133834
1.124205233169159
1.123980350629224
1.122302488232053
1.120446366096308
1.101507304176795
1.130083740962307
1.132102012290136
1.12819883590072
0.7760654764677409
1.05267498429186
1.136874508940585
1.13689301917427
1.114875458323482
1.117435451981108
1.122799521794192
1.134368519311578
1.115015699769717
1.113921611510205
1.11620955831373
1.128908888184333
1.115389064515717
1.110925286824267
1.108592910846812
1.122603555108065
1.115854932864189
1.108921207269336
1.100562711257949
1.116130493633406
1.117776331061246
1.114921367042986
1.081038223625699
1.054766592992474
1.117428640403622
1.112378214695143
1.081267407338411
1.08491231814708
1.11691873488794
1.110046952775987
1.085522103969719
1.097241168700198
1.116350833707515
1.108560145762666
1.092353063583668
1.107447836625527
1.000074177872768
1.093538785063483
1.117092245666718
1.117965064628134
0.9819844803404888
1.098921407591562
1.117501746371642
1.118006532666054
0.9840216122923229
1.104927377304524
1.117781241458502
1.118011528820768
0.9887315671818407
1.10991195639971
1.117934205214946
1.11801596223498
0.9943918203153421
1.115874849153941
1.118020192046884
1.118016210904542
0.9992714795877152
1.115669876386386
1.11801224249092
1.11801663160136
1.017550190361229
1.116574801103321
1.118015967628778
1.118016635795401
1.051539985448514
1.117237472686701
1.118016701405214
1.118016636035684
1.118016635923821
1.118016635760519
1.11799559141603
1.110943116630964
1.11801663592382
1.118016635416095
1.117976725793206
1.107565977274344
1.118016635922143
1.118016635457891
1.117918266083498
1.102717004253196
1.118016635916056
1.118016637400638
1.11775226295609
1.086469322190775
1.105402417685862
1.098884563253999
1.083907062725206
1.040635346372878
1.09888456332406
1.088177814360738
1.058070746559924
0.988672742406293
1.083907062763137
1.058070746586144
0.9960027267687844
0.8938431898640977
1.040635346378731
0.9886727424152995
0.8938431898688481
0.7816563133418443
0.7509195513316114
0.7914708946547542
0.8675645845387424
0.9401345487623988
0.8067940989977761
0.8129999238714926
0.8448416404830952
0.8926079609135519
0.8009332423824918
0.8349411232076135
0.867440443937291
0.8923907869276264
0.8342274136440487
0.870735780934546
0.8928619953092831
0.9058304370526458
0.9230119577664606
0.9310532474509602
0.9476393002337201
0.9787075834602073
0.9169913925233268
0.9313208746605063
0.9504566971154984
1.000355168312576
0.9025696946971454
0.9244321508583817
0.9482159942016199
1.063130255090827
0.8630816857021791
0.8851041308114728
0.914386555013271
1.149833710365386
1.159177755311884
1.19558448754502
1.163213993333047
1.153556964238753
1.276883762746909
1.295187477596928
1.238503111585766
1.204973840412956
1.433036588985109
1.355019585083615
1.284539039415583
1.238014578894346
1.167857768259493
1.095618294308621
1.079274787754128
1.074179164485102
1.148954184551184
1.145692327505481
1.143380350092613
1.142641002493736
1.183072865289623
1.165573824956928
1.151493113889249
1.142257771418821
1.204661419460197
1.177374936454177
1.153621391791986
1.137008512524362
1.061099446901351
1.050515343629747
1.040595188175059
1.023664321708982
1.14374927071884
1.071078247212468
0.8084878631101627
0.5270257395253781
1.14073748034433
1.012186383616567
0.6338506028414944
0.3321443877151791
1.129679299688184
0.9183259129498687
0.4406641730830962
0.1188015817051527
1.008825425504212
0.7035485043715977
0.2533489799958653
0.02779604549796608
0.4378789990443775
0.5247536497859979
0.5634707530937066
0.6102066963029865
0.3608583357266748
0.5012263860009085
0.5626163500115965
0.6089283982714919
0.2205023753818096
0.4221151183689177
0.5323616704634775
0.5897822559041017
0.06955235272180127
0.2393464889618246
0.3827511158264648
0.4719966860489105
0.6253331238129592
0.6658639140191613
0.7142433407454264
0.7786771052055789
0.6339241971489544
0.6754197691538534
0.7197944254038586
0.7744880280023154
0.6297076885661218
0.6773944979969039
0.7223406086941024
0.7709226485886702
0.5503669662696032
0.6301115291008597
0.709730878221194
0.7644566085035912
0.8481853704999327
0.9204734524770786
1.019857966703621
1.120108537744478
0.841872170875181
0.9093005851302832
1.002509889456399
1.134548751741725
0.8333824369408265
0.8974831446189665
1.014760860459661
1.436217221557493
0.8287338614793948
0.8905768552858095
1.041831332444874
1.999113251782723
1.343467222365573
1.542147883428483
0.6824776531313629
1.130248553944334
1.425359119432094
1.302853593495181
0.9391673970557154
1.432859991882441
1.465837800640877
0.919138934516829
1.00913461733043
1.420588162450688
1.127645030419559
0.3778466624157891
1.149885666813632
1.36761006549033
0.7112431839044527
0.5377816079772793
0.4264727249127382
0.3345490606386134
1.006388063121745
0.742178037343472
0.5425523000453472
0.290381890008324
1.088170017703614
0.8232529021235474
0.5550520736418266
0.2217968487619327
1.069254637619083
0.8175433819539739
0.5335363097032498
0.2002142559990366
0.08414362725067277
0.2643766936639943
0.4443686550701703
0.6514560290760478
0.1722572957449867
0.09223828307400576
0.3338690035974462
0.6048572515702801
0.1945843692058775
0.1066258773351327
0.1988464441831582
0.4983026395177862
0.1750590042187232
0.1310921091458676
0.1205097922562779
0.4458713972329012
0.629951908745374
0.5935295606566625
0.5517298057112661
0.5202616747006308
0.7223937686972678
0.6654189219299574
0.6015273064837108
0.5438184911763352
0.7483423872751294
0.6432174560817437
0.4862226124135931
0.3346522353319158
0.7379187579224294
0.5216628268894632
0.2811036189315838
0.09950206641470108
0.06598055449096982
0.08660318961115622
0.08885727024526056
0.08259158768518764
0.1629175668046717
0.0934417704473577
0.08571664661593013
0.08908120493608657
0.4499919313330326
0.3345975663396462
0.2061425534068442
0.08477891938947102
0.4786644541361272
0.426554636493699
0.3457871684958261
0.2822863488793666
0.08259158768533519
0.08908120493587726
0.08477891938798066
0.2822863488789626
0.08885727024569939
0.08571664661534496
0.206142553405475
0.3457871684957846
0.08660318961176684
0.09344177044611855
0.3345975663386055
0.4265546364940922
0.06598055449175982
0.1629175668037142
0.4499919313324209
0.4786644541360712
0.5202616747004901
0.5517298057105064
0.5935295606561678
0.6299519087451827
0.5438184911758789
0.6015273064831578
0.6654189219294733
0.7223937686970976
0.3346522353312257
0.4862226124133525
0.6432174560814441
0.7483423872747564
0.09950206641457947
0.2811036189310042
0.5216628268889212
0.7379187579222287
0.4458713972328898
0.120509792256391
0.1310921091445648
0.1750590042169467
0.4983026395174733
0.1988464441832381
0.1066258773346234
0.1945843692039914
0.6048572515697708
0.3338690035968946
0.09223828307429291
0.172257295743247
0.6514560290755429
0.4443686550692758
0.2643766936633342
0.08414362724906273
0.3345490606358881
0.4264727249118373
0.5377816079823793
0.7112431839125951
0.2903818900056387
0.5425523000435815
0.7421780373454734
1.006388063126426
0.2217968487599284
0.5550520736394412
0.8232529021234043
1.088170017705793
0.2002142559975006
0.5335363097009194
0.8175433819528463
1.06925463762027
1.130248553956401
0.6824776531323034
1.54214788342507
1.343467222365161
1.432859991888328
0.9391673970640625
1.302853593491912
1.425359119431649
1.420588162454206
1.009134617338719
0.9191389345133149
1.46583780064026
1.367610065493726
1.149885666821076
0.3778466624157959
1.127645030419413
1.120108537744763
1.019857966703845
0.9204734524770901
0.848185370501414
1.134548751741631
1.002509889456233
0.9093005851300598
0.8418721708758389
1.436217221556712
1.014760860459103
0.8974831446184307
0.8333824369406246
1.999113251781204
1.04183133244413
0.890576855285233
0.8287338614787092
0.7786771052061529
0.7142433407457269
0.6658639140196987
0.6253331238139006
0.7744880280028676
0.7197944254037193
0.6754197691537767
0.6339241971499751
0.7709226485887711
0.7223406086935487
0.6773944979961151
0.6297076885665742
0.7644566085021458
0.7097308782190225
0.6301115290975788
0.5503669662671365
0.6102066963031006
0.5634707530945017
0.5247536497851398
0.4378789990449441
0.6089283982725339
0.5626163500126644
0.501226386000279
0.3608583357274977
0.5897822559055347
0.5323616704646957
0.4221151183687035
0.2205023753826754
0.4719966860506856
0.3827511158275016
0.2393464889618284
0.06955235272227467
0.527025739527741
0.8084878631116627
1.071078247211273
1.143749270717565
0.3321443877178289
0.633850602843519
1.012186383616401
1.140737480343246
0.1188015817071539
0.4406641730852118
0.9183259129502976
1.129679299686669
0.02779604549760289
0.2533489799968447
0.7035485043712139
1.008825425501685
1.142641002491624
1.14338035009277
1.145692327508819
1.148954184551655
1.142257771416411
1.151493113889721
1.165573824959867
1.183072865290342
1.137008512521726
1.153621391792749
1.17737493645708
1.204661419460882
1.023664321705996
1.040595188175531
1.050515343631988
1.061099446901623
1.15355696424233
1.163213993336762
1.195584487544045
1.159177755310752
1.204973840416971
1.238503111589599
1.29518747759623
1.276883762745791
1.238014578898596
1.284539039419196
1.355019585082934
1.433036588984164
1.074179164488635
1.079274787756675
1.09561829430664
1.167857768258228
0.9787075834607308
0.9476393002341803
0.9310532474493639
0.9230119577661687
1.00035516831309
0.950456697115206
0.9313208746587367
0.9169913925226765
1.063130255091739
0.948215994200711
0.9244321508563969
0.9025696946960283
1.149833710367015
0.9143865550139296
0.8851041308117973
0.8630816857043122
0.9058304370540157
0.8923907869278653
0.8926079609144153
0.9401345487617879
0.8928619953097702
0.867440443936987
0.8448416404837304
0.867564584537335
0.870735780934767
0.8349411232075582
0.8129999238714971
0.7914708946540441
0.8342274136480208
0.8009332423862198
0.8067940989974859
0.7509195513323467
0.7944583688076339
1.048119530225606
1.111086575286595
1.117825170920881
0.7864523799244949
1.036145102555224
1.108449212730888
1.117670688071479
0.7865365369154803
1.033757870141419
1.106774216777371
1.11753938378869
0.7686222666527185
1.027061902293367
1.105557043102374
1.11746981258324
1.117507315860434
1.107047703875896
1.031661424609442
0.8092700318884365
1.117490374394818
1.106414804251966
1.028347437915049
0.8043753485126659
1.117461438270065
1.105412942135116
1.023928594419251
0.7883568416361255
1.117446879398206
1.105100461664106
1.022576654701014
0.7777997758199208
1.117469812584372
1.117539383787242
1.117670688071287
1.117825170924292
1.105557043104758
1.106774216777555
1.10844921273091
1.11108657528827
1.027061902294033
1.03375787014228
1.036145102556442
1.048119530227372
0.7686222666524314
0.7865365369148483
0.7864523799240023
0.7944583688081209
)
;

boundaryField
{
    back
    {
        type            empty;
    }
    inlet
    {
        type            calculated;
        value           nonuniform List<scalar> 
16
(
1.11801663592382
1.11801663592382
1.118016635923689
1.118016635921667
1.118016635969574
1.118016635883182
1.118016636627828
1.118016536892492
1.118016536891741
1.118016636627686
1.11801663588311
1.118016635969396
1.11801663592382
1.11801663592382
1.118016635923413
1.118016635921401
)
;
    }
    front
    {
        type            empty;
    }
    top
    {
        type            calculated;
        value           uniform 0;
    }
    outlet
    {
        type            calculated;
        value           nonuniform List<scalar> 
16
(
1.117334689427281
1.117322209070956
1.117295772804951
1.117280087660591
1.117765618611465
1.117572291941691
1.117402915974674
1.117310427210764
1.117334689425301
1.117322209070743
1.117295772805085
1.117280087660804
1.117310427211772
1.11740291597288
1.117572291941813
1.117765618615034
)
;
    }
    bottom
    {
        type            calculated;
        value           uniform 0;
    }
    wall
    {
        type            calculated;
        value           uniform 0;
    }
}


// ************************************************************************* //
