/*--------------------------------*- C++ -*----------------------------------*\
  =========                 |
  \\      /  F ield         | OpenFOAM: The Open Source CFD Toolbox
   \\    /   O peration     | Website:  https://openfoam.org
    \\  /    A nd           | Version:  11
     \\/     M anipulation  |
\*---------------------------------------------------------------------------*/
FoamFile
{
    format      ascii;
    class       volScalarField;
    location    "0.27";
    object      rho;
}
// * * * * * * * * * * * * * * * * * * * * * * * * * * * * * * * * * * * * * //

dimensions      [0 0 0 0 0 0 0];

internalField   nonuniform List<scalar> 
880
(
0.2239950333699092
0.2239950334779024
0.2240008402115273
0.225863622343851
0.2239950333699093
0.2239950334270218
0.2240050411287747
0.2270277149128283
0.2239950333699116
0.2239950335833612
0.2240174860314066
0.2286554882634522
0.2239950333721235
0.223995034599024
0.2240498832579113
0.2312080451615734
0.2239950333222417
0.2239950333195192
0.223995033714331
0.2239951517015396
0.2239950492775238
0.2239950696938791
0.2239960615897703
0.2239959007942645
0.2241322483173398
0.2242351476506722
0.2244202717754159
0.2244604359439695
0.2362253581069891
0.2412037314645685
0.2451878990664088
0.2468130904790747
0.2239952714931204
0.2239967004248314
0.2239980475247648
0.2240111840379894
0.2240093288033752
0.2240354246455345
0.2240813004425705
0.2241587453705552
0.2254769212812495
0.2263614679403467
0.2273191169209075
0.228663432756083
0.248878713531097
0.2521961585979695
0.253270121352477
0.2533280166856118
0.2423201304799016
0.2366580884591528
0.2345023300758857
0.2325205644947745
0.23172763145573
0.2327361553962234
0.2334972979172666
0.2336987228987132
0.2245658260228698
0.2250057225302547
0.2255173656177043
0.2260283634390254
0.2240534289633636
0.2241523436234223
0.2243080271131308
0.2245090089879784
0.2247190145564734
0.2248906074524158
0.2249590893508692
0.2249467544603623
0.2263993041222033
0.2266550008511465
0.2268301662362971
0.2269743868705855
0.2335532664053551
0.2330979842800307
0.2326284354535407
0.2321117024473582
0.2310484333134541
0.229863470032054
0.2295001000414356
0.2296244874622481
0.2290716878059981
0.231636321601602
0.227042857103382
0.2248477538894626
0.2315995686637784
0.2310908261572295
0.2268093044373501
0.224697078507078
0.250597533478133
0.2315859059588007
0.2262282373268111
0.2244754908022699
0.3133977097693549
0.2368797504526116
0.2260846551097447
0.2242798083955498
0.2241096352296678
0.2260103112717905
0.246561629211827
0.3645140244418178
0.2240958556318555
0.2261328391639901
0.2560860890797402
0.3684935391453282
0.2242121212220152
0.2271845462136333
0.2704366281663445
0.3773818493202559
0.224534620496422
0.2297075955781705
0.2857401330583937
0.3785006725870317
0.3763816908550439
0.3040363924328531
0.2345944277858681
0.2252153412468325
0.3700263221387905
0.3201754461820342
0.2426857997540732
0.2265705449585068
0.3598885118711477
0.3287504901969949
0.253008331641102
0.228803553980703
0.3443361483755721
0.3298711216395729
0.2639873037581671
0.2323259036141107
0.2370829481082929
0.2700597429130013
0.3154630357282728
0.3254558960039124
0.2386837120025007
0.2613648339942912
0.2919632741568189
0.3020752707620755
0.2380490780487952
0.2526036683650946
0.2691198200303328
0.2735709428500925
0.2358563483421328
0.2437204481136734
0.247736571649682
0.2412071334236279
0.235172731329581
0.2371550547206646
0.2305144714956224
0.1963581744842425
0.2319711910492461
0.2305142144514943
0.2175219998167307
0.1374949027468288
0.2291968943215029
0.2270671255040506
0.2084168474261974
0.09381991606516571
0.2271188330518612
0.2254062077836185
0.2002959330731386
0.0830719133217491
0.09118599094203762
0.1964971654499467
0.223499728302279
0.2254033976577366
0.08821322311512123
0.1929685805278513
0.2225548752401932
0.2243820370666448
0.08780536721512418
0.1899942913342949
0.2217816195516336
0.2239739478680654
0.08399969394482028
0.1869390111645182
0.2206651701651752
0.2238585210708887
0.09947096468674296
0.1911649863978365
0.2199381720715412
0.2237752597788618
0.1193335633339617
0.1977740961001147
0.2204401727083409
0.2238387501043178
0.1365267500563517
0.203407498554963
0.2213316824102075
0.2238949153287097
0.1534175028217318
0.2079640925960366
0.2224095079912183
0.2239434619058019
0.1325693380804562
0.1981190828208713
0.2208668653466364
0.2238509151033451
0.1368245317171613
0.1983623699161746
0.2206544450694169
0.2238431666770376
0.1444651065371844
0.198684080894505
0.2204285609938993
0.223832837818534
0.1545129511598103
0.1998746898248213
0.2202978520179203
0.2238278399700267
0.1534175028215198
0.2079640925958102
0.2224095079911824
0.2239434619049383
0.1365267500561931
0.2034074985545471
0.2213316824099151
0.2238949153279637
0.1193335633338721
0.1977740960997955
0.2204401727079081
0.2238387501037241
0.09947096468682734
0.191164986397413
0.2199381720714477
0.2237752597787405
0.225403397657835
0.2234997283023071
0.1964971654499001
0.09118599094155985
0.2243820370666865
0.2225548752401389
0.1929685805276552
0.08821322311475496
0.223973947868439
0.2217816195516061
0.1899942913334551
0.08780536721489998
0.2238585210711434
0.2206651701655198
0.1869390111640232
0.08399969394486501
0.08307191332137633
0.2002959330730354
0.2254062077833773
0.227118833051649
0.09381991606487691
0.208416847426198
0.2270671255041073
0.2291968943209281
0.137494902746584
0.2175219998168067
0.2305142144516837
0.2319711910490045
0.1963581744843781
0.2305144714955623
0.2371550547201083
0.2351727313297668
0.2370829481085065
0.2700597429149443
0.31546303572961
0.3254558960037882
0.2386837120022315
0.2613648339948922
0.2919632741575288
0.3020752707623477
0.2380490780482891
0.2526036683657676
0.2691198200306075
0.273570942850314
0.2358563483422165
0.2437204481132902
0.247736571649894
0.2412071334239487
0.3443361483753448
0.3298711216394619
0.2639873037583864
0.2323259036156419
0.3598885118710943
0.3287504901970146
0.2530083316412158
0.2288035539808466
0.3700263221385138
0.3201754461820891
0.2426857997535942
0.2265705449590232
0.3763816908544657
0.3040363924334367
0.2345944277872764
0.2252153412470288
0.2241096352298133
0.2260103112717659
0.2465616292114801
0.3645140244410079
0.2240958556327514
0.226132839164704
0.2560860890800339
0.3684935391449132
0.2242121212232962
0.2271845462144647
0.2704366281663179
0.3773818493202991
0.2245346204969844
0.2297075955771079
0.2857401330578123
0.3785006725863819
0.2242798083955096
0.2244754908022538
0.2246970785075531
0.2248477538895026
0.2260846551088151
0.2262282373264673
0.2268093044372061
0.2270428571032023
0.2368797504521316
0.2315859059588042
0.2310908261567304
0.2316363216013177
0.3133977097687349
0.2505975334780755
0.2315995686637876
0.2290716878060269
0.2249467544606241
0.2269743868710315
0.2321117024479122
0.2296244874625352
0.2249590893506396
0.2268301662366539
0.2326284354539395
0.2295001000414507
0.2248906074523737
0.2266550008512008
0.2330979842798749
0.2298634700311675
0.2247190145560365
0.226399304121768
0.2335532664055467
0.2310484333133342
0.2240534289632469
0.2245658260222074
0.2317276314561227
0.2423201304801241
0.2241523436227853
0.2250057225298737
0.2327361553968688
0.2366580884591789
0.224308027113407
0.2255173656171248
0.2334972979171062
0.2345023300749847
0.2245090089876421
0.2260283634386167
0.2336987228991024
0.2325205644941301
0.2533280166853655
0.2286634327562186
0.2241587453701377
0.2240111840385211
0.2532701213523155
0.2273191169211364
0.2240813004418587
0.2239980475247441
0.2521961585982987
0.2263614679404129
0.2240354246444077
0.2239967004243859
0.2488787135311041
0.225476921281023
0.2240093288030479
0.2239952714939028
0.2468130904789211
0.2244604359441497
0.2239959007944205
0.2239951517023298
0.2451878990662473
0.2244202717752091
0.2239960615891736
0.2239950337144911
0.2412037314644048
0.2242351476504514
0.2239950696934986
0.2239950333193458
0.236225358106871
0.2241322483171327
0.2239950492773589
0.2239950333231976
0.2239950333699092
0.2239950334784089
0.2240008402116272
0.2258636223353706
0.2239950333699093
0.2239950334263837
0.2240050411287251
0.2270277149126828
0.2239950333702375
0.2239950335830071
0.224017486031296
0.2286554882633254
0.2239950333725028
0.2239950345985896
0.2240498832577216
0.2312080451614494
0.2276662297338227
0.2298109402646533
0.2334748496549158
0.2419982787695595
0.2298109402649846
0.2325767842210293
0.2391365163593338
0.2522310583289624
0.2334748496557204
0.2391365163589058
0.2503063071679508
0.2669807251589878
0.241998278769268
0.2522310583287389
0.2669807251597211
0.2855226727954599
0.304109683241917
0.2882416645207688
0.2815220332625607
0.2667077192729259
0.3001571941921371
0.2957238663971125
0.2964059678764807
0.2889527034649516
0.300914117604595
0.2994286167464553
0.2988218568496556
0.2959601598080976
0.2972142761158111
0.2965889973687224
0.2964431774657759
0.2945439223518964
0.2904522188679363
0.2890089943526854
0.2839573102518809
0.2774740815271677
0.2915913420444149
0.2891348723768746
0.284411694932218
0.2781590671901455
0.2919208394973247
0.2895915589910261
0.2848183595642986
0.2788655952704664
0.2923721533568872
0.28954498934887
0.2849086541099995
0.2756065258245445
0.2280800625658709
0.2072533925711252
0.2063200755572629
0.208114467742523
0.2130321670797189
0.2009908928101946
0.20396636858444
0.2064039788699598
0.2006487793006314
0.2006908485881085
0.2049075652399609
0.2072598072280981
0.1821895276355233
0.1960182927706291
0.2029509122566322
0.2056269935081607
0.2096899399001838
0.2115315742913246
0.2136865641183389
0.2160677335948055
0.2082434195255641
0.2103891056175305
0.2128176310179603
0.2153551370524882
0.2087533654387323
0.2106745789406121
0.2122039076159452
0.2149688702014901
0.2073982959765679
0.2096161082819787
0.2122083504806155
0.2150185537840527
0.218585616342174
0.2418163151913629
0.3109515713390936
0.3714882386892105
0.2182974420728214
0.2505639446194416
0.3203203427596195
0.3551419749155171
0.2180201942510314
0.2537491880955088
0.3238956206605512
0.3469612611492351
0.2180222498908843
0.2580377566315057
0.3300582865205584
0.3453268789716917
0.4388057980052885
0.4209402155428877
0.4137673198322483
0.416697849299428
0.4346954544390276
0.4216472456902322
0.4128426155332726
0.4166271550806225
0.4291452319974756
0.4208959330356692
0.4114367386784034
0.4152206313231174
0.4211827048716303
0.4224333678199462
0.4118639396406125
0.4151384467709631
0.4096200370860702
0.3921052140715094
0.3731568402629688
0.3527123678891065
0.4103596139392481
0.3937229930967255
0.3745058900896954
0.3558985877070454
0.4108278790422247
0.3961250216178526
0.3748567883851283
0.3584191771003234
0.4119504434950547
0.3977178487932858
0.381723827280753
0.3629982833514446
0.3327513602747752
0.3129408696939559
0.2909676794678943
0.2629304823132146
0.334783008513539
0.314580048854295
0.2916348963821048
0.2693825515681156
0.3371426061310436
0.3167733487681046
0.2910914656117672
0.26679625118226
0.3413284862302644
0.3212909137022635
0.2909437429155795
0.3039880829960079
0.1722700693114012
0.04760014978663976
0.01397431264473485
0.01163284520021655
0.134918162104097
0.03367513381655783
0.01679315544253549
0.01625306349041504
0.1016339565530119
0.02538297248570482
0.0191605362685626
0.01959115761339961
0.07229810940430247
0.01767276943385942
0.01989651566969786
0.0209793505218289
0.01851429830300595
0.02519955007524864
0.0315423623354865
0.04084734645843958
0.02309585274465866
0.0305538473392703
0.03762585204979511
0.04698712250599919
0.02655276287877334
0.03423730261752998
0.04258808838643584
0.0535127813882923
0.02837470445994187
0.03695519681900302
0.04774718117149213
0.05822998851200981
0.05485302343716461
0.07406196636357526
0.09119795308688976
0.108078954936487
0.05732068398283693
0.07315620002287029
0.09032390600435072
0.1068502910071029
0.06002662404861797
0.07412826496047258
0.0875496744318931
0.1038863872124723
0.05780844205480281
0.07104644002204778
0.0810785337197622
0.1048898201876147
0.1092883615859338
0.1086076171036721
0.1086225965696676
0.1043681688888349
0.09325619228418973
0.0954266056302389
0.09801160585800398
0.09624817525844662
0.07804412065787082
0.08323495083391397
0.08780979812820713
0.08810260871084503
0.06593951048241382
0.07332968555038692
0.07936047123319806
0.08535252666970482
0.09279589587095004
0.09868951988820043
0.102353335969984
0.1038081144890945
0.09167666605471786
0.096768020871044
0.1013067107533001
0.103854345937689
0.09536771862883389
0.09778314895423519
0.1020281023806599
0.1046630374398708
0.1005236081309352
0.09998388719965402
0.102428559502919
0.1046992710068196
0.103808114489088
0.103854345937694
0.1046630374398646
0.1046992710068101
0.102353335969983
0.101306710753327
0.102028102380657
0.1024285595028955
0.09868951988822373
0.09676802087108978
0.09778314895423405
0.09998388719961426
0.09279589587097957
0.0916766660547492
0.09536771862881716
0.1005236081308763
0.1043681688888079
0.1086225965696703
0.1086076171036297
0.1092883615857865
0.09624817525839112
0.09801160585793711
0.09542660563015515
0.09325619228405803
0.08810260871082717
0.08780979812813154
0.08323495083383793
0.07804412065779451
0.0853525266697082
0.07936047123316353
0.07332968555035026
0.06593951048236821
0.1048898201875194
0.08107853371980968
0.0710464400221635
0.05780844205500152
0.103886387212363
0.08754967443188809
0.07412826496056128
0.06002662404877976
0.1068502910069783
0.09032390600432851
0.07315620002295647
0.05732068398302514
0.1080789549363227
0.09119795308682856
0.07406196636363406
0.0548530234373663
0.04084734645865999
0.03154236233562201
0.02519955007526521
0.0185142983029763
0.04698712250622519
0.03762585204995046
0.03055384733936846
0.0230958527446906
0.0535127813884924
0.04258808838660166
0.03423730261764974
0.02655276287880526
0.05822998851220413
0.04774718117167847
0.03695519681915681
0.02837470445999178
0.01163284520022418
0.01397431264464442
0.04760014978635488
0.1722700693113748
0.01625306349044706
0.01679315544254796
0.0336751338165124
0.1349181621040217
0.0195911576134165
0.01916053626854695
0.0253829724857333
0.1016339565529805
0.0209793505218511
0.01989651566969801
0.01767276943389367
0.07229810940428874
0.2629304823134013
0.2909676794677606
0.3129408696936911
0.3327513602742711
0.2693825515682709
0.2916348963819763
0.3145800488540361
0.3347830085131882
0.2667962511823561
0.2910914656116901
0.3167733487679145
0.3371426061309072
0.3039880829960121
0.2909437429155499
0.3212909137021277
0.3413284862301589
0.3527123678888112
0.3731568402626643
0.3921052140712601
0.40962003708573
0.3558985877068779
0.3745058900899976
0.3937229930965787
0.4103596139391093
0.3584191771004471
0.3748567883881868
0.3961250216178154
0.4108278790423103
0.3629982833513488
0.3817238272770574
0.3977178487931144
0.4119504434950804
0.4166978492994866
0.4137673198320936
0.4209402155421931
0.438805798004424
0.4166271550806057
0.4128426155331361
0.4216472456894438
0.4346954544382264
0.4152206313232694
0.4114367386783105
0.4208959330348414
0.4291452319968328
0.4151384467710926
0.4118639396404564
0.4224333678190821
0.4211827048710431
0.3714882386886965
0.310951571338844
0.2418163151915292
0.2185856163424487
0.3551419749151132
0.3203203427593928
0.2505639446195309
0.2182974420730699
0.3469612611488134
0.3238956206603501
0.253749188095566
0.2180201942512769
0.3453268789713893
0.3300582865203544
0.2580377566315075
0.2180222498911351
0.2160677335952084
0.213686564118221
0.2115315742906334
0.2096899399000349
0.215355137052892
0.2128176310177834
0.210389105616873
0.2082434195253909
0.2149688702019026
0.2122039076158076
0.2106745789399887
0.2087533654385502
0.2150185537844913
0.2122083504804749
0.2096161082813304
0.2073982959764207
0.2081144677418199
0.2063200755565977
0.207253392571295
0.2280800625661236
0.206403978869165
0.2039663685838014
0.2009908928104424
0.2130321670799512
0.2072598072273044
0.2049075652393792
0.2006908485884116
0.2006487793008354
0.2056269935073529
0.2029509122559617
0.1960182927709231
0.1821895276355995
0.2774740815271154
0.2839573102519852
0.2890089943532685
0.290452218868141
0.2781590671901446
0.2844116949325003
0.2891348723774907
0.2915913420446065
0.2788655952704769
0.2848183595646717
0.2895915589916284
0.2919208394975057
0.2756065258247639
0.2849086541104442
0.2895449893495175
0.2923721533570506
0.2945439223514749
0.2959601598078123
0.2889527034647859
0.2667077192732918
0.2964431774654452
0.2988218568493792
0.2964059678761484
0.2815220332625318
0.296588997368375
0.29942861674613
0.2957238663968261
0.2882416645203806
0.2972142761154758
0.3009141176042741
0.3001571941918058
0.3041096832411977
0.1653095854073379
0.2079384796997376
0.222128456435145
0.2239337732730271
0.1636981270065667
0.2059111889412638
0.2215172394198382
0.2238963771378263
0.1653902550132812
0.2044058369627945
0.220983647367228
0.2238587205375941
0.1606864755507365
0.2021162838794712
0.2205372788874544
0.2238357127623274
0.2238509151034037
0.220866865346926
0.1981190828207501
0.1325693380804029
0.2238431666770558
0.2206544450696342
0.1983623699160922
0.1368245317171065
0.2238328378186809
0.2204285609935527
0.1986840808944574
0.1444651065371096
0.2238278399700539
0.2202978520175146
0.1998746898247878
0.15451295115968
0.2238357127620956
0.2238587205373575
0.2238963771376932
0.2239337732724182
0.2205372788869266
0.2209836473670032
0.2215172394195998
0.2221284564350995
0.2021162838794831
0.2044058369627419
0.2059111889413566
0.207938479699744
0.1606864755506416
0.1653902550132506
0.1636981270065137
0.1653095854071848
)
;

boundaryField
{
    back
    {
        type            empty;
    }
    inlet
    {
        type            calculated;
        value           nonuniform List<scalar> 
16
(
0.2239950333699092
0.2239950333699093
0.2239950333699116
0.2239950333721235
0.2239950333222417
0.2239950333195193
0.223995033714331
0.2239951517015396
0.2239951517023298
0.2239950337144911
0.2239950333193457
0.2239950333231976
0.2239950333699092
0.2239950333699093
0.2239950333702375
0.2239950333725028
)
;
    }
    front
    {
        type            empty;
    }
    top
    {
        type            calculated;
        value           nonuniform List<scalar> 
40
(
0.2239952714931204
0.2239967004248314
0.2239980475247648
0.2240111840379894
0.2240534289633635
0.2241523436234223
0.2243080271131308
0.2245090089879785
0.2247190145564734
0.2248906074524158
0.2249590893508692
0.2249467544603623
0.2248477538894627
0.224697078507078
0.2244754908022699
0.2242798083955498
0.2241096352296678
0.2240958556318555
0.2242121212220153
0.2245346204964221
0.2252153412468325
0.2265705449585068
0.2288035539807031
0.2323259036141106
0.2370829481082929
0.2386837120025007
0.2380490780487951
0.2358563483421328
0.235172731329581
0.2319711910492461
0.229196894321503
0.2271188330518612
0.2254033976577366
0.2243820370666448
0.2239739478680654
0.2238585210708887
0.2237752597788618
0.2238387501043177
0.2238949153287097
0.2239434619058019
)
;
    }
    outlet
    {
        type            calculated;
        value           uniform 0.2239950333699093;
    }
    bottom
    {
        type            calculated;
        value           nonuniform List<scalar> 
40
(
0.2239434619049383
0.2238949153279637
0.2238387501037241
0.2237752597787405
0.225403397657835
0.2243820370666864
0.223973947868439
0.2238585210711434
0.227118833051649
0.2291968943209281
0.2319711910490045
0.2351727313297668
0.2370829481085065
0.2386837120022315
0.2380490780482891
0.2358563483422165
0.2323259036156419
0.2288035539808466
0.2265705449590232
0.2252153412470288
0.2241096352298133
0.2240958556327515
0.2242121212232962
0.2245346204969844
0.2242798083955096
0.2244754908022538
0.2246970785075531
0.2248477538895026
0.2249467544606241
0.2249590893506396
0.2248906074523737
0.2247190145560365
0.2240534289632469
0.2241523436227853
0.224308027113407
0.2245090089876421
0.2240111840385211
0.2239980475247441
0.2239967004243859
0.2239952714939028
)
;
    }
    wall
    {
        type            calculated;
        value           nonuniform List<scalar> 
104
(
0.304109683241917
0.3001571941921371
0.300914117604595
0.2972142761158111
0.2923721533568872
0.28954498934887
0.2849086541099995
0.2756065258245445
0.1821895276355233
0.1960182927706291
0.2029509122566322
0.2056269935081607
0.2073982959765679
0.2096161082819787
0.2122083504806155
0.2150185537840527
0.2180222498908843
0.2580377566315057
0.3300582865205584
0.3453268789716916
0.4211827048716303
0.4224333678199462
0.4118639396406125
0.4151384467709631
0.4119504434950547
0.3977178487932858
0.381723827280753
0.3629982833514446
0.3413284862302644
0.3212909137022635
0.2909437429155795
0.3039880829960079
0.07229810940430247
0.01767276943385942
0.01989651566969786
0.0209793505218289
0.02837470445994187
0.03695519681900302
0.04774718117149213
0.05822998851200981
0.05780844205480282
0.07104644002204778
0.0810785337197622
0.1048898201876147
0.06593951048241382
0.07332968555038692
0.07936047123319806
0.08535252666970482
0.09279589587095004
0.09868951988820043
0.102353335969984
0.1038081144890945
0.103808114489088
0.102353335969983
0.09868951988822373
0.09279589587097957
0.0853525266697082
0.07936047123316353
0.07332968555035026
0.06593951048236821
0.1048898201875194
0.08107853371980968
0.0710464400221635
0.05780844205500151
0.05822998851220413
0.04774718117167847
0.03695519681915681
0.02837470445999178
0.0209793505218511
0.01989651566969801
0.01767276943389367
0.07229810940428874
0.3039880829960121
0.2909437429155499
0.3212909137021276
0.3413284862301589
0.3629982833513488
0.3817238272770574
0.3977178487931144
0.4119504434950804
0.4151384467710926
0.4118639396404564
0.4224333678190821
0.4211827048710431
0.3453268789713893
0.3300582865203544
0.2580377566315075
0.2180222498911351
0.2150185537844913
0.2122083504804749
0.2096161082813304
0.2073982959764207
0.2056269935073528
0.2029509122559617
0.1960182927709231
0.1821895276355995
0.2756065258247639
0.2849086541104442
0.2895449893495175
0.2923721533570506
0.2972142761154758
0.3009141176042741
0.3001571941918058
0.3041096832411977
)
;
    }
}


// ************************************************************************* //
