/*--------------------------------*- C++ -*----------------------------------*\
  =========                 |
  \\      /  F ield         | OpenFOAM: The Open Source CFD Toolbox
   \\    /   O peration     | Website:  https://openfoam.org
    \\  /    A nd           | Version:  11
     \\/     M anipulation  |
\*---------------------------------------------------------------------------*/
FoamFile
{
    format      ascii;
    class       surfaceScalarField;
    location    "8.575";
    object      phi;
}
// * * * * * * * * * * * * * * * * * * * * * * * * * * * * * * * * * * * * * //

dimensions      [0 3 -1 0 0 0 0];

internalField   nonuniform List<scalar> 
8667
(
15.890348
1.8604837
0.02694616
13.991989
1.768654
0.12970528
12.089751
1.6640895
0.23814811
10.19565
1.4674051
0.42669627
8.315954
1.2834446
0.59625106
6.4453975
1.0138555
0.856701
4.6131616
0.69943492
1.132801
2.828027
0.2850744
1.5000602
-0.45922441
2.1690176
1.1182338
15.891088
3.7471736
13.988754
3.6709879
12.083948
3.5688961
10.183941
3.367412
8.297183
3.1702025
6.4301928
2.8808456
4.5905495
2.5390782
2.8319675
2.0436564
1.248031
1.1247121
15.888043
5.6369081
13.986036
5.5729958
12.079634
5.4752974
10.173364
5.2736822
8.2764164
5.0671502
6.4123228
4.7449392
4.5775173
4.3738837
2.813619
3.8075547
2.9639901
1.0976599
15.889888
7.5247985
13.984217
7.4786668
12.075624
7.3838904
10.164858
7.1844481
8.2640029
6.9680051
6.3934991
6.6154431
4.5516256
6.2157571
2.8046104
5.55457
4.6509232
1.1176772
15.887958
9.4146167
13.986416
9.3802088
12.073764
9.2965418
10.159081
9.0991313
8.2526815
8.8744048
6.3773067
8.4908178
4.5289864
8.0640775
2.793547
7.2900094
6.3246748
1.1197954
15.886525
11.305869
13.985616
11.281118
12.07528
11.206878
10.154432
11.01998
8.2451075
10.783729
6.3576465
10.378279
4.5050659
9.9166581
2.778115
9.0169603
7.9791038
1.1236861
15.88532
13.198328
13.985816
13.180622
12.075924
13.11677
10.155081
12.940822
8.2380346
12.700776
6.3426834
12.27363
4.4782991
11.781042
2.7594215
10.735838
9.6157472
1.1227781
15.884909
15.091197
13.98575
15.079781
12.078207
15.024313
10.15349
14.865539
8.2314069
14.622859
6.3299555
14.175081
4.4565142
13.654484
2.7310548
12.461297
11.222841
1.123961
15.885314
16.983661
13.986337
16.978757
12.079984
16.930665
10.158142
16.787381
8.2246645
16.556337
6.3169711
16.082775
4.4310335
15.540421
2.7077486
14.184582
12.812185
1.1184047
18.813366
15.948073
20.640836
15.950308
22.465525
15.953095
24.286977
15.956328
26.105297
15.959439
27.92012
15.962958
29.732466
15.965434
31.539869
15.970377
15.969502
33.348147
18.81693
14.109901
20.654754
14.112484
22.491147
14.116701
24.324815
14.122661
26.155194
14.12906
27.980841
14.13731
29.80301
14.143265
31.62255
14.150837
14.154219
33.437833
18.775356
12.265211
20.621611
12.266229
22.469037
12.269275
24.317702
12.273997
26.165957
12.280804
28.014773
12.288495
29.860853
12.297184
31.705634
12.306057
12.316261
33.543592
18.643784
10.408807
20.5015
10.408512
22.360758
10.410018
24.222894
10.41186
26.084196
10.419503
27.94853
10.424161
29.809401
10.436314
31.672999
10.442458
10.455742
33.533518
18.42586
8.5392844
20.302574
8.5317985
22.18124
8.5313516
24.06565
8.5274503
25.950553
8.5345994
27.841735
8.5329793
29.733197
8.5448522
31.630267
8.5453875
8.5549781
33.531032
17.92724
6.6948189
19.786124
6.6729145
21.657526
6.6599496
23.542623
6.6423531
25.4381
6.6391232
27.342067
6.6290122
29.252077
6.6348414
31.164825
6.6326399
6.6420613
33.077742
17.355227
4.8800129
19.194918
4.8332235
21.058316
4.7965523
22.958178
4.7424903
24.885112
4.7121898
26.838611
4.6755132
28.813647
4.6598054
30.806569
4.6397174
4.6360818
32.812549
15.82486
3.2397354
17.560061
3.0980224
19.367094
2.9895192
21.248183
2.8614008
23.174607
2.7857665
25.154054
2.6960657
27.155279
2.6585807
29.189109
2.6058874
2.5970798
31.228111
14.268451
1.7834695
15.996783
1.3696901
18.102889
0.88341355
20.381564
0.58272508
22.721085
0.44624549
25.108123
0.30902813
27.489063
0.27764095
29.871787
0.22316294
32.249459
0.21940759
33.236534
0.11161268
33.127546
0.10898835
33.019693
0.10785232
32.914817
0.10487614
32.810729
0.10408828
32.709158
0.10157124
32.609236
0.099922131
32.510562
0.09867406
0.094116364
32.416445
33.337451
0.21199453
33.238173
0.2082666
33.14042
0.20560491
33.042921
0.20237521
32.948079
0.19893021
32.853663
0.19598687
32.762719
0.19086627
32.672473
0.18892004
0.18079432
32.585795
33.438302
0.31728414
33.33338
0.31318893
33.229844
0.30914082
33.125713
0.30650631
33.023183
0.30145994
32.923551
0.29561877
32.825086
0.28933097
32.732084
0.28192242
0.27447705
32.638401
33.430174
0.42062809
33.330277
0.41308534
33.232871
0.40654719
33.139261
0.40011629
33.047292
0.39342924
32.961054
0.38185619
32.875905
0.37448002
32.798197
0.35963026
0.35108687
32.721588
33.420167
0.53149252
33.31481
0.51844243
33.213016
0.50834144
33.116028
0.49710379
33.022299
0.48715825
32.933605
0.47055073
32.848518
0.45956687
32.769443
0.43870497
0.42799839
32.692532
32.988209
0.62102565
32.908078
0.5985729
32.833974
0.5824458
32.769199
0.56187902
32.709384
0.54697319
32.659197
0.52073808
32.613337
0.50542595
32.575271
0.47677098
0.46496024
32.53831
32.75856
0.67501469
32.719432
0.63770084
32.682914
0.61896354
32.657169
0.58762413
32.632787
0.57135518
32.612927
0.54059757
32.59057
0.52778302
32.568652
0.49868914
0.4918429
32.54177
31.352573
0.55055245
31.482731
0.50754312
31.624978
0.47671681
31.765968
0.44663401
31.917297
0.42002548
32.06002
0.3978752
32.194893
0.39291028
32.301076
0.39250531
0.41246778
32.380452
32.636591
0.1634209
32.970155
0.17397901
33.267707
0.17916464
33.504001
0.21034052
33.678816
0.24521046
33.767932
0.30875915
33.793272
0.36756987
33.728855
0.45692208
33.629856
0.5114674
33.588772
0.50458159
-0.46349829
33.405388
0.48783948
-0.30445517
33.140648
0.47219474
-0.20745411
32.861287
0.45559704
-0.17623657
32.563327
0.44925208
-0.15129164
32.253353
0.4385933
-0.12861961
31.949076
0.43076371
-0.12648701
31.633193
0.43190428
-0.1160208
0.42357051
31.319465
-0.10984265
32.522959
0.362074
32.629709
0.38109002
32.70444
0.3974637
32.751327
0.40871016
32.779427
0.42115182
32.786407
0.43161307
32.77479
0.442381
32.750909
0.45578509
0.47036638
32.704113
32.617701
0.28614309
32.694765
0.3040256
32.764027
0.3282012
32.828699
0.3440382
32.882431
0.3674206
32.929839
0.38420447
32.963439
0.4087814
32.992459
0.42676466
0.45284781
33.009978
32.616955
0.20749811
32.699265
0.22171466
32.782273
0.24519416
32.867195
0.25911573
32.950713
0.28390222
33.036416
0.29850214
33.119314
0.32588314
33.203518
0.34256051
0.37356755
33.282798
32.738981
0.16104934
32.789192
0.17150365
32.842682
0.19170338
32.89911
0.20268767
32.958306
0.22470679
33.021134
0.23567405
33.086679
0.26033852
33.156476
0.27276312
0.30166879
33.228375
32.773982
0.10865443
32.826804
0.11868184
32.888008
0.13049971
32.948253
0.14244233
33.016885
0.15607491
33.082766
0.16979319
33.157711
0.185394
33.230838
0.19963551
0.2214548
33.311052
32.679246
0.067809378
32.718966
0.078962128
32.769401
0.080065058
32.818474
0.0933686
32.879976
0.094573237
32.938832
0.11093763
33.011367
0.11285908
33.080245
0.13075704
0.13718736
33.164512
32.622303
0.031302122
32.664316
0.036948515
32.706183
0.038198557
32.754607
0.044944442
32.803849
0.045330827
32.86151
0.053277119
32.92067
0.053698924
32.988249
0.063178275
0.063966305
33.06147
32.447747
32.484696
32.522894
32.567839
32.61317
32.666447
32.720146
32.783324
32.84729
32.922876
-0.075585507
32.999172
-0.076296253
33.088198
-0.08902615
33.179759
-0.091560281
33.284241
-0.10448203
33.394265
-0.11002487
33.51589
-0.12162463
33.649034
-0.13314418
-0.13972111
33.788755
33.139063
-0.1531783
33.228022
-0.16525605
33.319702
-0.18070621
33.424556
-0.19641415
33.530787
-0.2107124
33.651888
-0.23112654
33.774481
-0.24421728
33.914829
-0.2734919
-0.27952637
34.054634
33.243604
-0.23226979
33.339779
-0.26143112
33.430006
-0.27093331
33.537663
-0.30407077
33.640115
-0.31316495
33.76053
-0.35154105
33.876873
-0.36056027
34.008374
-0.40499345
-0.41351592
34.142364
33.394273
-0.31549086
33.481749
-0.34890666
33.574627
-0.36381118
33.67208
-0.40152457
33.776192
-0.41727671
33.884436
-0.45978504
34.000803
-0.47692758
34.121204
-0.5253937
-0.54414021
34.251828
33.305474
-0.39258977
33.383811
-0.42724366
33.468196
-0.44819638
33.552912
-0.48624052
33.644978
-0.50934324
33.737003
-0.55180979
33.837718
-0.57764292
33.938703
-0.62637847
-0.6552786
34.049842
33.362767
-0.47255847
33.435549
-0.50002574
33.510265
-0.52291267
33.57746
-0.55343549
33.648462
-0.58034454
33.712845
-0.6161933
33.783794
-0.6485916
33.849642
-0.69222666
-0.72991407
33.924278
33.023375
-0.48595551
33.028725
-0.50537626
33.033579
-0.52776668
33.026852
-0.54670789
33.026661
-0.58015398
33.020342
-0.60987398
33.012834
-0.64108356
33.006164
-0.68555708
-0.73554649
33.011797
32.651032
-0.43287485
32.589051
-0.44339459
32.509733
-0.44844864
32.425852
-0.46282717
32.340773
-0.49507455
32.239213
-0.50831451
32.138056
-0.53992694
32.034069
-0.58157001
-0.62207688
31.9206
31.008113
-0.12152306
30.685883
-0.12116473
30.370197
-0.13276252
30.06838
-0.16101041
29.731143
-0.15783739
29.428579
-0.20575025
29.126755
-0.23810302
28.792128
-0.24694259
28.520007
-0.34995577
0.67411857
28.229667
-0.38377867
0.78187168
31.812847
0.78652412
33.007144
0.71235285
33.998449
0.60022726
34.161967
0.46466417
34.387391
0.31907962
34.287948
0.15914662
34.214567
33.947902
0.76481504
27.890186
-0.42533457
0.8436268
31.734035
0.82892994
33.021841
0.74443552
34.082943
0.62066959
34.285733
0.47322741
34.534833
0.32260017
34.438576
0.16261495
34.374552
34.110517
0.83224543
27.659284
-0.60134367
0.91521116
31.651069
0.90047509
33.036577
0.8117471
34.171671
0.68586523
34.411615
0.53279594
34.687903
0.36889071
34.602481
0.18595095
34.557492
34.296468
0.92413993
27.402846
-0.66770133
0.98125044
31.593959
0.94898129
33.068846
0.84605538
34.274597
0.70700992
34.55066
0.54059114
34.854321
0.37203154
34.771041
0.19101017
34.738513
34.487478
1.0504293
27.171235
-0.81881881
1.0586682
31.58572
1.0365181
33.090996
0.92496689
34.386148
0.78170074
34.693927
0.60751644
35.028506
0.42300772
34.955549
0.21648115
34.94504
34.703959
1.2081023
27.285622
-1.322489
1.152686
31.641136
1.0870376
33.156645
0.95910781
34.514078
0.80160045
34.851434
0.61301514
35.217091
0.4249981
35.143566
0.22268484
35.147353
34.926644
1.3461145
27.379781
-1.4402735
1.2614372
31.725813
1.1940545
33.224028
1.0507926
34.65734
0.88570542
35.016521
0.68840478
35.414392
0.481431
35.35054
0.24974175
35.379042
35.176386
1.4759419
27.202956
-1.299117
1.3294439
31.872311
1.2440111
33.30946
1.0825939
34.818757
0.90181284
35.197302
0.68982808
35.626376
0.48078658
35.559582
0.25572069
35.604108
35.432106
1.5517317
26.568571
-0.91734658
1.4615252
31.962518
1.3709009
33.400085
1.1937544
34.995904
1.0006046
35.390452
0.77538519
35.851596
0.54287806
35.792089
0.28375007
35.863236
35.715857
0.072615539
35.643241
0.19724134
35.73861
0.32608574
35.663244
0.44585153
35.73183
0.56292428
35.273379
0.66365395
34.895174
0.77057102
33.293167
0.74169534
31.991394
26.570787
0.73948
0.059501326
35.58374
0.15193007
35.646182
0.2545632
35.560611
0.36946146
35.616932
0.47461576
35.168225
0.57353753
34.796252
0.68687478
33.17983
0.77906699
31.899201
26.404122
0.94573136
0.061811009
35.521929
0.17440701
35.533586
0.28942836
35.44559
0.39945527
35.506905
0.4976016
35.070079
0.59210192
34.701752
0.68520719
33.086725
0.8508156
31.733593
26.343211
0.91172703
0.047013675
35.474915
0.12817651
35.452423
0.21814912
35.355617
0.32317552
35.401878
0.40892926
34.984325
0.50338309
34.607298
0.59606563
32.994042
0.84276165
31.486897
26.252693
0.93327922
0.055987258
35.418928
0.16258477
35.345825
0.26619548
35.252006
0.36844946
35.299624
0.44890578
34.903869
0.52538389
34.53082
0.59368901
32.925737
0.83793028
31.242656
26.239808
0.85081531
0.041292514
35.377635
0.11693723
35.270181
0.19903545
35.169908
0.29790521
35.200755
0.3718086
34.829965
0.44587912
34.45675
0.50113101
32.870485
0.8053069
30.93848
26.142297
0.90281809
0.052591513
35.325044
0.15859174
35.16418
0.2605238
35.067976
0.35747671
35.103802
0.41860854
34.768833
0.46843023
34.406928
0.5010627
32.837853
0.78060371
30.658939
26.129022
0.79387892
0.045094941
35.279949
0.1209552
35.08832
0.20125662
34.987675
0.30142192
35.003636
0.36616285
34.704092
0.41797041
34.35512
0.4128659
32.842957
0.67494365
30.396861
26.012617
0.79134809
0.060090934
35.219858
0.17210706
34.976304
0.27620148
34.88358
0.37483856
34.904999
0.42447197
34.654459
0.45426473
34.325328
0.43377039
32.863452
0.58807292
30.242558
26.003823
0.59686684
-0.44310161
25.911458
0.53546702
-0.35525178
30.154709
-0.43218312
32.940383
-0.39689001
34.290034
-0.33567634
34.593245
-0.22968805
34.799011
-0.1396986
34.793591
-0.054438437
34.891044
35.165419
-0.39451733
25.920639
0.3853365
-0.40647268
30.166664
-0.48934359
33.023254
-0.47043082
34.271122
-0.41902314
34.541838
-0.31294629
34.692934
-0.20236656
34.683011
-0.077085852
34.765763
35.088334
-0.30836417
25.843972
0.3850313
-0.36384075
30.222141
-0.49709767
33.156511
-0.47193262
34.245957
-0.41265096
34.482556
-0.2875434
34.567827
-0.1789295
34.574397
-0.075994095
34.662828
35.012339
-0.32453791
25.879049
0.28946064
-0.4535605
30.351163
-0.58319173
33.286142
-0.56861211
34.231377
-0.5012669
34.415211
-0.37495949
34.441519
-0.24841255
34.44785
-0.10287704
34.517292
34.909462
-0.30523375
25.844085
0.34019804
-0.46242031
30.50835
-0.62734318
33.451065
-0.59919235
34.203226
-0.52149729
34.337516
-0.37050152
34.290523
-0.22927129
34.30662
-0.10033826
34.388359
34.809124
-0.37225845
25.936951
0.27939245
-0.59007857
30.72617
-0.74399083
33.604977
-0.71689173
34.176127
-0.61663574
34.23726
-0.45736829
34.131256
-0.3067071
34.155959
-0.13516995
34.216822
34.673954
-0.38742186
25.981285
0.34308719
-0.64421499
30.982963
-0.833919
33.794681
-0.77909827
34.121306
-0.66484435
34.123006
-0.47165352
33.938065
-0.28835229
33.972658
-0.12707616
34.055546
34.546878
-0.49171509
26.18499
0.28801089
-0.80913361
31.300381
-0.9739607
33.959508
-0.908084
34.05543
-0.76193995
33.976862
-0.55750043
33.733626
-0.36763497
33.782792
-0.16481775
33.852729
34.38206
-0.5471549
26.380789
0.35135555
-0.91246642
31.665693
-1.1037942
34.150836
-0.99633966
33.947975
-0.82324126
33.803763
-0.57703987
33.487424
-0.3488122
33.554565
-0.15249342
33.65641
34.229567
0.30677741
33.922789
0.6547686
33.308419
0.99370589
33.215627
1.3619455
33.119185
1.6720987
33.49361
1.8800387
33.740035
1.7441548
34.28672
1.1470757
32.262772
27.070645
0.45721934
0.29187183
33.630918
0.63729824
32.962992
1.0193718
32.833554
1.4415728
32.696984
1.81012
33.125063
2.1008329
33.449322
1.983478
34.404075
1.3524405
32.89381
27.843258
0.57982829
0.31972042
33.311197
0.70011216
32.582601
1.0907405
32.442925
1.5308156
32.256909
1.950295
32.705584
2.293027
33.10659
2.3373747
34.359727
1.6908091
33.540375
29.078182
0.4558849
0.29897387
33.012223
0.6730623
32.208512
1.1040482
32.011939
1.5953205
31.765636
2.0653121
32.235592
2.5075273
32.664375
2.6321501
34.235105
2.1202141
34.052311
30.617121
0.5812747
0.32098846
32.691235
0.72074919
31.808751
1.1464031
31.586285
1.6507445
31.261295
2.1775112
31.708825
2.6975294
32.144357
3.0245184
33.908115
2.6300286
34.446801
32.516109
0.73104085
0.28751208
32.403723
0.67411458
31.422149
1.1408162
31.119584
1.6871377
30.714973
2.2582007
31.137762
2.8631169
31.539441
3.3095468
33.461686
3.1959415
34.560406
34.552529
1.1595212
0.30629019
32.097433
0.70906626
31.019373
1.1560824
30.672568
1.7067491
30.164307
2.3331346
30.511377
2.9903084
30.882267
3.6290818
32.822912
3.7697862
34.419702
35.962081
2.3602343
0.26799774
31.829435
0.64429825
30.643072
1.1271811
30.189685
1.6998811
29.591607
2.3582152
29.853043
3.0800394
30.160443
3.7667161
32.136235
4.307008
33.87941
37.122109
3.1469795
0.30024
31.529195
0.67102334
30.272289
1.1228868
29.737821
1.6803922
29.034101
2.3661439
29.167291
3.1610157
29.365571
4.0632232
31.234028
5.1149806
32.827653
37.802951
4.4341395
-1.3423496
32.871544
-2.4298307
31.35977
-3.3806539
30.688645
-4.2333712
29.886819
-5.0617933
29.995713
-6.0288724
30.33265
-7.4325673
32.637723
-9.672565
35.06765
40.499335
-12.368949
-1.3539752
34.22552
-2.4813297
32.487125
-3.4440349
31.65135
-4.2673154
30.710099
-5.0597484
30.788146
-6.028782
31.301684
-7.5791731
34.188114
-9.7993778
37.287855
41.917367
-11.21741
-1.4454587
35.670978
-2.5727904
33.614456
-3.51605
32.594609
-4.3067372
31.500786
-5.067886
31.549295
-6.0442865
32.278084
-7.7003408
35.844168
-9.525304
39.112818
38.437227
-6.0451647
-1.4763057
37.147284
-2.6265709
34.764721
-3.5910312
33.55907
-4.3360687
32.245824
-5.0633838
32.27661
-6.0128256
33.227526
-7.6190034
37.450346
-8.9876614
40.481476
30.231408
-0.78184193
-1.5731557
38.72044
-2.733255
35.924821
-3.6809192
34.506734
-4.3811521
32.946057
-5.0455942
32.941052
-5.9618596
34.143791
-7.4247959
38.913282
-8.3783903
41.435071
21.870051
-0.017033271
-1.5924583
40.312898
-2.8110261
37.143389
-3.787192
35.4829
-4.4318744
33.590739
-5.02781
33.536988
-5.8853444
35.001326
-7.1120557
40.139994
-7.5460851
41.8691
14.308078
0.015887944
-1.6722248
41.985123
-2.9213261
38.39249
-3.8826369
36.444211
-4.480351
34.188453
-4.9865135
34.04315
-5.7122745
35.727087
-6.8085168
41.236236
-6.8279924
41.888576
7.4726672
0.0074182274
-1.7130581
43.698181
-3.0083819
39.687814
-4.0122671
37.448096
-4.5517511
34.727937
-4.9502353
34.441634
-5.5390617
36.315913
-6.4702293
42.167404
-5.2363842
40.654731
1.4313572
0.80492583
-1.8002069
45.498388
-3.1287202
41.016327
-4.1304673
38.449843
-4.6275013
35.224971
-4.8858739
34.700007
-5.2033624
36.633401
-5.7721081
42.736149
-2.2487788
37.131401
-2.7966484
1.9792267
0.91642248
-4.5831245
0.87005363
2.5333693
35.514455
2.3518793
42.917639
2.6166985
36.368582
2.8876814
34.429024
2.8129714
35.299681
2.2042202
39.058594
1.2723231
41.948224
46.770711
0.84997909
-6.0270704
0.59396682
2.3016737
34.06276
2.1721169
43.047196
2.6355554
35.905144
3.0089351
34.055644
2.9296407
35.378975
2.3059065
39.682328
1.3186626
42.935468
48.089374
0.68660008
-7.3522215
0.63855108
2.0912496
32.65811
2.0447709
43.093675
2.5990739
35.350841
3.1059149
33.548803
3.0424187
35.442472
2.3570745
40.367672
1.3194738
43.973069
49.408847
0.53205529
-8.5381119
0.65383511
1.7797283
31.410437
1.8835427
42.98986
2.6526835
34.5817
3.2611877
32.940299
3.1668453
35.536814
2.4562174
41.0783
1.3604767
45.068809
50.769324
0.39578833
-9.5955387
0.66163848
1.5503585
30.255867
1.7236844
42.816534
2.6353694
33.670015
3.3779765
32.197692
3.2793264
35.635464
2.4889099
41.868717
1.3204194
46.2373
52.089744
0.20058731
-10.524699
0.72857273
1.2417506
29.214704
1.5844591
42.473826
2.7472366
32.507237
3.5490494
31.395879
3.3975902
35.786923
2.5679119
42.698395
1.3306801
47.474532
53.420424
-0.035220772
-11.274154
0.78467611
1.0081035
28.17138
1.4200777
42.061852
2.7155256
31.21179
3.6664736
30.444931
3.5044173
35.94898
2.5777563
43.625056
1.2978753
48.754413
54.718299
-0.2606878
-10.518708
-0.4947587
0.694654
27.216038
1.2748063
41.481699
2.8465793
29.640017
3.8498532
29.441657
3.6034683
36.195364
2.6375707
44.590954
1.2935078
50.098476
56.011807
-0.53844083
-9.6750782
-0.3051885
0.36467067
26.312926
1.0629815
40.783388
2.7560108
27.946987
3.9432674
28.254401
3.7009675
36.437664
2.6232559
45.668665
1.2163646
51.505367
57.228171
-2.4806745
-7.4620907
0.26768704
-5.15606
28.988312
-2.8063902
38.433719
3.3429487
21.797648
6.0909556
25.506394
5.3953266
37.133293
3.5682307
47.495761
1.2957411
53.777857
58.523912
-3.2830593
-2.7415475
-1.4374839
-5.6416112
31.346864
-1.6909153
34.483023
4.9469583
15.159775
7.0492773
23.404075
5.5189261
38.663645
2.9260759
50.088611
0.58675883
56.117174
59.110671
-3.9811689
3.2665626
-2.0269412
-6.1331919
33.498887
-1.0471615
29.396992
5.70476
8.4078534
7.2839139
21.824921
5.0561806
40.891378
2.4603912
52.684401
0.19166187
58.385903
59.302333
-5.0758868
9.6659643
-1.3235149
-6.9365711
35.359571
-0.97478
23.435201
5.9619898
1.4710836
7.406922
20.379989
4.5511785
43.747121
1.3373517
55.898227
-0.57936489
60.30262
58.722968
-5.9114123
14.97257
0.60480665
-6.8848946
36.333053
-0.12687948
16.677186
6.3949373
-5.0507332
6.9765654
19.798361
3.4508837
47.272803
0.59281745
58.756294
-0.93746794
61.832905
57.7855
-6.2190001
19.82631
1.3652598
-6.4183202
36.532374
1.0635638
9.1953017
6.8638972
-10.851067
6.6279471
20.034311
2.6146232
51.286127
-0.57426867
61.945186
-1.5438995
62.802536
56.241601
-6.3369807
24.0679
2.095391
-5.6753226
35.870715
2.2162134
1.3037657
7.1371931
-15.772046
5.7093279
21.462176
1.1694067
55.826048
-1.4088023
64.523395
-1.6749297
63.068663
54.566671
-6.2277213
27.595648
2.6999737
-4.1696793
33.812673
4.1191822
-6.9850958
7.3756689
-19.028533
4.9841554
23.853689
0.24072384
60.56948
-2.3739886
67.138107
-2.1028723
62.797547
52.463799
-6.2220733
3.4929974
30.324723
-2.976105
30.566705
5.2423589
-15.20356
7.0942221
-20.880396
3.4270282
27.520883
-1.8072764
65.803784
-3.2688144
68.599645
-2.0325691
61.561302
50.43123
-0.58552035
-38.355098
0.37715705
38.563462
1.096241
-14.523649
12.841888
2.7612599
40.022676
-41.687695
3.7256301
58.888646
-59.853016
3.848841
65.993976
-66.117187
5.6107563
38.414757
-40.176672
8.9120408
-4.1858431
0.88455858
10.672951
-31.320588
29.559677
-33.536007
32.300122
-0.61576711
-38.098529
0.35919753
0.90323565
-16.042652
2.5202209
38.405691
3.4398533
57.969014
3.6546868
65.779142
5.939744
36.129699
9.6225504
-7.8686495
11.658745
-33.356782
-34.845774
-0.63894713
-37.783354
0.32377267
0.70807311
-17.389672
2.2876503
36.826114
3.2043123
57.052352
3.6136292
65.369825
6.5072557
33.236073
10.563909
-11.925303
12.795178
-35.588051
-36.228283
-0.64680085
-37.440494
0.30394039
0.5740078
-18.610481
2.1000987
35.300023
2.9685888
56.183862
3.6705558
64.667858
7.2948824
29.611746
11.748509
-16.37893
14.128952
-37.968494
-37.687191
-0.63294197
-37.098991
0.29143881
0.47574383
-19.719167
1.9187349
33.857031
2.6862377
55.416359
3.8362119
63.517884
8.2974825
25.150476
13.032378
-21.113825
15.516355
-40.452472
-39.210829
-0.62198983
-36.757127
0.28012577
0.36303255
-20.704189
1.7196697
32.500394
2.396497
54.739532
4.1465164
61.767865
9.4643835
19.832609
14.359304
-26.008745
16.960259
-43.053427
-40.76498
-0.61565749
-36.418849
0.2773789
0.26447705
-21.584323
1.488453
31.276418
2.1492796
54.078705
4.6372131
59.279931
10.795594
13.674228
15.767038
-30.980189
18.402886
-45.689274
-42.296455
-0.63232793
-36.06474
0.27821954
0.19087509
-22.407526
1.3572848
30.110009
2.0580737
53.377916
5.3341639
56.003841
12.277264
6.7311272
17.236099
-35.939024
19.825505
-48.27868
-43.789866
-0.65868699
0.27624479
-35.682298
0.10711062
-23.173324
1.2161177
29.001001
1.9784318
52.615602
6.1829872
51.799286
13.836091
-0.92197615
18.642398
-40.745331
21.148548
-50.78483
-45.222414
0.32834014
32.493295
-5.3143346
-27.507301
-5.7828069
-39.856779
45.967924
-9.7103635
-85.740446
89.668005
-8.8274191
-80.605091
79.722147
-6.1729431
-59.841952
57.187476
-2.8858751
-40.914334
37.627266
1.1746427
-30.144909
26.084392
3.1636529
-20.656214
18.667204
-28.312748
31.476401
1.284812
36.882727
-5.6742443
-4.6451152
-33.926852
-8.8723512
-81.51321
-9.0729112
-80.404531
-7.1911335
-61.72373
-4.1883845
-43.917083
-0.5777334
-33.755561
2.5530094
-23.786957
-25.759738
1.7784719
40.674394
-5.5701394
-4.3271534
-27.821227
-8.4930235
-77.34734
-8.8834375
-80.014117
-7.0844329
-63.522734
-4.3602573
-46.641259
-1.9715723
-36.144246
0.91384153
-26.672371
-24.845897
2.5568771
43.022549
-4.9050316
-3.3142562
-21.950094
-7.7127061
-72.94889
-8.9376928
-78.78913
-7.8195733
-64.640854
-5.2131206
-49.247712
-2.7418407
-38.615525
0.57722511
-29.991436
-24.268672
2.7627622
43.739376
-3.4795892
-2.8343645
-16.352967
-7.0970739
-68.686181
-8.4001042
-77.4861
-7.5191767
-65.521781
-5.5524588
-51.21443
-3.8027352
-40.365249
-0.63540901
-33.158763
-24.904081
3.1780159
42.812034
-2.2506745
-1.850648
-11.324303
-6.2598014
-64.277027
-8.3425206
-75.403381
-7.7473232
-66.116979
-5.583946
-53.377807
-3.8017152
-42.14748
-0.93783502
-36.022643
-25.841916
3.2512273
40.594419
-1.0336121
-1.2905859
-6.7824899
-5.4104582
-60.157155
-7.4003772
-73.413462
-7.4792881
-66.038068
-5.9968798
-54.860215
-4.1412514
-44.003108
-1.7541401
-38.409754
-27.596056
3.3435385
37.266667
-0.015786427
-0.45652401
-2.9824275
-4.4977239
-56.115955
-7.0442337
-70.866952
-7.2394253
-65.842876
-5.8330356
-56.266605
-4.1635093
-45.672635
-2.0020742
-40.571189
-29.59813
3.2596681
34.897205
-0.89020613
0.39930019
-0.12205962
-3.3129671
-52.403688
-5.8073128
-68.372607
-6.642517
-65.007672
-5.833519
-57.075603
-4.315906
-47.190248
-2.550085
-42.33701
-32.148215
0.32834759
36.220888
-36.549235
0.1742562
42.545688
-42.391597
-0.25488067
45.170511
-44.741374
-1.1735597
50.915063
-49.996384
-2.5050001
54.217247
-52.885806
-3.930386
56.674068
-55.248682
-4.4039885
51.458427
-50.984825
-1.9393652
19.912684
-22.377307
-19.696252
17.207502
0.54938492
0.387343
35.833545
0.27987226
42.653159
-0.11829445
45.568678
-0.99833141
51.7951
-2.3425297
55.561445
-3.7836951
58.115233
-4.1929231
51.867655
-1.73191
17.451671
-22.098133
0.66997048
0.41056699
35.422978
0.35056785
42.713158
-0.0077354852
45.926981
-0.8601347
52.6475
-2.2217322
56.923042
-3.6815251
59.575026
-3.9964786
52.182608
-1.4489135
14.904106
-24.443719
0.89667271
0.47315245
34.949825
0.44490838
42.741402
0.1287504
46.243139
-0.69512895
53.471379
-2.0566567
58.28457
-3.5118357
61.030205
-3.7725167
52.443289
-1.2592431
12.390832
-26.688508
0.9855458
0.492079
34.457746
0.50425309
42.729228
0.23303606
46.514356
-0.56862558
54.273041
-1.9344321
59.650377
-3.4010209
62.496794
-3.5711104
52.613379
-0.99727418
9.816996
-28.836489
1.1507074
0.55393451
33.903812
0.59131337
42.691849
0.35921748
46.746452
-0.40010413
55.032362
-1.7569898
61.007262
-3.2162913
63.956095
-3.3300254
52.727113
-0.82853332
7.3155038
-30.84667
1.1816475
0.56083932
33.342973
0.63793613
42.614753
0.45192471
46.932464
-0.2748565
55.759143
-1.6237433
62.356149
-3.1001027
65.432455
-3.0989081
52.725918
-0.58607741
4.802673
-32.57849
1.1457426
0.60358562
32.739387
0.71946328
42.498875
0.57207367
47.079853
-0.10982562
56.441043
-1.4473852
63.693709
-2.9060162
66.891086
-2.8383865
52.658289
-0.45290686
2.4171932
-34.302035
1.2706373
0.59117194
0.75303679
0.64264247
0.0080823416
-1.3058806
-2.7874014
-2.5328007
-0.23766709
0.35750287
3.892291
12.627092
0.68811904
8.2947345
-26.779751
7.7520274
-50.442118
5.6087863
-53.105441
3.5248776
-50.801898
1.8892937
-48.3608
0.87462008
-43.726701
0.14905308
-41.66603
-36.400182
4.540281
7.571841
0.51496995
8.9012999
-31.14077
7.8705596
-49.411377
5.6744345
-50.909316
3.6690738
-48.796537
2.0310122
-46.722739
1.002097
-42.697786
0.22114035
-40.885073
-36.179042
5.1922011
1.7568146
0.62282539
9.4268711
-35.37544
7.9907401
-47.975246
5.7830094
-48.701585
3.8055526
-46.81908
2.1820466
-45.099233
1.1061155
-41.621854
0.26361908
-40.042577
-35.915423
7.8303512
-5.9674562
-0.10608044
9.7973946
-37.342483
8.0095838
-46.187435
5.8178247
-46.509826
3.9445305
-44.945786
2.3245827
-43.479285
1.23993
-40.537202
0.35539331
-39.15804
-35.56003
9.4163706
-15.062592
-0.32123447
9.8363948
-37.762507
7.9986872
-44.349728
5.9062085
-44.417347
4.0594389
-43.099016
2.4646878
-41.884534
1.3358505
-39.408364
0.40179976
-38.223989
-35.15823
9.9160265
-24.165369
-0.81324936
9.779699
-37.62618
7.9446264
-42.514655
5.9196864
-42.392407
4.1753677
-41.354698
2.6026414
-40.311808
1.4685521
-38.274275
0.49333495
-37.248772
-34.664895
10.324847
-31.104867
-3.3853499
9.8112531
-37.112586
7.9125556
-40.615958
5.9779791
-40.457831
4.252729
-39.629448
2.707671
-38.76675
1.553188
-37.119792
0.54306416
-36.238649
-34.121831
10.693724
-32.967047
-8.8315442
9.7172179
-36.13608
7.8379381
-38.736678
5.9721933
-38.592086
4.3623093
-38.019564
2.8471326
-37.251573
1.6728736
-35.945533
0.62782626
-35.193601
-33.494004
10.747591
-32.920619
-10.794018
9.5094311
-34.89792
7.7754997
-37.002747
6.0190997
-36.835686
4.4160647
-36.416528
2.9327037
-35.768212
1.7408486
-34.753678
0.67445757
-34.12721
-32.819547
0.44691346
38.604392
-39.051305
0.77249808
38.489864
-38.815449
1.0359113
38.5087
-38.772113
1.2214284
38.468293
-38.65381
1.2888125
38.191499
-38.258883
1.2183916
37.283308
-37.212887
0.99925503
35.499489
-35.280353
0.69929303
31.676628
-31.376666
26.218453
-25.962176
0.44301588
0.51987979
38.084512
0.90794584
38.101798
1.2030221
38.213624
1.3832979
38.288017
1.4474866
38.12731
1.3577123
37.373083
1.0693452
35.787857
0.68016802
32.065805
26.387199
0.51142207
0.56903344
37.515479
0.98863953
37.682192
1.3364432
37.86582
1.5842759
38.040185
1.7010164
38.01057
1.6681223
37.405977
1.4162855
36.039693
1.0040107
32.47808
26.87562
0.51558967
0.63324411
36.882235
1.1279156
37.187521
1.5099479
37.483788
1.7687007
37.781432
1.8936508
37.88562
1.8547362
37.444891
1.564555
36.329875
1.0637431
32.978892
27.329178
0.61018572
0.68514796
36.197087
1.2095522
36.663117
1.6517384
37.041602
1.9816832
37.451487
2.1755797
37.691723
2.2060231
37.414448
1.9819006
36.553997
1.4787632
33.482029
28.175964
0.63197741
0.76570113
35.431386
1.3454878
36.08333
1.822337
36.564752
2.1655322
37.108292
2.381174
37.476081
2.4137157
37.381906
2.2003792
36.767334
1.6709659
34.011442
29.137424
0.70950565
0.80781179
34.623574
1.4144682
35.476673
1.9692059
36.010015
2.3824401
36.695058
2.6791225
37.179399
2.7937887
37.26724
2.6653956
36.895727
2.2536054
34.423233
30.530997
0.86003191
0.88599302
33.737581
1.5480267
34.81464
2.1242527
35.433789
2.5445635
36.274747
2.8758987
36.848064
3.0278859
37.115253
2.9128099
37.010803
2.5790052
34.757037
31.896837
1.2131652
0.91803391
1.6054635
2.2855744
2.7921093
3.2236446
3.5032114
3.5112672
3.3703845
2.3466027
-0.14884073
-26.109014
0.29567869
-0.25317129
-31.272335
-0.42381719
-35.109707
-0.53323433
-37.10347
-0.57187505
-38.220243
-0.5444901
-38.681195
-0.434113
-38.88249
-0.26285633
-38.986706
-39.314162
-0.21267852
-26.159186
0.2628505
-0.27757471
-31.207439
-0.3838744
-35.003407
-0.45877747
-37.028567
-0.47072319
-38.208297
-0.41956399
-38.732354
-0.33133119
-38.970723
-0.20457711
-39.11346
-39.518739
-0.080539399
-26.376263
0.29761581
-0.11173212
-31.176246
-0.2198763