/*--------------------------------*- C++ -*----------------------------------*\
  =========                 |
  \\      /  F ield         | OpenFOAM: The Open Source CFD Toolbox
   \\    /   O peration     | Website:  https://openfoam.org
    \\  /    A nd           | Version:  11
     \\/     M anipulation  |
\*---------------------------------------------------------------------------*/
FoamFile
{
    format      ascii;
    class       volScalarField;
    location    "0.13";
    object      Ma;
}
// * * * * * * * * * * * * * * * * * * * * * * * * * * * * * * * * * * * * * //

dimensions      [0 0 0 0 0 0 0];

internalField   nonuniform List<scalar> 
880
(
1.443353270571932
1.443353270571932
1.443353270574537
1.443351220925841
1.443353270571932
1.443353270571932
1.443353270573375
1.443338012228178
1.443353270571932
1.443353270571933
1.443353270663371
1.443325792153638
1.443353270571932
1.443353270571932
1.443353274249193
1.443175995582562
1.443353270571932
1.443353270571932
1.443353270571933
1.443353270514416
1.443353270571932
1.443353270571932
1.443353270571935
1.443353270571932
1.443353860895248
1.4433511210117
1.44323510266682
1.443793868940434
1.43113795347861
1.400086183569925
1.382052589813224
1.376919385877663
1.443353228212785
1.443353136059793
1.443352363488095
1.443352545480807
1.443351279626027
1.443347781682314
1.443344997447215
1.443346345490377
1.442208847390772
1.441550999894982
1.441282753196797
1.441023965491175
1.374150695568075
1.366445445082619
1.370420288871457
1.356909846779849
1.38624554679475
1.416596199162318
1.441556699776672
1.45663086249708
1.439541008159359
1.435322167037363
1.437773614013108
1.441432736967018
1.443332426283641
1.443271458450031
1.44322393134602
1.443274216293493
1.443351467344998
1.443348838871454
1.443342792731254
1.443338590533153
1.443338900273272
1.443342436870369
1.443348103957782
1.443351999180761
1.443321490520664
1.443363849344474
1.44337591833789
1.443363704006853
1.443687300015552
1.445044647374826
1.445155305770477
1.444380219587219
1.462761265525876
1.462994448732959
1.460129403664076
1.455573569329963
1.450339665257659
1.443671340502577
1.443354820815907
1.443353140283891
1.446025763885066
1.443396789827727
1.443353352467923
1.443353262166046
1.443772838720096
1.443357803712649
1.443353392592125
1.44335326754777
1.418083730897305
1.443187836618446
1.443355092488702
1.443353717726518
1.443353388840693
1.44335403960579
1.442164008996952
1.244406716756581
1.443352933421337
1.443341301222957
1.437598795522723
1.133597128134124
1.443352231448527
1.443303088931439
1.430691535096086
1.083841754034042
1.443346934233206
1.443266071291063
1.423928427977192
1.070720912959127
1.065173440785611
1.415157190718284
1.443184833685351
1.443344711372766
1.072488027978258
1.408184971173971
1.443137068426063
1.44333192780632
1.075697310991359
1.399678386106941
1.443015883644963
1.443330595513425
1.077987902138658
1.389757249505532
1.442886693988814
1.44331050053781
1.443299782657983
1.442747598967656
1.376968889978914
1.06381261168622
1.443276231584233
1.442285156100325
1.361544987284798
1.087486964706348
1.443254265462808
1.442205855785514
1.371462747129053
1.142600209868378
1.443246477791749
1.442329869206036
1.392755381850309
1.243527060124527
1.443149500010403
1.442365321178923
1.433443124242928
1.43407640976386
1.442983148070391
1.445206454936449
1.463342077553186
1.585246017238589
1.443292684710773
1.44525100951631
1.459623809295948
1.557510661526845
1.443376515281975
1.443683335163579
1.436463693981993
1.355035071458839
1.198851127974343
1.423901446050805
1.44321188187858
1.443368937124526
1.109903062314494
1.411961440075695
1.442803062226492
1.443351533739618
1.074620487560689
1.406753197693652
1.442788535629101
1.44335303295854
1.012319953233904
1.398768405611648
1.442483607342407
1.443351113874395
1.090656624147448
1.411596450926858
1.442898636815171
1.443352194723281
1.215444522890697
1.426967173622964
1.443210470828989
1.443352980367572
1.319959980106234
1.43627236417246
1.443313668113736
1.443353214676081
1.399581018795908
1.441849633168595
1.44335697029448
1.443353271668577
1.34337555107869
1.436576783343445
1.443195031375568
1.44335193762374
1.349672697926444
1.436903850707696
1.443200477327621
1.443351949459411
1.345519142803078
1.436631184444422
1.443204024438866
1.443351968308161
1.340530971607055
1.436881671698402
1.443229432517579
1.443352118049121
1.399581018802404
1.441849633173869
1.443356970304424
1.4433532716524
1.319959980109026
1.436272364178604
1.443313668133438
1.443353214675051
1.215444522889048
1.426967173615205
1.443210470827013
1.443352980366656
1.090656624139199
1.41159645090941
1.442898636812378
1.443352194728852
1.443368937112207
1.443211881867099
1.423901446046987
1.198851127970455
1.443351533720188
1.442803062218152
1.411961440071825
1.109903062310589
1.443353032972819
1.442788535614443
1.406753197695579
1.074620487556138
1.443351113871713
1.442483607336634
1.398768405595635
1.01231995323627
1.355035071470278
1.436463693994087
1.44368333518238
1.443376515296069
1.557510661543648
1.459623809308274
1.445251009530685
1.44329268473981
1.585246017236578
1.46334207756608
1.445206454938283
1.442983148072176
1.434076409762356
1.433443124248823
1.442365321186014
1.443149499974668
1.443299782665008
1.442747598961315
1.37696888997218
1.063812611677834
1.443276231585015
1.442285156082014
1.361544987277118
1.087486964705027
1.4432542654367
1.442205855783277
1.371462747135712
1.142600209868724
1.443246477788881
1.4423298692019
1.392755381853887
1.243527060126131
1.07798790212382
1.389757249494183
1.442886693954319
1.443310500536284
1.075697310979085
1.39967838607961
1.4430158836534
1.443330595508789
1.072488027979811
1.408184971181969
1.443137068397919
1.44333192781362
1.065173440780552
1.415157190737893
1.443184833707712
1.44334471137834
1.443353388830585
1.443354039596968
1.442164009000872
1.244406716761608
1.443352933427736
1.44334130123544
1.437598795508622
1.133597128147832
1.44335223145968
1.443303088940554
1.430691535094423
1.083841754022878
1.443346934247749
1.443266071263641
1.423928427974269
1.07072091295885
1.443353717724731
1.443353267540741
1.443353262165212
1.443353140286015
1.443355092500463
1.443353392588339
1.44335335245339
1.443354820825978
1.443187836614986
1.44335780370817
1.443396789841253
1.44367134050337
1.418083730897183
1.443772838717706
1.446025763881387
1.450339665259104
1.443351999195847
1.443363704006553
1.444380219572385
1.455573569325322
1.443348103961755
1.443375918342033
1.445155305754396
1.460129403662974
1.443342436857901
1.443363849345259
1.445044647382137
1.462994448735546
1.443338900271364
1.443321490518051
1.443687300008498
1.462761265532739
1.443351467361902
1.443332426295563
1.439541008144284
1.386245546794451
1.443348838889343
1.443271458454042
1.435322167034117
1.416596199170453
1.443342792739533
1.443223931330994
1.437773614014437
1.441556699783649
1.44333859053985
1.443274216281989
1.441432736969581
1.456630862503884
1.356909846777754
1.441023965465827
1.44334634550041
1.443352545489367
1.370420288865252
1.441282753182621
1.443344997450083
1.443352363477761
1.366445445072586
1.441550999924105
1.443347781679291
1.443353136068716
1.374150695566613
1.442208847433403
1.443351279629887
1.44335322820726
1.376919385872197
1.443793868897682
1.443353270571932
1.443353270510089
1.382052589816463
1.443235102705577
1.443353270571932
1.443353270571933
1.400086183565917
1.443351121016139
1.443353270571932
1.443353270571933
1.43113795347394
1.443353860899583
1.443353270571932
1.443353270571934
1.443353270571932
1.443353270571933
1.44335327057458
1.443351221032428
1.443353270571931
1.443353270571932
1.443353270572562
1.443338012295639
1.443353270571932
1.443353270571932
1.443353270662438
1.443325792166285
1.443353270571932
1.443353270571932
1.44335327425846
1.44317599558423
1.443347811141271
1.44333143385245
1.443229982321536
1.441044176636141
1.443331433630231
1.443325521532326
1.443173382639529
1.433416332998033
1.443229982076281
1.443173382802236
1.438970054170412
1.381395906090562
1.441044176644924
1.433416333225514
1.381395906422351
1.196047531584386
1.028607793206798
1.117440741508227
1.271728371985679
1.365184561322648
1.080684345812708
1.102022276965936
1.161150356191958
1.236090694793812
1.119323596482852
1.150594599479893
1.195658901788407
1.246124724594225
1.164352460396807
1.188772636727933
1.2218960237352
1.256057131523187
1.264105759208343
1.271227928182753
1.27839783567812
1.276859718375465
1.248563934117427
1.266613654315689
1.274938437214294
1.304143788527569
1.221856865515431
1.256025214542613
1.268577705241047
1.390288397767949
1.1661406076479
1.179156730720067
1.190238201285335
1.510228172415361
1.404518792795741
1.532831015379291
1.527202209157653
1.506867762047848
1.496686743027015
1.636200156941927
1.59230119764512
1.547810801885908
1.675981052512885
1.738207826533388
1.63292130170835
1.562024923196286
1.276236047630209
1.303058126899365
1.280988160383822
1.278863609329707
1.49045444859082
1.480117395111108
1.470025984583278
1.46377766049423
1.517135875076197
1.498838298499053
1.483638774478246
1.473520260929645
1.528278489343089
1.508316264902157
1.493597967909788
1.48155666877291
1.304670440484261
1.343745093819557
1.382047371065714
1.411948422710466
1.458797591277859
1.451676907790439
1.445013585319423
1.225418249969148
1.466668702757225
1.457501337042939
1.447585896359954
1.065358885124831
1.472842368800298
1.46245217459055
1.447428241707484
0.9061404696380575
1.425429315297336
1.434165312735086
1.427627440245315
0.6342495549434656
0.8320737201519808
0.8358148259223994
0.8596164988129547
0.9034493225679499
0.7329653774181366
0.7981103945972855
0.853744355822884
0.905688235985432
0.6010618861388397
0.7180965601516012
0.8194194169944991
0.8932088946549276
0.36683076092087
0.5117951358367721
0.6602845620427393
0.7812697851113894
0.9342748930367466
0.9486223009765398
0.9624902237541485
0.9688826150170425
0.9368381290651195
0.9489376362370048
0.9611438935977897
0.9687618389025301
0.9329923853994
0.9480407218695475
0.9619683014147452
0.9702263739796176
0.8652856629516751
0.9017690188722426
0.9193716388466553
0.924024216669466
0.9789418553620823
1.007282474519794
1.068961893478525
1.167750268583333
0.980412459936447
1.006881015024661
1.067373112402838
1.218922708347356
0.9821506778750067
1.00136743441966
1.09192740078336
1.54616778424728
0.9492485216333333
0.9730276396959717
1.108993073323201
2.157584034202915
1.41398274473185
1.743409963527262
0.6914253332049397
0.4033142560068594
1.490616901508348
1.555358671199894
0.4879541834217198
0.2066889947747772
1.537671056130597
1.239871784014621
0.2112913545633575
0.1323920600500576
1.220169743754782
0.759028285835197
0.04148786401718803
0.04130663260349469
0.2110186850895126
0.0941900363184279
0.03988496348241662
0.1041214277266221
0.1318026866351269
0.08298472605365502
0.1230196475812213
0.1875579855474128
0.08294840242608541
0.1252649056481993
0.2020392582656907
0.2867416921400189
0.03810971458537086
0.128312412582368
0.2749940548928373
0.3163691704721387
0.4775593967114102
0.9296191457282971
1.221385308902379
1.422972064698129
0.193992862337243
0.6711380630668605
1.041451647428966
1.310411386585506
0.08686910420316477
0.3169912879628399
0.752912720225864
1.199245814827861
0.1571494535755103
0.109256352336151
0.5638818773903788
1.325802941549977
1.616479075597639
1.889306107580361
2.338264670502359
1.941343576598424
1.525727437171915
1.926801363506888
1.866084586543053
1.139996695371132
1.513923501690574
1.821721264735882
0.9123487121068961
0.4770594552252977
1.31399339471915
0.7482981830333896
0.2826999009821983
0.3753688897693758
0.382391472752851
0.3005260784109581
0.2562681645022273
0.1861134048997107
0.2294463321797207
0.1963050119528461
0.2581854536728523
0.2534753814260845
0.5669308706697537
0.1535857899212964
0.1843817334556824
0.249343044298179
1.171370089517277
0.6619511157119881
0.3850152451095173
0.2816009642816702
0.1861134048990894
0.2534753814259786
0.2493430442979203
0.281600964275001
0.2562681645009372
0.2581854536725199
0.1843817334544878
0.3850152451051388
0.3005260784106895
0.1963050119519577
0.1535857899169897
0.6619511157068594
0.3823914727527341
0.2294463321791334
0.56693087066711
1.171370089511839
1.941343576594889
2.338264670508337
1.889306107589404
1.616479075606992
1.139996695369858
1.86608458654013
1.9268013635093
1.525727437177504
0.4770594552253256
0.9123487121052067
1.821721264735971
1.513923501692579
0.3753688897704153
0.2826999009826079
0.7482981830294708
1.313993394719969
1.325802941551562
0.5638818773904131
0.109256352336122
0.1571494535756889
1.199245814829417
0.7529127202241693
0.3169912879574572
0.08686910420234671
1.310411386588681
1.041451647426971
0.6711380630598333
0.1939928623323573
1.422972064702934
1.221385308899129
0.9296191457222306
0.4775593967055828
0.1041214277201087
0.03988496348486796
0.0941900363094967
0.2110186850848468
0.1875579855444298
0.1230196475779784
0.08298472606085808
0.1318026866444817
0.2867416921365414
0.2020392582611076
0.1252649056540308
0.08294840243726596
0.316369170469007
0.2749940548877652
0.1283124125874277
0.038109714592335
0.4033142560119372
0.6914253332012137
1.743409963529174
1.413982744733509
0.2066889947809554
0.4879541834222613
1.555358671204554
1.490616901514833
0.1323920600574298
0.2112913545608036
1.239871784019009
1.537671056136601
0.04130663260954228
0.04148786402069069
0.7590282858434353
1.220169743759372
1.167750268583759
1.068961893475141
1.007282474516803
0.9789418553551721
1.218922708349081
1.067373112402558
1.006881015022191
0.9804124599306986
1.54616778425324
1.091927400785236
1.00136743441759
0.9821506778707412
2.157584034212632
1.108993073328358
0.9730276397020681
0.9492485216382934
0.9688826150066523
0.9624902237531497
0.9486223009815232
0.9342748930272508
0.9687618388951527
0.9611438935979228
0.9489376362430844
0.9368381290598776
0.9702263739741417
0.9619683014159912
0.9480407218760557
0.9329923853958036
0.9240242166701575
0.9193716388492812
0.9017690188780041
0.8652856629471773
0.9034493225579533
0.8596164988128779
0.8358148259305698
0.8320737201544439
0.9056882359733874
0.8537443558226793
0.7981103946011432
0.7329653774177667
0.8932088946441998
0.8194194169941198
0.7180965601495971
0.6010618861374424
0.7812697850913589
0.6602845620457755
0.511795135828085
0.366830760916759
1.225418249978476
1.445013585338304
1.451676907782066
1.458797591281614
1.065358885132207
1.447585896383287
1.457501337031027
1.466668702759246
0.9061404696442732
1.447428241730375
1.462452174569359
1.472842368801695
0.6342495549616831
1.427627440282721
1.434165312736267
1.425429315270776
1.463777660496
1.470025984583196
1.480117395114197
1.490454448594657
1.473520260929116
1.483638774478421
1.498838298500284
1.517135875079243
1.481556668769832
1.493597967909124
1.508316264901693
1.528278489347237
1.411948422718005
1.382047371066617
1.343745093815137
1.304670440485227
1.506867762054003
1.527202209165265
1.532831015387298
1.404518792799222
1.547810801894249
1.592301197650497
1.636200156949328
1.496686743031429
1.562024923205752
1.632921301712324
1.738207826542628
1.675981052519065
1.278863609338126
1.280988160386204
1.303058126902485
1.276236047626032
1.27685971838261
1.278397835682951
1.271227928169885
1.264105759187046
1.304143788536675
1.274938437217895
1.266613654306583
1.24856393410889
1.390288397780387
1.268577705246793
1.256025214540943
1.221856865520147
1.510228172436084
1.19023820130452
1.179156730719039
1.166140607627845
1.25605713152024
1.246124724590857
1.236090694788819
1.365184561320686
1.221896023748279
1.19565890179135
1.161150356149215
1.271728371969198
1.18877263673956
1.150594599478434
1.102022276911685
1.117440741353023
1.164352460378704
1.119323596440005
1.080684345769691
1.028607793129189
1.416894190595491
1.440755171143392
1.443325158854891
1.44335316430342
1.419140299192732
1.441013267817008
1.443316030929138
1.443353044677749
1.387215082712654
1.439922839139825
1.443297827810168
1.443352877341543
1.34969076632711
1.437930255591632
1.443267612479895
1.44335254239695
1.443351937616651
1.443195031376739
1.436576783342524
1.343375551055776
1.443351949450911
1.443200477318229
1.436903850721694
1.349672697934937
1.443351968317035
1.443204024426935
1.436631184458003
1.345519142813826
1.4433521180751
1.443229432504528
1.436881671723111
1.34053097161989
1.443352542403635
1.443352877351293
1.443353044710389
1.443353164333569
1.443267612475305
1.443297827811565
1.443316030935689
1.443325158870638
1.437930255596029
1.439922839146303
1.441013267806663
1.440755171156554
1.349690766335457
1.387215082723665
1.419140299196602
1.416894190596501
)
;

boundaryField
{
    back
    {
        type            empty;
    }
    inlet
    {
        type            calculated;
        value           nonuniform List<scalar> 
16
(
1.443353270571932
1.443353270571932
1.443353270571932
1.443353270571932
1.443353270571932
1.443353270571932
1.443353270571932
1.44335327057809
1.443353270576489
1.443353270571932
1.443353270571932
1.443353270571933
1.443353270571932
1.443353270571932
1.443353270571932
1.443353270571932
)
;
    }
    front
    {
        type            empty;
    }
    top
    {
        type            calculated;
        value           uniform 0;
    }
    outlet
    {
        type            calculated;
        value           nonuniform List<scalar> 
16
(
1.443351414910514
1.443351407838294
1.443351356011884
1.443351253539837
1.443353111150199
1.443352950878689
1.443352705682403
1.443351938730739
1.44335141490572
1.443351407832463
1.443351356016485
1.443351253556052
1.443351938734102
1.443352705686462
1.443352950897547
1.443353111169117
)
;
    }
    bottom
    {
        type            calculated;
        value           uniform 0;
    }
    wall
    {
        type            calculated;
        value           uniform 0;
    }
}


// ************************************************************************* //
