/*--------------------------------*- C++ -*----------------------------------*\
  =========                 |
  \\      /  F ield         | OpenFOAM: The Open Source CFD Toolbox
   \\    /   O peration     | Website:  https://openfoam.org
    \\  /    A nd           | Version:  11
     \\/     M anipulation  |
\*---------------------------------------------------------------------------*/
FoamFile
{
    format      ascii;
    class       volScalarField;
    location    "0.13";
    object      T;
}
// * * * * * * * * * * * * * * * * * * * * * * * * * * * * * * * * * * * * * //

dimensions      [0 0 0 1 0 0 0];

internalField   nonuniform List<scalar> 
880
(
300
300
300.0000000000414
300.0005638145528
300
300
300.0000000039448
300.0023552500178
300
300
300.0000000495734
300.0123471389453
300.0000000000001
300
300.0000010523347
300.0243368340362
300
300
299.9999999999999
299.9999999974402
300
300
299.9999999999997
300
299.9999938525097
300.0000854932857
300.0474707694569
299.9218407075519
301.3227746872349
305.1463759899043
308.5267804937916
309.7971365964714
300.0000071605236
300.0000505806319
300.0000719602633
300.000053847928
300.0001884582923
300.000516843948
300.0016960913446
300.0013778098218
300.0978621589699
300.2194278186251
300.3916507581257
300.4317685642566
311.31238674398
313.2121245774126
314.8570716783505
316.9719385215491
316.4609816189831
313.5551290304474
311.0492131065943
309.2441008915861
300.7593989341171
301.4621579508493
301.7627387112908
301.6662521382663
300.004011116769
300.0114213084709
300.022513809189
300.0282389289632
300.0001753267818
300.0004829677207
300.0010660301988
300.0012434450824
300.0010518333269
300.000618651144
300.000206419872
300.0000260554198
300.0260694425057
300.0202481600524
300.0114383577701
300.0035437457677
301.3777098223106
301.0297484175321
300.6642603762251
300.3112460923775
307.3433886530219
305.4160061489908
303.7917109638526
302.4745619008843
301.3658915894535
300.0832493443182
300.000451686572
300.0000005139702
300.5263922891548
300.0118361348486
300.0000310825091
300.0000001550388
300.0685898223146
300.0000469490485
299.9999845554784
300.0000001202266
303.3719352934842
300.0226829531562
299.999831148762
299.9999852204146
299.9999480611223
299.9999016789056
300.1196670444402
324.8304696938262
299.9999939213022
300.0017117975971
300.6846408239414
342.7840237472085
300.0001705044116
300.0040918229963
301.4394183480183
353.5467895634013
300.0006083046154
300.0145233851026
302.6868568256656
362.4262778392601
369.6006975714828
304.1220343426073
300.0219735142402
300.0009779241362
377.4373250272483
306.0618959569936
300.0475816894323
300.0019717126023
383.4861962240725
307.8442831955126
300.0575794803175
300.0022110045703
389.6026253827924
309.9230243673692
300.0965436242743
300.0040288559011
300.0047454859601
300.1229966824849
312.4942731706598
394.5778599560451
300.0075598839451
300.1937381622371
315.4525974084356
394.1124304105233
300.0153617582279
300.262017380959
315.3601894326463
384.4350929871101
299.9994789010531
300.1214000354153
309.7673623036826
362.0945122168053
300.0253138093142
300.4751894066213
310.7443620964265
341.5149995275424
300.0303635772613
300.5973824499522
306.3657242555627
318.4979688355941
300.0073138132357
300.3316677405301
305.3140320833771
312.9399267595121
299.9955815359278
300.0489963237982
303.9258852187976
319.4636930436045
316.4530715387853
300.9129349142246
299.8426716214717
299.992265099937
309.1497901928849
299.1306859419739
299.8003494009993
299.9965860976296
302.3806063700767
298.0469350552513
299.8077818265534
299.9988736425126
292.9979305261976
297.5769186663731
299.8714540595035
299.9992866821548
286.1268798537648
298.1805663958857
299.9566958456853
299.9997760617661
280.7490250116908
298.9632702260155
299.9878133830821
299.9999470980403
279.8474963550769
299.310832531144
299.9946571967444
299.9999819881904
281.9381656354793
299.6761502994173
299.998346183518
299.999991521279
297.6817105204357
299.4853478514319
299.9788900698882
299.9997827086584
298.7886457181213
299.5237370203226
299.9774403815322
299.9997748486714
298.8701199240846
299.531461179244
299.9737319918985
299.9997454690913
300.0549871974757
299.6283555056313
299.9635603983726
299.9996406244821
281.9381656350359
299.6761502985494
299.9983461821519
299.9999915238434
279.8474963546585
299.3108325307646
299.9946571941173
299.9999819879022
280.7490250111654
298.9632702274143
299.987813383566
299.9999470982982
286.1268798541078
298.1805663982987
299.9566958457327
299.9997760609731
299.9922650999717
299.8426716234111
300.9129349141095
316.4530715385139
299.9965860994278
299.8003494020001
299.1306859429421
309.1497901934183
299.9988736407882
299.8077818284348
298.0469350541525
302.3806063704647
299.9992866828566
299.8714540603132
297.5769186681134
292.9979305255048
319.4636930421834
303.9258852169393
300.0489963206675
299.9955815343544
312.93992675718
305.3140320820609
300.3316677392096
300.0073138107804
318.4979688364164
306.365724254227
300.5973824502758
300.0303635771933
341.5149995277714
310.7443620960139
300.4751894055478
300.0253138130355
300.004745484842
300.1229966860741
312.4942731724431
394.5778599567287
300.0075598837178
300.1937381643908
315.4525974100732
394.1124304108852
300.0153617587735
300.2620173810633
315.3601894317104
384.4350929870785
299.9994789055801
300.1214000357514
309.767362302792
362.094512216578
389.6026253840574
309.9230243674565
300.0965436252844
300.0040288564643
383.4861962258511
307.8442831988575
300.0575794792224
300.0022110049186
377.43732502737
306.0618959550787
300.0475816983696
300.0019717114989
369.6006975723647
304.1220343418203
300.0219735062241
300.0009779233054
299.9999480628161
299.9999016799582
300.119667044471
324.8304696927421
299.9999939208174
300.0017117973374
300.6846408250688
342.7840237474058
300.0001705033139
300.0040918191888
301.439418347709
353.5467895638159
300.0006083030844
300.0145233914929
302.6868568262115
362.4262778391185
299.999985219837
300.000000121081
300.0000001550993
300.0000005134502
299.9998311471905
299.9999845560396
300.0000310844394
300.0004516847127
300.0226829535681
300.0000469495614
300.0118361332158
300.0832493447804
303.371935293852
300.0685898227563
300.5263922888612
301.3658915897274
300.0000260532379
300.0035437463133
300.3112460940772
302.4745619012334
300.0002064198521
300.0114383572861
300.6642603781004
303.7917109638807
300.0006186525149
300.0202481602969
301.0297484166586
305.4160061485028
300.0010518334932
300.0260694426747
301.3777098233616
307.343388652353
300.0001753248205
300.0040111152043
300.7593989345181
316.4609816192471
300.0004829655498
300.0114213081937
301.4621579513508
313.5551290297905
300.0010660288731
300.0225138106298
301.7627387114476
311.0492131060817
300.0012434440785
300.0282389302744
301.6662521384351
309.2441008905227
316.9719385225423
300.4317685668117
300.0013778089062
300.0000538470348
314.8570716786441
300.391650759809
300.0016960910974
300.0000719595682
313.2121245785875
300.2194278184727
300.0005168441078
300.0000505813165
311.3123867435928
300.0978621578375
300.0001884577622
300.0000071613135
309.7971365963825
299.9218407080346
300
299.9999999981057
308.5267804926428
300.0474707647263
300
300.0000000000001
305.1463759895389
300.0000854927943
300
300
301.3227746876635
299.9999938518962
300
299.9999999999999
300
299.9999999999999
299.9999999999255
300.0005638167927
300.0000000000002
300
300.0000000040122
300.0023552482305
300
300
300.0000000497008
300.0123471357757
300
300
300.0000010510722
300.0243368352405
300.0013834990538
300.0051627160987
300.0227920265747
300.2806908682124
300.0051627355942
300.0071037812289
300.0238244920087
301.0660599606138
300.0227920148475
300.023824415622
300.4210561964199
306.5459071988204
300.2806908307133
301.0660599439731
306.5459073034147
326.3313587753096
355.2292393312928
336.3027312281743
323.1227367508986
311.0888474282733
351.4782937074722
346.7979961058048
342.3522631921439
333.5328756880781
348.7214666544739
346.5737029923416
344.4008880259445
340.356128840521
346.6297313824612
345.8804954619589
345.4641659736776
343.4208475612685
344.9191884171017
345.3325769080892
346.1338128838183
348.0930623907361
345.3024026275079
344.794688960728
345.3672241914216
347.4149343354287
345.5843407605665
344.3922929591554
344.6297807861451
345.845244749925
346.1685872122645
344.3329433511953
344.3397708503759
341.9811769864123
331.1084215414623
312.2498532898647
303.5340797490721
304.1274882793206
322.0357968878636
304.5304784277751
301.8205556175435
304.855124610348
311.5296297341541
298.5826069916868
302.8218732115572
306.4291519833616
287.7130538396643
291.549750493564
302.2887071184571
306.0142185862612
303.8820707237023
303.2180626066269
302.5371565287778
302.3134249718995
304.7527940649553
303.8320571297976
302.791773346683
302.4818015996685
306.0123529745804
304.6282275659831
303.3167881352848
302.75202015989
305.5032510650469
304.0823505688052
302.712133126361
302.3493447734805
301.9640993177543
301.1286841669115
300.3401846461878
334.1293006187712
301.859002297586
301.0081715790253
300.3719007982746
350.9992976944988
302.0147992506299
301.1074836419401
300.88616919625
360.3732250834124
301.8049744800152
300.8055022511418
301.6674112815115
366.2020458245373
410.8009665810537
420.9757391630687
423.4534271661345
425.020083824277
424.0902517740011
426.5709593240685
424.3318983162233
423.1999927657072
426.3937749478619
424.8438193180018
423.7185775670024
421.103187385523
434.2499465686153
428.4812524295411
424.0320010270296
420.2193074128591
425.1901399088587
427.9145649497509
430.4937107286418
433.6372638882756
421.7776602972738
423.4008156443038
425.1726482802257
428.1372571786395
417.2045156839429
417.9940348865286
419.1835420595949
421.8056956535448
415.6293382535303
415.6963529061064
416.4065921452099
418.8887001208262
434.0920215581054
428.8827647237535
417.3513817824868
398.2410429424436
429.1858725907505
425.043069595591
415.1016399989769
414.803401505149
423.3243900554877
420.5272489635981
415.4905073750141
428.5155786049549
420.3118110502772
419.2049311897582
420.252585718965
409.7188973458377
362.6277834851638
298.1977566124415
205.0635650650977
203.3177988110434
351.1338039564178
262.4221999550051
187.9982306462901
169.6352732486447
317.8733638876367
215.2318558613367
164.6247800074341
154.2920160750754
241.1503732771067
154.2781109662669
163.4029308071403
149.892774452266
217.267805279773
227.4955294769116
234.8539213011925
234.3791394515734
179.7635381602762
193.5070832182838
208.8631978509206
225.1637529445262
157.0396693738262
166.9976860120171
191.1318720660715
225.4351608323394
148.7837175101425
156.9337372634526
186.6518374105835
231.6903927057159
266.9319586657294
257.1529005854568
251.7604336608419
255.0083383646094
272.622648313721
267.1812987756108
257.984653041701
260.9906203158611
265.4822178413718
274.2192697246321
269.8195891739562
275.1585793438718
249.619660994353
266.1745975824697
270.2570863678272
287.6571680353848
233.8755639706422
209.609524363851
186.0136012320517
207.9877539982748
237.6523181241507
209.8468158952663
207.3136015195836
217.2018061417104
240.4029820123545
193.1664329040376
219.2248270347845
200.2483646338827
213.8384644786781
207.113999497381
216.3199273103842
184.7835084551161
171.5639974622601
168.7522272366076
166.9053859758266
164.5715490345159
177.2749155282255
171.7177787542173
172.3400154131988
172.2883281643216
204.2359297315588
204.4412817528055
209.3837072987847
211.1717898839708
247.7608851659708
261.2274803077431
256.2647953521069
253.2762294255541
164.5715490345875
172.288328164335
211.1717898838594
253.2762294249249
166.9053859760818
172.3400154132353
209.3837072988067
256.2647953516402
168.752227236824
171.7177787544296
204.4412817528442
261.227480307205
171.5639974624275
177.2749155284379
204.2359297316095
247.7608851657705
207.9877539982805
186.0136012317894
209.6095243632967
233.8755639699225
217.2018061417021
207.3136015197174
209.8468158950687
237.6523181236583
200.2483646338289
219.2248270348676
193.1664329038827
240.4029820121461
184.7835084551234
216.3199273102845
207.113999497487
213.8384644785556
287.6571680353319
270.2570863674767
266.1745975813411
249.6196609928058
275.1585793436611
269.8195891737398
274.2192697237027
265.4822178396667
260.990620315562
257.9846530414685
267.1812987746189
272.6226483120874
255.0083383643167
251.760433660652
257.1529005844301
266.9319586643141
234.3791394510422
234.8539213016269
227.4955294774496
217.2678052794926
225.1637529438875
208.8631978513604
193.5070832190906
179.7635381600444
225.4351608316761
191.1318720663315
166.9976860125218
157.0396693738016
231.69039270466
186.6518374105256
156.9337372637166
148.7837175102678
203.3177988093508
205.0635650636505
298.1977566124269
362.6277834852435
169.6352732475468
187.998230645112
262.4221999546572
351.1338039558671
154.2920160743281
164.6247800065576
215.2318558610301
317.8733638875464
149.8927744518459
163.4029308047142
154.278110964704
241.1503732767974
398.2410429422466
417.3513817824972
428.8827647235813
434.0920215581763
414.8034015051603
415.1016399990743
425.0430695956326
429.1858725910431
428.5155786050975
415.4905073752425
420.5272489639671
423.3243900560946
409.7188973458278
420.2525857194942
419.2049311901937
420.3118110510929
433.6372638885867
430.4937107297582
427.9145649504117
425.1901399093958
428.1372571792038
425.1726482811835
423.4008156448234
421.77766029805
421.8056956543758
419.1835420603845
417.9940348870085
417.204515684942
418.8887001219
416.4065921459149
415.6963529067257
415.6293382548238
425.0200838244898
423.4534271648167
420.9757391626389
410.800966579956
423.1999927658671
424.3318983147731
426.570959324187
424.0902517721269
421.1031873857393
423.7185775658653
424.843819317316
426.3937749452562
420.2193074128206
424.0320010264269
428.48125242874
434.2499465658399
334.129300616604
300.3401846431075
301.128684168249
301.9640993174792
350.9992976917594
300.3719007948844
301.008171580982
301.8590022968395
360.373225081066
300.8861691944089
301.1074836441659
302.0147992495498
366.2020458222216
301.6674112798466
300.8055022527717
301.8049744794623
302.3134249722037
302.5371565287211
303.218062606254
303.8820707231282
302.4818016000369
302.7917733465515
303.8320571295737
304.7527940643991
302.7520201602373
303.3167881348932
304.6282275659211
306.0123529740073
302.3493447740573
302.7121331260194
304.0823505687393
305.503251064392
304.1274882783654
303.5340797485995
312.2498532890124
331.1084215413977
304.8551246094368
301.820555617067
304.5304784266925
322.0357968879111
306.429151982548
302.8218732111129
298.582606990496
311.5296297341717
306.0142185853934
302.2887071180796
291.5497504920824
287.7130538391804
348.0930623906508
346.1338128843975
345.3325769105071
344.9191884181657
347.4149343348844
345.3672241918644
344.7946889629989
345.3024026272452
345.8452447491983
344.6297807860427
344.3922929610021
345.5843407604875
341.9811769859987
344.339770849907
344.33294335275
346.1685872120174
343.4208475600015
340.3561288412274
333.5328756853816
311.0888474380936
345.4641659719826
344.4008880256602
342.3522631932493
323.1227367500514
345.8804954605499
346.5737029915922
346.7979961067018
336.3027312228797
346.6297313809495
348.7214666522586
351.4782937039042
355.2292393331886
283.856114370227
299.531825386775
299.995204679424
299.9999779042769
288.0220565214702
299.582226336688
299.994092874633
299.9999610078531
293.990490514033
299.6425253711349
299.9913992524121
299.999928641513
299.5302095069201
299.6750414727015
299.9730739940427
299.9997490566993
299.9997827096126
299.9788900701511
299.4853478502678
297.6817105180371
299.9997748497811
299.9774403827907
299.5237370186077
298.7886457179201
299.9997454673149
299.9737319934029
299.5314611780458
298.8701199231691
299.9996406204232
299.9635604000122
299.6283555029613
300.0549871963598
299.9997490553185
299.9999286391472
299.9999610021242
299.999977899608
299.9730739947296
299.9913992524937
299.9940928742255
299.9952046778553
299.6750414721124
299.6425253694802
299.5822263378071
299.5318253858414
299.5302095058522
293.9904905121938
288.0220565207403
283.85611437063
)
;

boundaryField
{
    back
    {
        type            empty;
    }
    inlet
    {
        type            zeroGradient;
    }
    front
    {
        type            empty;
    }
    top
    {
        type            zeroGradient;
    }
    outlet
    {
        type            fixedValue;
        value           uniform 300;
    }
    bottom
    {
        type            zeroGradient;
    }
    wall
    {
        type            zeroGradient;
    }
}


// ************************************************************************* //
