/*--------------------------------*- C++ -*----------------------------------*\
  =========                 |
  \\      /  F ield         | OpenFOAM: The Open Source CFD Toolbox
   \\    /   O peration     | Website:  https://openfoam.org
    \\  /    A nd           | Version:  11
     \\/     M anipulation  |
\*---------------------------------------------------------------------------*/
FoamFile
{
    format      ascii;
    class       volVectorField;
    location    "7.875";
    object      U;
}
// * * * * * * * * * * * * * * * * * * * * * * * * * * * * * * * * * * * * * //

dimensions      [0 1 -1 0 0 0 0];

internalField   nonuniform List<vector> 
4455
(
(99.999391 0.42935432 0)
(99.9435 1.1826849 -1.8644627e-18)
(99.685232 1.8536086 6.406812e-18)
(99.453114 2.1830437 2.6306694e-20)
(98.948637 2.5932348 6.0154236e-18)
(98.454996 2.7614168 -2.2775358e-17)
(97.600442 3.2141545 1.015227e-17)
(96.762407 3.1052717 0)
(95.161088 3.7020772 -6.1779938e-17)
(100.01674 0.48775614 -1.1969942e-17)
(100.00173 1.2498599 1.1702941e-17)
(99.703842 2.0347447 -1.4446876e-17)
(99.463722 2.3718352 2.4161399e-17)
(98.928861 2.7738273 -4.6499e-17)
(98.442644 2.9028568 5.0838269e-17)
(97.56072 3.2556263 -4.8770611e-18)
(96.61378 3.0624931 7.0952536e-18)
(94.765253 2.9693201 2.6785199e-16)
(100.09749 0.48459325 -1.2306286e-17)
(99.96676 1.3777098 1.5665287e-17)
(99.758467 2.1328612 1.4153098e-17)
(99.446449 2.5876697 -1.4114568e-17)
(99.044992 2.9833193 6.1676957e-17)
(98.468766 3.189462 -3.4992955e-17)
(97.547195 3.4882536 4.4868435e-18)
(96.562836 3.1771594 -9.989796e-17)
(94.619244 3.3424542 -1.8973889e-16)
(100.13199 0.52122624 2.5551321e-19)
(100.00357 1.4352273 -1.9706933e-18)
(99.786824 2.2568956 3.3094855e-17)
(99.504597 2.754466 4.5642784e-18)
(99.085441 3.2180846 -2.2864358e-19)
(98.528354 3.40596 -6.6595796e-18)
(97.498222 3.9010651 7.4167133e-17)
(96.399629 3.3883897 1.9983974e-16)
(94.35429 4.0654583 1.5751837e-16)
(100.16499 0.53039537 2.3811447e-17)
(100.0495 1.4868299 -2.6784521e-17)
(99.808079 2.3523618 3.3810189e-17)
(99.562163 2.8965615 3.8010046e-20)
(99.153661 3.4306833 -4.1933396e-17)
(98.605113 3.6496649 -1.2877348e-17)
(97.506864 4.1879256 -5.8473577e-17)
(96.266734 3.5993568 -9.3910565e-17)
(94.003741 4.3141422 -4.6455151e-16)
(100.19018 0.53787465 0)
(100.08833 1.5044474 0)
(99.848426 2.4365854 -5.9282773e-17)
(99.655979 3.0279486 -6.8025032e-17)
(99.25776 3.6682572 0)
(98.693504 3.9305055 -9.2331354e-17)
(97.555692 4.5504886 -7.8743679e-18)
(96.202905 3.9101877 -5.6168956e-18)
(93.562091 4.9085449 5.7288678e-16)
(100.21199 0.53699158 0)
(100.12755 1.501611 -1.5851207e-18)
(99.909891 2.5045833 1.7841265e-18)
(99.740021 3.1145391 6.6487703e-17)
(99.360471 3.8041811 -4.9173418e-18)
(98.792855 4.1031264 1.9614442e-16)
(97.594154 4.8066475 0)
(96.04297 4.1241307 0)
(93.251545 5.3666007 2.6191606e-16)
(100.22953 0.52368297 4.3535104e-17)
(100.16438 1.4778652 0)
(99.970962 2.5405052 0)
(99.863789 3.2311612 0)
(99.482477 4.0235875 0)
(98.899585 4.3793136 -9.7667252e-17)
(97.684245 5.1607436 -1.0481227e-16)
(96.019075 4.4833658 1.5269334e-16)
(92.753279 6.0595029 7.5498268e-19)
(100.24955 0.50188039 -4.2869583e-17)
(100.19185 1.423566 -1.503677e-18)
(100.01997 2.5250003 -1.7209985e-18)
(99.943885 3.226105 3.8729491e-18)
(99.64294 4.1020821 1.5009059e-16)
(99.06049 4.5203284 1.7022475e-16)
(97.774083 5.4550397 3.3270259e-16)
(95.882408 4.7635878 -1.4988204e-16)
(92.489528 6.6576931 -4.5058253e-16)
(100.257 0.47371522 0)
(100.26376 0.43689291 7.8043767e-17)
(100.25673 0.39261661 -7.7421356e-17)
(100.24181 0.34181924 7.3412646e-17)
(100.22558 0.29577122 -7.1764366e-17)
(100.19415 0.23261719 1.4226763e-16)
(100.15951 0.18837713 -1.3811211e-16)
(100.12712 0.12853728 0)
(100.04744 0.059260292 0)
(100.22843 1.3868597 0)
(100.25597 1.3247045 1.3616481e-18)
(100.29147 1.2496772 0)
(100.30952 1.1503065 3.8462795e-18)
(100.32808 1.0430083 7.7854771e-17)
(100.35773 0.93080633 -2.3188748e-16)
(100.3377 0.77571644 1.4990481e-16)
(100.3823 0.67435704 -2.2751842e-18)
(100.31193 0.42939155 1.431632e-16)
(100.10863 2.5346884 1.002816e-16)
(100.17452 2.5190318 -1.9698938e-16)
(100.25355 2.4542701 1.8689919e-16)
(100.33777 2.3911704 -6.3607032e-18)
(100.38967 2.2610458 -8.7409143e-17)
(100.49567 2.1798144 -2.6415507e-18)
(100.53341 1.9894947 0)
(100.66351 1.8859448 4.9289453e-18)
(100.70339 1.507728 -2.3837533e-18)
(100.07341 3.3294478 1.0517782e-16)
(100.21983 3.3617782 -2.1311843e-16)
(100.33011 3.3708722 2.0140965e-16)
(100.51218 3.3508598 -9.7304982e-17)
(100.59172 3.2604161 -6.0475702e-18)
(100.79579 3.2131345 2.8868164e-18)
(100.85185 3.0527725 0)
(101.078 2.9647731 -2.6879712e-18)
(101.0918 2.6109181 1.609904e-16)
(99.755182 4.2667079 -1.2056213e-16)
(100.00346 4.4503335 0)
(100.133 4.5130887 -1.0924075e-16)
(100.39796 4.6380351 1.126442e-16)
(100.54489 4.6038558 -1.0036592e-16)
(100.82632 4.6865699 1.0371772e-16)
(100.98032 4.5821065 0)
(101.30878 4.6378694 0)
(101.42998 4.3857596 5.7172045e-18)
(99.187306 4.7219365 -1.4850083e-16)
(99.429578 5.0340623 -1.4009305e-16)
(99.615199 5.143837 1.3466964e-16)
(99.868353 5.4050492 1.2729484e-16)
(100.08418 5.4145119 -1.2272274e-16)
(100.3731 5.6287405 0)
(100.59837 5.54628 2.2248627e-16)
(100.91036 5.7044578 -1.9998177e-18)
(101.10927 5.4957849 -4.1083546e-16)
(97.905401 5.7157339 -1.7596877e-16)
(98.098573 6.3356543 0)
(98.348972 6.4967124 0)
(98.623932 7.0419024 4.7481407e-18)
(98.96611 7.1236829 0)
(99.351511 7.6393909 0)
(99.748705 7.6447227 0)
(100.20862 8.1188461 0)
(100.59462 8.009693 0)
(95.891008 5.1750071 6.9436311e-18)
(95.831008 5.9945016 0)
(95.971166 6.4788726 6.1314964e-18)
(96.110047 7.3163346 -1.1269728e-17)
(96.40611 7.6946292 -1.6842516e-16)
(96.757996 8.3955852 -1.5701572e-16)
(97.167439 8.6299071 3.0416173e-16)
(97.662917 9.1856981 2.8872663e-16)
(98.155162 9.3107169 -2.7331471e-16)
(91.804742 7.4147255 8.3879099e-16)
(91.703523 9.3479561 -5.223496e-16)
(91.740261 10.522648 4.7073829e-16)
(92.295082 12.342575 -4.5017852e-16)
(92.964575 13.182113 -6.2147458e-16)
(93.947627 14.783403 1.1515725e-15)
(94.9097 15.26546 -7.2382848e-16)
(96.015792 16.644124 -3.3404382e-16)
(96.830665 16.641296 3.1416761e-16)
(100.08677 0.09888996 -1.8830489e-19)
(100.13912 0.13200245 1.9277575e-16)
(100.22589 0.1769659 -2.8196712e-19)
(100.3399 0.22751791 -1.9397652e-16)
(100.47776 0.27863956 1.8894307e-19)
(100.63888 0.33175362 1.9407667e-16)
(100.82332 0.3845583 -1.9501973e-16)
(101.03299 0.43895063 -1.8886327e-19)
(101.28827 0.50852889 -9.719236e-17)
(100.37515 0.55318927 -2.0538165e-16)
(100.53405 0.58021973 2.0631048e-16)
(100.65087 0.77506394 -2.0649792e-16)
(100.89351 0.7787832 0)
(101.06798 0.98505981 2.0656779e-16)
(101.35768 0.97248607 -5.5710561e-19)
(101.54606 1.1440919 -4.6485555e-19)
(101.90206 1.1669099 -2.063019e-16)
(102.11905 1.2663779 1.0283884e-16)
(100.82357 1.6772735 2.1892588e-16)
(101.0374 1.8652906 -2.19747e-16)
(101.22842 1.9568623 -2.1991313e-16)
(101.40928 2.2070769 2.2044382e-16)
(101.68161 2.2286152 -2.2073098e-16)
(101.83697 2.5024228 2.1994485e-16)
(102.16472 2.5069541 -2.2032449e-16)
(102.36009 2.807105 9.1524203e-19)
(102.72044 2.7893482 2.1966084e-16)
(101.34436 2.7263825 -2.3540476e-16)
(101.47886 3.0248066 -9.2069001e-19)
(101.74999 3.0800423 9.2376593e-19)
(101.8855 3.3696919 0)
(102.17899 3.4077856 -1.5426685e-21)
(102.33652 3.712834 -2.3417776e-16)
(102.66771 3.7369314 2.3804656e-16)
(102.85286 4.0651022 9.1828837e-19)
(103.22369 4.0606634 9.1579218e-19)
(101.73794 4.5837179 -9.9306764e-19)
(101.86434 4.9119204 -2.5426034e-16)
(102.12988 5.0116873 2.8827737e-19)
(102.21954 5.2996823 2.5553824e-16)
(102.49503 5.3669257 2.549798e-16)
(102.61123 5.6691548 -2.5626498e-16)
(102.92981 5.7197047 -9.9201174e-19)
(103.08878 6.054441 -9.8998586e-19)
(103.46033 6.077151 -9.8784795e-19)
(101.41564 5.6801157 2.8014535e-16)
(101.51601 6.0446153 0)
(101.79861 6.1448094 0)
(101.88857 6.4736662 2.7697111e-16)
(102.19542 6.5466603 -2.8064943e-16)
(102.32249 6.8898006 -2.781798e-16)
(102.67108 6.9399441 5.5497851e-16)
(102.84735 7.3104452 -2.4048954e-18)
(103.26439 7.332727 -5.5158553e-16)
(101.01552 8.3670384 -1.2213557e-18)
(101.11123 8.7978274 0)
(101.40113 8.9935062 1.2114326e-18)
(101.46531 9.3083131 3.0693592e-16)
(101.78715 9.4602255 -3.0878563e-16)
(101.90673 9.747612 3.0538334e-16)
(102.28764 9.8941737 -3.0604001e-16)
(102.47308 10.145574 -1.181166e-18)
(102.90152 10.275106 3.006476e-16)
(98.709886 9.7241248 -3.4483813e-16)
(99.13331 10.203446 3.493667e-16)
(99.676666 10.503086 -3.4427342e-16)
(100.11879 10.862378 3.42542e-16)
(100.64897 11.055237 -3.3446776e-16)
(101.11642 11.331213 3.3496412e-18)
(101.67584 11.396453 3.3567141e-16)
(102.15439 11.569983 2.5675407e-18)
(102.63292 11.589098 1.6269713e-16)
(97.880823 17.476581 0)
(98.417226 17.653571 -3.746665e-16)
(99.270733 18.339524 6.9363631e-18)
(99.773444 18.284882 8.2617257e-18)
(100.73483 18.641795 7.2785208e-16)
(101.21543 18.124922 -3.6187491e-16)
(102.38903 18.016945 -3.52205e-16)
(102.90906 16.844246 3.5376706e-16)
(104.17727 16.091589 1.7350293e-16)
(104.43876 14.53124 -2.0254728e-16)
(104.87119 13.443987 0)
(104.95525 12.277542 1.965435e-16)
(104.87586 11.748101 -1.9643816e-16)
(104.42012 10.762251 0)
(103.81211 10.457007 0)
(102.9103 9.5178046 0)
(102.18536 9.381176 -2.0301448e-16)
(101.24205 8.5311734 2.0301593e-16)
(103.00148 11.647972 -1.8529715e-16)
(103.39284 11.630585 0)
(103.66109 11.546913 0)
(103.89646 11.478331 0)
(104.01696 11.312113 0)
(104.08629 11.223835 0)
(104.05567 11.07072 0)
(103.9644 11.059192 1.7370184e-16)
(103.7777 10.974179 -3.4697874e-16)
(103.10542 10.477191 -3.2483588e-18)
(103.47725 10.637447 -3.2734711e-16)
(103.66958 10.795813 0)
(104.01261 10.923614 -1.5881516e-16)
(104.1754 11.026027 1.5880372e-16)
(104.46692 11.110788 0)
(104.57584 11.195174 0)
(104.79738 11.279561 0)
(104.84444 11.379132 0)
(103.42181 7.6855864 2.9557811e-16)
(103.85703 7.8018695 0)
(104.01889 8.1295718 1.4364236e-16)
(104.44884 8.2244928 -2.8587445e-16)
(104.60144 8.5417938 1.4223131e-16)
(105.01646 8.6281502 0)
(105.15535 8.9474599 0)
(105.55815 9.0355062 0)
(105.67794 9.3673597 1.3508003e-16)
(103.62661 6.4337035 0)
(104.02284 6.4779056 2.617357e-16)
(104.21196 6.8365044 -3.9140514e-16)
(104.62359 6.8641939 1.2966949e-16)
(104.82221 7.221919 1.2715397e-16)
(105.24205 7.2348695 -1.3120487e-18)
(105.44735 7.5972333 -2.5030829e-16)
(105.88318 7.6082715 2.475664e-16)
(106.0923 7.988525 -1.2308301e-16)
(103.42845 4.4145 0)
(103.82592 4.4148619 1.1964948e-16)
(104.06534 4.7812776 -1.1964947e-16)
(104.48778 4.7579371 0)
(104.75084 5.1233196 -2.32647e-16)
(105.19876 5.0773618 2.3264702e-16)
(105.48613 5.4501431 1.1383001e-16)
(105.96154 5.3892306 -2.2633248e-16)
(106.26736 5.7749631 1.1249719e-16)
(102.95363 3.1254972 0)
(103.34333 3.1023448 0)
(103.59868 3.4473843 0)
(104.01587 3.4051142 -1.0864147e-16)
(104.29357 3.7594265 2.1628221e-16)
(104.74026 3.6990548 -2.1421955e-16)
(105.04429 4.0681688 1.0657804e-16)
(105.52424 3.9911571 -1.042761e-16)
(105.85636 4.3785147 2.073014e-16)
(102.53466 1.3596396 -2.0787577e-16)
(102.79428 1.3779565 7.7913109e-19)
(103.22902 1.5793919 1.0279645e-16)
(103.56434 1.5059698 -1.0106014e-16)
(104.00451 1.7632966 1.0106013e-16)
(104.36604 1.6559846 0)
(104.85512 1.888217 9.8048653e-17)
(105.22389 1.8015444 -1.9496784e-16)
(105.77324 2.0211176 9.6919168e-17)
(101.44778 0.56567463 5.7453605e-19)
(101.75234 0.65044421 9.7961414e-17)
(102.1174 0.77117618 9.6687403e-17)
(102.41367 0.81923814 -9.6687412e-17)
(102.80065 0.91943068 0)
(103.14033 0.94389707 0)
(103.59357 1.0652217 -9.356655e-17)
(103.9796 1.0875175 1.8617614e-16)
(104.49973 1.202213 -9.2609562e-17)
(104.91952 1.2366059 0)
(105.5034 1.339263 -8.9298279e-17)
(105.96111 1.3679194 1.2556323e-18)
(106.59684 1.4806272 1.3325272e-18)
(107.10304 1.4986236 1.4117039e-18)
(107.7837 1.5920394 8.5298411e-17)
(108.34792 1.6287812 8.2213997e-17)
(109.07401 1.7312618 -8.2214002e-17)
(109.69837 1.7485353 0)
(106.16836 1.9103072 0)
(106.75005 2.1639316 0)
(107.18189 2.0262085 -9.1747025e-17)
(107.79753 2.2935044 1.4595819e-18)
(108.25559 2.1565181 1.5294111e-18)
(108.89808 2.4605698 8.8758013e-17)
(109.40979 2.2947773 8.5482662e-17)
(110.06956 2.6486433 -8.5482642e-17)
(110.6249 2.4680889 0)
(106.37133 4.2867537 -1.0302548e-16)
(106.73152 4.6972054 0)
(107.28228 4.5933797 0)
(107.66694 5.026727 -9.7398683e-17)
(108.25689 4.9130222 1.9321837e-16)
(108.67144 5.3778452 -1.644919e-18)
(109.30886 5.2548059 -1.7181851e-18)
(109.75417 5.7560957 -9.2455814e-17)
(110.44521 5.6247658 0)
(106.77441 5.7069665 -1.0967589e-16)
(107.0947 6.1139932 1.096748e-16)
(107.63468 6.0466912 0)
(107.96475 6.481694 0)
(108.54379 6.4226165 1.0336684e-16)
(108.88371 6.8962927 -1.0336467e-16)
(109.51 6.8519715 9.9857004e-17)
(109.86196 7.3765086 -5.0853376e-17)
(110.54363 7.3493117 -4.8997294e-17)
(106.55641 8.0111402 -1.2017598e-16)
(106.76352 8.4168077 1.2017575e-16)
(107.25426 8.4588677 0)
(107.45326 8.8948226 0)
(107.97175 8.9635999 0)
(108.16111 9.4415902 0)
(108.71612 9.5451538 0)
(108.90254 10.084437 0)
(109.51093 10.221967 0)
(106.07528 9.4745624 -1.3508419e-16)
(106.16937 9.8235118 1.3220291e-16)
(106.57026 9.9672437 -1.3220748e-16)
(106.63486 10.349841 1.2932635e-16)
(107.0526 10.545846 -1.2930405e-16)
(107.07492 10.989602 0)
(107.52032 11.256051 0)
(107.50926 11.795268 0)
(108.0177 12.135716 0)
(105.01022 11.493652 0)
(104.97502 11.640609 -1.4988219e-16)
(105.09246 11.824612 1.4984029e-16)
(104.99128 12.082375 0)
(105.02959 12.297943 1.4719813e-16)
(104.96995 12.732039 -1.4719809e-16)
(104.87599 13.020034 0)
(104.88339 13.618211 7.2336871e-17)
(104.7045 14.025592 -1.4423101e-16)
(103.61953 11.07645 1.7344486e-16)
(103.25804 11.152525 1.7312861e-16)
(103.02704 11.265726 -1.7312415e-16)
(102.57225 11.553774 1.7342281e-16)
(102.23124 11.721141 -3.4725356e-16)
(101.65363 12.216086 3.4804665e-16)
(101.31208 12.553145 -3.4904591e-16)
(100.54568 13.175221 1.7479806e-16)
(100.24964 13.738996 0)
(100.28711 8.6736464 -2.0763718e-16)
(99.447485 7.9773695 2.0763813e-16)
(98.258971 8.1876914 0)
(97.489395 7.9074498 0)
(96.089365 8.020205 0)
(95.348235 8.1603884 0)
(93.811065 8.3414188 0)
(93.023037 8.6910879 -1.1340048e-16)
(91.341057 9.1901955 1.1339917e-16)
(90.51825 9.8142498 1.166173e-16)
(99.325019 14.549995 0)
(104.81483 14.798798 7.1888304e-17)
(107.98567 12.801084 0)
(109.7105 10.84612 0)
(110.91867 7.9405919 0)
(110.92936 6.173262 4.3405657e-17)
(111.33748 2.8530407 3.9996998e-17)
(110.48076 1.8484991 3.8459428e-17)
(88.617662 10.474175 -1.1661263e-16)
(99.073551 15.316435 0)
(104.57987 15.340276 0)
(108.57511 13.204914 5.9143491e-17)
(110.39984 11.012144 0)
(111.66973 7.9262216 -4.5964308e-17)
(111.68353 6.0310015 -8.5780497e-17)
(111.92344 2.680028 -7.8996196e-17)
(111.1602 1.882892 -7.5943165e-17)
(87.899508 11.77414 0)
(98.035699 16.400512 0)
(104.73029 16.362026 7.0282362e-17)
(108.56851 14.046168 -5.9152274e-17)
(110.63532 11.746932 0)
(112.08487 8.5971565 4.5964216e-17)
(112.21577 6.6334255 4.2375474e-17)
(112.6785 3.0972804 3.8999106e-17)
(111.9945 1.9769752 3.7483729e-17)
(85.634973 12.670382 1.2157384e-16)
(97.867058 17.361461 0)
(104.61702 17.013075 -1.3988374e-16)
(109.23618 14.49636 0)
(111.40316 11.920546 0)
(112.91715 8.582144 -4.3683717e-17)
(113.03531 6.4728496 -4.0170324e-17)
(113.35602 2.8895738 0)
(112.73845 2.0140131 -3.5382371e-17)
(85.167437 14.639625 -1.2159467e-16)
(96.796858 18.833245 -8.9237949e-17)
(104.72142 18.330487 6.9602827e-17)
(109.31667 15.543064 0)
(111.76671 12.79213 0)
(113.38802 9.332772 4.368731e-17)
(113.63292 7.131293 4.017164e-17)
(114.08554 3.3996395 0)
(113.62932 2.1050706 3.5382366e-17)
(82.60346 16.307226 0)
(96.739715 20.016233 8.9236537e-17)
(104.83036 19.116236 -6.788747e-17)
(110.10867 16.036889 0)
(112.52232 12.968575 0)
(114.32575 9.3191794 -4.1150673e-17)
(114.5228 6.93964 -3.7748569e-17)
(114.90444 3.122653 0)
(114.44982 2.128216 -3.3079105e-17)
(82.318217 19.100016 0)
(95.688465 21.979141 0)
(104.95452 20.746798 6.7887392e-17)
(110.31509 17.314655 -2.6711909e-17)
(113.13512 13.911265 -2.266638e-17)
(114.86754 10.086333 6.1038483e-17)
(115.20879 7.6524173 5.5978096e-17)
(115.6396 3.71455 0)
(115.3802 2.2195762 4.9008068e-17)
(79.929258 21.355635 0)
(95.88717 23.399222 -4.4155875e-17)
(105.30479 21.661888 0)
(111.23119 17.82103 2.6708718e-17)
(113.93304 14.190926 2.2666738e-17)
(115.89571 10.121858 -7.3542212e-19)
(116.13973 7.4097985 -3.5764923e-17)
(116.53115 3.4066955 0)
(116.25911 2.2410403 -1.5928967e-17)
(79.921154 25.482724 -6.3029527e-17)
(94.937735 26.025574 4.4144822e-17)
(105.65526 23.685624 0)
(111.71518 19.367647 0)
(114.73877 15.116491 0)
(116.62806 10.887414 -3.7521625e-17)
(117.00657 8.1525148 7.125713e-19)
(117.3278 3.9985698 0)
(117.21585 2.3047239 0)
(118.48436 2.2873312 0)
(118.27355 3.7227229 0)
(117.90717 7.8954052 -2.6773461e-19)
(117.62171 10.971127 1.9265526e-17)
(115.65918 15.529754 0)
(112.73408 19.810791 -3.2155663e-18)
(106.26872 24.581686 -6.4701063e-19)
(95.822438 27.397931 -3.5840481e-17)
(78.325893 28.644859 1.1672772e-16)
(119.41199 2.2432369 -6.711293e-18)
(119.15209 4.0849448 -9.1109429e-19)
(118.94623 8.3226957 8.4800851e-18)
(118.64603 11.2795 -2.8895875e-20)
(116.8237 16.019698 -8.3294826e-18)
(113.8157 21.008013 1.1331303e-17)
(107.42092 26.541864 -4.1308254e-18)
(95.99189 30.506942 4.5962471e-17)
(79.837574 33.654832 -5.902177e-17)
(120.45333 2.1989849 1.3192633e-17)
(120.12292 3.8247312 0)
(120.02368 8.1054448 1.5133456e-17)
(119.7647 11.442985 -7.9789019e-18)
(117.95308 16.335482 8.4400524e-18)
(115.18494 21.337574 -2.1020975e-17)
(108.79804 27.193765 -1.7898948e-17)
(98.435893 31.451425 1.0078836e-17)
(81.924995 35.486925 1.7885707e-18)
(121.53936 2.1462031 -6.4802289e-18)
(121.07544 4.0489591 -8.3567085e-19)
(121.00914 8.4096122 -6.5485532e-18)
(120.84325 11.669904 9.0912725e-18)
(119.35012 16.763002 3.2210158e-18)
(116.64402 22.668661 1.1031618e-17)
(110.58828 29.323106 1.4146597e-17)
(99.386268 34.612964 5.4054701e-18)
(83.997482 39.734188 -6.1917444e-18)
(122.6154 2.0789983 1.4386191e-18)
(122.14048 3.818541 -1.5321487e-18)
(122.2734 8.138807 -8.5600516e-19)
(122.19955 11.725844 2.714577e-18)
(120.73458 16.98988 -3.2831744e-18)
(118.44145 22.629431 -3.6213607e-18)
(112.42504 29.610159 -3.6668057e-18)
(102.34014 35.191754 4.1394308e-18)
(86.143283 41.244511 -7.6768217e-18)
(123.66857 1.9895916 -1.4545891e-18)
(123.11805 3.9254635 1.5505745e-18)
(123.34814 8.1994348 -8.05392e-19)
(123.39314 11.762239 -5.0223335e-20)
(122.40181 17.34455 -9.6939041e-19)
(120.17868 24.002167 2.451349e-18)
(114.52879 31.723947 -3.4635589e-18)
(103.66465 38.342828 3.9200082e-18)
(88.365739 45.097087 0)
(124.69909 1.8769953 -1.2665918e-18)
(124.1719 3.6977309 -7.0380654e-19)
(124.5533 7.9514536 -6.9416885e-19)
(124.80926 11.630045 -8.2059373e-19)
(123.86238 17.28295 -8.259758e-19)
(122.11614 23.605258 2.3376482e-18)
(116.56448 31.711361 -5.8492062e-18)
(106.73291 38.624029 8.4483308e-18)
(90.339698 46.226278 -5.5254546e-18)
(125.6925 1.7368111 3.6387544e-18)
(125.17986 3.6390071 2.5325242e-18)
(125.69104 7.7440088 3.4733355e-18)
(126.09748 11.449228 3.5915818e-18)
(125.69455 17.355106 2.6077173e-18)
(124.14238 24.711997 -9.4728158e-19)
(119.07452 33.689228 -2.9760456e-18)
(108.57776 41.789347 -1.1286041e-18)
(92.729502 49.381246 -6.2703477e-18)
(126.63682 1.5716921 -6.75027e-18)
(126.19646 3.3972362 -2.5640855e-18)
(126.91001 7.3853797 -8.32097e-18)
(127.55564 11.224085 -2.1812782e-18)
(127.28952 17.025935 4.7629139e-18)
(126.27478 23.934951 2.7167133e-18)
(121.29478 33.27339 -1.3118842e-17)
(111.86173 41.697839 3.0607667e-18)
(95.134781 49.959825 1.1813391e-17)
(98.460912 53.100194 -1.0768198e-17)
(114.26264 44.797977 3.8822247e-18)
(124.32669 34.973473 1.7308634e-17)
(128.44076 24.882488 -2.3390497e-18)
(129.15344 16.903521 4.8056103e-19)
(128.81399 10.707579 3.3421398e-18)
(127.96237 6.9691103 5.5979472e-18)
(127.10042 3.1775709 -2.8550645e-19)
(127.51498 1.3803655 8.6996141e-18)
(101.25642 54.422054 3.7396748e-17)
(117.6767 44.177712 2.2846503e-18)
(126.59205 34.166616 -2.0173077e-17)
(130.81153 23.60521 -6.1263157e-19)
(130.84459 16.134874 -4.3044632e-18)
(130.30915 10.219391 -4.078374e-18)
(129.12743 6.4470447 -8.6438752e-18)
(128.06453 2.8904956 0)
(128.31145 1.1632403 -4.0688918e-18)
(105.1388 57.814847 -4.7663539e-17)
(120.71289 47.035841 2.058541e-17)
(130.22186 35.341574 9.6884725e-18)
(133.07114 24.13874 -4.8702668e-19)
(132.72029 15.726038 6.3275006e-18)
(131.4937 9.465313 -5.943178e-20)
(130.09471 5.8529501 1.9424124e-18)
(128.84418 2.5389472 6.781218e-18)
(129.007 0.92612102 6.7534938e-18)
(107.89224 58.356412 -8.1471358e-18)
(124.42732 45.779757 -1.0546076e-18)
(132.47881 34.080734 -1.1375243e-18)
(135.53417 22.458545 0)
(134.35386 14.51667 -6.4861435e-18)
(132.87422 8.7141173 0)
(131.08083 5.131344 6.9082821e-18)
(129.60706 2.1321489 -1.3504368e-17)
(129.5807 0.66654881 -6.5406761e-19)
(111.6139 60.802723 -2.4115012e-18)
(128.1457 48.46127 -1.0166944e-17)
(136.52199 34.691606 6.4209392e-19)
(137.83887 22.406423 0)
(136.17019 13.736857 -3.4023172e-18)
(133.93886 7.6790872 4.5349756e-18)
(131.85957 4.32813 3.3644893e-19)
(130.23056 1.704414 1.2640438e-17)
(130.01655 0.3922915 -6.257057e-18)
(114.32009 60.401647 -2.3365676e-17)
(132.07312 46.63592 -2.3394424e-19)
(138.69977 32.707505 -1.8288088e-19)
(140.20585 20.154062 7.2112943e-20)
(137.60749 12.126208 1.4515466e-18)
(135.10038 6.6684712 -8.4044727e-18)
(132.67343 3.4674126 2.8090444e-19)
(130.77746 1.2055757 -6.0519891e-18)
(130.30639 0.1109251 0)
(118.36678 62.564961 1.5808321e-17)
(136.21779 48.923234 5.2758782e-19)
(143.07078 32.683072 -3.833193e-20)
(142.39887 19.533365 4.5829375e-19)
(139.22348 10.970002 1.3892859e-18)
(135.92833 5.3148294 3.7563788e-18)
(133.09911 2.4906879 3.2003736e-19)
(131.09067 0.65505773 -2.932526e-19)
(130.42665 -0.052983581 0)
(121.43046 61.831057 0)
(140.65387 46.616585 1.3189532e-18)
(145.01214 30.012034 -1.1246355e-18)
(144.5298 16.719274 1.2164304e-17)
(140.29927 8.8785806 1.6683347e-19)
(136.75048 4.1344985 3.2595284e-18)
(133.6639 1.4693728 -7.1846251e-18)
(131.38693 0.11883466 9.2554218e-18)
(130.42586 -0.35784218 9.5429068e-18)
(126.66573 63.760543 -3.758372e-18)
(145.19188 48.024602 -4.5179973e-17)
(149.49382 29.043216 1.8095392e-18)
(146.44964 15.514836 -1.2612595e-17)
(141.60694 7.4540506 2.5802073e-20)
(137.32418 2.5622434 -3.54339e-18)
(133.71 0.44953567 7.7426816e-18)
(131.32558 -0.51916111 -9.6242244e-18)
(130.25402 -0.58782394 -2.72229e-19)
(129.83704 -0.77027388 -9.3579907e-18)
(131.33235 -1.103115 8.2812941e-18)
(133.92951 -0.71845967 0)
(137.62153 1.229037 1.5563612e-19)
(142.24016 4.9463738 -7.8016767e-18)
(148.1894 12.034582 -2.0225733e-17)
(151.35021 25.326088 0)
(150.34112 44.700387 -1.60423e-17)
(130.74235 62.780147 3.6432005e-18)
(129.31528 -1.077428 0)
(130.84243 -1.7973103 -8.5823398e-18)
(133.51504 -1.8203557 0)
(137.83548 -0.67677495 2.4413735e-19)
(142.97654 3.0193821 1.6946371e-17)
(149.68842 9.8422792 2.2680994e-17)
(155.78705 22.64026 -4.829215e-17)
(155.94126 44.500631 5.5870727e-17)
(139.24381 64.691676 -5.0022277e-17)
(128.44272 -1.0552799 0)
(130.5172 -2.4006019 0)
(133.30728 -2.9049557 -5.8134228e-18)
(137.44793 -2.0309603 0)
(142.9373 0.219789 -9.6310643e-18)
(150.50023 5.8001271 2.6891187e-17)
(156.93703 17.55395 4.3695308e-17)
(161.62356 39.202998 4.4766397e-18)
(145.09511 62.223067 -2.8432908e-17)
(127.6354 -1.4059648 0)
(129.67271 -3.0034522 0)
(132.3491 -3.9818557 5.9340987e-18)
(137.21095 -3.8369988 1.9890471e-19)
(142.95407 -1.6349638 -1.0393609e-17)
(151.10497 3.3761602 -2.8943763e-17)
(160.17519 13.661782 0)
(166.83817 36.855862 -1.1094056e-16)
(156.54783 62.340731 9.0425112e-17)
(126.27001 -1.2745063 1.6893989e-19)
(129.01392 -3.5893052 -1.8294248e-19)
(131.74742 -4.8202356 0)
(136.1629 -5.1476022 5.8975582e-19)
(142.13887 -4.5007034 2.3831249e-17)
(150.73307 -0.70100112 -1.3520874e-18)
(159.98015 7.5947058 -6.2778227e-17)
(171.26155 29.503345 1.2300331e-16)
(163.71359 57.645824 -1.9193727e-16)
(125.32968 -1.352143 -1.8864124e-19)
(127.77183 -4.1064083 2.0458663e-19)
(130.3751 -5.7095028 0)
(135.56109 -6.6488471 -1.7438757e-19)
(141.4716 -6.0699548 -1.2983457e-17)
(150.39163 -2.9361737 1.3584914e-18)
(161.46292 3.3299437 6.4924253e-17)
(174.46369 24.720606 0)
(178.35715 54.614907 1.9307227e-16)
(123.61147 -1.3465321 2.1297946e-19)
(126.91316 -4.4745973 1.289097e-17)
(129.37427 -6.3078684 -1.7648634e-19)
(133.96866 -7.831033 3.3480067e-18)
(140.02924 -8.7398108 -9.7332796e-18)
(148.95918 -6.5950378 0)
(159.51924 -2.4969016 0)
(175.77947 14.682597 1.435416e-16)
(184.66707 47.75506 0)
(122.45022 -1.2013756 0)
(125.36724 -4.9531937 -1.3393187e-17)
(127.75526 -6.9112263 0)
(133.03852 -8.9378461 -2.8615002e-18)
(138.93422 -9.9149792 9.5842098e-18)
(147.99921 -8.1927553 -2.8240138e-17)
(159.2161 -5.8989455 0)
(175.71613 8.1777799 -1.6333989e-16)
(198.09312 42.539519 4.0051968e-16)
(120.77617 -1.015629 0)
(124.37255 -5.1807481 0)
(126.43829 -7.2425475 -2.9281448e-19)
(130.96565 -10.006554 3.4776325e-19)
(136.89679 -12.521927 -2.5688413e-20)
(145.96329 -11.369635 2.9150812e-17)
(155.9475 -11.425754 0)
(171.72434 -5.431056 0)
(199.03506 23.876254 -4.0259977e-16)
(118.95726 -0.85620542 -5.9257261e-19)
(122.66464 -5.5063378 1.5412775e-19)
(124.82986 -7.5514701 1.6538435e-17)
(129.95561 -10.63516 0)
(136.00463 -13.081174 0)
(145.30939 -12.395541 2.1813833e-18)
(156.34448 -11.719499 5.2421609e-17)
(171.18934 -2.3599452 -2.368384e-18)
(210.93437 27.163682 0)
(117.80925 -0.65059939 -6.25227e-19)
(121.7128 -5.7466298 1.5476409e-19)
(123.50308 -7.7922467 -1.4864332e-17)
(127.97197 -11.615885 0)
(134.67455 -14.661403 0)
(145.53123 -13.60814 -2.227615e-18)
(157.99077 -12.283197 -1.6281986e-16)
(175.69377 -1.4029713 2.6331401e-18)
(209.60301 23.492813 -8.1955978e-16)
(116.70231 -0.30889917 0)
(120.00534 -5.8422481 4.0984603e-17)
(122.22072 -8.2476309 0)
(127.41763 -12.560704 1.7534567e-19)
(134.91077 -16.047186 -1.9146402e-19)
(146.7194 -16.196928 2.4638649e-18)
(160.82695 -14.930892 2.3420551e-16)
(182.20817 -2.5252329 -3.1327629e-18)
(197.05564 21.184553 7.7558796e-16)
(115.72485 0.11261512 5.2632761e-17)
(118.99446 -6.0434919 -3.8942273e-17)
(121.13199 -8.5114106 3.7327647e-17)
(125.68354 -13.910168 2.1348483e-17)
(133.91759 -18.277913 9.6240844e-18)
(147.31763 -17.923214 -5.7717587e-17)
(163.48568 -17.193241 -1.2650458e-16)
(182.05319 -5.2620249 -3.295837e-16)
(179.02311 30.026727 0)
(114.9176 0.56833571 -1.0761119e-16)
(117.27097 -5.8928338 4.5771406e-17)
(119.86845 -9.0888563 -3.6109717e-17)
(124.82704 -14.664813 2.6730259e-18)
(134.0082 -19.862432 -9.3460181e-18)
(148.66678 -21.45511 -4.4858958e-18)
(164.95318 -20.696825 0)
(181.73682 -8.7526278 3.1398421e-16)
(148.8683 48.764624 0)
(114.28745 1.0521705 1.115791e-16)
(116.16811 -5.9586071 -4.3586474e-17)
(118.55948 -9.0125031 4.1974859e-17)
(122.68294 -15.893547 -2.3510348e-17)
(132.48269 -22.196841 1.0280768e-18)
(148.50306 -23.339863 5.8878625e-17)
(165.81555 -22.784523 -1.4725577e-16)
(179.64443 -9.4054115 -4.0332524e-16)
(112.4467 70.361213 5.5829433e-16)
(113.76304 1.4037435 -5.7349215e-17)
(114.47621 -5.4320198 1.5546593e-18)
(117.25226 -9.4686845 -4.0488923e-17)
(121.55163 -16.298998 3.1282413e-19)
(132.07352 -23.706694 -3.3742787e-19)
(149.45704 -27.014589 6.6604403e-17)
(164.44436 -26.890088 3.0248164e-16)
(176.30452 -10.322947 3.8106953e-16)
(95.686735 67.373292 -5.2893151e-16)
(113.55188 1.9541247 -8.4620462e-19)
(113.42433 -5.241416 9.078988e-19)
(115.76031 -9.0592752 4.5068509e-17)
(119.03477 -17.32105 3.0623215e-17)
(129.99351 -26.279817 3.7810732e-18)
(148.10308 -29.173042 -1.3155811e-16)
(163.56642 -29.543197 -3.161847e-16)
(169.76139 -11.119381 -4.3678178e-16)
(39.250568 49.333426 5.8233392e-16)
(113.28857 2.382181 6.4391756e-17)
(111.95481 -4.2656628 -7.5514074e-19)
(114.49407 -9.2870421 4.2235796e-18)
(117.80224 -17.408313 -2.9700264e-17)
(129.17505 -27.491349 -2.6408573e-18)
(149.08288 -33.081947 6.7437751e-17)
(160.24573 -34.852755 1.5934399e-16)
(154.27505 -15.902066 4.1673584e-16)
(-12.044073 -6.1832157 -5.5380487e-16)
(-6.1172422 21.460996 -9.2407092e-16)
(142.39648 -14.039228 -5.4273499e-18)
(156.7636 -37.00331 2.6123881e-18)
(146.7425 -34.715638 -2.226553e-18)
(126.87036 -30.037904 0)
(115.11212 -18.057039 -7.5119355e-19)
(112.97172 -8.4970122 -1.0207971e-16)
(111.04998 -3.7992589 -6.2893028e-17)
(113.74762 2.7847128 -1.314752e-16)
(-3.9841806 21.274772 8.9697562e-16)
(134.27414 -18.034589 0)
(155.38222 -42.344843 0)
(146.13029 -38.390178 1.5632451e-16)
(125.3151 -30.798187 0)
(113.77903 -17.605128 8.83027e-17)
(112.06073 -8.2304592 1.6710792e-16)
(110.15299 -2.4143503 5.9786146e-17)
(114.05178 3.4861448 -7.2450973e-17)
(-11.898985 21.29566 6.4307031e-18)
(125.37114 -17.450531 -5.1799156e-18)
(151.06918 -43.273958 0)
(143.14292 -39.258884 -1.529733e-16)
(122.72375 -32.806832 0)
(110.83631 -17.714363 -8.7573578e-17)
(110.45528 -7.2136963 -1.0993817e-16)
(109.70217 -1.4794871 -1.4742926e-18)
(115.2402 3.7715377 1.378449e-16)
(-20.905782 15.709683 1.6778634e-15)
(118.74465 -22.729459 -1.2394572e-15)
(148.71228 -48.100365 5.8705251e-18)
(142.00077 -42.615758 0)
(120.59267 -33.060873 2.7249731e-17)
(109.51571 -16.808912 0)
(109.74919 -6.478227 1.0575491e-18)
(109.22091 0.25501221 -1.5371257e-18)
(116.41469 4.8066485 5.2641156e-19)
(-28.751907 15.077313 -1.6124277e-15)
(110.14953 -21.767287 -1.5554338e-17)
(143.99358 -48.74602 4.5117078e-16)
(138.48866 -43.658356 -2.0375815e-18)
(118.0118 -34.538506 9.4640328e-18)
(106.39562 -16.356989 0)
(108.12853 -5.0806309 1.2961003e-16)
(109.16661 1.6182027 0)
(118.36037 5.1541471 0)
(-34.341001 13.891311 5.8286102e-18)
(103.00272 -26.39267 1.1626039e-15)
(141.39162 -53.443341 -8.647613e-16)
(137.23997 -46.500614 1.1992886e-16)
(115.17802 -34.872807 -3.5547825e-17)
(105.23527 -15.255978 -1.191428e-16)
(107.77791 -3.9393016 -1.2562413e-16)
(109.40688 3.6832078 -1.6507197e-18)
(119.87142 5.6211477 1.5013256e-16)
(-43.251043 11.160335 5.6158482e-18)
(93.95364 -24.833079 -1.1378145e-15)
(136.47932 -53.95436 4.276563e-16)