/*--------------------------------*- C++ -*----------------------------------*\
  =========                 |
  \\      /  F ield         | OpenFOAM: The Open Source CFD Toolbox
   \\    /   O peration     | Website:  https://openfoam.org
    \\  /    A nd           | Version:  11
     \\/     M anipulation  |
\*---------------------------------------------------------------------------*/
FoamFile
{
    format      ascii;
    class       surfaceScalarField;
    location    "0.0225";
    object      phi;
}
// * * * * * * * * * * * * * * * * * * * * * * * * * * * * * * * * * * * * * //

dimensions      [0 3 -1 0 0 0 0];

internalField   nonuniform List<scalar> 
1652
(
1.706212168242967
0.5337381654508486
2.220446049250313e-16
1.172474002792889
0.5337381654500768
0
0.6387358373420106
0.5337381654451854
-2.442490654175344e-15
0.5337381663449954
4.618527782440651e-14
0.1049976719778374
1.706212168246044
1.067476330897457
1.172474002798808
1.067476330897313
0.6387358373462741
1.067476330944043
1.067476385607641
0.1049976788527115
1.706212168254444
1.601214496347917
1.17247400280502
1.601214496346737
0.638735837378995
1.601214490350862
1.6012107405245
0.1049971904624584
1.706212168255721
2.134952661797195
1.172474002807805
2.134952661794653
0.6387358358189775
2.134952707440589
2.134870038014577
0.1049120346306372
2.65119121526914
1.723711780227148
3.167429768742326
1.723711780225906
3.683668322215927
1.723711780225501
1.723711780224001
4.199906875686458
2.651191215262506
1.207473226759295
3.167429768730587
1.207473226757827
3.683668322172631
1.207473226757655
1.20747322675945
4.199906875607426
2.651191431601853
0.6912315578725095
3.167430443698267
0.6912260771407186
3.683667855989225
0.6912251400718565
0.6912266129237875
4.199916028381215
2.653262091260889
0.1633262633913171
3.176286887602497
0.1280349288063302
3.69572426282466
0.1084668261559918
4.213025621283538
0.1065837228117352
4.164907651720026
0.03499922375148679
4.129908427756286
0.03499922370605524
4.094909203793004
0.03499922368307895
0.03499922374659825
4.059909979828508
4.164907654867665
0.06999842070794937
4.129908431102448
0.06999841755791547
4.094909207032041
0.0699984153819907
0.06999841740106982
4.059909987727495
4.164916163109614
0.1049442373190435
4.129917178492058
0.1049386879431291
4.09491764683376
0.104936459976699
0.1049321947678163
4.059924895012799
4.179692211931053
0.08187307823303713
4.144657131461332
0.08037758016203517
4.10973239172708
0.08010147258025252
4.074245986985762
0.07372273417904862
4.07387788443125
8.74453411084386e-05
-0.04417555396940648
4.063056428868149
3.839340456929241e-05
-0.009899077030372461
4.060052774124421
5.558199076549641e-06
-0.0007095391096923476
1.690879001259304e-07
4.059910864910342
-8.803341469187931e-06
4.059924630519538
7.244029331943125e-08
4.059914635548425
3.600058162689379e-08
4.059910260379473
5.775897149451481e-09
1.876613864304488e-10
4.059909981780229
4.059909987983882
7.069325125286241e-10
4.0599099825866
3.706929208036058e-10
4.059909979995532
5.831612970297329e-11
-2.632338791386246e-13
4.059909979828019
4.059909979817267
4.05990997982527
4.059909979828773
4.05990997982696
4.059909979827625
-6.686873277317318e-13
4.059909979828285
-6.604716773495056e-13
4.059909979828955
-6.70463684571132e-13
-6.504796701278792e-13
4.059909979829606
4.059909979827661
-2.014333144728653e-12
4.059909979828306
-1.292022044907526e-12
4.059909979828949
-1.309730102150297e-12
-1.309063968335522e-12
4.059909979829608
4.059909979829912
-4.562240030203668e-10
4.059909979828529
2.01315630832255e-11
4.059909979830095
5.109135337022508e-12
-3.436140261214859e-13
4.059909979829627
4.059909976829455
4.987963753144697e-08
4.059909976487805
1.395243803825608e-08
4.059909979475212
2.214489147611687e-09
4.059909979839303
3.894068401066875e-11
8.784639682346551e-13
4.059909979795564
-4.198308367620029e-12
1.17128529097954e-14
4.059909979828809
2.220446049250313e-16
4.059909979829604
4.059909979829605
-1.115011860619575e-09
4.059910034512363
2.008989641311132e-10
-2.319794356608895e-11
4.059909980065275
-1.265654248072678e-14
4.059909979828127
4.059909979829606
1.121695190564598e-06
4.05989348085344
-2.732955294254547e-05
1.029297813648355e-09
4.059910098368334
8.045342170248659e-12
4.059909979896869
4.059909979829405
-4.720981173783612e-05
4.057353901154305
0.01457048922717183
-4.686296084521757e-08
4.059912194216157
-2.691102896079656e-11
4.059909980833702
4.059909979828354
0.0933312403139458
3.966578739258634
0.1866624445702357
3.966578742605468
0.2799098143708039
3.966587212413781
3.978103864680975
0.2525632335105585
0.09333123993463305
3.873247498688035
0.1866623947437208
3.873247502648652
0.2798138758188966
3.87325694609503
3.886634349842752
0.1792295092688009
0.09333123976845159
3.779916258117446
0.1866623751839255
3.779916262553603
0.2797875044098743
3.779926026396348
3.792216161752046
0.1716546731616354
0.09333123958183409
3.686585017547964
0.1866623548638388
3.686585022514175
0.2797660137103152
3.686595056082118
3.697625670664888
0.1720394097187015
-0.2797412477079386
3.602920588623816
0.1726153347795546
-0.1866624693991321
3.593263965439813
-0.09333130933518802
3.593253712550889
3.59325370698522
-0.2797117833387415
3.507948232125298
0.1732480257474211
-0.1866624370226116
3.499932624515917
-0.09333130901766529
3.499922402554684
3.499922396424579
-0.2796773017235786
3.413142549943188
0.1739696707907811
-0.1866623961406254
3.406601723220547
-0.09333130860304062
3.406591093079996
3.406591085868786
-0.2796325518071002
3.317510569559684
0.175045456364897
-0.1866623371682049
3.313268348541262
-0.09333130795776007
3.313259781394212
3.313259775303616
0.1195806566977651
3.193679116761404
0.2391611143149267
3.193679120340855
0.3584350001752517
3.193684412493262
3.196096764756918
0.267966230963922
0.1195806565439477
3.074098458225176
0.2391611025506744
3.074098461369083
0.358445132367907
3.074102153567758
3.074821991829807
0.2943939290473411
0.119580656318122
2.954517799609192
0.239161090697307
2.954517801949312
0.3584635357647045
2.954520394921323
2.95446611391101
0.3269522455863154
0.1195806580936644
2.834937141074047
0.239161229511737
2.834937154780791
0.358632216581856
2.834943204882281
2.835038096822124
0.4208441435385973
-0.2012455304357427
3.036182678656857
-0.402485643916825
3.036182198810941
-0.6022920065971602
3.035846232029409
2.990455507804156
-0.7786894168204117
-0.2012455283534652
3.237428216283389
-0.4024801621937624
3.23742703436396
-0.5976886333348241
3.236135668575913
2.999339195707915
-0.3737540700494594
-0.2012455298733394
3.438673754236848
-0.4024802367511907
3.438672846947769
-0.5961877569138271
3.436981569157262
3.085036645851241
-0.1119364478030734
-0.2012455325631732
3.639919292022659
-0.4024819736442681
3.63991861301967
-0.5958540364972817
3.639044797244184
3.332871833550803
-0.08852890910152028
0.3112395759451023
3.444442319162078
-0.04114548444245615
0.2099885560021048
3.744074218845308
0.1049976650182654
3.744916451887657
3.744916963993725
0.3116636760440356
3.569904224036688
-0.04076518355088567
0.2099898792909559
3.849266612330558
0.1049976668345511
3.849914294676721
3.84991463595575
0.3121930994720032
3.671737391211832
-0.04024568552157891
0.2099911995855613
3.954259082563369
0.104997668306871
3.954911961893957
3.954912307853215
0.3115221274460856
3.829730623321326
-0.01558699264925562
0.209990555665701
4.059484491389942
0.1049976680049183
4.059909741691683
4.059909979735013
-0.0006921130746747606
4.045980475853947
0.08231956436963317
-1.240351562681319e-06
4.059900977081314
-1.136131189127809e-09
4.05990997533189
4.059909979828148
-2.788553519439407e-05
4.059995809259876
0.009664252965582432
-2.965221501671778e-08
4.059910284732545
-1.044409003725377e-11
4.059909980108566
4.059909979836764
-1.764762763256655e-05
4.06108005969234
0.004728898107357382
-2.486346617480706e-08
4.059911546100459
-1.284927719780171e-11
4.059909980893975
4.059909979844735
-5.888641323836818e-05
0.01707148699288863
4.060506749815946
-7.960304326815049e-08
4.059905887301328
-5.578937312122889e-11
4.059909974806596
4.0599099798515
0.6646138660833367
-0.5233722871924189
-0.09643126851996216
-1.292299600663682e-12
1.189972810758846
-0.5249840592331689
7.105427357601002e-15
1.714961973627908
-0.5249883557139254
-3.819167204710538e-14
-0.5249883594787579
-7.607248164731573e-13
0.6646145013167328
-1.046734516935745
-0.09654035376863998
1.189972811347372
-1.04996799579505
1.71496197362627
-1.049976710985871
-1.049976718949109
0.6646153614583985
-1.570082675250658
-0.09675396874395259
1.189972807990898
-1.574951680124624
1.714961973596343
-1.574965065006653
-1.574965078392813
0.6646213639102482
-0.0970485547962627
-2.094224789856507
1.189972808443162
-2.099936878259181
1.714961973492031
-2.09995342000138
-2.099953437846032
-5.888641317219889e-05
-4.061080059691942
0.01707148699289873
4.060506749815765
-7.960297987441578e-08
-4.059911546100205
4.059905887301073
-5.580336193133917e-11
-4.059909980893572
4.059909974806269
-4.059909979844774
4.059909979851265
-1.764762760225747e-05
-4.059995809259263
0.004728898107313029
-2.486359207409805e-08
-4.059910284732575
-1.287525641657794e-11
-4.059909980108842
-4.059909979836767
-2.788553523191961e-05
-4.045980475854939
0.009664252965465414
-2.965225143203298e-08
-4.059900977081225
-1.044542230488332e-11
-4.059909975331335
-4.059909979828159
-0.0006921130746464499
-3.829730623319204
0.08231956436989482
-1.240351615638957e-06
-4.059484491390211
-1.136129634815575e-09
-4.059909741691858
-4.059909979735076
-0.1049976650120373
3.744916964014762
-3.639919292050041
-0.2099885559898777
3.744916451908562
-3.63991861304681
-0.311239575939543
3.744074218824615
-3.639044797216033
3.444442319142653
-3.332871833522893
-0.04114548444251585
-0.1049976668279436
3.849914635970373
-0.2099898792778981
3.849914294691088
-0.3116636760379062
3.849266612315358
3.569904224023282
-0.04076518355091825
-0.1049976682998719
3.954912307860759
-0.2099911995717506
3.954911961901105
-0.3121930994656102
3.954259082555871
3.671737391204477
-0.04024568552176372
-0.1049976679973549
-0.209990555650488
-0.3115221274379181
-0.01558699264922919
0.5958540365025206
-3.085036645834049
-0.08852890910074886
0.4024819736590645
-3.43698156913856
0.2012455325709116
-3.438672846967387
-3.438673754256619
0.5961877569195997
-2.99933919569638
-0.1119364478021898
0.4024802367650498
-3.236135668565251
0.2012455298804461
-3.237427034377334
-3.237428216295854
0.5976886333426759
-2.990455507799626
-0.3737540700487118
0.4024801622073945
-3.035846232024269
0.2012455283600965
-3.036182198817079
-3.036182678662753
0.6022920066043013
-2.83503809682214
-0.7786894168228896
0.4024856439288616
-2.834943204882322
0.2012455304416444
-2.834937154780811
-2.834937141074061
0.1195806567016928
3.193679116771462
-3.313259775317601
0.2391611143238638
3.193679120353399
-3.313259781411762
0.3584350001798954
3.193684412481394
-3.313268348524901
3.196096764745485
-3.317510569544368
0.2679662309642349
0.1195806565476359
3.074098458231606
0.2391611025590265
3.074098461376874
0.3584451323722856
3.074102153559794
3.074821991822136
0.2943939290480553
0.1195806563214443
2.954517799612324
0.2391610907047049
2.954517801953027
0.3584635357679852
2.954520394917485
2.954466113907294
0.3269522455860022
0.1195806580967728
0.2391612295186233
0.3586322165848427
0.4208441435380172
-0.2796325518031825
-3.413142549931039
0.175045456364618
-0.1866623371608069
-3.406601723207672
-0.09333130795450978
-3.406591093093388
-3.406591085879601
-0.2796773017195834
-3.507948232116763
0.1739696707905107
-0.1866623961328163
-3.499932624506797
-0.0933313085995971
-3.499922402563675
-3.499922396431903
-0.2797117833352866
-3.602920588619582
0.1732480257478675
-0.1866624370146896
-3.593263965435393
-0.09333130901409264
-3.593253712555597
-3.593253706988982
-0.2797412477040531
-3.697625670664173
0.1726153347796053
-0.1866624693906875
-3.686595056081927
-0.09333130933141376
-3.686585022514179
-3.686585017547962
0.09333124031399254
3.966578739258623
-4.059909979828399
0.1866624445704096
3.966578742605326
-4.059909980833801
0.2799098143711716
3.966587212413903
-4.059912194215952
3.978103864680592
-4.057353901154243
0.2525632335108804
0.09333123993465298
3.873247498687979
0.1866623947438455
3.873247502648374
0.2798138758192121
3.873256946094411
3.886634349842021
0.1792295092689764
0.0933312397684084
3.779916258117459
0.1866623751837236
3.77991626255356
0.2797875044094014
3.779926026396462
3.792216161752188
0.1716546731610923
0.093331239581811
0.1866623548637513
0.2797660137101362
0.1720394097186492
-4.059909979829418
2.692979172991272e-11
-4.059909979829606
-8.054557021353048e-12
-4.059909979829606
1.554312234475219e-14
-2.220446049250313e-16
-4.059909979829605
-4.059909979896847
4.686297272460394e-08
-4.059909979827944
-1.029308138722485e-09
-4.059909979829604
2.320227343588499e-11
-1.371125435412068e-14
-4.059909979829607
-4.059910098368385
4.720981172401384e-05
-4.059909980065268
-1.12169515303906e-06
-4.059909979828851
1.114944303548526e-09
-8.790745908981989e-13
-4.059909979829647
-4.059893480853444
0.01457048922713217
-4.059910034512466
-2.732955294482142e-05
-4.059909979795552
2.007717325724911e-10
-4.059909979839306
-4.195421787756004e-12
-6.604716773495056e-13
-4.059909979828944
-1.309119479486753e-12
-4.05990997982896
-3.450573160534987e-13
-4.059909979830082
-4.059909979475236
3.895817002330659e-11
-6.605826996519681e-13
-4.059909979828285
-1.307787211857203e-12
-4.059909979828308
5.110911693861908e-12
-4.059909979828515
-4.059909976487785
2.214512406784053e-09
-6.605826996519681e-13
-4.059909979827625
-1.292965734478457e-12
-4.059909979827661
2.013489375229938e-11
-4.059909979829899
-4.059909976829434
1.395237514412173e-08
-6.690203946391193e-13
-4.05990997982696
-2.015387856602047e-12
-4.059909979828014
-4.562258903995087e-10
-4.059909981780197
-4.059910864910297
4.987958124313963e-08
-7.099492105311356e-10
4.059909979808404
-4.059909979816543
-7.244628236202644e-08
4.059909987974746
-4.059909987715539
-8.744534420124239e-05
4.059924630528234
-4.059924895024482
4.073877884441376
-4.07424598699783
-0.04417555396931694
-3.737036236017843e-10
4.059909979819201
-3.600655190671986e-08
4.059909982580782
-3.839340763889254e-05
4.059914635554355
4.063056428874412
-0.009899077030356362
-6.133993313284236e-11
4.059909979825769
-5.781896850187707e-09
4.05990997999256
-5.558202146427327e-06
4.059910260382457
4.060052774127455
-0.0007095391097661219
-2.758460126983664e-12
-1.936624749454552e-10
-1.690909437468413e-07
-8.803341608798476e-06
-0.1049321947720902
-4.109732391734917
0.07372273417903058
-0.06999841741282903
-4.094917646838352
-0.03499922374915732
-4.094909207028889
-4.094909203783367
-0.1049364599810636
-4.144657131464607
0.08010147258013339
-0.0699984153939468
-4.129917178488839
-0.0349992236856681
-4.129908431108825
-4.129908427749323
-0.1049386879475737
-4.179692211930591
0.08037758016201912
-0.0699984175700567
-4.164916163099155
-0.03499922370869468
-4.164907654883437
-4.164907651715502
-0.1049442373236856
-4.213025621278263
0.08187307823306711
-0.06999842072030216
-4.199916028361798
-0.03499922375415454
-4.199906875633562
-4.199906875684608
-0.6912266129211493
-3.695724262821523
0.1065837228115896
-1.207473226750284
-3.683667855977522
-1.723711780223956
-3.683668322189438
-3.683668322214211
-0.6912251400696406
-3.176286887601411
0.1084668261560108
-1.207473226749985
-3.167430443691443
-1.723711780225355
-3.167429768739957
-3.167429768740465
-0.6912260771401314
-2.65326209126056
0.1280349288062117
-1.207473226753195
-2.651191431598934
-1.723711780226762
-2.651191215266301
-2.651191215268137
-0.6912315578725473
-2.134870038014511
0.1633262633915191
-1.207473226756505
-2.134952707440745
-1.723711780228153
-2.134952661794653
-2.134952661797195
1.706212168246006
0.5337381654478088
1.172474002797067
0.533738165448939
0.6387358373454268
0.533738165445955
0.5337381663472465
0.1049976719785521
1.70621216824656
1.067476330893901
1.172474002799517
1.067476330895981
0.6387358373468509
1.067476330944954
1.067476385610789
0.1049976788528598
1.706212168253681
1.601214496345124
1.172474002803972
1.601214496345691
0.6387358373781302
1.601214490351532
1.601210740527032
0.1049971904622854
1.706212168252928
1.172474002803967
0.6387358358158509
0.1049120346298963
0.1049976725133906
0.1049976725140204
0.1049976674032585
0.1049977027878422
0.1049978694311811
0.1049946637714761
0.1048197397493404
0.1049480335079472
0.1049977027875875
0.1049976674040347
0.1049977787344631
0.10499777873508
0.1049940447711267
0.1049782670290507
0.1038280538568565
0.105219086553444
0.1049946637718434
0.1049978694317835
0.1049782670293721
0.1049940447717742
0.1047387437977913
0.1047387437972156
0.1002717328000348
0.1060037376214647
0.1048197397501542
0.1049480335084847
0.1038280538574353
0.1052190865542642
0.1002717328007148
0.1060037376207627
0.09866179715443663
0.09866179715510207
-0.05091138349402113
0.1514607144100089
-0.09606099141538738
0.142362866107055
-0.1381588609841977
0.1369887351832026
0.1213855107008864
0.001598714465558038
0.1677707889002241
-0.02767512865512434
0.163195005907379
-0.07303835308266543
0.1623050343540424
0.1413118658439189
0.01491789424406492
0.1714328272621056
-0.005264252003885972
0.1672785944811379
-0.04394243660161679
0.1692596064173259
0.1496976628523725
0.01634137240906003
0.1717183430433183
-0.00274881149879963
0.1665965512803123
-0.04116453328924918
0.171529379071261
0.1552384653799526
0.1559381815203228
0.03132864144103853
0.1562801015330628
0.03018107770759898
0.1563715118826886
0.02992227451069945
0.0155548715656374
0.1570827124620543
0.171826571567064
0.0007061770583736693
0.172124799522524
0.0003138090034028873
0.1723259120632793
0.0001184467375567877
-0.02167387575832885
0.1766476525331279
0.1666692546565992
-0.01697987215274471
0.1670115552218365
-0.01725926532321342
0.1672356041893267
-0.0173573780980586
-0.04183894043955538
0.1737448510832199
0.1718802377278084
0.1721841219615023
0.1725684621252326
0.1603556658632765
0.1504600781724535
-0.06634760364020453
0.1414774536113418
-0.01127059725673218
0.1400407434459871
-0.0006215588602935251
-5.93891036471117e-06
0.1399970972196053
0.155427627420467
-0.06034381784099896
0.1421054444524464
-0.00692995521976264
0.1400545248203185
-0.0001969626608533948
5.949225429513483e-07
0.1399970740075248
0.1551115141376918
-0.04040820924591032
0.1425141836733357
-0.00108898036336208
0.1400709530756861
0.0003831314663130803
1.113441710642871e-05
0.1399971142409213
0.1396882150253554
0.1396214125366557
0.1399924755833077
0.1399966411555648
0.1399968907670433
9.850243531950298e-08
0.1399968907189458
3.175818569234323e-08
0.1399968956042766
2.733765436246927e-09
2.003236465597524e-11
0.1399968958531083
0.1399968846064003
1.682541957426231e-07
0.1399968887013995
5.422588661430083e-08
0.1399968956773331
3.857492103520599e-09
3.494393663316941e-11
0.1399968958549412
0.1399968888931264
2.210654247991606e-07
0.1399968926736697
8.083495833810517e-08
0.1399968957786412
8.914199600695838e-09
1.344557243321276e-10
0.1399968958560442
0.1399968135959141
0.1399968726552155
0.1399968949385627
0.1399968958538668
0.1399968958704687
-2.496614026625821e-12
0.1399968959252262
4.540084974635761e-11
0.1400031081646453
-8.963082402668743e-05
0.01437924047953715
0.1367397438581723
0.1399968958611407
-8.127387651768458e-13
0.1399968958659092
5.143552250785888e-12
0.1400217060662616
-0.0002798683567813987
-0.0008410337649699118
0.1299213427802838
0.1399968958561272
-6.722400414105323e-14
0.1399968958566416
7.694400672164647e-13
0.1399573308264258
-0.0004235891360676591
-0.0167079856388469
0.1130809220856765
0.1399968958561826
0.1399968958563557
0.1400336161047389
0.1030505585875683
0.1561835616485004
0.1167182749583262
0.1635580115848121
0.0287229626001192
0.1639782926796222
0.02014969859819249
0.02016345824457855
0.1639943920298951
0.1646929095016507
0.0338990088819735
0.1781442614656571
-0.03746243509606462
0.1789810815634855
-0.04250665953205301
-0.04224694781682681
0.1789895739434459
0.1444044977357115
0.003153095553752538
0.1594517573216365
-0.06569981593493235
0.1604217293995777
-0.07386659742057045
-0.07389437312772418
0.1604340023403782
0.1413899211179742
0.159948954982769
0.1616526748343681
0.1616651925945947
0.1640153727282895
0.02026782766180624
0.1640422295840165
0.02037302611423697
0.1641431918841831
0.02049943967415613
0.0218215309163331
0.1644197710869653
0.1789904144640465
-0.04216936055475884
0.1789979877539056
-0.04210003694308284
0.179040312486958
-0.04199971167119887
-0.04080547888647146
0.1796663146965631
0.1604391894789079
-0.07384785195399013
0.1604518082620922
-0.07379964352548174
0.1605110272665625
-0.07373365241924412
-0.07298670212946756
0.1608483062161761
0.1616667173198319
0.1616681749741766
0.1616972614472419
0.1624131106647788
0.1783800613265543
0.0592987483509323
0.195473825987023
0.07860218057000479
0.2185003362542281
0.1146875280559745
0.2688971743155307
0.2488940741198568
0.1859280847986419
-0.02972070282626182
0.1945403366635733
-0.01872542296645896
0.2132765499280453
0.01035659541126466
0.111978773769996
0.2933979852214069
0.1597786710988201
-0.06993566508422666
0.1606138666176715
-0.0660451239055343
0.1749364262773661
-0.02342894292063935
0.005054816527571004
0.2896181619788935
0.1646439552543402
0.1715256473435048
0.214298567887598
0.3273375951002033
0.1636574900695495
-0.7070808088034481
0.03630614400524171
-0.2352474522637675
0.007111829655985741
-0.02814669968829256
-0.01510223636150496
0.0001933847932820559
0.1210428050029174
-0.5449911995609383
0.015751428857097
-0.1171469302888701
0.0004701047245337653
0.009631278297138599
0.01751509589334482
0.0001386233981785535
0.07224922639742373
-0.3127037883390043
0.005659968507289767
-0.04600867869747021
-0.001452447157684214
0.01897356770076064
0.02289973631550429
0.0003764020920840674
0.04912661599614861
0.001334312661574882
-0.0008118902125081977
0.0004874822482019286
0.003751477163044161
-0.008519677578996035
0.007342787127161098
-0.008596381073393805
0.01024362730248143
-0.01064938220763597
-0.003420018854262158
0.01738089611338149
0.000179234283841612
0.01344352998688577
-0.0007720593343663457
0.01382307635516864
-0.004268487606781255
0.01075386387076648
-0.0006658657599928758
0.0004393666447772213
-0.001097301219227629
0.02069161818254787
-0.00413280709470744
0.02113133156921094
-0.007930437852074493
0.0166818529988193
0.005628312299868113
-0.0095890818716922
-0.0004775848452032889
-0.003264482789495381
-0.008554088112115511
-0.00759777835277433
0.1202139090303515
0.04428698981935233
0.1397661170734113
0.01282741164042117
0.1424622063927811
0.008233335620765725
0.03275199567232456
0.1408190302894061
0.09505724673672597
0.00466949799775182
0.1376008472669345
0.02028684394066535
0.1428782087323908
0.01992596824027276
0.04022866440033651
0.1531154420076494
0.06910440778735208
-0.0335240975436691
0.1315217524581324
0.01513803199586281
0.1572595265389626
0.02487949114199747
0.02839170524464157
0.1834225903256546
0.01552330133368977
0.08825109108482279
0.1492747809822313
0.1851167208406936
0.1080047589785886
-0.2221954987509357
0.2670876286261978
0.06827201297284144
-0.1780983538559558
0.2434855838063942
0.02967131366416342
-0.1311370241953188
0.2155053281979162
-0.1065272266279353
0.001302334903587263
0.2011932132562882
0.1207871125728626
-0.1715460715018103
0.07267247122669156
-0.1128768128983119
0.02681709965579698
-0.06390915813208196
-0.03470364649406191
0.002852503709011328
0.1486432692523741
-0.1058324785858686
0.09764573179858912
-0.05530227378631705
0.03906243601379519
-0.02627683747830686
-0.006709020978750566
0.007086846069766062
0.1007394609131107
0.0772246736379382
0.05198267690000789
0.01222728673542628
0.001466407697759103
0.002142269054165064
0.0006095518755993012
0.001749033313584433
0.0003083258889828213
0.001617103979648076
0.001579148714547686
-3.323730179971562e-15
0.002774010342934216
0.01858674049848448
0.001530448380067786
0.01837977917856661
0.0007093796572549549
0.01791131315591578
0.01768328589895499
-1.052630205222727e-14
0.001157922515078479
0.05675897582584995
0.0007371745277707023
0.05642689185033534
0.0003638252362224703
0.0560151151585401
0.05579332190851333
-1.963706974805746e-14
0.0003554586935409915
0.0001928390581966838
9.562083547466627e-05
-5.137557046452912e-14
0.001579148714548026
-0.0003083258889957433
0.01768328589896026
-0.0007093796572891845
0.05579332190849852
-0.0003638252362182653
-9.562083548773914e-05
0.09643126852001385
0.001617103979644261
-0.0006095518756115068
0.01791131315591991
-0.001530448380083579
0.05601511515852928
-0.0007371745277486019
-0.0001928390581568962
0.09654035376864835
0.001749033313588805
-0.001466407697764658
0.01837977917856319
-0.00277401034292437
0.05642689185033475
-0.001157922515055594
-0.0003554586935553411
0.09675396874396573
0.002142269054167308
-0.01222728673541596
0.01858674049849502
-0.007086846069759151
0.05675897582584623
-0.002852503708999123
-0.001302334903592273
0.09704855479627211
-0.02967131366416673
-0.1065272266279338
0.2011932132562981
-0.06827201297282612
-0.1311370241953147
0.2155053281979225
-0.1080047589785747
-0.1780983538559514
0.2434855838064055
-0.2221954987509233
-0.1408190302894016
0.2670876286261947
-0.02681709965580507
-0.03470364649407071
-0.07267247122668967
-0.06390915813209444
-0.1207871125728635
-0.1128768128983108
-0.1715460715018048
-0.153115442007647
-0.03906243601377605
-0.006709020978753331
-0.09764573179859411
-0.02627683747831102
-0.148643269252369
-0.05530227378631624
-0.1058324785858691
-0.1834225903256503
-0.05198267690000079
-0.07722467363794572
-0.1007394609131201
-0.1851167208406901
-0.149274780982203
-0.02839170524461382
-0.08825109108477862
-0.02487949114196347
-0.01552330133366026
-0.015138031995859
0.03352409754363399
0.007597778352787809
-0.1572595265389467
-0.04022866440031711
-0.1315217524581072
-0.01992596824025822
-0.0691044077873752
-0.02028684394062993
-0.004669497997854544
0.009589081871684332
-0.1428782087323653
-0.03275199567232473
-0.1376008472668994
-0.008233335620707383
-0.09505724673674176
-0.01282741164029527
-0.04428698981957072
-0.0004393666447584377
-0.1424622063927711
-0.1397661170733941
-0.1202139090303747
-0.01738089611333612
-0.01024362730245085
-0.003420018854281538
-0.007342787127236829
-0.01064938220764674
-0.003751477163065318
-0.008596381073406822
-0.008519677579011294
-0.0001933847932739166
0.00426848760677408
-0.0006658657600005502
0.0007720593343656431
0.01075386387073565
-0.0001792342838296303
0.01382307635522866
0.0134435299869176
-0.0001386233981764372
0.007930437852072238
0.005628312299852646
0.004132807094753157
0.01668185299870849
0.001097301219251496
0.02113133156929887
0.02069161818261693
-0.000376402092082239
0.008554088112107954
0.003264482789532038
0.0004775848452184747
-0.0004874822481982354
-0.007111829655814042
-0.01510223636139965
-0.03630614400441029
-0.02814669968794739
-0.1636574900685411
-0.2352474522629186
-0.7070808088049039
-0.2488940741198598
-0.0004701047245309117
0.01751509589328223
-0.0157514288567787
0.00963127829722335
-0.1210428050021613
-0.1171469302884382
-0.5449911995615603
-0.2933979852214008
0.001452447157652461
0.02289973631546923
-0.005659968507201345
0.01897356770078162
-0.07224922639706388
-0.04600867869728045
-0.3127037883392452
-0.2896181619788596
0.0008118902124915391
-0.001334312661563274
-0.04912661599595834
-0.3273375951002049
-0.2185003362543186
0.2688971743152237
-0.1954738259870973
0.1146875280558557
-0.1783800613265905
0.07860218057024482
0.05929874835097959
-0.1644197710869693
-0.2132765499280886
0.1119787737699842
-0.194540336663627
0.01035659541129297
-0.1859280847986385
-0.01872542296634827
-0.02972070282639372
-0.1796663146965516
-0.1749364262773845
0.005054816527609196
-0.1606138666176904
-0.02342894292059905
-0.1597786710988247
-0.06604512390549599
-0.06993566508436355
-0.1608483062161644
-0.2142985678876395
-0.1715256473435438
-0.1646439552543661
-0.1624131106647654
-0.1641431918842013
0.02182153091628269
-0.1640422295839984
0.02049943967395929
-0.1640153727282643
0.0203730261142494
0.02026782766177293
-0.1639943920298866
-0.1790403124869354
-0.04080547888638197
-0.1789979877539004
-0.04199971167121308
-0.1789904144640358
-0.04210003694307562
-0.04216936055480491
-0.1789895739434397
-0.1605110272665502
-0.07298670212931124
-0.1604518082621041
-0.07373365241920304
-0.1604391894789329
-0.07379964352555335
-0.07384785195408305
-0.1604340023403778
-0.1616972614472406
-0.1616681749741872
-0.1616667173198386
-0.1616651925946046
-0.1639782926796266
0.0201634582446788
-0.1635580115848238
0.02014969859800086
-0.1561835616485396
0.02872296260007023
0.1167182749583496
-0.1367397438581711
-0.1789810815635043
-0.04224694781676797
-0.178144261465651
-0.04250665953202071
-0.1646929095016829
-0.03746243509619485
0.03389900888184105
-0.1299213427802886
-0.1604217293995785
-0.07389437312755176
-0.1594517573216508
-0.07386659742047319
-0.1444044977357465
-0.0656998159351021
0.003153095553646845
-0.1130809220856639
-0.1616526748343696
-0.1599489549827693
-0.141389921118022
-0.1030505585875687
-0.1400031081646433
0.01437924047951547
-0.1399968959252172
-8.963082403223854e-05
-0.1399968958704685
4.534739250772191e-11
-2.495226247845039e-12
-0.1399968958531079
-0.1400217060662589
-0.0008410337649710775
-0.1399968958659049
-0.0002798683567837856
-0.1399968958611401
5.132394509388405e-12
-8.117395644546832e-13
-0.1399968958549417
-0.139957330826426
-0.01670798563885401
-0.1399968958566401
-0.0004235891360660493
-0.1399968958561272
7.671641100159832e-13
-6.705747068735946e-14
-0.1399968958560442
-0.1400336161047399
-0.1399968958563551
-0.1399968958561824
-0.1399968958538669
-0.1399968956042747
2.003741617073729e-11
-0.1399968907189459
2.733816395483757e-09
-0.1399968907670434
3.175814272671218e-08
9.850242804754217e-08
-0.1399970972196022
-0.1399968956773339
3.494482481158911e-11
-0.1399968887013934
3.857513308780369e-09
-0.1399968846063954
5.422585658276802e-08
1.682541793113224e-07
-0.1399970740075258
-0.139996895778642