/*--------------------------------*- C++ -*----------------------------------*\
  =========                 |
  \\      /  F ield         | OpenFOAM: The Open Source CFD Toolbox
   \\    /   O peration     | Website:  https://openfoam.org
    \\  /    A nd           | Version:  11
     \\/     M anipulation  |
\*---------------------------------------------------------------------------*/
FoamFile
{
    format      ascii;
    class       surfaceScalarField;
    location    "0.35923555";
    object      phi;
}
// * * * * * * * * * * * * * * * * * * * * * * * * * * * * * * * * * * * * * //

dimensions      [0 3 -1 0 0 0 0];

internalField   nonuniform List<scalar> 
1652
(
1.706212168242977
0.5337381654478366
-1.763034163104749e-13
1.172474003768353
0.5337381584214336
9.350298313393068e-13
0.638744585113492
0.5335571566788024
6.450395773072159e-13
0.5291695191463501
-8.920197913653283e-12
0.1057111316603098
1.706212168247671
1.067476330876202
1.172474005829454
1.067476302840872
0.6387502467506803
1.067105512736366
1.053469950244527
0.1085008242444018
1.706212168244341
1.601214496297509
1.172474013702261
1.601214386897668
0.6388068709138662
1.60047390817428
1.575038104231947
0.1089061413722914
1.706212168319533
2.134952661525114
1.172474043756117
2.134952228743247
0.6388942752163829
2.133493292963383
2.097351275357797
0.1052259256714338
2.65119121481702
1.723711780177984
3.167429763782373
1.723711779125774
3.683668090060208
1.723711851207258
1.723712858917457
4.199906971687067
2.651189460809113
1.207473399360116
3.167421594008688
1.20747328705263
3.683647048760388
1.20747596829406
1.207511807689143
4.199820706393861
2.649581378988131
0.6899954995089195
3.166040574206017
0.6888415163268148
3.682702447421916
0.6872903532749928
0.688724767412963
4.194525769592771
2.650874386705433
0.1168379456486541
3.273931877599167
0.04172465368235617
3.912954869682303
0.01811968284267218
4.554446155125568
0.01129149452450634
4.164891487054653
0.03501639663855072
4.129861134724425
0.03500481564816937
4.094845356217315
0.03485880947208531
0.03478328256644336
4.059708003600459
4.164989934885098
0.06971402268819704
4.130355906028971
0.06893656948483062
4.096344151989425
0.0675005493305193
0.06567963997033799
4.062546325148909
4.174765235688968
0.08242255990434877
4.160204107355106
0.07410500509798984
4.15294051296602
0.06155659993986806
0.05298191359436244
4.147974543076284
4.60305587547502
0.006229215961076229
4.647547025046466
0.005264148634028409
4.680683576164969
0.006631559583735069
4.712916705841776
0.007741205969984788
4.670365282019923
0.1044174328909703
-0.06872496192768171
4.585724724845211
0.1015334811327728
-0.01838187640760205
4.503680751408005
0.09666904582145092
-0.008941764469266256
0.08785839405986334
4.431572950150026
-0.00679681099923829
4.220096022703508
0.01360736676811602
4.275162729103982
0.02651432429968337
4.314339551487605
0.03726903774086998
0.04540979304588783
4.338142255326709
4.068844724143814
0.001073223009172453
4.081319663885024
0.002963595669409624
4.098854593372488
0.005655599313373005
0.009950102605757571
4.118433141100972
4.05956140332085
4.059934645674339
4.061254171559018
4.064432364143725
4.069795792202784
-0.01554487755059564
4.077679420299762
-0.02162141145533336
4.087623315081327
-0.0280177435946104
-0.03210786001684351
4.096916699544708
4.138847194966299
-0.05369580355760539
4.15881703220193
-0.06003519541685409
4.176997095284957
-0.06321978116076798
-0.06156502303147948
4.190974371003311
4.347633479780832
-0.07864932617911863
4.345713631718757
-0.06822779772007098
4.333663794014586
-0.05402387053393509
-0.04809053603086277
4.319208422671091
4.365060193342981
-0.007518759770653693
4.316426110049762
-0.005960759105058999
4.273216858332825
-0.003535291083632514
4.24428555623272
-0.002871894142672471
0.04263133780446327
4.228675955336155
-0.0174789683859892
0.05775032614306252
4.308730800305877
0.03447576294796628
4.199831709560504
4.101808159162366
0.04041893593190388
4.249426211122467
-0.1456617712277565
0.04760708798944402
4.301616021449394
0.03368323778989457
4.206143867793197
4.102831884634197
0.07818084153117494
3.985011131185708
-0.1400065875496064
0.04627110048272876
4.308885733851803
0.02810049545755966
4.211433704177638
4.098033237654399
0.1746594896208093
3.682280305924411
-0.04233692010769502
0.06565759974292457
4.316411528242949
0.02803745601727081
4.226444618345217
4.100476448016581
0.07033249552383614
3.979813057531034
0.1235572214059437
4.132433689575152
0.08028017266570986
4.217519877841468
3.560897269632888
0.1473568566214024
0.06627801928263555
3.876832290857597
0.08925491586866513
4.042790545891987
0.008556331294077624
4.094878861213234
3.434671448937887
0.111800017779554
0.05279893984691308
3.784937614869243
0.01845513935016752
3.955717528873154
-0.07013635346377134
3.934672046893783
3.332940551958872
0.05847368089486182
0.02149125386059469
3.7054417423765
-0.08849012249104793
3.861472029472464
-0.1185517706990969
3.745431926566436
3.239258929353301
0.02716034589894745
0.1401544556721045
3.155193396398714
0.002273136578560653
0.1880837118377934
3.584088494529027
0.03402464837377206
3.734482638160813
3.642164086054831
0.1485183338201044
3.077804120804541
-0.006619716658834429
0.2559935898147739
3.472525120561115
0.102882333306472
3.58491611063978
3.592146918511638
0.1404624854159375
2.995521023653937
0.00247481133379579
0.2945970283310582
3.346350053973188
0.1909884177397827
3.450090142060746
3.55735645873318
0.1099867697312024
2.890870174725847
0.01568642591290903
0.2666319222242233
3.221599491954461
0.2510947210634914
3.304259785468816
3.515468743095883
-0.2198607772052967
3.464402054052028
-0.1874178477322592
3.230011796117507
-0.04683171531669439
3.107243475901919
2.789608967609087
0.04415747963073491
-0.1620751138153996
3.402429909918392
-0.1271064621103483
3.13980731238925
0.001551678445952276
3.004998101682239
2.707305860493406
0.06647359536903086
-0.1025101479169229
3.328921527333896
-0.05274365515663249
3.057280117263369
0.06928486470989509
2.911616181955085
2.641311368223699
0.121961693677705
-0.03597198791238254
3.224300068974848
0.03387141356536894
2.967051795382414
0.1556893280196185
2.819843013791294
2.569307941413062
0.229640692698516
-0.3468348541140752
3.454809023923609
-0.5764961888936346
3.185791630874661
-0.7153241956595294
3.000045335039794
2.633114348031041
-0.7690706984894164
-0.3002096933709694
3.659646468312928
-0.5257818786361884
3.407274822803487
-0.6286983933874289
3.176612822794387
2.281263662223862
-0.2632237350854822
-0.2736592441986416
3.844639810951259
-0.4821409823522017
3.621427641074506
-0.5140377397314752
3.331027680784133
1.803004127874146
-0.0296658306579821
-0.2402616250651601
4.011163664025694
-0.4394781032567321
3.827811134289464
-0.3630669175322009
3.438909298580049
1.417739400077535
-0.01228134208853706
0.1576833816654658
1.459290036294676
-0.01047797373690545
0.2075845518519346
3.529874229525283
0.1042121584261164
3.938192002972157
4.062971925325167
0.1656297490166386
1.439680426354896
-0.007978796406301744
0.1877445172807789
3.625679865328298
0.09472397194952037
4.050907969454475
4.108044572373588
0.1503823286270057
1.343318076805532
-0.003393828091670072
0.1686300119441257
3.723216472544948
0.08924806062830437
4.160211508690363
4.149919750283827
0.1199112466606872
1.25428063075881
0.002203012136629913
0.1500458805195944
3.816533771684745
0.08903450022850196
4.257713845679541
4.196621383139125
-0.2359536815546255
1.570206128132091
-0.01567243798317131
-0.1845872735584817
3.985442710429235
-0.04698149175204991
4.197994111094149
4.09771586422431
-0.2649901116123101
1.927855974697434
0.005974377448266982
-0.1781043395287948
4.069002635773938
-0.03211381105791755
4.11330145370121
4.06005059599009
-0.2623650888156682
2.245164244182538
0.0335878286864352
-0.1344443605904714
4.102205684637598
-0.02063047274282503
4.067474694015975
4.056535930385761
-0.2321302928776862
0.08786639520664066
2.498262752461051
-0.1113829280620121
4.099522662621008
-0.01648744401709679
4.039832090694275
4.056691426924656
0.3370439283726339
-0.4386203107670523
-0.01287176819257209
5.611511255665391e-12
0.8928703708937149
-0.4130631855446305
-3.157474282033945e-13
1.633811749534959
-0.4646882982156524
7.509548538564559e-13
-0.5171014345198053
-1.27569066421529e-11
0.3341162663273091
-0.8918422210617114
-0.01277420086098015
0.9068227898143479
-0.8655122372158495
1.634737450757255
-0.942509406452984
-1.03575961279373
0.3307524545219673
-1.351364447645566
-0.01558054214124701
0.9266039380637713
-1.34337602031581
1.638844469928225
-1.451593735462228
-1.55674407976155
0.3240821458049248
-0.01607263131644333
-1.703816925100377
0.9567823984279521
-1.851424325363034
1.647527782644168
-1.983871163029759
-2.08228598189814
-0.2321302928775495
-2.245164244184446
0.08786639520657133
2.498262752458039
-0.1113829280593275
-4.102205684641298
4.099522662620124
-0.01648744401306668
-4.067474694014696
4.039832090692105
-4.056535930384379
4.056691426920337
-0.2623650888147094
-1.927855974701058
0.0335878286868503
-0.1344443605922411
-4.069002635783336
-0.02063047274503793
-4.113301453704299
-4.060050595994272
-0.2649901116135951
-1.570206128137972
0.005974377448501419
-0.178104339532596
-3.98544271043599
-0.03211381106259226
-4.19799411109561
-4.097715864225333
-0.2359536815549237
-1.25428063076125
-0.0156724379829821
-0.1845872735630898
-3.816533771695914
-0.04698149175620769
-4.257713845679155
-4.196621383131564
-0.1042121584210894
4.062971925343294
-4.011163664050412
-0.2075845518401702
3.938192002994215
-3.82781113431981
-0.1576833816590324
3.529874229502257
-3.438909298550255
1.459290036266395
-1.417739400055327
-0.0104779737371335
-0.09472397194358884
4.108044572377503
-0.1877445172668561
4.050907969470242
-0.1656297490115733
3.625679865315784
1.439680426344679
-0.007978796406417299
-0.08924806062264323
4.149919750277836
-0.1686300119270807
4.16021150869804
-0.1503823286218155
3.723216472542503
1.343318076802916
-0.003393828091428627
-0.08903450022165282
-0.150045880503327
-0.1199112466557007
0.00220301213657776
0.3630669175359859
-1.803004127860965
-0.01228134208853894
0.4394781032719741
-3.331027680770296
0.2402616250805169
-3.621427641101591
-3.84463981097116
0.5140377397355675
-2.281263662211664
-0.02966583065723258
0.4821409823670893
-3.176612822789743
0.2736592442097454
-3.407274822825051
-3.659646468327574
0.6286983933946981
-2.633114348026729
-0.2632237350843279
0.5257818786510188
-3.000045335037659
0.3002096933811225
-3.185791630886803
-3.454809023929552
0.7153241956665266
-2.56930794141316
-0.7690706984912683
0.5764961889056055
-2.819843013792511
0.3468348541181114
-2.967051795388278
-3.224300068974277
-0.2198607772054317
3.464402054062979
-3.515468743111312
-0.1874178477251917
3.230011796132932
-3.304259785491722
-0.04683171531190866
3.107243475890581
-3.22159949193737
2.789608967598627
-2.89087017471422
0.04415747962928085
-0.1620751138082265
3.402429909925377
-0.1271064621021627
3.139807312397831
0.001551678451535698
3.004998101673473
2.707305860486598
0.06647359537016329
-0.1025101479145184
3.328921527336376
-0.0527436551486129
3.057280117269852
0.06928486471399592
2.91161618194994
2.641311368220259
0.1219616936778637
-0.03597198790827383
0.03387141357453394
0.155689328022922
0.2296406926987743
0.1099867697340184
-2.995521023643433
0.01568642591320446
0.2666319222307834
-3.346350053963417
0.2510947210661041
-3.45009014207519
-3.557356458744975
0.1404624854188583
-3.077804120799457
0.002474811333592952
0.2945970283384958
-3.472525120557583
0.1909884177440556
-3.584916110647367
-3.592146918518953
0.1485183338233393
-3.155193396392038
-0.006619716660086761
0.2559935898214645
-3.584088494531823
0.1028823333063977
-3.73448263816433
-3.64216408605701
0.140154455673799
-3.239258929352721
0.002273136577625512
0.1880837118461534
-3.745431926569461
0.03402464837744901
-3.861472029473134
-3.705441742374346
0.0703324955250606
3.979813057531793
-4.100476448014827
0.1235572214071203
4.132433689576326
-4.226444618343276
0.08028017266682719
4.217519877844975
-4.316411528245142
3.560897269638274
-3.682280305926691
0.1473568566208655
0.06627801928463639
3.876832290858816
0.0892549158697597
4.042790545894151
0.008556331295779596
4.09487886121626
3.434671448936034
0.1118000177777847
0.05279893984875061
3.784937614871034
0.01845513935557086
3.955717528877287
-0.07013635346361957
3.934672046901771
3.332940551960893
0.05847368089515359
0.02149125386345518
-0.08849012248798427
-0.1185517706972506
0.02716034589911021
-4.098033237653861
-0.02803745601646024
-4.102831884636075
-0.02810049545652915
-4.101808159163832
-0.03368323778860671
-0.03447576294844334
-4.096916699545743
-4.211433704178773
-0.06565759974536217
-4.20614386779181
-0.04627110048354344
-4.199831709554788
-0.04760708798926683
-0.05775032614253528
-4.190974370998587
-4.308885733854672
-0.174659489619288
-4.301616021450475
-0.07818084152964372
-4.308730800305094
-0.04041893593277496
-0.0426313378042591
-4.31920842267228
-3.985011131192118
-0.04233692010786799
-4.249426211123493
-0.1400065875503975
-4.228675955335089
-0.145661771225679
-4.244285556233532
-0.01747896838583582
-0.03210786001505783
-4.08762331508055
-0.06156502303071282
-4.176997095279965
-0.04809053602983682
-4.333663794018569
-4.273216858333962
-0.002871894142271819
-0.02801774359574027
-4.077679420299745
-0.06321978115907817
-4.158817032196596
-0.0540238705320788
-4.345713631725051
-4.316426110048169
-0.003535291081724401
-0.02162141145403285
-4.069795792204284
-0.06003519541638469
-4.138847194959775
-0.06822779771920562
-4.347633479789256
-4.36506019334206
-0.005960759104794461
-0.01554487754769573
-4.064432364149048
-0.05369580355858777
-4.118433141093612
-0.07864932617865455
-4.338142255336044
-4.431572950151186
-0.007518759769900324
-0.001073223011063162
4.05956140331993
-4.059708003596309
-0.01360736677018148
4.06884472412739
-4.062546325128215
-0.1044174328948037
4.220096022718238
-4.147974543093024
4.670365282029435
-4.712916705852609
-0.06872496192706609
-0.002963595674289943
4.059934645674099
-0.02651432430469625
4.081319663871088
-0.1015334811361299
4.275162729118317
4.585724724852551
-0.0183818764081683
-0.005655599315345095
4.061254171561248
-0.03726903774821971
4.098854593360626
-0.09666904582569397
4.314339551499643
4.503680751412452
-0.008941764470679958
-0.009950102609084577
-0.04540979305076664
-0.0878583940625563
-0.006796810998942887
-0.05298191359909371
-4.680683576173388
0.007741205969765408
-0.06567963998272752
-4.15294051297332
-0.03478328257170393
-4.096344151981241
-4.094845356216858
-0.06155659994504586
-4.64754702505136
0.006631559583551438
-0.06750054934361427
-4.160204107353951
-0.0348588094752571
-4.130355906033041
-4.129861134730118
-0.07410500510456641
-4.603055875472689
0.00526414863386887
-0.06893656949664589
-4.174765235680846
-0.03500481564874536
-4.16498993490293
-4.164891487056801
-0.08242255990884945
-4.55444615511171
0.006229215962027357
-0.0697140227007772
-4.194525769577123
-0.03501639664208112
-4.199820706421296
-4.199906971691968
-0.6887247674110659
-3.912954869651627
0.01129149452559952
-1.207511807681437
-3.682702447410954
-1.723712858922875
-3.683647048776194
-3.683668090060654
-0.6872903532729642
-3.273931877566495
0.01811968284445548
-1.207475968286648
-3.166040574201777
-1.723711851208808
-3.167421594021766
-3.167429763786037
-0.6888415163264169
-2.650874386677166
0.04172465367981493
-1.2074732870487
-2.64958137898758
-1.723711779126109
-2.651189460817026
-2.651191214823126
-0.6899954995089099
-2.097351275345854
0.1168379456412963
-1.20747339935999
-2.133493292968145
-1.723711780188848
-2.134952228744771
-2.13495266152912
1.706212168246033
0.5337381654428741
1.172474003772969
0.5337381584280845
0.6387445851167114
0.5335571566826474
0.5291695191317447
0.105711131663935
1.706212168248594
1.067476330870286
1.1724740058297
1.067476302840208
0.6387502467511272
1.067105512739656
1.053469950236483
0.1085008242465554
1.706212168246498
1.601214496294721
1.172474013702145
1.601214386895412
0.638806870913142
1.600473908177562
1.575038104230357
0.1089061413713214
1.706212168319974
1.172474043753725
0.6388942752134699
0.1052259256690316
0.1054762296604372
0.1054762296645788
0.1054653863683836
0.1079721188486012
0.1059225077619391
0.1078287817228213
0.1026793283366191
0.1077871345027726
0.1079721188460616
0.1054653863727118
0.1076782084594698
0.1076782084618916
0.1081688363993967
0.1066957003817621
0.09903953161762181
0.1111325149576415
0.1078287817238065
0.1059225077653754
0.1066957003824047
0.1081688364019936
0.1063680743623343
0.1063680743626438
0.09589780963328713
0.1089243936053355
0.1026793283405089
0.1077871345045752
0.0990395316208435
0.1111325149596476
0.09589780963757936
0.108924393605017
0.09567818871158527
0.0956781887165791
-0.03916483784656666
0.1340425046817839
-0.06253206361196945
0.1313125808809852
-0.08851467233853272
0.1359908731235564
0.1348760680576172
-0.005682181002994002
0.1388609684383088
-0.0161753493029072
0.140866945455892
-0.02705989838066603
0.1458977671911214
0.1484336267657951
-0.0009897580837325837
0.1391852459034017
-0.00734406753446909
0.1464985356491645
-0.01313444615671167
0.1509051923458151
0.1525076902776297
-0.001218713089969459
0.1398031872491078
-0.006135057593190496
0.1507758283572683
-0.009219361419029348
0.1533082462948388
0.1538215674783297
0.153303145923581
0.00616957832479631
0.1533721197359003
0.004948546853290603
0.1526201228194429
0.007183183230067447
0.006669561201903651
0.1537745097989985
0.153520693348152
0.005391476203753798
0.1538379856701134
0.004325676167664161
0.1539161694805773
0.006914471030804115
0.003199575467829119
0.1574316509309628
0.1528814281341855
0.002725279000398984
0.1538629503102705
0.003033495742451153
0.1547047896950901
0.005885396592602954
-0.00975264584184582
0.1676840396736591
0.1419776671854106
0.1446515734669249
0.1502910814748162
0.1404652925894217
0.140298932795163
-0.05510088588894074
0.1310928223340165
-0.008870374751064114
0.1296688219516919
-0.006961199300812987
-0.006209411543558613
0.1296551434576179
0.1446496430424792
-0.04222970442472637
0.1388103093629099
-0.002739828182667964
0.1356410394465497
-0.003209402438399372
-0.003925134794263319
0.1339573191308751
0.1511964817987215
-0.02570025069543452
0.14560232700112
0.003129671127057199
0.1416373163914177
0.001326777324255707
8.870142282241256e-05
0.1382176114083873
0.1147562771521102
0.1181759432571678
0.1201040885767369
0.1208094172476611
0.1299201365764196
-0.006882554129215263
0.1308442194517659
-0.005824234983653198
0.1320144599630698
-0.003767142339533541
-0.003038514854120572
0.1331208121945075
0.1327150085585703
-0.004747782724089822
0.1322449120218913
-0.00428443358641234
0.1322701398071925
-0.002830384828982929
-0.002528211686730536
0.1326951588556063
0.1355128937120187
-0.001149130618882221
0.133607905388518
-0.001296575123636512
0.1325487727657707
-0.0007878630480304127
-0.001115522462684898
0.1321949069195938
0.120560475642428
0.1203303398583069
0.1204691728961329
0.1203652832038238
0.1377886107252768
-0.02482760705905723
0.1348830774849032
-0.1504988662506996
0.1107602962108533
-0.1229674977194467
-0.01104233316836367
0.08051180020790637
0.1322030030126524
-0.02831528185309404
0.1023259766879304
-0.1270264970519104
0.05610875541984164
-0.08144869701001167
-0.002616805959268997
0.04679705406952685
0.1239358192669708
-0.02441091832994599
0.05391388677627944
-0.06299647545599174
0.002564819338378918
-0.03524109799733621
-0.006634958039062444
0.004849488169875849
0.09095712635097086
0.02205390657242008
-0.01732365802137621
-0.02687790315016457
0.1047431759982348
0.1254182680691766
0.1177022483652913
0.1030276271313556
0.1245919955059419
0.05756194105183299
0.02675337557751079
0.1298441294362808
0.08613682454865303
0.08814341946835913
0.1121677786884616
0.08104251568045651
0.1233711002155536
0.05040406656452212
0.02496176224252977
0.1295954447540379
0.0531831442331233
0.04164890629888274
0.09764552047104615
0.04052018898631982
0.1175439590702957
0.03378408065528526
0.02014543779174338
0.1261443552756594
0.01606365285520786
0.06047051946503025
0.09669653481062186
0.12002025976581
0.1350667528407869
0.003068484099617241
0.1400250555974862
-0.006417414005619015
0.1434898335062972
0.001381327954864342
0.01112151084032664
0.1477709424451169
0.1347764393354842
0.005054885545909715
0.1395688414233652
-0.002603657854845842
0.142468886273028
0.001754589001240814
0.006794929225946156
0.1464998182656309
0.1319898733024786
0.006205295073889672
0.1376973333481355
0.0001345198483685417
0.1417127137301941
0.00146138402523599
0.003119678041125229
0.1452932768242218
0.1330968398929978
0.1388413889523132
0.1429868246893821
0.146279587111855
0.1586638139056553
0.03178750289133525
0.1726590989810198
0.05121746114473213
0.1922476061291798
0.1023174718093635
0.1805136714916398
0.2412399994073995
0.1566728361329796
0.01993615384623482
0.1704611572278103
0.03610922127892691
0.1914989186285785
0.08113537081483241
0.1229081366966568
0.2492073996008275
0.1538903062944869
0.009770538500935122
0.1672302384605793
0.02141993097867623
0.1942631528508434
0.05345214654735125
0.03428854404726545
0.2830991280516486
0.1546647492411884
0.1746624755781397
0.2273711774450801
0.261530873480301
0.1220014730697237
-0.6494854278841001
0.01214931559037982
-0.1526510318228438
-0.002597190303189991
-0.01384707428738104
-0.009765814500017792
-0.003860828187052643
0.08463899340466427
-0.4845210670719817
0.001807018163256312
-0.06912187088343882
-0.004315355366122628
-0.006799087719742807
-0.006316670600327798
-0.006748340962898077
0.04503313764069179
-0.2463298158267159
-0.002596059786861881
-0.02080259742352191
-0.005881520763771025
-0.002576916021921494
-0.003320607461776427
-0.008045833490385401
0.01517958480948548
-0.004926165429824211
-0.0066595440759381
-0.009082518922873957
-0.005367107629627147
-0.007899592229845612
-0.006842758586791984
-0.005047243844329658
-0.008519362061381047
-0.0008104389054567306
0.003538198947481488
-0.009128783250326089
-0.00819263441854212
-0.005611322268729122
-0.009147319212105808
-0.002763078231523709
-0.00965391967962452
0.0007067234677031187
0.003168541448252259
-0.008476712544499674
-0.009688851265992381
-0.002882225083988591
-0.009469078638088399
-0.001545593039945829
-0.008702839881616402
0.0009291280418003561
0.002634954092247718
-0.007328820397132002
-0.01079241544273114
-0.01094992361200664
-0.009120748857930292
-0.005723260438599992
-0.008421168384383396
-0.01576913241129289
0.001943348198465516
-0.002849222619914479
0.02247399422771416
0.01462075580558066
0.07047437722884996
0.04243695595367399
-0.009508971921309313
-0.01396197049377521
-0.007053556632063532
-0.003681610512364333
0.008909290656975134
4.100277216086134e-05
0.04770612208133819
0.03388616571952625
-0.0117674956502843
-0.008575043783258809
-0.01145435541914236
-0.002555755374911102
-0.003607116812801611
-0.006445955750949611
0.02557380902591183
0.02032708467935625
-0.01309191953147463
-0.01388650841173609
-0.01901284149149104
0.008976420433720621
0.04129084498272075
-0.006356921578174704
0.01063500767428886
0.03999968384530396
-0.007445545219010946
0.01126613752703025
0.03677258079064687
-0.012373336437658
0.01704062041043545
-0.01696926885322069
0.02818013600069835
0.02546640441142715
0.03266485195424806
-0.003783990849327179
0.03078363637755718
-0.004784290131030405
0.02748595636155225
-0.008732363843030569
-0.01083091862948526
0.02110016120906714
0.01849791276166364
-0.00170929167467631
0.01641363703624723
-0.002220834349536405
0.01257227227985476
-0.004437139269596699
-0.005015227019103983
0.006837983729792142
0.006533554005156678
0.004582938563248984
0.0002902040365390102
-0.004408839860229982
-0.006411196686882087
0.002584419624302545
-0.006056313256786995
0.0007784040184405823
-0.003634293055878229
-0.0008802653295903878
-0.001874250218246561
-6.2304328363183e-14
0.003495957316251054
0.006009780574485542
0.001028013089423213
0.00363955991376911
-4.023546496679381e-05
0.0009232743837205015
-0.0009164562712935254
-2.664535259100376e-14
0.01669145493962784
0.01018032776334003
0.01132044607388981
0.008928261221154893
0.005680867787755478
0.006652711043447796
0.005073066202817601
1.687538997430238e-14
0.02174026623969687
0.01431351214117853
0.007707609220065116
5.654504642294e-14
-0.001874250218238914
0.003634293055747688
-0.0009164562713076009
4.023546488032131e-05
0.005073066202851129
-0.005680867787692542
-0.007707609219935262
0.01287176819252431
-0.0008802653295798858
0.006056313256780008
0.000923274383717046
-0.001028013089488349
0.006652711043502933
-0.01132044607394874
-0.01431351214117926
0.0127742008610761
0.0007784040184012353
0.006411196686708184
0.003639559913768166
-0.003495957316204827
0.00892826122121591
-0.01669145493963645
-0.02174026623971731
0.01558054214128207
0.002584419624373856
0.004408839860294354
0.006009780574484928
-0.006837983729863571
0.01018032776335909
-0.02110016120908779
-0.02818013600084258
0.01607263131642328
-0.03677258079056726
-0.01696926885310374
0.02546640441154657
-0.03999968384532098
-0.01237333643769196
0.01704062041039438
-0.04129084498269866
-0.007445545219036377
0.01126613752708445
-0.006356921578245474
-0.04243695595370101
0.01063500767437877
-0.02748595636157609
-0.01083091862950884
-0.03078363637754887
-0.008732363843074707
-0.03266485195425439
-0.004784290131074558
-0.003783990849392689
-0.03388616571962492
-0.01257227227988974
-0.005015227019085512
-0.01641363703624957
-0.004437139269567632
-0.01849791276173377
-0.00222083434955565
-0.001709291674697386
-0.02032708467943609
-0.0002902040365863404
-0.004582938563285462
-0.006533554005237176
-0.008976420433827369
0.01901284149138942
-0.02557380902595278
0.01388650841171235
0.006445955751105847
0.01309191953146205
0.002555755374853294
0.008575043783119719
0.005723260438625991
0.003607116812729606
-0.04770612208139531
0.01145435541907873
-4.100277239245387e-05
0.01176749565019897
0.00368161051227045
0.01396197049381355
0.007328820397137285
-0.00890929065713459
-0.07047437722888328
0.007053556631967613
-0.01462075580581845
0.009508971921215159
0.002849222619890068
0.0157691324110267
0.008476712544480897
-0.02247399422786729
-0.001943348198568878
0.008421168384238559
0.009128783250314292
0.008519362061390747
0.003538198947488337
0.006842758586868305
-0.0008104389054200828
0.005367107629679767
-0.005047243844464769
-0.007899592229892938
0.003860828187008476
0.009653919679620378
0.003168541448243606
0.009147319212143486
0.0007067234677084616
0.008192634418553531
-0.002763078231612481
-0.005611322268777157
0.006748340962903931
0.008702839881603147
0.002634954092261506
0.009469078638113469
0.0009291280418634099
0.009688851265999632
-0.001545593039988451
-0.0028822250840186
0.008045833490384648
0.009120748857975387
0.01094992361204831
0.01079241544275558
0.009082518922874929
0.002597190303162789
-0.009765814499929922
-0.012149315589876
-0.01384707428712864
-0.1220014730687445
-0.1526510318221595
-0.6494854278847075
-0.241239999407149
0.004315355366165278
-0.006316670600251752
-0.001807018163075774
-0.006799087719642469
-0.0846389934040106
-0.06912187088318326
-0.4845210670719612
-0.2492073996003633
0.005881520763800061
-0.003320607461766772
0.002596059786938297
-0.002576916021875911
-0.04503313764040463
-0.02080259742345816
-0.2463298158266672
-0.2830991280513742
0.006659544075943821
0.004926165429855644
-0.01517958480941762
-0.2615308734804454
-0.1922476061292007
0.180513671492291
-0.1726590989809726
0.1023174718100527
-0.1586638139056647
0.05121746114578329
0.03178750289198995
-0.1477709424451926
-0.1914989186284984
0.1229081366965055
-0.1704611572277777
0.08113537081529776
-0.1566728361328342
0.0361092212797729
0.0199361538456676
-0.1464998182656722
-0.1942631528505833
0.03428854404706327
-0.1672302384604997
0.05345214654750718
-0.1538903062943053
0.02141993097958927
0.00977053850148546
-0.1452932768243213
-0.2273711774447116
-0.174662475578323
-0.1546647492410204
-0.1462795871118966
-0.1434898335063002
0.01112151084036872
-0.1400250555973464
0.001381327954576128
-0.1350667528402799
-0.006417414005058686
0.003068484099482904
-0.1298441294361778
-0.1424688862730981
0.006794929224757662
-0.1395688414229398
0.001754589003561846
-0.134776439335167
-0.002603657854329366
0.005054885546301069
-0.1295954447539145
-0.1417127137300343
0.003119678042150631
-0.1376973333477615
0.001461384024982748
-0.1319898733020628
0.0001345198482989307
0.006205295073242523
-0.1261443552756405
-0.142986824689373
-0.1388413889521807
-0.1330968398928513
-0.1200202597655461
-0.1245919955060321
0.02675337557739799
-0.1177022483653381
0.05756194105154566
-0.1047431759983673
0.1030276271307321
0.1254182680694179
-0.08051180020813392
-0.1233711002156404
0.02496176224262459
-0.1121677786884725
0.05040406656347318
-0.08613682454895025
0.08104251567905496
0.08814341946921855
-0.04679705406969084
-0.117543959070253
0.02014543779167843
-0.09764552047115875
0.03378408065482008
-0.05318314423331856
0.0405201889868545
0.04164890629793039
-0.004849488170219268
-0.0966965348102504
-0.06047051946470773
-0.01606365285543099
0.02687790315048796
-0.1107602962113201
-0.01104233316838549
-0.1348830774853585
-0.122967497720094
-0.137788610725474
-0.1504988662496404
-0.02482760705871331
-0.1331208121947821
-0.0561087554201937
-0.002616805959841428
-0.1023259766885816
-0.08144869701042701
-0.1322030030129159
-0.1270264970514572
-0.02831528185280754
-0.1326951588558072
-0.002564819338593607
-0.006634958038910621
-0.05391388677688837
-0.03524109799737735
-0.1239358192672464
-0.06299647545591291
-0.02441091832978803
-0.1321949069197343
0.01732365802133534
-0.02205390657252682
-0.09095712635110295
-0.1203652832037862
-0.132014459963146
-0.003038514853450081
-0.1308442194515822
-0.003767142339191953
-0.1299201365764162
-0.005824234983827975
-0.006882554129458818
-0.1296551434574586
-0.1322701398072412
-0.002528211686202597
-0.1322449120217433
-0.002830384828528487
-0.1327150085584729
-0.0042844335866703
-0.004747782724020266
-0.1339573191308536
-0.1325487727656493