/*--------------------------------*- C++ -*----------------------------------*\
  =========                 |
  \\      /  F ield         | OpenFOAM: The Open Source CFD Toolbox
   \\    /   O peration     | Website:  https://openfoam.org
    \\  /    A nd           | Version:  11
     \\/     M anipulation  |
\*---------------------------------------------------------------------------*/
FoamFile
{
    format      ascii;
    class       volVectorField;
    location    "0.35923555";
    object      U;
}
// * * * * * * * * * * * * * * * * * * * * * * * * * * * * * * * * * * * * * //

dimensions      [0 1 -1 0 0 0 0];

internalField   nonuniform List<vector> 
880
(
(24.99999999999999 -2.806056697290475e-12 0)
(24.99999998203183 -1.217406589960881e-08 0)
(24.99829025052073 -0.0005554046565636075 0)
(24.717363847496 0.007624568649916921 0)
(24.99999999998872 -2.83129113478239e-11 0)
(24.99999994445427 -7.039704753345124e-08 0)
(24.99747959216013 -0.001722079145938446 0)
(24.6326976930706 -0.1593358598051896 0)
(24.99999999963697 -2.437766449398541e-10 0)
(24.99999976102305 -2.871827711446424e-07 0)
(24.99514556175187 -0.003584461437083626 0)
(24.51360413629427 -0.2644843838145013 0)
(24.99999999829957 1.052107071769295e-09 0)
(24.9999988181946 -1.167838335885237e-06 0)
(24.98908583795588 -0.007016754755264708 0)
(24.13724804310769 -0.413721866549012 0)
(25.0000000111903 -4.114342115423735e-09 0)
(24.99999998001881 8.779231726189367e-09 0)
(24.99999953213299 -9.298403341804408e-07 0)
(24.99999314126271 -1.184364183546684e-05 0)
(24.9999937680935 -4.448644347244183e-06 0)
(24.99996304615945 -1.867012891649106e-05 0)
(24.99985589126456 1.067325654344683e-05 0)
(25.00017477349222 -0.001107680292130749 0)
(24.97171083289618 -0.01019832823382631 0)
(24.95164314091164 -0.00636039096862358 0)
(24.9241468904442 0.01073102277096982 0)
(24.91407821626174 -0.06683425010474914 0)
(23.40264470153476 -0.09542241402212513 0)
(22.69017716722615 0.6348498364496563 0)
(22.26855917780612 1.33502618236714 0)
(22.24430665036211 1.746227682057608 0)
(24.99988402767832 -6.197979287075624e-06 0)
(24.99960662060881 -0.0003640873524085748 0)
(24.99925376298886 -0.001529043316414903 0)
(24.99747571974314 -0.004522212232704325 0)
(24.99801877503069 -0.0006930974864860941 0)
(24.99019686124473 -0.000353536140585674 0)
(24.97715042449618 0.00549341640096319 0)
(24.95441969945261 0.008911095209344289 0)
(24.7558615325443 -0.01080192864414154 0)
(24.63017902165091 0.09839482287259453 0)
(24.46165275580625 0.2785197469289768 0)
(24.31834872932637 0.4062574213100761 0)
(21.98167642966647 2.340706913737741 0)
(21.98733036225768 2.779770326948527 0)
(21.88512571009834 3.317360668546534 0)
(22.3392621084358 3.75840726656896 0)
(23.38567838944989 4.32311207628163 0)
(24.11422544715504 4.173019844497025 0)
(24.45809975985075 3.766264697125943 0)
(24.81733019600252 3.316632466222563 0)
(24.07886123036524 0.7463984294144473 0)
(24.09385941627001 1.10440251644879 0)
(24.19612045127868 1.349487876675577 0)
(24.38213523593783 1.475561109763848 0)
(24.87564135007248 0.03529357732168392 0)
(24.77190382967394 0.1155044311814647 0)
(24.67954100306078 0.2412730656214545 0)
(24.6342158444538 0.3945566181090872 0)
(24.98787380334042 -0.0105556618091065 0)
(24.97236305451389 -0.02426005546512632 0)
(24.95024725080714 -0.04404387205738079 0)
(24.92405172827475 -0.07056202045253693 0)
(24.90149181405154 -0.1010171649426067 0)
(24.88771194065278 -0.1311314897125925 0)
(24.88284721607959 -0.1445268202319049 0)
(24.88832808426915 -0.1379807047911315 0)
(24.63263893698084 0.5574747834773377 0)
(24.67445893472079 0.7120240346624434 0)
(24.76092444308764 0.8382226752414464 0)
(24.87669348217749 0.8925662042213611 0)
(24.5495415151763 1.60877281749528 0)
(24.75258087635683 1.654943378888607 0)
(24.94052814419739 1.627180475152005 0)
(25.09323436346522 1.555463690434353 0)
(24.99115111977654 2.905790006224822 0)
(25.17872888075189 2.48959668024468 0)
(25.29112404496516 2.094356416460758 0)
(25.36345460435125 1.778074283624382 0)
(25.42831684873484 1.377467131644516 0)
(25.2443529721438 1.453727824721782 0)
(24.9991617110098 0.9127356959339925 0)
(24.89607503903786 -0.1212249282624804 0)
(24.54807888674447 1.55948976494408 0)
(25.34338661835621 1.289312871002469 0)
(25.14340599110669 0.8617748138020419 0)
(24.90333263144524 -0.09618196922972852 0)
(19.15452796969456 1.728676562639172 0)
(25.15905825574844 1.297209270812401 0)
(25.25814809431127 0.7517570845929317 0)
(24.91621901010972 -0.08053357722902212 0)
(14.12718756269071 2.095949861149605 0)
(23.70236160600823 1.628785653323465 0)
(25.2771205939072 0.7747360508342537 0)
(24.94896521267257 -0.09185032303019322 0)
(24.95452815209891 -0.06679361269455343 0)
(25.21733534942774 0.7182161203384114 0)
(22.05151501165718 2.269333924737337 0)
(12.48987913732527 3.860290612392443 0)
(24.8313673670626 -0.08882739591214553 0)
(24.99460216041808 0.8082273079904068 0)
(20.60604746952587 3.31453585549186 0)
(12.79860399317304 5.64054436080926 0)
(24.78951004454246 -0.1158491132159131 0)
(24.47446202874762 1.156882953917611 0)
(18.82502240227834 4.649449636932419 0)
(12.64754607769694 7.078641700196269 0)
(24.69832330341771 -0.1634645270669552 0)
(23.59937042066811 1.928783887272109 0)
(17.58780609588819 6.058345954827421 0)
(13.1358365672775 8.144184071518422 0)
(14.04754476632672 8.855737945553487 0)
(16.96793693551466 7.293782878757156 0)
(22.43006591805581 3.156587332893721 0)
(24.51832866642271 -0.1864963351512158 0)
(15.13572721343069 9.393304344013183 0)
(17.24088969845768 8.21936423184561 0)
(21.21733700208926 4.641893838749278 0)
(24.19846461436192 -0.07130549667673286 0)
(16.37658639848594 9.684275484864671 0)
(18.11055372035031 8.754313333092719 0)
(20.70758080549108 5.995879910187012 0)
(23.69391013927258 0.2364037442492991 0)
(17.54806068222378 9.756794840841636 0)
(19.3976098341277 8.854132926307917 0)
(20.87609347432068 7.035948222262806 0)
(23.19630505177585 0.7228948010742 0)
(22.91099903234199 0.8509463383599468 0)
(22.04904644912413 7.091134536230969 0)
(21.12108204211851 8.806656790325711 0)
(18.96385579402061 9.897795222951157 0)
(23.45623114721031 0.6463692583554191 0)
(23.50851391848674 6.648116513763095 0)
(23.10797829501285 8.415246177898904 0)
(20.90706155610447 9.810492994910666 0)
(24.04000953717733 0.3441033528793547 0)
(24.93162804560988 5.875071084096942 0)
(25.19364551138483 7.620152663854498 0)
(23.44735406648744 9.238274285466961 0)
(24.5186865518874 -0.2494494561917216 0)
(26.0633218300665 4.606848971003437 0)
(27.16638933548245 6.226687557034905 0)
(26.40059666654093 7.616383031870702 0)
(24.88419230001924 -0.3075659345702186 0)
(26.9292537670603 3.628093745848977 0)
(29.04978827457945 4.804325082492126 0)
(30.68346053477659 4.759022433655073 0)
(25.30046282881021 -0.4989501567906012 0)
(27.49765038246516 2.601741230136532 0)
(30.11083164487297 3.390621796308155 0)
(34.00250710428977 0.7046122074532559 0)
(25.54326728008421 -0.5425545222331919 0)
(27.54994730074376 1.647317393991934 0)
(30.83474750784788 1.256058599032612 0)
(36.3481977126694 -4.2539657648276 0)
(25.65368549777483 -0.543733112813671 0)
(27.22444166322321 1.022792190025533 0)
(30.31234063896652 -0.3107724271995571 0)
(37.77914227419726 -9.251822783723421 0)
(34.0192619805705 -7.327981038891661 0)
(29.13038659717493 -1.417299143307281 0)
(26.94231896380048 0.3554900964280511 0)
(25.69370572180355 -0.5467455502108894 0)
(25.63437365075283 -3.215006097697365 0)
(28.24645376539785 -1.93656575921116 0)
(26.64809903578402 -0.1001424270760025 0)
(25.62904653069375 -0.4720494709242169 0)
(23.0890301695997 -3.612744522385049 0)
(27.75004962191159 -2.8417252892193 0)
(26.39348678697803 -0.5594289659002815 0)
(25.50626004786881 -0.3592833713993624 0)
(19.90309493796787 -3.659478637941616 0)
(26.97781900077007 -3.450133271484408 0)
(26.04929686992461 -0.9532356425687802 0)
(25.38979007338661 -0.2751004091639895 0)
(18.08524939993672 -4.760170001404414 0)
(25.72426785951708 -4.39114621904507 0)
(25.48600636976739 -1.289817505001083 0)
(25.18021327635553 -0.215665125367826 0)
(15.43323070797258 -6.813657877882385 0)
(24.08647955811998 -4.635051204306735 0)
(24.89651511897844 -1.125726615522415 0)
(25.00123516744086 -0.1079239718080629 0)
(14.3782852830751 -6.976696798958101 0)
(23.02531524136568 -4.048534275408557 0)
(24.65192830382948 -0.7359005708536223 0)
(24.97081091559117 -0.04913461602448767 0)
(14.33666890918549 -5.861280975393523 0)
(22.80033728962892 -3.600455462985332 0)
(24.67303761119057 -0.6014485394836893 0)
(24.97608512829372 -0.03607874904492948 0)
(14.2222925488549 -0.6632633419817432 0)
(20.34306328092921 -0.1132433441720447 0)
(23.64827438057224 0.01058005315433118 0)
(24.85559708572575 0.001982418775473929 0)
(14.20388623881583 -1.755774185570122 0)
(20.3397041075831 -0.5377872518553867 0)
(23.66318619457553 0.0006329177682495374 0)
(24.85254005310949 0.004365048350822665 0)
(14.41820614472736 -3.256103290874381 0)
(20.34761784095976 -0.9878866839480944 0)
(23.70250570682594 -0.07175319020865123 0)
(24.8517897386609 0.0002503963870767542 0)
(14.47002451829917 -4.649569694980545 0)
(20.55621573489564 -1.352413970477509 0)
(23.80223787039412 -0.1947126100348004 0)
(24.86017553981614 -0.01139003100030543 0)
(14.33666890920345 5.861280975374551 0)
(22.80033728965329 3.600455462977478 0)
(24.67303761130005 0.6014485394365108 0)
(24.97608512840307 0.0360787490255627 0)
(14.37828528310725 6.97669679893387 0)
(23.02531524144026 4.048534275459616 0)
(24.65192830387898 0.7359005708380313 0)
(24.97081091566462 0.04913461607059291 0)
(15.43323070802603 6.813657877906359 0)
(24.08647955815712 4.635051204348778 0)
(24.89651511896844 1.125726615566645 0)
(25.00123516748508 0.1079239718584747 0)
(18.08524939996047 4.760170001406113 0)
(25.72426785960491 4.391146219112063 0)
(25.48600636977972 1.289817505035224 0)
(25.18021327636083 0.2156651254159131 0)
(25.6937057217664 0.5467455501523502 0)
(26.94231896382679 -0.3554900964625056 0)
(29.13038659718539 1.417299143298841 0)
(34.01926198049383 7.327981039019262 0)
(25.62904653068769 0.4720494708727191 0)
(26.64809903579394 0.1001424270687175 0)
(28.24645376543793 1.936565759215687 0)
(25.63437365080527 3.21500609779889 0)
(25.50626004782 0.3592833713532442 0)
(26.39348678695703 0.5594289659263427 0)
(27.75004962199755 2.841725289352011 0)
(23.08903016953741 3.612744522429815 0)
(25.38979007331348 0.275100409143479 0)
(26.04929686985693 0.9532356425405445 0)
(26.97781900079475 3.450133271562387 0)
(19.90309493801833 3.659478637966688 0)
(37.77914227431376 9.251822783884874 0)
(30.31234063897104 0.310772427194318 0)
(27.22444166326938 -1.022792190034003 0)
(25.6536854977631 0.5437331127664209 0)
(36.34819771267737 4.253965764876624 0)
(30.83474750787481 -1.256058598990734 0)
(27.54994730078617 -1.647317393998669 0)
(25.54326728005747 0.5425545222451956 0)
(34.00250710428895 -0.7046122074113477 0)
(30.11083164483075 -3.390621796291005 0)
(27.49765038250261 -2.601741230114159 0)
(25.30046282868515 0.4989501568593682 0)
(30.68346053473962 -4.759022433636183 0)
(29.04978827462095 -4.80432508246258 0)
(26.92925376715089 -3.628093745819453 0)
(24.88419229990677 0.3075659346581627 0)
(22.91099903227533 -0.8509463383414866 0)
(22.04904644906003 -7.091134536233431 0)
(21.12108204207575 -8.80665679032878 0)
(18.96385579403953 -9.897795222951387 0)
(23.45623114719505 -0.6463692583109621 0)
(23.50851391849005 -6.648116513757665 0)
(23.10797829496708 -8.41524617788205 0)
(20.90706155611348 -9.810492994909026 0)
(24.04000953723716 -0.3441033528594908 0)
(24.93162804564386 -5.875071084107934 0)
(25.19364551135385 -7.620152663830336 0)
(23.44735406648292 -9.238274285453659 0)
(24.51868655185592 0.2494494562614375 0)
(26.0633218301277 -4.606848970979782 0)
(27.16638933548352 -6.2266875570005 0)
(26.40059666650614 -7.616383031856255 0)
(17.54806068224139 -9.756794840845769 0)
(19.39760983413096 -8.854132926320037 0)
(20.8760934742777 -7.035948222259029 0)
(23.19630505163478 -0.7228948010902414 0)
(16.37658639851704 -9.68427548488212 0)
(18.11055372037596 -8.754313333100916 0)
(20.70758080547235 -5.995879910194895 0)
(23.6939101392389 -0.2364037442460384 0)
(15.1357272134411 -9.39330434402634 0)
(17.24088969850738 -8.219364231844642 0)
(21.21733700210403 -4.641893838722612 0)
(24.19846461428395 0.07130549668377983 0)
(14.04754476635983 -8.855737945556685 0)
(16.96793693551609 -7.293782878724342 0)
(22.43006591797006 -3.156587332859867 0)
(24.51832866639995 0.1864963351527231 0)
(24.95452815211862 0.06679361271723788 0)
(25.21733534943024 -0.718216120312148 0)
(22.05151501168584 -2.269333924751278 0)
(12.48987913736544 -3.860290612398115 0)
(24.8313673669601 0.0888273959103944 0)
(24.99460216040448 -0.8082273079464172 0)
(20.60604746954853 -3.314535855491867 0)
(12.79860399321288 -5.640544360831747 0)
(24.78951004437751 0.1158491132092314 0)
(24.47446202863166 -1.156882953854136 0)
(18.82502240230285 -4.649449636902551 0)
(12.64754607772201 -7.078641700200393 0)
(24.69832330336844 0.1634645270701323 0)
(23.59937042069791 -1.92878388719661 0)
(17.58780609594801 -6.058345954801696 0)
(13.13583656729454 -8.144184071524787 0)
(24.94896521265174 0.09185032304402205 0)
(24.9162190101264 0.0805335772415933 0)
(24.90333263137078 0.09618196925938573 0)
(24.89607503902855 0.1212249282588417 0)
(25.27712059398606 -0.7747360508357207 0)
(25.25814809437594 -0.7517570845837886 0)
(25.14340599105182 -0.8617748137898755 0)
(24.99916171098698 -0.9127356959496639 0)
(23.70236160609938 -1.628785653342348 0)
(25.15905825576188 -1.297209270816763 0)
(25.34338661841276 -1.289312871015363 0)
(25.2443529721684 -1.453727824714504 0)
(14.12718756274805 -2.095949861152061 0)
(19.15452796976101 -1.728676562634854 0)
(24.54807888672005 -1.559489764918597 0)
(25.42831684872693 -1.377467131618924 0)
(24.88832808422074 0.1379807047983612 0)
(24.87669348212758 -0.8925662042008329 0)
(25.09323436345472 -1.555463690409205 0)
(25.36345460437075 -1.778074283573336 0)
(24.88284721614163 0.1445268202126511 0)
(24.76092444303198 -0.838222675233673 0)
(24.94052814421556 -1.62718047513004 0)
(25.29112404497642 -2.094356416418292 0)
(24.88771194064527 0.1311314897033078 0)
(24.67445893471543 -0.7120240346104031 0)
(24.75258087642073 -1.654943378901471 0)
(25.17872888080396 -2.489596680244517 0)
(24.90149181410475 0.1010171648617041 0)
(24.63263893699932 -0.5574747834555301 0)
(24.54954151516323 -1.608772817489983 0)
(24.9911511197944 -2.905790006216388 0)
(24.98787380333777 0.0105556617239688 0)
(24.87564135016653 -0.03529357722783589 0)
(24.0788612303621 -0.7463984294063447 0)
(23.38567838942577 -4.323112076255298 0)
(24.97236305455493 0.02426005534919716 0)
(24.77190382976399 -0.1155044311101622 0)
(24.09385941628355 -1.104402516413871 0)
(24.1142254471862 -4.173019844500245 0)
(24.95024725071899 0.04404387203047739 0)
(24.67954100316599 -0.2412730655503395 0)
(24.19612045133544 -1.349487876677022 0)
(24.45809975995887 -3.766264697174802 0)
(24.92405172831043 0.07056202038447876 0)
(24.63421584447407 -0.3945566180556311 0)
(24.3821352359789 -1.475561109727295 0)
(24.81733019604746 -3.316632466246982 0)
(22.33926210845855 -3.7584072665563 0)
(24.31834872932644 -0.4062574213133752 0)
(24.95441969954286 -0.008911095114539165 0)
(24.99747571968743 0.004522212219430092 0)
(21.88512571012648 -3.3173606685303 0)
(24.46165275579763 -0.2785197469330676 0)
(24.97715042454474 -0.005493416362984639 0)
(24.99925376302423 0.001529043285393136 0)
(21.98733036228133 -2.779770326936946 0)
(24.63017902169606 -0.09839482287847788 0)
(24.990196861397 0.0003535361475907033 0)
(24.9996066206319 0.0003640872307386144 0)
(21.98167642967333 -2.340706913721548 0)
(24.75586153260637 0.01080192863663879 0)
(24.99801877510689 0.0006930975016383053 0)
(24.99988402765653 6.197993554835609e-06 0)
(22.24430665033407 -1.746227682042618 0)
(24.91407821626961 0.0668342501093049 0)
(25.00017477351425 0.001107680311416977 0)
(24.99999314123308 1.184368506964141e-05 0)
(22.26855917775409 -1.335026182354029 0)
(24.92414689045624 -0.0107310227741497 0)
(24.99985589132495 -1.067325738071045e-05 0)
(24.99999953209123 9.298496045618645e-07 0)
(22.69017716707525 -0.634849836458543 0)
(24.95164314093772 0.006360390959729943 0)
(24.99996304621491 1.867011966673362e-05 0)
(24.99999998004261 -8.824646973729705e-09 0)
(23.40264470131377 0.09542241397515311 0)
(24.97171083295589 0.01019832822853724 0)
(24.99999376816995 4.448657405392107e-06 0)
(25.00000001114298 4.117508898708928e-09 0)
(25.00000000000002 5.954671096150709e-12 0)
(24.99999998201898 1.215735646827794e-08 0)
(24.99829025051599 0.0005554046386644585 0)
(24.71736384746904 -0.007624568493187565 0)
(24.99999999997173 4.182331462874549e-11 0)
(24.99999994453042 7.037357519575475e-08 0)
(24.99747959216485 0.0017220791235625 0)
(24.63269769285211 0.1593358598754733 0)
(24.99999999962681 2.564834045978503e-10 0)
(24.99999976109916 2.87186469423718e-07 0)
(24.99514556175681 0.003584461423727815 0)
(24.51360413594877 0.2644843837451669 0)
(24.99999999828481 -1.026215685955659e-09 0)
(24.99999881823999 1.167850990085859e-06 0)
(24.9890858379618 0.007016754744976248 0)
(24.13724804283728 0.4137218664935369 0)
(24.52527762239831 1.098747280414477e-10 0)
(24.359800678843 0.1495547507266924 0)
(23.9740539597265 0.1736330091204962 0)
(23.03856205070871 0.0187179107712806 0)
(24.3598006790593 -0.1495547505096771 0)
(24.08844292072307 4.096537155912657e-11 0)
(23.40958390721022 -0.06031073291171984 0)
(21.96067838238911 -0.486379172073396 0)
(23.97405396017491 -0.1736330090276104 0)
(23.40958390755125 0.06031073298760457 0)
(22.12863098331508 6.328537623877862e-11 0)
(20.03097457247567 -0.581975068485525 0)
(23.03856205113052 -0.01871791079195 0)
(21.96067838290842 0.4863791720149012 0)
(20.03097457278383 0.581975068440053 0)
(17.78920130144591 -2.400797363742716e-10 0)
(17.25879681274571 2.521585797828784 0)
(17.89936372076098 2.917351302263041 0)
(19.54340959958754 2.655844550526878 0)
(21.08694964939961 1.887814558054545 0)
(18.24492218781504 4.246789599028554 0)
(18.30813693276085 4.203004564876061 0)
(19.04067063293033 4.114783248345213 0)
(20.07398953371182 3.952548305654632 0)
(17.68386998581708 5.193203815001684 0)
(18.85058513701466 4.491074483494343 0)
(19.52793461025819 4.69188024826246 0)
(20.05234777240122 4.563750414330213 0)
(18.33526559124426 5.754222646429497 0)
(19.70556560757695 4.717196186248476 0)
(20.2057259536065 4.89123478825147 0)
(20.49071081848809 4.80557615560809 0)
(20.79097477494646 4.932707411418781 0)
(21.02926549207499 5.061731691410836 0)
(21.40435810849145 5.120580659577798 0)
(22.16085291547838 5.280349297724079 0)
(20.72901161782843 4.994249094557278 0)
(21.03869629685143 5.101571102436712 0)
(21.5383734066946 5.117414535147303 0)
(22.65129019347169 5.50067254452359 0)
(20.47285597048822 4.931260708750165 0)
(20.973444746151 5.105924270964517 0)
(21.55537165162429 5.158192365685497 0)
(24.10137279531621 5.943007577238039 0)
(18.9761796319615 5.851121978583745 0)
(19.59933748012622 5.875951092208433 0)
(20.50317903742966 5.734761995443846 0)
(25.83119160659614 7.125899016162006 0)
(25.81525803944979 3.187581994636179 0)
(26.40945352400047 0.8090346183932818 0)
(25.72185840103865 0.4870783424845744 0)
(25.59509932823277 0.3820583711729037 0)
(28.37610948451627 2.198782208698647 0)
(28.69592282524835 0.3397473258335272 0)
(27.56801893142291 0.2832496269584663 0)
(26.89269684552877 0.3137580521807314 0)
(31.5490245047692 1.90471482793717 0)
(30.14994915968802 0.0457762569514542 0)
(28.75773469945135 0.05144590240540164 0)
(27.77933136447822 0.09386647929208652 0)
(25.07990696414384 1.98793512699512 0)
(24.21747265585076 0.6522662117740288 0)
(24.07232368717399 0.08970482912019105 0)
(24.15978558157499 -0.2164444522885314 0)
(25.66542494584926 0.3867737315583006 0)
(25.71343688931797 0.3198138630981675 0)
(25.70095501861305 0.2051406357516511 0)
(25.6534314548361 0.1716708275124113 0)
(26.53712045387637 0.34173842260828 0)
(26.22459632592566 0.2915147169859043 0)
(25.94663074619079 0.1915965780906213 0)
(25.72127148182328 0.1306878176001378 0)
(27.15029825196347 0.147846452360119 0)
(26.59224164914672 0.1471935567879429 0)
(26.09880663137959 0.09830498304166094 0)
(25.66597947043104 0.08514291233423134 0)
(24.13123475499492 -0.4622499177152808 0)
(23.90331531733862 -0.6207332715743114 0)
(23.7023177837434 -0.7154381030975902 0)
(23.36993717758807 -0.6662468052168387 0)
(25.20556008947366 0.7716902656243925 0)
(20.0925193971229 5.098255475358741 0)
(13.72003114213914 3.924568658799107 0)
(9.34524782111351 1.059338800017738 0)
(24.62765088106121 1.255327836240884 0)
(16.07241183745236 4.951593493321799 0)
(8.863891104079499 2.740869081804083 0)
(4.471068086736414 -0.1764293662538795 0)
(23.43576440670635 1.295018208490381 0)
(11.69350503093039 3.634449578730644 0)
(3.139754857334993 2.029172806251907 0)
(-0.7690081617947481 0.2418296655970829 0)
(19.41408139340134 -0.7286065809527436 0)
(7.302965119970555 -0.7958061320585323 0)
(0.2337695459924793 0.542983646156063 0)
(-2.595576742582279 0.1744014032094832 0)
(8.569178815507192 2.693905485075407 0)
(10.58535485693837 4.55949625990132 0)
(11.49759449661081 6.280338658420823 0)
(12.44951120572566 7.625630879054401 0)
(6.136716582167906 1.993703908265108 0)
(9.511382638148506 4.411056135956495 0)
(11.20127654642645 6.226213254240266 0)
(12.40430053273922 7.67215676669961 0)
(2.933349486712303 0.01199564721453269 0)
(7.442512803659862 3.331981598651653 0)
(10.26714952885551 6.036198934699424 0)
(12.02121968278958 7.596921018108208 0)
(0.2395705307024577 -0.1062390041050051 0)
(3.470315670588173 2.476002881297072 0)
(7.538077593936398 3.976215742197839 0)
(10.63465169103352 5.463993397558943 0)
(13.63848533511197 8.986472909545103 0)
(14.77053357226266 10.00814063433207 0)
(15.91944555223049 10.56578911013499 0)
(16.81353244765718 10.85599441407988 0)
(13.55815694478176 8.920994406214648 0)
(14.71380795746323 9.954787894684488 0)
(15.82396385074629 10.54167590808693 0)
(16.69640366072923 10.8814259004702 0)
(13.23585909995047 8.764170157423891 0)
(14.51737722705742 9.775726890396751 0)
(15.74209713431941 10.47463459579803 0)
(16.62307957279614 10.96198816680084 0)
(13.11736467424774 6.748236889768097 0)
(14.67200291634368 8.448597234463982 0)
(15.76612256112239 10.30181799749243 0)
(16.64566919051883 10.93922059103725 0)
(17.82792643788308 11.27568849443153 0)
(19.4233810231123 11.76985211733477 0)
(21.77504408228413 11.69321967651868 0)
(24.77797578278361 10.42095355770201 0)
(17.62278865777881 11.27977098680942 0)
(19.07492903207394 11.72985939338095 0)
(21.21153520170323 11.74952187420058 0)
(24.97582130498617 12.47346731618698 0)
(17.47371445872949 11.36886679992048 0)
(18.72298034961173 11.78346699433748 0)
(21.34547669094689 12.58553914746917 0)
(31.48514845330722 18.45883185268893 0)
(17.43736655598878 11.39313181629122 0)
(18.64012487186339 11.79211932622589 0)
(22.06807106522018 13.17484112546687 0)
(43.24393009280597 25.51572843633104 0)
(30.59387126335498 5.261200263783256 0)
(32.03809912290661 -3.582405041017607 0)
(12.65433123940505 8.691334888010568 0)
(7.857822336958621 30.84075481551853 0)
(32.23134316636106 4.900224000007499 0)
(26.46677952575628 -1.952378013926396 0)
(8.976542146814261 17.41679646541954 0)
(8.448255421510522 29.02677478282474 0)
(31.97400277095225 3.292516188556375 0)
(17.20844277922948 -4.302838425179963 0)
(3.82892855768196 21.3288400303674 0)
(4.611975901306963 29.02648426824281 0)
(20.30819253605185 -8.299024921304706 0)
(7.328046445385088 -0.5716180096242597 0)
(2.088293731061685 24.81801144839477 0)
(2.648150966129262 28.73386884463643 0)
(7.017759631964231 24.6205782966176 0)
(2.699446664096551 17.69688159019862 0)
(-0.7734508564050581 14.87145167213051 0)
(-2.833121613955584 9.937921127355301 0)
(6.712154926755089 23.5724644815311 0)
(1.914954948870523 19.24734197716601 0)
(-0.4568795021479971 14.9816391239258 0)
(-1.253603455194702 7.687142857528201 0)
(3.278172974352624 22.61470968158462 0)
(1.430364458325267 18.10662900151816 0)
(-0.3154357498556495 12.35856406254565 0)
(-0.8159265636491749 4.900414036799162 0)
(0.7861667503373361 22.03869502360063 0)
(-0.4547283596318764 17.36653985884066 0)
(-1.909240669847282 10.96800501461901 0)
(-1.738850794674654 3.285176609809641 0)
(-6.073763406664991 3.289712290342385 0)
(-2.01662849641582 0.2620950226296752 0)
(2.429078243149952 -2.420556824248258 0)
(4.457058298060065 -6.632223177034424 0)
(-6.812365378847285 3.051083199271286 0)
(-5.955650696220277 0.3486804509292447 0)
(-1.266650955822062 -0.7974186708902833 0)
(2.679210786110814 -5.575549428227967 0)
(-6.212828781121323 2.126666980555457 0)
(-7.806318015583329 0.6686779376597819 0)
(-4.517789118571887 0.3046278939471508 0)
(0.03256547665799964 -4.086243708708476 0)
(-4.585706704675673 2.184264955134435 0)
(-7.136574271046574 2.668522143825213 0)
(-5.229355570522845 3.072699755502614 0)
(-0.6497421888778022 -1.052239524903805 0)
(2.361431975173127 -6.93559074539358 0)
(2.293340888828935 -7.541109036023401 0)
(3.156967937937979 -7.215795025704577 0)
(4.46302503372819 -6.46921458579143 0)
(1.465798041953501 -6.803541467630448 0)
(1.926682409809156 -6.275281912914988 0)
(3.127077601612444 -5.840738747276847 0)
(3.899721165159284 -4.924446599772503 0)
(0.4567917935076293 -4.750827424338349 0)
(0.6585672690323056 -3.491354112103846 0)
(1.655399191549855 -3.003680159584728 0)
(2.137378926411762 -1.9236946489772 0)
(1.658982209865845 -1.986472454128934 0)
(1.311179532293753 -0.7525496757819299 0)
(1.877113663991354 -0.3122950989877369 0)
(1.653218085833291 0.6367325674225991 0)
(0.7800659614296834 1.147335509566295 0)
(-0.03301645495401227 1.284727039776917 0)
(-0.6587387361901398 0.9682918686578708 0)
(-0.9813337537552316 0.3366282945641357 0)
(1.587022463333879 -0.9804715572547147 0)
(0.5863227028277406 -0.4815467127942553 0)
(-0.2570371613741128 -0.05723929346924696 0)
(-0.6750798131061521 -0.02422828373487565 0)
(3.363784840116845 -3.806061957204019 0)
(2.444099230343246 -2.796912199239662 0)
(1.338077783783562 -1.704903439457557 0)
(0.6067574376884555 -0.6385297952741654 0)
(5.107055491256532 -4.816745130938348 0)
(4.969926131849085 -3.302446064801416 0)
(4.187952612752781 -2.02201354869647 0)
(3.720982196027786 -0.7293673193608208 0)
(-0.9813337537575255 -0.3366282945412525 0)
(-0.6750798131064667 0.02422828374466454 0)
(0.6067574376885044 0.6385297952685626 0)
(3.720982196029097 0.7293673193413245 0)
(-0.6587387361937713 -0.9682918686380219 0)
(-0.257037161374901 0.05723929347874283 0)
(1.338077783787771 1.704903439454793 0)
(4.187952612781927 2.022013548678197 0)
(-0.03301645495783538 -1.284727039763859 0)
(0.5863227028262092 0.4815467128013727 0)
(2.444099230344734 2.796912199240237 0)
(4.969926131868848 3.302446064801786 0)
(0.7800659614274397 -1.147335509556028 0)
(1.587022463336852 0.9804715572600783 0)
(3.363784840111894 3.806061957211047 0)
(5.107055491256429 4.816745130944141 0)
(4.463025033713919 6.469214585772106 0)
(3.156967937943579 7.215795025698798 0)
(2.293340888832146 7.541109036013711 0)
(2.3614319751888 6.935590745383311 0)
(3.899721165158645 4.924446599772364 0)
(3.127077601621234 5.840738747270568 0)
(1.926682409823873 6.275281912902497 0)
(1.465798041974973 6.803541467619524 0)
(2.137378926414519 1.923694648976596 0)
(1.655399191554708 3.003680159580014 0)
(0.6585672690427414 3.491354112101914 0)
(0.4567917935213011 4.750827424332363 0)
(1.653218085835961 -0.6367325674190809 0)
(1.877113663998989 0.3122950989920887 0)
(1.311179532303518 0.7525496757893914 0)
(1.658982209874428 1.986472454136833 0)
(-0.6497421888602155 1.052239524905842 0)
(-5.229355570487864 -3.072699755475461 0)
(-7.136574271009754 -2.668522143794303 0)
(-4.585706704648328 -2.184264955125996 0)
(0.03256547667331273 4.086243708706321 0)
(-4.51778911854541 -0.3046278939243744 0)
(-7.8063180155264 -0.6686779376424137 0)
(-6.212828781064466 -2.126666980527322 0)
(2.679210786124132 5.575549428219621 0)
(-1.266650955789284 0.7974186709140315 0)
(-5.955650696149477 -0.3486804509034466 0)
(-6.812365378798944 -3.051083199221277 0)
(4.45705829807266 6.632223177029573 0)
(2.429078243174306 2.420556824269673 0)
(-2.016628496328895 -0.2620950226086449 0)
(-6.073763406572819 -3.289712290276891 0)
(-2.833121613949795 -9.93792112724268 0)
(-0.7734508564631026 -14.87145167214142 0)
(2.699446664136104 -17.69688159046214 0)
(7.017759631699549 -24.62057829675784 0)
(-1.253603455190529 -7.687142857464515 0)
(-0.4568795021591298 -14.9816391239013 0)
(1.914954948959546 -19.24734197725319 0)
(6.712154926792242 -23.57246448154291 0)
(-0.8159265636508174 -4.900414036774731 0)
(-0.3154357498605697 -12.35856406253097 0)
(1.430364458349813 -18.106629001538 0)
(3.27817297437069 -22.61470968159695 0)
(-1.738850794669684 -3.285176609817561 0)
(-1.90924066985197 -10.96800501462891 0)
(-0.4547283596334317 -17.36653985885082 0)
(0.7861667503481111 -22.03869502363533 0)
(7.857822336602087 -30.84075481556933 0)
(12.65433123914379 -8.691334888320947 0)
(32.03809912282728 3.582405041062202 0)
(30.59387126332354 -5.2612002637639 0)
(8.448255421374029 -29.02677478287377 0)
(8.976542146757497 -17.41679646561457 0)
(26.4667795257471 1.952378013897954 0)
(32.23134316633725 -4.900223999984913 0)
(4.611975901324801 -29.02648426832646 0)
(3.828928557627294 -21.32884003047698 0)
(17.20844277921061 4.302838425130457 0)
(31.97400277091046 -3.292516188547081 0)
(2.648150966134256 -28.73386884469915 0)
(2.088293731039305 -24.81801144851358 0)
(7.328046445407898 0.5716180095599797 0)
(20.30819253607994 8.299024921292567 0)
(24.77797578277224 -10.42095355768172 0)
(21.77504408228495 -11.69321967649965 0)
(19.42338102314827 -11.76985211732967 0)
(17.82792643789 -11.27568849443376 0)
(24.97582130500162 -12.47346731618034 0)
(21.21153520170749 -11.74952187417944 0)
(19.0749290320757 -11.72985939336537 0)
(17.62278865781069 -11.27977098682206 0)
(31.4851484532886 -18.45883185266755 0)