/*--------------------------------*- C++ -*----------------------------------*\
  =========                 |
  \\      /  F ield         | OpenFOAM: The Open Source CFD Toolbox
   \\    /   O peration     | Website:  https://openfoam.org
    \\  /    A nd           | Version:  11
     \\/     M anipulation  |
\*---------------------------------------------------------------------------*/
FoamFile
{
    format      ascii;
    class       surfaceScalarField;
    location    "0.1325";
    object      phi;
}
// * * * * * * * * * * * * * * * * * * * * * * * * * * * * * * * * * * * * * //

dimensions      [0 3 -1 0 0 0 0];

internalField   nonuniform List<scalar> 
1652
(
2.843686947071611
0.8895636090847481
0
1.954123337988149
0.8895636090834615
-2.220446049250313e-16
1.064559728909996
0.8895636090026664
-8.393286066166183e-14
0.8895541218951628
1.503952518078222e-11
0.1749975535451235
2.843686947076741
1.779127218162428
1.954123337998014
1.779127218162188
1.064559728961974
1.779127217619943
1.779060923796291
0.175015524929809
2.843686947090741
2.668690827246526
1.954123338008367
2.668690827244562
1.064559729462893
2.668690822759085
2.668295727986239
0.1750798600035785
2.843686947092868
3.558254436328659
1.954123338013008
3.558254436324421
1.064559740223152
3.558254347960241
3.556795952826682
0.1752161694218478
4.418652025448567
2.872852967045247
5.27904961457045
2.872852967043177
6.139447203694609
2.872852967042488
2.872852967041791
6.999844793016909
4.418652025437513
2.012455377932159
5.279049614550987
2.012455377929711
6.139447203662978
2.012455377929211
2.012455377926332
6.999844792776695
4.418652161678
1.152058561628242
5.279050980477263
1.152055020086812
6.138680543130332
1.152126594279057
1.152321052282974
6.998504082294731
4.438845793377315
0.2489989222284382
5.424769605638103
0.1103741080175986
6.457777762462916
0.04765216247644999
7.501657699720438
0.03046526095707514
6.94151276657964
0.05833185290787335
6.883177167792526
0.05833194785106033
6.824847234527884
0.05832162025480181
0.05832406822115632
6.766515301085589
6.941521027467796
0.1166459140977307
6.883230980424594
0.1166014559995157
6.824965386803983
0.1165049858303963
0.1164892462227222
6.766699985840873
6.946255791668929
0.1666621096087831
6.896603422608329
0.162455042704943
6.847752826662537
0.1589594622960721
0.154096434827722
6.797509084654427
7.574647638894714
0.02132650323927249
7.638381418495804
0.01485917853910651
7.695208375910076
0.01416970405171231
7.75989693128087
0.0009021749239179755
7.814028224534351
0.04563803733273802
-0.179843963528756
7.699299856454024
0.1013393410401229
-0.05655983902404577
7.583033026657093
0.083507240989104
-0.01407256154504405
0.06465720209448084
7.473078211542742
-0.008996669035777727
6.820194189721435
0.0004995322223219079
6.869681202458281
0.001850962943353518
6.894704140649372
0.003490321227447857
0.003764636006082234
6.895622221939684
6.766889793870123
2.327037968219425e-05
6.767535432471229
7.162793613191276e-05
6.768621336274267
0.0001713064660388008
0.0002241697962429567
6.769057903372357
6.766516485248592
6.766518292037429
6.766514591396909
6.766505463769707
6.766496970819264
-0.0002113651865965904
6.766495776649637
-0.0001668094730084002
6.766504146781988
-9.173124493022655e-05
-2.813974869830815e-05
6.766513537647363
6.76900484445321
-0.00339809605430863
6.768424547419533
-0.002638929613823504
6.767442079668228
-0.001622929815538909
-0.0006347037913916331
6.766711440496711
6.880915827665038
-0.04700639268229162
6.855175414033408
-0.03339986602338668
6.821943802918326
-0.02330877137280751
-0.015531879123374
6.788739162332816
7.35040323765076
-0.005785558660871215
7.223450249075119
-0.003668182806120246
7.098206202228198
-0.003451315644027009
6.978124400996328
-0.00341115417655935
0.006052167503387829
6.871584843167589
-0.001008906216934002
0.0001089229009058057
6.770623351342656
3.686281793258139e-06
6.766529930989638
6.766516433090159
0.001438110774793944
6.796938427379808
-0.002528534071263522
9.531606728119257e-06
6.766814249510996
2.871411161065041e-07
6.76651656753933
6.766516610190902
8.156237985529335e-05
6.776721966988436
-0.0006435874443069256
-4.884859716725032e-08
6.766578371827465
-1.825862006032963e-07
6.766515104100796
6.766516637081218
0.001845582728210615
6.862615994853221
-0.1442074332002748
8.780466572599899e-06
6.767249827903774
-8.504151753907507e-07
6.766512926364941
6.766513318497932
0.1555535523756277
6.61096140682454
0.3110807457641937
6.610982084996111
0.4564031986094741
6.617451393432499
6.955078643769937
0.126582275947674
0.1555485723890405
6.455410361343916
0.3109216019322577
6.45546533719972
0.4348021092381114
6.471683760454874
6.8967537699313
0.1472713618616991
0.1555279420245218
6.299867337701292
0.3105737618215045
6.300100335291827
0.406290677065391
6.330014687103271
6.767366227099589
0.09857412756885087
0.1554813299605934
6.144321305128726
0.3099208669637033
6.144706982003574
0.3720656492392768
6.190755885724402
6.571181430595384
0.06845601333866258
-0.3248637725675065
6.393045778723346
0.02279317989801755
-0.3088196339029675
6.057818131242086
-0.1554115569970713
5.989693072460788
5.988787547934694
-0.2785295045947865
6.234320116740256
0.007543288027993089
-0.307195736179112
5.928559492036961
-0.1552717809793186
5.834450646693774
5.833249600395036
-0.2272219527207719
6.049692822165928
-0.003591904326690432
-0.3053134663777961
5.784698543688954
-0.1552010932315312
5.679380249421625
5.677716950006882
-0.1730572967032218
5.776063229344302
0.003057506823248568
-0.3026296997152471
5.64259075429032
-0.1549384737205675
5.524514570692819
5.522212349641817
0.1985615632354809
5.32293266345991
0.3868819291353239
5.32524731189254
0.2165798699921578
5.436320339364012
5.443028774592769
0.0315126961454022
0.1980555836101868
5.123753516381309
0.3808488598323239
5.126933556122403
0.1698645855137568
5.23439099400688
5.111848629148406
0.0736662513725006
0.1975781689549804
4.923782265827152
0.3779961179417927
4.927275557698558
0.2504915782420829
5.014041461094234
4.918790369938894
0.1883460814142891
0.1983442572976455
4.7257053293161
0.3858008634797719
4.729213352220783
0.3839885010321592
4.788469415692151
4.768061211825347
0.3714882779201647
-0.3388480992910707
5.061222157196525
-0.7173714885513937
5.073070514731667
-1.270332805930795
5.171548731113912
4.880998473458972
-1.435603833765436
-0.3400605511457322
5.396409185064172
-0.7192007900572177
5.417559415567741
-1.042333399790774
5.454488522432495
4.363519897461864
-0.4511983992166773
-0.3376245379671393
5.73160803219614
-0.6747219699776728
5.740171774692953
-0.9376950407119421
5.727295659027352
3.756517392181704
-0.05865843104557887
-0.3353385164420815
6.066696719971739
-0.6642533169108368
6.06571010226429
-0.7956370930796332
5.917170823611657
3.38233161152337
-0.03782714908859199
0.3452998085759298
3.268550269198445
-0.01370690236296799
0.3398798459398509
5.992524143848184
0.1748332658077966
6.236437082319585
6.241574538509988
0.3158597452189868
3.151230871587921
-0.006193996041628472
0.3375994835360207
6.067891507269882
0.1748232267449411
6.408641558778082
6.416493703719421
0.3195925884418317
3.019145731089547
2.913084469748084e-05
0.3383084207319911
6.191504782602379
0.1748775485585683
6.583291432644635
6.591490876592948
0.3018971275603544
2.852818185881072
0.01190852455565868
0.3375059316960551
6.313384180288234
0.1748815212065784
6.758776312284693
6.766491825602429
-0.1684689427667763
3.29556016830644
0.07555627481590546
-0.01062517762973814
6.494742522336445
-9.458290270769609e-05
6.764107393172177
6.76651022889421
-0.1113635568398359
3.914973552353474
0.102303624967451
-0.004013899071112048
6.641824149602444
-2.620895880811602e-05
6.765871324913723
6.766515290997606
-0.07362712078839373
4.622913280821206
0.1158511536006393
-0.001630716457902581
6.726920449279596
-8.872112315483349e-06
6.766472549471934
6.766516518388388
-0.0480390473382919
0.1130546027378778
5.268880366451813
-0.0007081206820693797
6.731999238328326
-3.545642886848555e-06
6.76617025182988
6.766516538924328
1.020559962376893
-0.9219096127604693
-0.01437003835242003
-5.963096683103686e-11
1.977309693164966
-0.8681458315129813
-3.665512338102417e-12
2.858167310844911
-0.8746920895399439
3.703970463675432e-11
-0.87497766799481
-3.672440129776078e-11
1.028944727364651
-1.8003131464482
-0.01691488950707441
1.97758969360289
-1.73540534126507
2.858167760148932
-1.749348916058109
-1.74995504426091
1.025539143814002
-2.57779797265466
-0.02974052269935341
1.977710714708891
-2.608164079868312
2.85816770911112
-2.624147810056622
-2.624932820818217
1.028582316489937
-0.04890391892663674
-3.327833357914456
1.978451880692965
-3.486311947967111
2.858177152401395
-3.499396652450484
-3.499916136380629
-0.04803904733767728
-4.622913280832386
0.1130546027368418
5.268880366461351
-0.0007081206927259664
-6.726920449289445
6.731999238332152
-3.545688183059781e-06
-6.766472549492862
6.766170251854112
-6.766516518436253
6.766516539013438
-0.07362712079342804
-3.914973552376997
0.1158511536029264
-0.001630716467500903
-6.641824149626961
-8.872094615641757e-06
-6.765871324938776
-6.766515290961151
-0.1113635568592379
-3.295560168302285
0.1023036249662707
-0.004013899094354567
-6.494742522328076
-2.620896156080299e-05
-6.764107393181604
-6.766510228902753
-0.1684689427601997
-2.852818185864653
0.07555627481314832
-0.01062517761678827
-6.313384180274308
-9.458289888586435e-05
-6.75877631226866
-6.766491825602654
-0.1748332658067531
6.241574538539447
-6.066696720022289
-0.3398798459286541
6.236437082373392
-6.065710102301653
-0.3452998085690859
5.992524143804459
-5.917170823552405
3.268550269158476
-3.38233161147922
-0.01370690236298299
-0.1748232267209873
6.416493703738869
-0.337599483514032
6.408641558812437
-0.3158597452153112
6.067891507255849
3.151230871560011
-0.006193996041039665
-0.1748775485492986
6.591490876601831
-0.3383084207112792
6.583291432652157
-0.3195925884350209
6.191504782597749
3.019145731073567
2.91308453053557e-05
-0.1748815211948493
-0.3375059316712786
-0.3018971275500117
0.01190852455431126
0.7956370930820831
-3.756517392142864
-0.03782714908880928
0.6642533169447664
-5.727295658997411
0.3353385164697434
-5.740171774732038
-5.731608032213352
0.9376950407178022
-4.363519897434141
-0.05865843104411347
0.6747219699987153
-5.45448852241417
0.3376245379743824
-5.417559415617293
-5.39640918511386
1.042333399801855
-4.880998473449488
-0.4511983992145841
0.719200790079487
-5.171548731110978
0.3400605511463882
-5.073070514770682
-5.061222157175384
1.270332805944729
-4.768061211824063
-1.435603833769134
0.7173714885724647
-4.788469415694148
0.3388480992905403
-4.729213352222431
-4.725705329293176
0.1985615632422202
5.322932663474512
-5.522212349668556
0.3868819291623576
5.32524731187468
-5.524514570789387
0.216579870002882
5.436320339335208
-5.642590754165151
5.443028774578424
-5.776063229279594
0.03151269614828678
0.1980555836059272
5.123753516404177
0.3808488598294048
5.126933556099774
0.1698645855273347
5.234390993973776
5.11184862914554
0.07366625137329885
0.1975781689619363
4.923782265994164
0.3779961179597029
4.927275557691558
0.2504915782452507
5.01404146107959
4.91879036993684
0.1883460814139024
0.1983442573097212
0.3858008635004322
0.3839885010349553
0.3714882779194144
-0.1730572966549574
-6.049692822137628
0.003057506829709289
-0.3026296996842869
-5.78469854362026
-0.1549384737038743
-5.679380249385873
-5.677716950027705
-0.2272219527328068
-6.234320116765606
-0.003591904329339202
-0.3053134663716789
-5.928559492169674
-0.1552010932298009
-5.834450646825741
-5.833249600408703
-0.2785295046117839
-6.393045778734943
0.007543288031851669
-0.3071957361547956
-6.057818131232275
-0.1552717809634596
-5.989693072540288
-5.988787547943361
-0.3248637725310988
-6.571181430577216
0.0227931799078207
-0.30881963389502
-6.190755885649184
-0.1554115569914838
-6.144706982020029
-6.144321305139088
0.155553552379848
6.610961406858909
-6.766513318532791
0.3110807457664231
6.610982085031993
-6.766512926354176
0.4564031986179271
6.617451393445157
-6.767249827911757
6.955078643782887
-6.86261599486336
0.1265822759437952
0.1555485723906908
6.455410361334943
0.3109216019339671
6.455465337202863
0.4348021092276109
6.471683760461747
6.896753769965078
0.1472713618754969
0.1555279420294933
6.299867337697803
0.3105737618305883
6.3001003352859
0.4062906770748996
6.330014687130589
6.767366227085724
0.09857412756894579
0.1554813299517316
0.30992086694443
0.372065649233116
0.06845601333632412
-6.766516637091568
8.504208831583426e-07
-6.766516610194683
1.825859270443431e-07
-6.766516433088186
-2.871412871918722e-07
-3.686277700754026e-06
-6.766513537639956
-6.766515104066622
-8.780464658797449e-06
-6.766516567544912
4.884588522546807e-08
-6.766529931003497
-9.531604796553239e-06
-0.0001089228976264289
-6.766711440499916
-6.766578371832912
-0.001845582728589479
-6.766814249512308
-8.15623782247088e-05
-6.770623351335879
-0.001438110774537926
-0.006052167507924644
-6.788739162312462
-6.776721966986257
-0.1442074331963937
-6.796938427354772
-0.0006435874461026003
-6.871584843167432
-0.002528534073274247
-6.978124400995795
-0.001008906212382421
-2.813975369109212e-05
-6.76650414678388
-0.0006347037977351144
-6.767442079662478
-0.0155318791218661
-6.821943802932822
-7.098206202238708
-0.00341115417412069
-9.173124489925133e-05
-6.76649577664618
-0.001622929816799346
-6.768424547420678
-0.02330877135785553
-6.855175414032698
-7.223450249080071
-0.003451315640496722
-0.0001668094728972669
-6.766496970827945
-0.002638929614360297
-6.769004844447009
-0.03339986602671935
-6.880915827678993
-7.350403237654856
-0.00366818280664849
-0.0002113651898113522
-6.766505463767844
-0.003398096063903733
-6.769057903383839
-0.04700639267446277
-6.895622221960642
-7.473078211546799
-0.005785558659590961
-2.327039239080619e-05
6.766516485240282
-6.766515301075313
-0.0004995322384234724
6.766889793853031
-6.766699985821456
-0.0456380373536065
6.820194189636756
-6.797509084586465
7.814028224561233
-7.759896931333242
-0.1798439635297843
-7.162793976045467e-05
6.766518292035886
-0.001850962946724599
6.767535432471703
-0.101339341047569
6.869681202437733
7.699299856472285
-0.05655983902887235
-0.0001713064666095665
6.76651459139365
-0.003490321229328575
6.768621336284763
-0.08350724099949747
6.894704140669444
7.583033026667223
-0.01407256154688524
-0.0002241698027123373
-0.003764636016927003
-0.06465720209923509
-0.008996669037901639
-0.1540964348365785
-7.695208375957161
0.0009021749291165948
-0.1164892462380285
-6.847752826700807
-0.05832406822035385
-6.824965386800828
-6.824847234523009
-0.1589594623189927
-7.638381418535729
0.01416970404925122
-0.1165049858465783
-6.89660342284296
-0.0583216202650404
-6.88323098041557
-6.883177167598356
-0.1624550427410461
-7.574647638891298
0.0148591785490898
-0.1166014560203764
-6.946255791884976
-0.05833194784271178
-6.941521027481289
-6.941512766571719
-0.1666621096056813
-7.501657699664772
0.02132650323713764
-0.116645914120988
-6.998504082343275
-0.05833185291410514
-6.999844792819816
-6.999844793012795
-1.152321052212488
-6.45777776243267
0.03046526096490043
-2.01245537791109
-6.138680542976232
-2.872852967041738
-6.139447203690931
-6.139447203691684
-1.15212659429758
-5.424769605610769
0.04765216249919524
-2.012455377916445
-5.279050980466933
-2.872852967042244
-5.279049614566454
-5.279049614567347
-1.152055020086604
-4.438845793378722
0.1103741080415422
-2.012455377921992
-4.418652161671574
-2.872852967044603
-4.418652025443836
-4.418652025446893
-1.152058561626022
-3.556795952763883
0.248998922159722
-2.012455377927508
-3.55825434796329
-2.872852967046921
-3.558254436324422
-3.558254436328661
2.843686947076677
0.8895636090796828
1.954123337995112
0.889563609081564
1.064559728915872
0.8895636090037291
0.8895541218603153
0.1749975535020907
2.843686947077599
1.7791272181565
1.954123337999196
1.77912721815997
1.064559728963148
1.779127217622506
1.779060923810905
0.1750155247142773
2.843686947089469
2.668690827241873
1.95412333800662
2.668690827242819
1.064559729461033
2.66869082276829
2.668295727919952
0.1750798598985619
2.843686947088214
1.954123338006611
1.064559740216246
0.1752161693860503
0.1749966639985965
0.1749966639073761
0.1749929457063026
0.1750134512527203
0.1750027916292477
0.1750533326992704
0.1752190104613634
0.174925634431478
0.1750134515341768
0.1749929455446941
0.1750093885480499
0.1750093882871669
0.1749909930424705
0.1750387897577406
0.1744847274733014
0.175538344089528
0.1750533326526345
0.1750027915059389
0.1750387895533749
0.174990992843807
0.1749849425290554
0.1749849429917668
0.1719179980790121
0.1769694366587494
0.1752190105561207
0.1749256343344317
0.174484727482323
0.1755383440520549
0.1719179981065362
0.176969436932508
0.1715317146838738
0.1715317148241493
-0.07296786045421555
0.2431563939192805
-0.1355256420348783
0.2376869886570344
-0.2018135259936732
0.239865445619856
0.2204037226233004
-0.01377792400148525
0.2557364797298832
-0.03326201694375519
0.2559111861907776
-0.06205982931904352
0.266666078555696
0.2661480346240582
-0.007083205483961685
0.2612276666642421
-0.02006138181425188
0.2669420441778286
-0.03181843972704712
0.2765541688787866
0.2799979925581482
-0.005263944409752419
0.2653315231344172
-0.01529086480384978
0.2763204297824999
-0.02287058691206434
0.2833882159318997
0.2859786620860725
0.2884824152385995
0.01783670814829297
0.2902462185960573
0.01268816614495616
0.2928427738609328
0.01156261863842362
0.0005064083425982413
0.2942529167329206
0.2884784957391007
0.01169215535715989
0.2913647139825207
0.009872902664617544
0.2952646119043771
0.008463105353153588
-0.005305357967815616
0.3029200277559346
0.2850693936474939
0.001977049875658499
0.2906075485122245
0.004192986266316978
0.2955209561770271
0.004340539676382871
-0.03060207423192673
0.3227555455077888
0.2664278728790912
0.27050920358404
0.2753701330272427
0.2483610938729255
0.2726206761667938
-0.1570363735779556
0.2473736779802579
-0.02741600949070405
0.2419658354597516
-0.004695407875122015
-0.006622892305567007
0.2437949749645612
0.2664283383512647
-0.1196414930661863
0.2486582400947339
-0.005926158298167894
0.2468924987967931
0.0005521496880011023
-0.004069204213577704
0.248567716474269
0.272318076523084
-0.06770096019064198
0.2573232122425331
0.01017183639471098
0.2540305848631717
0.007754217742011293
0.001910362827621026
0.2522962797735279
0.1814489482902654
0.1914232373837363
0.2027287767028006
0.2089825394761442
0.2443946669095861
-0.004506302045167443
0.2437123002088898
-0.002029445012571351
0.2420401106217528
-0.001775795205294528
-0.001821743140955068
0.2408936317907243
0.2475982212890145
-0.001150631296328086
0.2452081557090854
0.001532464761635266
0.2432959103836039
0.001129775293287505
0.0003963088011256222
0.2424047666181652
0.2496166474393587
0.003926564284944589
0.2468149605737516
0.005586516415909348
0.2450738643166799
0.004678917566586005
0.002846349634599232
0.2440633057871666
0.2154341356384758
0.222103692403983
0.2282846333517381
0.2334222995474084
0.2399304524516193
-0.000688735496461812
0.2365936449779302
-0.001383078109568392
0.2347559584481062
-0.0006261752624978079
-0.1629916149877898
0.2451239571261067
0.2407360152857237
0.0002592258782722068
0.2372305024020707
0.000241409016262184
0.2354254871077031
-0.001208187481209599
-0.1528083427848868
0.2151527832634758
0.2419938580288532
0.001736813675216442
0.2383559874094919
0.001953645045154773
0.2351668403594074
-0.001436515661849658
-0.1019767906013919
0.1743669851111053
0.2344025839660132
0.2341228562274608
0.2284021586144153
0.1162257557218759
0.2683230088583295
0.09364418625076421
0.2721825113421241
0.1354358651815303
0.2763615501797044
0.08618115052213726
0.05692978085075706
0.2786916262415496
0.2450070042198277
0.05757149660870542
0.2677176062850938
0.1079203971780736
0.2770524072987373
0.07190698241066329
0.04536639926168395
0.2815703060347496
0.1991205361441716
0.02692493902387438
0.2416938120705443
0.05924282731543118
0.2696867952468086
0.04076284042831124
0.02855950454344225
0.2807394092288924
0.1391669475441277
0.1940588607957966
0.2316438770046851
0.2547988689242651
0.2779599893843121
0.0184295591289092
0.281772360561055
0.004383311056897155
0.288211832771771
-0.00473770804026874
0.0007467007442084617
0.2972933577608625
0.2814904109230607
0.01514712444853183
0.2843927479422296
0.003924708818908162
0.289514532182891
-0.003433372081679154
-0.001054692340938801
0.2990766189557963
0.2819806215678864
0.01117180519489269
0.2860822773078255
0.003191333885374958
0.291729854353927
-0.001472505056519302
-0.000291454744166364
0.3008877098571006
0.2626497117639805
0.2690589580672157
0.2750640761294607
0.2852961937202229
0.3086579539909056
0.02432230719191164
0.3258041213667888
0.05898167847992908
0.359268776061024
0.1548104330397665
0.3046254367063663
0.4268549990460905
0.3124530596692868
0.0160900568951643
0.3288590440173973
0.04452551314471109
0.3584588799848194
0.126409136105467
0.1999175460427313
0.4635177743453311
0.3129847172879618
0.01097237934871975
0.3301387595218689
0.03052180233109181
0.3687071845735524
0.09001793696994942
0.04755109503666943
0.5246888935852704
0.3032228499341175
0.3375379332991323
0.4304513866761923
0.4825756794940544
0.2198459714182186
-1.221018631911114
0.02325242207331295
-0.2508839026626368
0.003201508149165813
-0.03195851225220689
-0.02701574640189636
0.0002333809861337199
0.1540250720668632
-0.9072074279140313
0.0124022358528731
-0.1069655853021245
0.002574866074299624
-0.01613354672554074
-0.01503250067900699
-0.002317141413925281
0.07664730703861122
-0.4566322213758972
0.004615159408759992
-0.03293774898299172
-0.001709721958493888
-0.004598864457765743
-0.007222473558040871
-0.002290405582457687
0.02814224108976887
-0.002173898886757468
-0.001031541477506226
-0.001435591339962764
0.00176140994355597
-0.01139667108173864
0.001344114015831043
-0.003276978671624582
-0.0005286631530576034
0.002907018222290614
0.006760478885768167
0.004266822110899477
-0.002232552903917785
-0.007895115775627327
-0.0031443927376993
-0.0008286872989717448
-0.003519702505386925
0.002199787960196542
0.004950827684082081
-0.004554360756203212
-0.00298920212871622
-0.003815274811073195
-0.004245239383652318
-9.941068922780794e-05
-0.005709344441289954
0.001539409820484887
0.003927125257462437
-0.008572870332447923
-0.002023866016357902
-0.005836255709804948
-0.008607506063600178
-0.008767450329080891
0.04832887810560767
0.03475702884000939
0.09302860471878825
0.06914466819097075
0.1351932336990861
0.09053390342792693
0.101906393848899
0.1692987638352498
0.022258308433028
0.01043151504072311
0.06589050170096968
0.03555845969138891
0.1110123399872998
0.06102479783094769
0.0793190866748259
0.1553159323568385
0.004238579504093155
-0.0002945367125187365
0.03962973485535452
0.009313842126832811
0.08559283005244558
0.03084418096198824
0.05190530238734833
0.1342660351229591
-0.00892617564631442
0.006917456778523581
0.05033134336335884
0.1167670991371523
0.1354171594938118
-0.1557577264377586
0.2035288175138921
0.1044156045069257
-0.1073152710670063
0.1514041052540807
0.08165053257571966
-0.07431694870681173
0.09081822642347837
-0.06837920450385807
0.0543260277413169
0.09355510774589666
0.1193088371186299
-0.1102348447581613
0.09155943584848808
-0.06756464927445699
0.05470231200591803
-0.05360685268729939
-0.03505674210636497
0.01607692830939466
0.09689660640915324
-0.06579907109678801
0.05524343044504496
-0.03261729245244081
0.01183279566130704
-0.02402836118631759
-0.01030530814606473
-0.01134084173164948
0.05339403412118654
0.003122509658970485
-0.02199835263469131
-0.02907693193575555
-0.02294565026936534
0.001698050222529026
-0.01438414924445969
-0.002529137319901439
-0.00753981725126043
-0.004752240133720987
-0.006136211991895938
-2.416122857340497e-14
-0.0114013202833757
0.009527082208145446
-0.008347997454291243
-0.0006583091533497194
-0.004008539505001289
-0.007038848387840349
-0.009306119525988202
5.095229793639078e-14
0.0088280237314061
0.02628845622430854
0.004464973590288641
0.009979493628344839
0.001640346620208011
-0.0003244643771175386
-0.003318951850303852
1.06283037926147e-13
0.03417059358496645
0.01870467184831405
0.008612866528717809
3.408245907721152e-13
-0.006136211991913434
0.007539817251213891
-0.009306119525994598
0.004008539505063316
-0.00331895185033006
-0.001640346619953797
-0.008612866527777797
0.01437003835220616
-0.004752240133729166
0.01438414924444566
-0.007038848387848127
0.008347997454293342
-0.0003244643771225207
-0.00446497358994092
-0.01870467184741075
0.01691488950728638
-0.002529137319933164
0.02294565026933021
-0.0006583091533646328
0.01140132028340724
0.009979493628304715
-0.008828023731128232
-0.03417059358401727
0.02974052269926823
0.001698050222503529
0.0290769319357665
0.00952708220811424
0.01134084173173469
0.02628845622422898
-0.01607692830916906
-0.05432602774070007
0.04890391892651507
-0.08165053257539215
-0.06837920450372353
0.09355510774599396
-0.1044156045065367
-0.07431694870676843
0.09081822642352656
-0.13541715949337
-0.1073152710669371
0.1514041052539757
-0.1557577264375816
-0.1692987638350001
0.2035288175137452
-0.05470231200561047
-0.0350567421062526
-0.09155943584819258
-0.05360685268727311
-0.1193088371183493
-0.06756464927433872
-0.1102348447580518
-0.1553159323566404
-0.0118327956611568
-0.01030530814603183
-0.0552434304448558
-0.02402836118627146
-0.09689660640898992
-0.03261729245240765
-0.06579907109670853
-0.1342660351227376
0.02199835263479627
-0.003122509658790219
-0.05339403412100861
-0.1167670991368983
-0.05033134336310325
-0.05190530238725749
-0.006917456778200756
-0.03084418096196521
0.008926175646203523
-0.009313842126297489
0.0002945367125995191
0.008767450328869296
-0.08559283005234802
-0.07931908667456658
-0.03962973485457956
-0.06102479783154592
-0.004238579503728669
-0.03555845969024292
-0.01043151504001254
0.008572870332223214
-0.1110123399874195
-0.1019063938482112
-0.06589050170012879
-0.09053390342967683
-0.02225830843212873
-0.06914466818958369
-0.03475702883813597
0.004554360756018967
-0.135193233698969
-0.09302860471812707
-0.04832887810455669
-0.004266822110556796
0.000528663152636475
0.006760478885104976
-0.00134411401568523
0.002907018222427872
-0.001761409943281724
-0.003276978671171216
-0.01139667108168609
-0.0002333809860096837
0.003519702505097413
0.004950827683670889
0.003144392737786642
0.002199787960151259
0.002232552904196859
-0.000828687298581654
-0.007895115775527393
0.002317141414165813
0.005709344441056039
0.003927125257314812
0.004245239383649384
0.001539409820441269
0.002989202129083896
-9.941068905377354e-05
-0.003815274810999789
0.002290405582745266
0.008607506063338585
0.00583625570973853
0.002023866016635003
0.001435591340177737
-0.003201508149272938
-0.02701574640211124
-0.02325242207245696
-0.03195851225165657
-0.219845971416492
-0.2508839026611844
-1.221018631913238
-0.426854999045243
-0.002574866074293089
-0.01503250067903533
-0.01240223585251392
-0.01613354672524374
-0.1540250720657696
-0.1069655853013493
-0.9072074279153974
-0.4635177743450343
0.001709721958503804
-0.007222473557961941
-0.004615159408576354
-0.004598864457620335
-0.07664730703791128
-0.03293774898268196
-0.4566322213766613
-0.5246888935854552
0.00103154147763858
0.00217389888680485
-0.02814224108952929
-0.4825756794947049
-0.3592687760599502
0.3046254367057798
-0.3258041213659346
0.1548104330394294
-0.3086579539907069
0.05898167848039226
0.02432230719469874
-0.2972933577602614
-0.3584588799846214
0.1999175460418424
-0.328859044017249
0.1264091361036351
-0.3124530596695383
0.04452551314548026
0.0160900568981337
-0.2990766189558336
-0.368707184574282
0.04755109503554411
-0.3301387595221314
0.09001793696799509
-0.3129847172884589
0.03052180233250668
0.01097237935061735
-0.3008877098572773
-0.4304513866780172
-0.3375379333024859
-0.3032228499367825
-0.2852961937219317
-0.2882118327728138
0.0007467007508614731
-0.2817723605630572
-0.004737708042863109
-0.2779599893852149
0.004383311059038886
0.01842955913830524
-0.2786916262396523
-0.2895145321840013
-0.001054692335093144
-0.2843927479448954
-0.003433372083399333
-0.2814904109251689
0.003924708820909895
0.01514712445686717
-0.2815703060337732
-0.2917298543552125
-0.000291454740447894
-0.2860822773106834
-0.001472505057714901
-0.2819806215703577
0.003191333887122227
0.01117180520190275
-0.2807394092285736
-0.2750640761310166
-0.2690589580716837
-0.262649711767214
-0.2547988689189281
-0.2763615501774943
0.05692978084963973
-0.2721825113439997
0.08618115052376396
-0.2683230088598075
0.1354358651973662
0.0936441862463
-0.2451239571273562
-0.2770524072962049
0.04536639926149189
-0.2677176062868325
0.07190698241383264
-0.2450070042164461
0.1079203971896016
0.05757149660482952
-0.2151527832635057
-0.2696867952440325
0.02855950454238487
-0.2416938120699177
0.04076284042975942
-0.1991205361386471
0.05924282732204889
0.02692493901764492
-0.174366985108419
-0.2316438769993637
-0.1940588607944859
-0.1391669475368685
-0.1162257557235529
-0.2347559584478481
-0.1629916149867958
-0.2365936449771113
-0.0006261752685652877
-0.2399304524524113
-0.001383078110686553
-0.0006887354914753008
-0.2408936317921133
-0.2354254871071955
-0.1528083427877932
-0.2372305024024237
-0.001208187492056589
-0.2407360152853776
0.0002414090174852057
0.0002592258823779225
-0.2424047666198385
-0.2351668403581823
-0.1019767906019663
-0.2383559874105168
-0.001436515669697824
-0.2419938580278541
0.001953645048672403
0.00173681367684847
-0.2440633057880212
-0.2284021586137482
-0.2341228562302441
-0.2344025839630995
-0.2334222995488217
-0.2420401106224672
-0.001821743138386789
-0.2437123002091003
-0.00177579520258736
-0.2443946669100183
-0.002029445013208675
-0.004506302044565091
-0.2437949749641167
-0.2432959103843813
0.0003963088013655969
-0.2452081557093733
0.001129775295317881
-0.2475982212892664
0.001532464760860108
-0.001150631296251203
-0.2485677164738409
-0.2450738643168609
0.002846349633231104
-0.2468149605738119
0.004678917567956575
-0.2496166474393634
0.00558651641550334
0.003926564284804479
-0.2522962797732655
-0.2282846333518211