/*--------------------------------*- C++ -*----------------------------------*\
  =========                 |
  \\      /  F ield         | OpenFOAM: The Open Source CFD Toolbox
   \\    /   O peration     | Website:  https://openfoam.org
    \\  /    A nd           | Version:  11
     \\/     M anipulation  |
\*---------------------------------------------------------------------------*/
FoamFile
{
    format      ascii;
    class       surfaceScalarField;
    location    "8.1";
    object      phi;
}
// * * * * * * * * * * * * * * * * * * * * * * * * * * * * * * * * * * * * * //

dimensions      [0 3 -1 0 0 0 0];

internalField   nonuniform List<scalar> 
10792
(
0.067395476
-0.041827108
-0.067768623
0.042200254
0.066848424
-0.03981261
0.040359662
0.066234173
-0.037410208
0.03802446
0.06563338
-0.035318651
0.035919443
0.064879455
-0.032754082
0.033508007
0.064137351
-0.030335917
0.031078021
0.06339268
-0.027991989
0.02873666
0.062596668
-0.025373445
0.026169457
0.061797328
-0.022854922
0.023654263
0.061022471
-0.020266246
0.021041102
0.060273315
-0.017612691
0.018361848
0.059615229
-0.015014256
0.015672342
0.058986578
-0.012300867
0.012929518
0.058385876
-0.0095492597
0.010149962
0.057812145
-0.0068047538
0.0073784854
0.057343735
-0.003942488
0.0044108987
0.057034263
-0.0012377766
0.0015472483
0.056839816
0.0016227458
-0.0014282978
0.0044965151
0.056579846
-0.0042365447
0.07141156
-0.041405046
-0.071833622
0.070855537
-0.039256586
0.070312777
-0.036867448
0.069606957
-0.034612831
0.068842155
-0.031989279
0.068195047
-0.029688809
0.067388322
-0.027185264
0.066612944
-0.024598067
0.065862449
-0.022104428
0.065092272
-0.019496068
0.064409818
-0.016930238
0.063750438
-0.014354875
0.063073209
-0.011623637
0.062480321
-0.0089563718
0.061971984
-0.0062964163
0.061561683
-0.0035321864
0.061185831
-0.00086192427
0.060892214
0.0019163629
0.0047101439
0.060678585
0.07611896
-0.041059787
-0.076464219
0.075572521
-0.038710147
0.074932138
-0.036227065
0.074222016
-0.033902709
0.073609808
-0.031377071
0.072869137
-0.028948138
0.072006683
-0.02632281
0.071298474
-0.023889857
0.070494129
-0.021300083
0.069748441
-0.01875038
0.069011025
-0.016192822
0.068257075
-0.013600925
0.067572796
-0.010939357
0.066982257
-0.0083658329
0.066439617
-0.0057537762
0.065986667
-0.0030792354
0.065614458
-0.00048971521
0.065279362
0.0022514585
0.0048699653
0.065119541
0.080672848
-0.040516558
-0.081216076
0.080039965
-0.038077265
0.079468217
-0.035655317
0.078785627
-0.03322012
0.078077685
-0.030669129
0.077287284
-0.028157737
0.076609569
-0.025645095
0.075902106
-0.023182394
0.075103059
-0.020501036
0.074372342
-0.018019663
0.073563303
-0.015383782
0.072883525
-0.012921147
0.072245248
-0.01030108
0.071692838
-0.0078134229
0.071167493
-0.0052284309
0.070756706
-0.0026684475
0.070389257
-0.00012226634
0.070090694
0.002550022
0.0050722542
0.069888405
0.085857677
-0.039925356
-0.086448879
0.085296645
-0.037516233
0.084724633
-0.035083304
0.08396977
-0.032465257
0.083275297
-0.029974656
0.082554014
-0.027436454
0.081850015
-0.024941096
0.080994572
-0.022326951
0.080222803
-0.019729266
0.079439258
-0.017236118
0.078686008
-0.014630532
0.07802499
-0.01226013
0.077364109
-0.0096401982
0.076797489
-0.0072468023
0.076235041
-0.0046659829
0.075791409
-0.0022248153
0.075314341
0.00035480217
0.075067976
0.0027963875
0.0053204553
0.074819775
0.09120458
-0.039286762
-0.091843174
0.090738331
-0.037049983
0.090024945
-0.034369918
0.089375301
-0.031815613
0.088708822
-0.029308176
0.08794431
-0.026671942
0.08721829
-0.024215075
0.086391525
-0.021500186
0.085742218
-0.01907996
0.084973353
-0.016467253
0.084330606
-0.013987784
0.083581456
-0.01151098
0.082915602
-0.0089743438
0.082309955
-0.0066411549
0.081713008
-0.0040690349
0.081269197
-0.0017810044
0.080881648
0.0007423516
0.08063876
0.0030392762
0.0055403259
0.080418889
0.097325145
-0.038703984
-0.097907924
0.096597571
-0.036322409
0.095811142
-0.033583489
0.095250819
-0.03125529
0.094523112
-0.028580469
0.09381572
-0.02596455
0.093020583
-0.023419938
0.09228152
-0.020761123
0.091565082
-0.018363521
0.090703298
-0.015605468
0.090003101
-0.013287587
0.089183175
-0.010691053
0.088591861
-0.0083830302
0.087935907
-0.0059851998
0.087501327
-0.0036344546
0.087025805
-0.0013054823
0.086670447
0.0010977099
0.086382901
0.0033268227
0.0057246755
0.086198551
0.10356579
-0.038051401
-0.10421837
0.10300867
-0.035765293
0.10234266
-0.032917479
0.10158878
-0.030501411
0.1007365
-0.027728189
0.10008529
-0.02531334
0.099295565
-0.022630211
0.09859822
-0.020063778
0.097801723
-0.017567024
0.097077975
-0.01488172
0.096376753
-0.012586365
0.095664923
-0.0099792232
0.095085271
-0.0078033773
0.094416877
-0.0053168055
0.09398194
-0.0031995176
0.09342561
-0.00074915207
0.093119354
0.0014039669
0.092725284
0.0037208925
0.0058720766
0.092577883
0.11029387
-0.037342956
-0.11100231
0.10950437
-0.03497579
0.10876084
-0.032173953
0.1080804
-0.029820971
0.10731825
-0.026966041
0.10657547
-0.024570553
0.10576824
-0.021822989
0.10506307
-0.019358605
0.10427233
-0.016776283
0.10362406
-0.014233447
0.10287109
-0.011833402
0.10220561
-0.0093137372
0.10154203
-0.0071398027
0.10090156
-0.0046763362
0.10041962
-0.0027175743
0.099893708
-0.000223239
0.09967087
0.0016268055
0.099378296
0.004013467
0.0059097413
0.099340632
0.11791638
-0.036753289
-0.11850605
0.1171293
-0.034188711
0.11642071
-0.031465364
0.11563331
-0.029033571
0.11491446
-0.026247192
0.1142458
-0.023901894
0.11343142
-0.021008602
0.11267441
-0.018601594
0.1118079
-0.015909778
0.11110094
-0.013526485
0.11028645
-0.011018911
0.10964799
-0.0086752745
0.1089355
-0.006427317
0.1083795
-0.0041203347
0.10779362
-0.002131692
0.1073522
0.00021817894
0.10695702
0.0020219874
0.10660678
0.0043637028
0.0060951376
0.10642139
0.12558354
-0.036017165
-0.12631966
0.12473883
-0.033344004
0.12394854
-0.03067507
0.12301123
-0.028096264
0.12221825
-0.025454209
0.12136082
-0.02304447
0.12062004
-0.020267814
0.11990795
-0.017889509
0.11910167
-0.015103498
0.1184048
-0.012829612
0.11759042
-0.010204533
0.11699922
-0.0080840752
0.11627125
-0.0056993481
0.11582236
-0.0036714398
0.1152128
-0.0015221283
0.11486875
0.00056222999
0.11446226
0.0024284707
0.11431307
0.0045128978
0.0062172793
0.11419093
0.13415623
-0.035174699
-0.13499869
0.13331773
-0.03250551
0.13263475
-0.029992081
0.13180115
-0.027262671
0.13105031
-0.02470337
0.13008946
-0.022083613
0.12937794
-0.019556301
0.12858566
-0.017097224
0.12787922
-0.014397056
0.12709421
-0.01204461
0.12635673
-0.0094670428
0.12568724
-0.0074145923
0.12496543
-0.0049775354
0.12443454
-0.00314055
0.12379685
-0.00088443881
0.12344737
0.00091170987
0.12290726
0.0029685837
0.12270978
0.004710382
0.0065212553
0.1224058
0.14289295
-0.034177758
-0.14388989
0.14196163
-0.031574187
0.14105627
-0.029086727
0.14022173
-0.026428132
0.13943853
-0.023920166
0.13852329
-0.02116837
0.13775432
-0.018787337
0.13687049
-0.016213388
0.13622162
-0.013748186
0.1354399
-0.01126289
0.13482238
-0.0088495228
0.1340684
-0.0066606089
0.13351148
-0.0044206163
0.13300201
-0.002631087
0.13257732
-0.00045974297
0.13228195
0.0012070747
0.13196633
0.0032842088
0.13186045
0.0048162658
0.0067336767
0.13164802
0.15321646
-0.033071795
-0.15432243
0.15224301
-0.030600738
0.15129032
-0.028134033
0.15042414
-0.025561951
0.14951292
-0.023008946
0.14863768
-0.020293131
0.14775294
-0.0179026
0.14685838
-0.01531882
0.14613463
-0.013024434
0.14538294
-0.0105112
0.14475238
-0.0082189624
0.14390748
-0.0058157142
0.14329576
-0.0038088937
0.14250666
-0.0018419854
0.14205578
-8.8659401e-06
0.14159121
0.0016716437
0.14139684
0.0034785847
0.14124335
0.0049697574
0.0067278962
0.14124913
0.16304394
-0.031903779
-0.16421196
0.16198777
-0.029544566
0.16089317
-0.027039428
0.15996552
-0.024634309
0.1590633
-0.02210672
0.15831516
-0.019544991
0.15747551
-0.017062951
0.15663852
-0.014481832
0.15586935
-0.012255258
0.15521603
-0.0098578866
0.15467634
-0.0076792731
0.15418889
-0.0053282613
0.15374078
-0.003360778
0.15310526
-0.0012064712
0.1526862
0.00041019102
0.15215703
0.0022008223
0.15197177
0.0036638374
0.15174494
0.0051965898
0.0065960521
0.15187679
0.17525635
-0.030662812
-0.17649731
0.17402348
-0.028311699
0.17289386
-0.025909808
0.17182221
-0.023562658
0.17084278
-0.021127293
0.16997851
-0.018680719
0.16903264
-0.016117079
0.16812408
-0.013573278
0.16712987
-0.011261043
0.16627343
-0.0090014488
0.16549615
-0.0069019936
0.16493954
-0.0047716475
0.16444085
-0.0028620887
0.16400088
-0.00076650448
0.16363841
0.00077266858
0.16327335
0.0025658789
0.1630768
0.0038603868
0.1629267
0.0053466948
0.0064803366
0.16304241
0.18675944
-0.029343626
-0.18807862
0.18542382
-0.026976081
0.18424007
-0.024726054
0.18307807
-0.022400661
0.18206556
-0.02011478
0.18115503
-0.017770191
0.18039434
-0.015356386
0.17973233
-0.012911274
0.17900229
-0.010531002
0.17828585
-0.0082850105
0.17752562
-0.006141759
0.17690268
-0.0041487068
0.17629462
-0.0022540333
0.17588481
-0.00035668675
0.17548232
0.0011751532
0.1752383
0.0028099059
0.17506426
0.0040344231
0.17503152
0.0053794366
0.0064089748
0.17510288
0.20071601
-0.027786309
-0.20227333
0.19925652
-0.025516594
0.19799155
-0.023461082
0.19670079
-0.021109905
0.19546787
-0.018881858
0.19422228
-0.016524603
0.19317593
-0.01431003
0.19222393
-0.011959277
0.19143831
-0.0097453772
0.1907279
-0.007574608
0.19005881
-0.0054726621
0.18945961
-0.0035495104
0.18891497
-0.001709394
0.18852551
3.2771548e-05
0.18816656
0.0015341048
0.18801137
0.0029650969
0.18790525
0.0041405506
0.1879848
0.0052998832
0.0063105825
0.18808319
0.21427539
-0.025998973
-0.21606273
0.21270304
-0.023944235
0.21126798
-0.022026028
0.20999744
-0.019839359
0.2089184
-0.017802823
0.20787117
-0.015477366
0.20684867
-0.013287538
0.20586508
-0.010975684
0.20503012
-0.0089104178
0.20428307
-0.0068275546
0.20366531
-0.0048549009
0.20310335
-0.0029875535
0.20263191
-0.0012379541
0.20228028
0.00038440292
0.20201556
0.0017988294
0.20187121
0.00310944
0.20182753
0.0041842372
0.20194352
0.0051838865
0.0061454895
0.20210862
0.23026008
-0.023831519
-0.23242753
0.22839744
-0.022081595
0.22662964
-0.020258236
0.22515046
-0.018360177
0.22377711
-0.016429473
0.2226622
-0.014362454
0.22164283
-0.012268171
0.22074921
-0.010082065
0.21991206
-0.0080732671
0.21912395
-0.0060394413
0.21846356
-0.004194511
0.21788934
-0.0024133369
0.21739501
-0.00074362412
0.21702384
0.00075558061
0.21680159
0.0020210739
0.2167234
0.0031876309
0.21676835
0.0041392868
0.21696042
0.0049918247
0.0057956568
0.21731025
0.24690211
-0.021594044
-0.24913958
0.24484023
-0.02001972
0.24293861
-0.018356613
0.24120461
-0.01662618
0.23960673
-0.014831592
0.23827257
-0.013028293
0.23710433
-0.011099929
0.23622839
-0.0092061285
0.23542084
-0.0072657144
0.234799
-0.0054176067
0.23418543
-0.0035809393
0.23367492
-0.0019028285
0.23331508
-0.00038378345
0.23305237
0.0010182946
0.23287187
0.0022015765
0.23284349
0.0032160069
0.23291853
0.0040642516
0.23312242
0.0047879331
0.0054332052
0.23348487
0.26522619
-0.018865197
-0.26795504
0.26276557
-0.0175591
0.26065544
-0.016246477
0.25881818
-0.014788922
0.25716876
-0.013182169
0.25565304
-0.011512576
0.25432282
-0.0097697086
0.25315986
-0.0080431688
0.25223496
-0.0063408122
0.25154037
-0.0047230156
0.25100187
-0.003042444
0.25060893
-0.0015098853
0.25025276
-2.7612968e-05
0.25010812
0.0011629345
0.25005077
0.0022589263
0.25018423
0.0030825508
0.25041336
0.0038351126
0.25083159
0.0043697071
0.004896857
0.25136794
0.28551487
-0.015776989
-0.28860308
0.28266811
-0.01471234
0.2800586
-0.013636969
0.2777934
-0.012523718
0.2758702
-0.011258966
0.27420436
-0.0098467399
0.27282702
-0.0083923677
0.27158963
-0.0068057812
0.27056981
-0.0053209936
0.26969907
-0.0038522704
0.26907918
-0.0024225533
0.26867735
-0.0011080538
0.26852329
0.00012644476
0.26845529
0.0012309287
0.26851168
0.0022025452
0.26871605
0.0028781738
0.26902887
0.0035222981
0.26948963
0.0039089399
0.0042572782
0.27012921
0.3069587
-0.012432185
-0.31030351
0.30383259
-0.011586233
0.30094149
-0.010745865
0.29823227
-0.0098144943
0.29589582
-0.0089225171
0.29393905
-0.0078899738
0.29233897
-0.006792287
0.29111816
-0.0055849719
0.29016104
-0.0043638758
0.28945723
-0.0031484594
0.28895917
-0.0019244894
0.28863556
-0.0007844409
0.28847196
0.00029004479
0.28855026
0.0011526304
0.28880577
0.0019470274
0.28916918
0.0025147685
0.28966582
0.0030256607
0.29025409
0.0033206701
0.0034955244
0.29101584
0.33069463
-0.0087122391
-0.33441457
0.32722316
-0.008114766
0.32403334
-0.0075560466
0.32108399
-0.0068651469
0.31840143
-0.0062399546
0.31603291
-0.0055214533
0.31399251
-0.0047518905
0.31233547
-0.0039279306
0.31103662
-0.0030650244
0.31009419
-0.0022060254
0.30952307
-0.0013533678
0.30929971
-0.00056108494
0.30941789
0.0001718651
0.30972915
0.0008413679
0.3102076
0.0014685821
0.3108324
0.0018899652
0.31151226
0.0023458034
0.31230944
0.0025234904
0.0025958846
0.31320908
0.35595089
-0.0045446518
-0.36011848
0.35211856
-0.0042824355
0.34853973
-0.0039772169
0.34530907
-0.0036344905
0.34235506
-0.0032859452
0.33973933
-0.0029057164
0.33747706
-0.0024896213
0.33562089
-0.0020717606
0.33417568
-0.001619817
0.33315058
-0.0011809199
0.3325467
-0.00074948857
0.33230769
-0.00032207541
0.33242836
5.1195477e-05
0.33291892
0.00035080314
0.33368552
0.00070199007
0.33465208
0.00092339822
0.33559196
0.0014059286
0.3367462
0.0013692518
0.0014563403
0.33788574
0.38397512
-0.38851977
0.37969268
0.37571547
0.37208097
0.36879503
0.36588931
0.36339969
0.36132793
0.35970811
0.3585272
0.35777771
0.35745563
0.35750683
0.35785763
0.35855962
0.35948302
0.36088895
0.3622582
0.36371454
0.056321709
0.0076041102
-0.0073459733
0.056130262
0.010347777
-0.01015633
0.056162697
0.013338098
-0.013370532
0.056292964
0.016050045
-0.016180313
0.056681326
0.018995818
-0.019384179
0.057178056
0.021756737
-0.022253466
0.057839762
0.024869866
-0.025531572
0.058562521
0.027611719
-0.028334478
0.059356693
0.030622807
-0.031416979
0.060202852
0.03324724
-0.0340934
0.061100073
0.036159592
-0.037056812
0.062022494
0.038714569
-0.03963699
0.062960504
0.041516899
-0.04245491
0.063975519
0.044137016
-0.045152031
0.064925476
0.046746015
-0.047695971
0.06571508
0.049344738
-0.050134342
0.066145681
0.051777001
-0.052207601
0.066328424
0.053919724
-0.054102467
0.056432146
0.065913119
-0.056016842
0.060407963
0.0078747327
0.060268551
0.010487189
0.060435334
0.013171316
0.060662681
0.015822699
0.061099225
0.018559274
0.061624981
0.021230981
0.062317354
0.024177493
0.06305269
0.026876383
0.063868508
0.029806989
0.064649741
0.032466008
0.065396859
0.035412475
0.066055071
0.038056358
0.06665888
0.04091309
0.067132056
0.043663841
0.067524974
0.046353097
0.067647765
0.049221947
0.067418672
0.052006094
0.066686776
0.05465162
0.057900595
0.065218327
0.064779441
0.0082148327
0.064671722
0.010594908
0.064782285
0.013060753
0.065019898
0.015585085
0.065442407
0.018136765
0.065955791
0.020717597
0.066628661
0.023504623
0.067372631
0.026132413
0.068205119
0.028974501
0.068988332
0.031682795
0.069708602
0.034692204
0.07027183
0.03749313
0.07063773
0.040547189
0.070812554
0.043489017
0.070691328
0.046474323
0.070187079
0.049726196
0.069354403
0.05283877
0.067669758
0.056336265
0.060036558
0.065533794
0.069532046
0.0085711921
0.06942538
0.010701575
0.0694793
0.013006834
0.069761197
0.015303189
0.070180514
0.017717448
0.070712921
0.02018519
0.071335585
0.022881959
0.072002979
0.02546502
0.072739511
0.028237969
0.07344068
0.030981627
0.074063205
0.03406968
0.074537128
0.037019207
0.074805071
0.040279247
0.074805253
0.043488835
0.07423421
0.047045365
0.073351287
0.050609119
0.071770013
0.054420044
0.069603818
0.05850246
0.062952645
0.066687731
0.074521783
0.0088691843
0.074377291
0.010846066
0.074451772
0.012932352
0.074705395
0.015049566
0.075124367
0.017298475
0.07564518
0.019664377
0.076292186
0.022234953
0.076924204
0.024833002
0.077545087
0.027617088
0.078057923
0.030468791
0.078551504
0.033576099
0.078848085
0.036722627
0.0789243
0.040203032
0.07863417
0.043778965
0.077923663
0.047755872
0.076921187
0.051611595
0.075181816
0.056159415
0.073153816
0.06053046
0.065973556
0.070132905
0.080145459
0.0091426147
0.079925374
0.011066152
0.080061069
0.012796658
0.08026034
0.014850295
0.080699176
0.016859639
0.081111181
0.019252372
0.08171787
0.021628264
0.082253332
0.024297539
0.082814568
0.027055853
0.083234552
0.030048809
0.083608979
0.033201673
0.083697533
0.036634073
0.0836628
0.040237765
0.083234382
0.044207383
0.082821208
0.048169046
0.081824169
0.052608635
0.08084605
0.057137534
0.07960209
0.06177442
0.067186493
0.078389154
0.085874752
0.0094664144
0.085705717
0.011235187
0.085885424
0.01261695
0.086119649
0.01461607
0.08659644
0.016382848
0.087046499
0.018802314
0.087673824
0.021000939
0.088203507
0.023767857
0.088712726
0.026546634
0.08910743
0.029654105
0.089373895
0.032935209
0.089481386
0.036526582
0.089561403
0.040157748
0.089405913
0.044362873
0.089506017
0.048068943
0.089239599
0.052875053
0.090030608
0.056346524
0.090664442
0.061140586
0.064353155
0.093497779
0.092110565
0.0099337331
0.092073604
0.011272148
0.092155789
0.012534765
0.092422262
0.014349597
0.09282202
0.01598309
0.093311716
0.018312618
0.093895398
0.020417258
0.094421855
0.0232414
0.094939882
0.026028608
0.095407054
0.029186934
0.09583814
0.032504123
0.096245836
0.036118887
0.096766319
0.039637265
0.097304603
0.043824589
0.098425727
0.046947819
0.10006432
0.051236455
0.10302641
0.053384438
0.10690363
0.057263369
0.057614585
0.1136422
0.098914043
0.010360322
0.099051365
0.011134826
0.099015799
0.012570331
0.099395617
0.013969779
0.09976477
0.015613938
0.10029726
0.017780128
0.10087885
0.019835673
0.10139879
0.022721461
0.1020251
0.025402299
0.10268929
0.028522742
0.10349654
0.031696877
0.10437016
0.035245266
0.10561141
0.038396013
0.10727758
0.042158419
0.10989403
0.044331369
0.11369533
0.047435149
0.11876461
0.048315166
0.12584379
0.050184182
0.048488185
0.13497019
0.10598987
0.010791839
0.1060434
0.0110813
0.10598977
0.012623957
0.10648321
0.013476342
0.10684253
0.015254621
0.10755908
0.017063575
0.10816852
0.01922623
0.10885867
0.022031315
0.10979415
0.024466821
0.11079445
0.027522443
0.11202099
0.03047034
0.11351232
0.033753934
0.11573873
0.0361696
0.11899703
0.038900124
0.12318721
0.040141189
0.12898032
0.041642038
0.13585465
0.041440829
0.14474957
0.041289263
0.038624233
0.15461353
0.11411582
0.010866947
0.11414426
0.011052855
0.11426413
0.012504087
0.11471024
0.013030235
0.11507811
0.01488675
0.11589255
0.016249137
0.11653751
0.018581269
0.11761395
0.020954881
0.11875884
0.023321925
0.12011056
0.026170724
0.12188027
0.02870063
0.12444416
0.031190052
0.12776135
0.032852402
0.13250909
0.034152384
0.1379383
0.034711977
0.14505065
0.03452969
0.15271347
0.03377801
0.16175014
0.032252591
0.029790442
0.17058393
0.12234462
0.010928133
0.12223724
0.011160228
0.1226112
0.012130134
0.12299517
0.012646264
0.12356924
0.014312674
0.12439407
0.015424308
0.1252878
0.017687544
0.12669422
0.019548461
0.12807422
0.02194192
0.13017581
0.024069144
0.13271965
0.026156791
0.13648243
0.027427271
0.14068028
0.028654544
0.14646409
0.028368582
0.15256366
0.028612401
0.1601236
0.026969752
0.1675388
0.026362812
0.17557603
0.02421536
0.023003883
0.18236259
0.13167011
0.010906044
0.13143868
0.011391658
0.13200852
0.011560296
0.13234216
0.012312628
0.13320819
0.013446646
0.13414371
0.014488787
0.1354124
0.016418858
0.13702074
0.01794012
0.13891013
0.020052524
0.14170305
0.021276222
0.14494346
0.022916389
0.14941319
0.022957537
0.15435518
0.023712555
0.16056018
0.02216358
0.16669246
0.022480123
0.1737425
0.019919714
0.17979188
0.020313426
0.18579223
0.018215012
0.018552816
0.1902433
0.14123466
0.010920515
0.14122682
0.011399494
0.14186893
0.010918189
0.14228752
0.011894034
0.14339746
0.012336711
0.14443509
0.013451158
0.14607623
0.014777714
0.14800742
0.01600893
0.15054794
0.017512006
0.15373057
0.018093596
0.15772825
0.018918707
0.16253235
0.018153442
0.16779036
0.018454543
0.17356741
0.016386532
0.1791056
0.016941933
0.1848077
0.014217607
0.18908138
0.016039747
0.19285239
0.014444002
0.017112879
0.19429233
0.15161326
0.011184039
0.15198075
0.011032003
0.15244262
0.010456328
0.15310006
0.011236591
0.15437649
0.011060279
0.1556154
0.012212248
0.15763444
0.012758675
0.15981118
0.01383219
0.16295642
0.014366768
0.16650475
0.014545258
0.17096517
0.014458287
0.17558104
0.013537574
0.18067445
0.013361138
0.18549096
0.011570017
0.1899295
0.012503399
0.19342894
0.010718157
0.19549583
0.013972859
0.19674853
0.013191308
0.018517795
0.19534361
0.16286979
0.011356665
0.16352757
0.01037422
0.16386301
0.010120891
0.16507378
0.01002582
0.16636045
0.0097736033
0.16798722
0.010585478
0.17030605
0.010439849
0.1727585
0.011379735
0.1763629
0.010762369
0.17983074
0.011077422
0.18439122
0.0098978086
0.18858419
0.0093446055
0.19306529
0.0088800345
0.19643526
0.008200044
0.19916946
0.0097692025
0.20005966
0.0098279508
0.19990409
0.014128429
0.19839925
0.01469615
0.022002967
0.19491408
0.17514453
0.011315012
0.17566765
0.0098511082
0.17615779
0.0096307417
0.17755142
0.0086321991
0.17863946
0.0086855548
0.18085497
0.0083699754
0.18314374
0.0081510746
0.18612098
0.0084024927
0.18963067
0.0072526783
0.19306086
0.0076472325
0.1973205
0.0056381687
0.200438
0.0062271095
0.20375036
0.0055676675
0.20524231
0.0067080947
0.20611931
0.0088922066
0.20492094
0.011026321
0.20295296
0.016096405
0.19888895
0.018760159
0.027913397
0.19297852
0.18844233
0.010955873
0.18900256
0.0092908841
0.18993949
0.0086938114
0.19130261
0.0072690793
0.19277203
0.0072161249
0.19532224
0.00581977
0.19757328
0.0059000352
0.20100533
0.0049704432
0.20386902
0.0043889858
0.20745767
0.0040585842
0.21033192
0.0027639199
0.21224228
0.0043167489
0.21382182
0.0039881184
0.21321414
0.0073157795
0.21244693
0.0096594158
0.20912339
0.014349865
0.20542143
0.019798358
0.19894081
0.02524078
0.035450685
0.19140352
0.20258917
0.010475321
0.20305066
0.0088293907
0.20414186
0.0076026133
0.20540193
0.0060090079
0.20726722
0.0053508362
0.20944579
0.0036411977
0.21169934
0.0036464823
0.21484178
0.0018280081
0.21730717
0.0019235965
0.22038348
0.00098227089
0.22161086
0.0015365358
0.22299297
0.0029346388
0.22267801
0.0043030797
0.22088107
0.0091127219
0.21823895
0.012301536
0.21300431
0.019584499
0.20788471
0.024917957
0.20026141
0.032864083
0.041489167
0.19422293
0.21793804
0.0098475274
0.21877804
0.0079893941
0.22014753
0.0062331211
0.22151283
0.004643713
0.22363176
0.0032319013
0.22549464
0.0017783176
0.22803574
0.0011053829
0.23049839
-0.00063464247
0.23250901
-8.7028465e-05
0.23425518
-0.00076390274
0.23452816
0.0012635612
0.23471863
0.0027441658
0.23232657
0.0066951387
0.22979247
0.011646823
0.22522622
0.016867782
0.22016035
0.02465037
0.21556708
0.029511227
0.21072816
0.037703003
0.041544214
0.21067312
0.23411699
0.0092154054
0.23499287
0.0071135192
0.23619891
0.0050270818
0.23776447
0.0030781468
0.23967517
0.0013212067
0.24139853
5.4949096e-05
0.24378002
-0.0012761093
0.24501412
-0.0018687435
0.24646104
-0.00153394
0.24686609
-0.0011689631
0.24647794
0.0016517186
0.24498702
0.004235079
0.24167894
0.010003221
0.23857889
0.014746875
0.23421433
0.021232341
0.23208271
0.02678199
0.23063842
0.03095552
0.23273855
0.035602875
0.034089852
0.24019291
0.25234885
0.0082344974
0.25342752
0.0060348441
0.25476775
0.0036868564
0.25634545
0.0015004411
0.25785971
-0.00019305398
0.25958535
-0.0016706894
0.26103235
-0.0027231154
0.26176627
-0.0026026639
0.26264128
-0.0024089466
0.26197161
-0.0004992954
0.26094855
0.0026747758
0.25834045
0.0068431866
0.2555415
0.012802164
0.25306788
0.0172205
0.25171484
0.022585376
0.25316865
0.025328177
0.25631859
0.027805586
0.26493834
0.026983124
0.024063965
0.27496423
0.27125886
0.0071048495
0.27246064
0.0048330618
0.27384879
0.0022987109
0.27502073
0.00032849418
0.27612356
-0.001295882
0.27717027
-0.0027173985
0.27754443
-0.0030972785
0.27782295
-0.0028811851
0.27723596
-0.0018219547
0.27593632
0.00080034118
0.27430083
0.0043102659
0.27213334
0.0090106754
0.27143792
0.013497584
0.27182263
0.016835797
0.27456395
0.019844051
0.27940918
0.02048295
0.28690192
0.020312844
0.29647359
0.01741145
0.017153659
0.3033839
0.29237651
0.0057441759
0.2937032
0.003506372
0.29492013
0.0010817874
0.29587402
-0.0006253974
0.29666229
-0.0020841546
0.29711002
-0.0031651307
0.2974267
-0.0034139603
0.29743053
-0.0028850109
0.29654108
-0.00093250692
0.29533726
0.0020041598
0.29381633
0.0058311961
0.29311963
0.0097073711
0.294117
0.012500213
0.29646291
0.014489894
0.30105198
0.015254979
0.30726126
0.014273672
0.31479926
0.012774836
0.32069338
0.011517338
0.014012618
0.32383442
0.31471604
0.004237219
0.31614883
0.0020735826
0.31704061
0.00019000044
0.31733387
-0.0009186567
0.31715112
-0.0019014015
0.31656221
-0.0025762208
0.31565075
-0.0025025095
0.31450741
-0.0017416706
0.31347984
9.5066305e-05
0.31287576
0.0026082346
0.31334474
0.005362218
0.31560566
0.0074464494
0.31944903
0.0086568424
0.32469861
0.0092403129
0.33101152
0.0089420706
0.33702982
0.0082553699
0.34155586
0.008248798
0.34340534
0.0096678561
0.013636654
0.34378131
0.33976033
0.0023626334
0.34119753
0.00063638261
0.34174551
-0.00035798227
0.34160479
-0.00077793938
0.34089135
-0.0011879596
0.34002368
-0.0017085569
0.3393406
-0.0018194274
0.33889568
-0.0012967511
0.33868135
0.00030939664
0.3394339
0.0018556815
0.34113116
0.0036649617
0.34413735
0.0044402552
0.34750199
0.0052922022
0.35159586
0.0051464463
0.35496402
0.0055739022
0.35781485
0.005404544
0.35978989
0.006273757
0.36208458
0.0073731643
0.0082670099
0.36745423
0.36607717
0.36671356
0.36635557
0.36557763
0.36438967
0.36268112
0.36086169
0.35956494
0.35987433
0.36173001
0.36539498
0.36983523
0.37512743
0.38027388
0.38584778
0.39125233
0.39752608
0.40489925
0.41316626
0.061001116
0.062010587
-0.057098585
0.055460729
0.064089436
-0.058549049
0.050123114
0.064606833
-0.059269217
0.043814729
0.065451491
-0.059143106
0.037290594
0.065943101
-0.059418965
0.030208475
0.064311302
-0.057229183
0.02104907
0.064117299
-0.054957893
0.013175034
0.058609049
-0.050735013
0.006888396
0.040365401
-0.034078763
-0.0063043904
0.034898191
-0.021705405
-0.025011091
0.04243139
-0.02372469
-0.043083514
0.046770696
-0.028698272
-0.060708314
0.045725518
-0.028100718
-0.077632445
0.047284274
-0.030360143
-0.091379001
0.047647456
-0.033900901
-0.10316724
0.047135865
-0.03534763
-0.11328201
0.047315065
-0.037200294
-0.12082539
0.047384679
-0.039841296
0.047808547
-0.1263178
-0.042316139
0.059277857
0.067951058
0.052754892
0.070612401
0.046110573
0.071251152
0.038778447
0.072783617
0.031251786
0.073469762
0.022700353
0.072862735
0.014095427
0.072722224
0.0085993694
0.064105107
-0.0019021563
0.050866927
-0.020325277
0.053321311
-0.038896705
0.061002819
-0.056590144
0.064464135
-0.075336721
0.064472095
-0.092508149
0.064455702
-0.10548737
0.060626673
-0.11574093
0.057389431
-0.12376866
0.055342795
-0.1295802
0.053196218
0.051361525
-0.13313318
0.058452215
0.075032637
0.051104684
0.077959931
0.04287758
0.079478256
0.03399404
0.081667158
0.024743851
0.082719951
0.014642059
0.082964527
0.0069193455
0.080444938
-0.00059626563
0.071620718
-0.019579301
0.069849962
-0.042739508
0.076481518
-0.062065685
0.080328996
-0.080225966
0.082624416
-0.09694458
0.081190708
-0.11023346
0.077744583
-0.12055515
0.070948359
-0.12891626
0.065750543
-0.13404213
0.060468668
-0.13670258
0.055856666
0.052173186
-0.13751424
0.058630564
0.083089805
0.050114687
0.086475808
0.040264938
0.089328005
0.02944394
0.092488155
0.017223279
0.094940612
0.0031339913
0.097053814
-0.0087211272
0.092300056
-0.023083545
0.085983135
-0.046148563
0.092914981
-0.07065118
0.10098413
-0.091507908
0.10118572
-0.11084106
0.10195756
-0.12709662
0.097446271
-0.13939516
0.090043122
-0.14767003
0.079223228
-0.15229621
0.070376726
-0.15362826
0.061800719
-0.15227194
0.054500345
0.049191848
-0.1492906
0.061512925
0.091709784
0.052020825
0.095967908
0.041022866
0.10032596
0.028402945
0.10510808
0.013532153
0.1098114
-0.0046276154
0.11521358
-0.026266821
0.11393926
-0.048115599
0.10783191
-0.06957894
0.11437832
-0.091614277
0.12301947
-0.11258108
0.12215252
-0.13095237
0.12032886
-0.14683344
0.11332734
-0.15995681
0.10316649
-0.16953506
0.088801475
-0.17508171
0.075923381
-0.17625022
0.062969227
-0.1735065
0.051756624
0.043704211
-0.16801886
0.070217467
0.099881472
0.061134228
0.10505115
0.051075142
0.11038505
0.039516866
0.11666635
0.025936828
0.12339144
0.0094981911
0.13165222
-0.015204959
0.13864241
-0.044320399
0.13694735
-0.068403544
0.13846147
-0.088755687
0.14337161
-0.10926539
0.14266223
-0.12733769
0.13840115
-0.14409157
0.13008123
-0.15833953
0.11741445
-0.16911184
0.099573779
-0.17432778
0.081139324
-0.17422486
0.062866306
-0.17005581
0.047587575
0.036953135
-0.16330473
0.086759049
0.1066202
0.080012552
0.11179764
0.072888732
0.11750887
0.065495035
0.12406005
0.057715973
0.1311705
0.049859103
0.13950909
0.03915332
0.1493482
0.019895743
0.15620493
-0.0010846044
0.15944181
-0.019946084
0.16223309
-0.038381769
0.16109792
-0.05507895
0.15509833
-0.068467725
0.14347
-0.078277584
0.12722431
-0.085165321
0.10646152
-0.087938939
0.083912941
-0.088036211
0.062963579
-0.087050638
0.046602002
0.036186079
-0.086283583
0.10903501
0.11122739
0.10517438
0.11565828
0.10159184
0.12109142
0.099237138
0.12641475
0.09769061
0.13271703
0.097964815
0.13923488
0.10101891
0.1462941
0.10343673
0.15378711
0.10416791
0.15871063
0.10458522
0.16181579
0.1043419
0.16134124
0.10277454
0.15666569
0.099309453
0.14693509
0.093330826
0.13320294
0.085350164
0.11444218
0.075170732
0.094092374
0.06291949
0.075214821
0.048955799
0.060565693
0.05123321
0.033908668
0.13227388
0.11392369
0.13009565
0.11783651
0.1289137
0.12227337
0.1290463
0.12628215
0.13103582
0.1307275
0.13495594
0.13531476
0.14147445
0.1397756
0.15015919
0.14510237
0.16008389
0.14878593
0.17101162
0.15088805
0.18102938
0.15132348
0.18911955
0.14857552
0.19371573
0.14233891
0.19446434
0.13245433
0.19039606
0.11851046
0.1803068
0.10418163
0.16456516
0.090956461
0.1450631
0.080067752
0.07155293
0.12474338
0.15238876
0.11614845
0.15103031
0.11919497
0.15051007
0.12279361
0.15113244
0.12565978
0.15367118
0.12818876
0.15755459
0.13143136
0.16302643