/*--------------------------------*- C++ -*----------------------------------*\
  =========                 |
  \\      /  F ield         | OpenFOAM: The Open Source CFD Toolbox
   \\    /   O peration     | Website:  https://openfoam.org
    \\  /    A nd           | Version:  11
     \\/     M anipulation  |
\*---------------------------------------------------------------------------*/
FoamFile
{
    format      ascii;
    class       surfaceScalarField;
    location    "4.625";
    object      phi;
}
// * * * * * * * * * * * * * * * * * * * * * * * * * * * * * * * * * * * * * //

dimensions      [0 3 -1 0 0 0 0];

internalField   nonuniform List<scalar> 
8667
(
15.887551
1.8059736
0.084253611
13.998894
1.5932219
0.29543467
12.101245
1.4027831
0.49486602
10.217006
1.1607677
0.72347154
8.3386014
0.94272801
0.93567628
6.4824094
0.63399591
1.2221961
4.6612522
0.32411369
1.4970435
2.8687794
-0.13189405
1.9243669
-0.74751055
2.467326
1.1489639
15.891556
3.6921957
13.990726
3.4940523
12.09227
3.3012385
10.197041
3.0559974
8.319299
2.8204697
6.4642607
2.4890342
4.6379247
2.1504497
2.8684684
1.6375623
0.96933163
1.1516263
15.889606
5.5803682
13.987987
5.3956712
12.080386
5.2088388
10.185153
4.9512302
8.3005696
4.7050535
6.4428225
4.3467812
4.6147906
3.9784816
2.8545774
3.3977754
2.6998773
1.1240317
15.887701
7.4704452
13.983973
7.299399
12.074656
7.1181563
10.174521
6.8513644
8.2824099
6.5971651
6.4245907
6.2046004
4.5887542
5.8143181
2.8418272
5.1447024
4.4019793
1.1397252
15.888622
9.359599
13.982821
9.2051998
12.069257
9.031721
10.166128
8.754493
8.2683445
8.4949487
6.4034122
8.0695327
4.5632848
7.6544456
2.828
6.8799871
6.0840706
1.1459088
15.88695
11.250426
13.981861
11.110289
12.067403
10.946179
10.156235
10.665662
8.2566455
10.394538
6.3818561
9.944322
4.536067
9.5002347
2.8034775
8.6125766
7.7418589
1.1456892
15.887642
13.140563
13.980326
13.017605
12.066301
12.860204
10.15094
12.581023
8.2444125
12.301065
6.3651271
11.823607
4.512301
11.353061
2.7868936
10.337984
9.3743313
1.1544213
15.887872
15.030469
13.980449
14.925028
12.066243
14.77441
10.146617
14.500649
8.2339894
14.213693
6.3473612
13.710236
4.4830528
13.217369
2.7558533
12.065183
10.984091
1.1460931
15.888171
16.920076
13.981837
16.831361
12.067469
16.688778
10.14575
16.422368
8.2247829
16.13466
6.3345852
15.600433
4.45894
15.093014
2.731446
13.792677
12.574686
1.1408518
18.747422
15.950432
20.574488
15.950712
22.400566
15.951706
24.225701
15.952645
26.049589
15.953872
27.87254
15.954829
29.693724
15.956596
31.513533
15.957971
15.959659
33.331654
18.672354
14.10944
20.511468
14.111598
22.34926
14.113914
24.184724
14.117181
26.018217
14.120379
27.849575
14.123471
29.679784
14.126387
31.511931
14.125824
14.126947
33.344644
18.538298
12.25992
20.388396
12.261499
22.238372
12.263938
24.08853
12.267023
25.936927
12.271982
27.784521
12.275878
29.625827
12.28508
31.461947
12.289704
12.300359
33.288535
18.276683
10.405605
20.133044
10.405139
21.99084
10.406143
23.851673
10.40619
25.711447
10.412208
27.57557
10.411755
29.441709
10.41894
31.316856
10.414557
10.424127
33.193088
17.990348
8.5499157
19.856046
8.5394416
21.7256
8.5365877
23.600915
8.5308747
25.477104
8.5360201
27.355262
8.5335967
29.230397
8.5438055
31.100663
8.5442909
8.552449
32.972341
17.422862
6.7274869
19.259737
6.7025669
21.115027
6.681298
22.98421
6.6616911
24.8703
6.6499301
26.767231
6.6366656
28.678678
6.6323593
30.59763
6.6253389
6.6275027
32.522576
16.893467
4.9270338
18.718317
4.877717
20.56256
4.8370557
22.442726
4.7815248
24.349829
4.742827
26.283633
4.7028619
28.230853
4.6851391
30.194812
4.6613798
4.6598703
32.162445
15.436225
3.2834859
17.177789
3.1361537
18.993953
3.0208913
20.889183
2.8862947
22.82928
2.8027305
24.822888
2.7092536
26.838493
2.6695334
28.889335
2.6105386
2.6041484
30.945057
14.047338
1.8108334
15.771274
1.4122181
17.884933
0.90723239
20.17215
0.59907703
22.529557
0.44532366
24.924977
0.31383409
27.318423
0.27608694
29.698091
0.2308707
32.087113
0.21512613
33.208521
0.12313215
33.085645
0.12287631
32.962781
0.12286446
32.840093
0.12268719
32.717513
0.12258093
32.595483
0.1220291
32.473795
0.12168882
32.353433
0.12036172
0.11968572
32.233747
33.222595
0.24518028
33.100689
0.24478318
32.979173
0.24437962
32.85784
0.24402025
32.737918
0.24250313
32.619997
0.23995012
32.50505
0.23663593
32.393144
0.23226743
0.22677889
32.286051
33.157571
0.37614344
33.029974
0.37238087
32.904623
0.36973022
32.78274
0.36590304
32.664028
0.36121583
32.548674
0.3553033
32.438194
0.34711684
32.331198
0.33926318
0.32713739
32.230839
33.075739
0.4934928
32.961881
0.48623838
32.852269
0.4793423
32.745311
0.47286102
32.642226
0.46430144
32.543482
0.45404703
32.448897
0.44170213
32.36091
0.42725022
0.41176586
32.276281
32.848028
0.61780653
32.728972
0.60529369
32.616118
0.59219612
32.510549
0.57843046
32.41099
0.5638603
32.321418
0.54361958
32.23641
0.52671012
32.162364
0.5012954
0.48440686
32.089723
32.446144
0.69423843
32.386582
0.66485579
32.334276
0.64450236
32.294542
0.61816438
32.258723
0.59967864
32.23209
0.57025311
32.206652
0.55214806
32.186319
0.52162855
0.50756679
32.163159
32.130143
0.72653958
32.109686
0.68531364
32.091581
0.66260672
32.081164
0.62858116
32.072169
0.60867371
32.066342
0.57608067
32.057091
0.56139865
32.046751
0.53196826
0.52236629
32.031952
31.110148
0.56144831
31.275326
0.52013494
31.453023
0.48490973
31.629316
0.45228825
31.813226
0.42476452
31.983698
0.40560817
32.146032
0.39906516
32.276209
0.4017907
0.41946705
32.379108
32.484163
0.164399
32.829181
0.17511657
33.13571
0.17838096
33.382566
0.20543191
33.569713
0.23761747
33.676041
0.29928054
33.715199
0.35990689
33.662827
0.45416268
33.569886
0.51240802
33.533707
0.50043065
-0.46425156
33.350939
0.48603177
-0.30326336
33.095644
0.46858807
-0.21329367
32.82372
0.46133552
-0.18941095
32.535878
0.4544661
-0.16662461
32.235666
0.44843365
-0.14822152
31.932564
0.44576137
-0.14265893
31.623206
0.44518435
-0.13582676
0.4448923
31.32525
-0.14693602
32.548175
0.33136376
32.68148
0.35272746
32.780223
0.36984451
32.856331
0.38522728
32.909612
0.40118583
32.941745
0.41630036
32.954212
0.43329391
32.945707
0.45368941
0.47309853
32.917501
32.12341
0.2399054
32.21546
0.26067784
32.297967
0.28733698
32.377023
0.30617162
32.445024
0.33318498
32.507919
0.35340518
32.559425
0.38178811
32.607742
0.40537215
0.43607582
32.644765
32.252282
0.15078188
32.34252
0.17044022
32.43209
0.19776668
32.521097
0.21716466
32.60787
0.24641254
32.694821
0.26645365
32.778139
0.29847057
32.863433
0.32007813
0.35565422
32.943854
32.146812
0.093692842
32.205634
0.11161904
32.273201
0.13019925
32.342381
0.14798505
32.415984
0.17280933
32.494036
0.18840171
32.574805
0.21770149
32.659939
0.23494363
0.2696553
32.745938
32.316773
0.053200926
32.360519
0.067872935
32.413085
0.077633972
32.467409
0.093660714
32.53174
0.10847826
32.596665
0.12347665
32.672892
0.1414742
32.748647
0.15918848
0.18083939
32.837463
32.258837
0.025202843
32.293954
0.03275612
32.330777
0.040811484
32.374446
0.049991676
32.423623
0.059301292
32.47542
0.071679049
32.537848
0.079046541
32.598678
0.098358129
0.1037492
32.675768
32.303176
0.0080777616
32.326869
0.0090636031
32.353112
0.01456807
32.387941
0.015162774
32.424589
0.022653033
32.471114
0.025154859
32.519882
0.030278278
32.579215
0.039025221
0.042277249
32.640687
32.241825
32.250889
32.265457
32.280619
32.303272
32.328427
32.358706
32.397731
32.440008
32.493492
-0.053484385
32.54946
-0.05596725
32.620914
-0.071454685
32.69541
-0.074495359
32.788517
-0.09310686
32.884765
-0.096248729
33.002859
-0.11809325
33.126537
-0.12367797
-0.14503437
33.271571
32.715575
-0.12837303
32.79367
-0.1340623
32.886035
-0.16381902
32.980882
-0.16934229
33.092752
-0.20497727
33.207942
-0.21143844
33.33837
-0.24852116
33.479532
-0.26484076
-0.29589571
33.630394
32.748973
-0.20157712
32.84083
-0.22591971
32.928031
-0.2510203
33.037393
-0.27870408
33.139645
-0.30722878
33.267802
-0.33959575
33.38657
-0.3672892
33.53175
-0.41002111
-0.43364822
33.669503
32.924118
-0.28823152
33.025559
-0.3273612
33.122999
-0.34845956
33.236905
-0.39261002
33.344784
-0.41510799
33.469756
-0.46456846
33.590302
-0.48783458
33.724448
-0.54416734
-0.57044588
33.861246
32.837088
-0.37938119
32.928338
-0.418611
33.024886
-0.44500757
33.121106
-0.48882995
33.224006
-0.51800815
33.32693
-0.567493
33.43869
-0.59959383
33.550458
-0.65593615
-0.69150086
33.671513
33.027749
-0.46327629
33.10746
-0.49832205
33.191703
-0.52924975
33.270324
-0.56745156
33.353872
-0.60155559
33.431097
-0.64471785
33.514254
-0.68275149
33.592202
-0.73388356
-0.77647555
33.677176
32.68129
-0.49980152
32.706514
-0.52354544
32.732376
-0.55511219
32.747902
-0.58297772
32.763798
-0.61745149
32.768638
-0.64955763
32.777708
-0.69182204
32.782711
-0.73888599
-0.79076646
32.797002
32.877413
-0.45971304
32.828012
-0.47414494
32.770851
-0.49795114
32.708525
-0.52065157
32.636727
-0.54565368
32.562621
-0.57545199
32.496173
-0.62537386
32.430825
-0.6735374
-0.75990625
32.399964
31.042479
-0.17694187
30.75433
-0.18599653
30.47824
-0.22186071
30.223303
-0.26571482
29.931222
-0.25357312
29.65125
-0.29547949
29.404695
-0.37881928
29.190694
-0.45953633
29.096216
-0.66542804
0.88783754
29.444619
-1.2362407
0.85088078
32.436921
0.83820973
32.809673
0.7563428
33.759043
0.63555851
33.792298
0.48684582
34.009958
0.32221002
33.834139
0.15488095
33.797723
33.426452
0.96087223
29.863894
-1.3801472
0.92614011
32.471653
0.88517497
32.850638
0.79435643
33.849862
0.66273715
33.923917
0.50845081
34.164245
0.3520028
33.990587
0.1771748
33.972551
33.603627
0.94741164
29.89617
-0.97968766
0.98703072
32.432034
0.95549674
32.882172
0.86794312
33.937415
0.73749059
34.05437
0.57188163
34.329854
0.38528533
34.177183
0.18961574
34.16822
33.793242
0.91360224
29.441551
-0.45898338
1.0367331
32.308903
1.0079137
32.910991
0.90783399
34.037495
0.76568393
34.19652
0.59343787
34.5021
0.41695473
34.353666
0.2143924
34.370783
34.007635
0.89374752
28.800879
-0.25307532
1.0900527
32.112598
1.0863692
32.914675
0.99014724
34.133717
0.84941392
34.337253
0.66199653
34.689517
0.45382676
34.561836
0.23016661
34.594443
34.237801
0.92981479
28.136925
-0.26586082
1.1367788
31.905634
1.1358946
32.915559
1.0306756
34.238936
0.87882708
34.489101
0.6842388
34.884105
0.48345599
34.762619
0.25346487
34.824434
34.491266
0.93481191
27.526574
-0.32446095
1.202457
31.637989
1.2200457
32.89797
1.1220148
34.336967
0.97173357
34.639383
0.76456742
35.091272
0.53385802
34.993328
0.27582585
35.082466
34.767092
0.99186451
26.922029
-0.38731971
1.2560408
31.373813
1.271229
32.882782
1.1625164
34.44568
0.99951023
34.802389
0.78073606
35.310046
0.55496472
35.219099
0.29534535
35.342086
35.062437
1.0060331
26.110586
-0.19458977
1.3410885
31.038758
1.3766385
32.847232
1.2725673
34.549751
1.109534
34.965422
0.87760944
35.54197
0.62109623
35.475613
0.32551625
35.637666
35.387954
0.017516356
35.370437
0.099397442
35.555784
0.19535349
35.379656
0.30910502
35.428219
0.44240482
34.832122
0.60625521
34.3859
0.81596493
32.637522
1.1904001
30.664322
25.769503
1.5314832
-0.0025723664
35.37301
0.047355714
35.505856
0.11233274
35.314679
0.21716716
35.323384
0.34236771
34.706922
0.49830776
34.22996
0.67749045
32.45834
1.0018543
30.339959
25.645541
1.1258155
-0.0066285554
35.379638
0.05350645
35.445721
0.13072829
35.237458
0.23346393
35.220649
0.34804199
34.592344
0.4925239
34.085478
0.64449995
32.306364
0.90252955
30.081929
25.619322
0.92874834
-0.023495013
35.403133
0.0020562151
35.42017
0.043407829
35.196106
0.13841823
35.125638
0.24308415
34.487678
0.3762648
33.952298
0.4930044
32.189624
0.69470928
29.880224
25.571095
0.74293727
-0.026565253
35.429699
0.0165143
35.377091
0.076136428
35.136484
0.16993498
35.03184
0.26676526
34.390848
0.39178725
33.827276
0.49104142
32.09037
0.61056992
29.760696
25.620736
0.56092869
-0.045199968
35.474898
-0.04011483
35.372005
-0.011914579
35.108284
0.076516447
34.943409
0.16329854
34.304066
0.27686588
33.713708
0.34973435
32.017501
0.48472656
29.625703
25.555862
0.54959996
-0.045796649
35.520695
-0.011978963
35.338188
0.036743167
35.059561
0.12314301
34.857009
0.20479855
34.22241
0.31151403
33.606993
0.37365635
31.955359
0.44132462
29.558035
25.613934
0.38325294
-0.063405037
35.5841
-0.069112678
35.343895
-0.048514326
35.038963
0.034422331
34.774072
0.10793787
34.148894
0.20661013
33.508321
0.25087835
31.911091
0.34327271
29.465641
25.512818
0.44438846
-0.064112912
35.648213
-0.037296334
35.317079
0.0088014723
34.992865
0.095957493
34.686916
0.16804715
34.076805
0.25715672
33.419211
0.2909665
31.877281
0.33042729
29.42618
25.521101
0.32214497
-0.23992775
25.384053
0.37697512
-0.1935044
29.379757
-0.1737452
31.857522
-0.083293223
33.328759
-0.015129137
34.008641
0.066897823
34.604889
0.08207656
34.977687
0.075575019
35.32358
35.723788
-0.24319878
25.363821
0.26343067
-0.25087001
29.387428
-0.2443657
31.851018
-0.16268004
33.247073
-0.091252602
33.937213
-0.00080102643
34.514438
0.044407333
34.932478
0.072363694
35.295624
35.796152
-0.19062909
25.22712
0.32733054
-0.18365942
29.380458
-0.18425608
31.851614
-0.094642123
33.157459
-0.020882142
33.863453
0.069297234
34.424258
0.088692181
34.913083
0.083847518
35.300469
35.879999
-0.21879687
25.21622
0.22969651
-0.25944166
29.421103
-0.27135814
31.863531
-0.19182284
33.077924
-0.11058019
33.782211
-0.012105595
34.325784
0.040843073
34.860135
0.074650167
35.266662
35.954649
-0.19960415
25.101167
0.31465712
-0.23271412
29.454213
-0.25047934
31.881296
-0.14664023
32.974085
-0.05229716
33.687868
0.055567931
34.217919
0.085883013
34.82982
0.084863829
35.267681
36.039513
-0.25847392
25.132533
0.22710823
-0.33756418
29.533303
-0.35518374
31.898915
-0.25327678
32.872178
-0.15185971
33.586451
-0.040885698
34.106945
0.024927234
34.764007
0.071982334
35.220626
36.111496
-0.26702846
25.075092
0.32446905
-0.34439945
29.610674
-0.36820486
31.922721
-0.23368098
32.737654
-0.10803086
33.4608
0.02649283
33.972421
0.072053647
34.718446
0.079770531
35.212909
36.191266
-0.35638692
25.193794
0.23768535
-0.47838988
29.732677
-0.48853326
31.932864
-0.34624651
32.595367
-0.21068027
33.325234
-0.07731025
33.839051
0.0096865915
34.631449
0.066866352
35.155729
36.258133
-0.39847192
25.259597
0.33266872
-0.52617319
29.860378
-0.53027675
31.936968
-0.34563427
32.410725
-0.17850465
33.158105
-0.016658263
33.677204
0.053595061
34.561196
0.074103127
35.135221
36.332236
0.064832769
36.267403
0.25041745
34.949636
0.44716778
34.364445
0.69034578
33.434026
0.94294667
32.905504
1.191955
32.161717
1.2329422
31.895981
0.92951104
30.16381
25.81109
0.37801788
0.065192413
36.20221
0.20905262
34.805776
0.39195034
34.181548
0.67128553
33.154691
0.96665886
32.61013
1.282526
31.84585
1.3758329
31.802674
1.0847752
30.454867
26.360546
0.53531979
0.086079328
36.116131
0.28701416
34.604841
0.50776569
33.960796
0.78410853
32.878348
1.0886832
32.305556
1.4451533
31.48938
1.6502669
31.59756
1.3658022
30.739332
27.342325
0.38402305
0.088652635
36.027478
0.24671787
34.446776
0.45238362
33.75513
0.76147337
32.569259
1.1101505
31.956879
1.54232
31.05721
1.8284545
31.311425
1.6965332
30.871253
28.492267
0.54659131
0.11454974
35.912929
0.32398385
34.237342
0.55913974
33.519974
0.86143225
32.266966
1.2088159
31.609495
1.6695854
30.596441
2.108046
30.872965
2.0815471
30.897752
29.891901
0.68191245
0.11673126
35.796197
0.28489231
34.069181
0.51107384
33.293793
0.83682984
31.94121
1.2224973
31.223827
1.7327267
30.086211
2.2621562
30.343535
2.5054737
30.654435
31.371513
1.0258617
0.14996444
35.646233
0.36289916
33.856246
0.60517795
33.051514
0.91879142
31.627597
1.29724
30.845379
1.8014877
29.581964
2.4451916
29.699831
2.9286826
30.170944
32.346155
1.9540413
0.15825511
35.487978
0.32152408
33.692977
0.56618659
32.806852
0.8934709
31.300312
1.2916068
30.447243
1.8164292
29.057141
2.5069208
29.00934
3.3302576
29.347607
32.954927
2.7214856
0.20282234
35.285156
0.41976744
33.476032
0.65404086
32.572578
0.96238766
30.991966
1.3525157
30.057115
1.8262634
28.583393
2.6465681
28.189035
3.8481295
28.146045
32.900468
3.9025882
-1.5704493
36.855605
-2.9833855
34.888968
-4.2457388
33.834931
-5.2978605
32.044087
-6.1567157
30.91597
-6.8924933
29.319171
-7.582743
28.879285
-9.0008747
29.564177
35.250855
-11.351262
-1.5803524
38.435957
-2.9935142
36.30213
-4.3199632
35.16138
-5.4152037
33.139328
-6.2423017
31.743068
-6.9534393
30.030309
-7.693248
29.619094
-9.0401444
30.911074
36.331532
-10.120821
-1.60764
40.043597
-3.0864478
37.780938
-4.4013179
36.476251
-5.4602787
34.198289
-6.2946449
32.577434
-6.9824271
30.718091
-7.6912535
30.32792
-8.6432866
31.863107
32.865978
-5.1777328
-1.6310748
41.674672
-3.098183
39.248046
-4.4748199
37.852887
-5.576451
35.29992
-6.3895001
33.390483
-7.0009723
31.329563
-7.5338577
30.860805
-8.0570263
32.386275
25.575586
-0.76663418
-1.659219
43.333891
-3.1755249
40.764352
-4.5568261
39.234189
-5.6351302
36.378224
-6.4490748
34.204428
-6.981504
31.861992
-7.2679167
31.147218
-7.2443149
32.362673
18.471033
-0.13976253
-1.6421719
44.976063
-3.1891167
42.311297
-4.6328634
40.677935
-5.769528
37.514889
-6.5411042
34.976004
-6.8840487
32.204937
-6.9240368
31.187206
-6.5068486
31.945485
11.933985
0.030199653
-1.6486756
46.624739
-3.2522284
43.914849
-4.7068955
42.132602
-5.8473791
38.655372
-6.5663497
35.694975
-6.7470938
32.385681
-6.5025854
30.942698
-5.4625417
30.905442
6.3991806
0.072262861
-1.6324428
48.257182
-3.2431943
45.525601
-4.7747024
43.664111
-5.984051
39.864721
-6.638445
36.349368
-6.6099334
32.357169
-5.9431776
30.275942
-3.0790622
28.041326
1.8898299
1.4302885
-1.6374023
49.894584
-3.2986043
47.186803
-4.8419626
45.207469
-6.0702112
41.092969
-6.6555814
36.934739
-6.3665435
32.068131
-5.1011043
29.010503
-1.1923483
24.13257
-1.4398825
2.1373641
0.30238354
-2.6497141
0.90744814
2.2973272
22.137626
3.651529
27.656301
4.2473941
31.472266
4.0288511
37.153282
3.1967455
41.925075
2.1168888
46.287326
0.97931155
48.32438
50.873895
0.087470171
-3.4890726
0.75188837
1.87166
20.353437
3.5079708
26.01999
4.2963734
30.683863
4.0758323
37.373823
3.1980481
42.802859
2.1208472
47.364526
0.971877
49.47335
51.845772
-0.057983474
-4.1069505
0.67586128
1.6265088
18.668944
3.4678545
24.178645
4.3685217
29.783196
4.1559794
37.586365
3.1983594
43.760479
2.0609217
48.501964
0.90680132
50.627471
52.752574
-0.29028503
-4.5400348
0.72336941
1.2799704
17.098689
3.3321301
22.126485
4.4150048
28.700322
4.1981416
37.803228
3.190713
44.767908
2.0519589
49.640718
0.85035079
51.829079
53.602924
-0.80502483
-4.4495749
0.71456496
0.59170705
15.701957
3.2216561
19.496536
4.4716732
27.450304
4.2551597
38.019742
3.1730797
45.849988
1.9760303
50.837768
0.75333263
53.051776
54.356257
-1.3285002
-3.7827336
0.66165887
-0.1024608
14.475918
3.169499
16.224576
4.5673904
26.052413
4.2937887
38.293344
3.1533787
46.990398
1.9417293
52.049417
0.70138367
54.292122
55.057641
-1.3919515
-2.2556866
-0.13509551
-0.59148337
13.67545
2.7955489
12.837544
4.5704829
24.277479
4.3237312
38.540095
3.1150432
48.199086
1.8418449
53.322615
0.60633862
55.527628
55.663979
-1.2034195
-0.66644117
-0.38582589
-1.0160263
13.488056
2.2692114
9.5523059
4.6221889
21.924501
4.332794
38.82949
3.0705596
49.46132
1.7804101
54.612765
0.55189621
56.756142
56.215876
-0.8978421
0.73311462
-0.50171372
-0.99018936
13.580404
2.0210221
6.5410945
4.5618457
19.383678
4.345816
39.04552
3.0145413
50.792595
1.660499
55.966807
0.46173064
57.954911
56.677606
-2.3318642
3.4604595
-0.39548067
-2.478966
13.727505
2.9551399
1.1069886
6.194234
16.144584
4.7611864
40.478567
2.3718599
53.181922
0.46283064
57.875836
-0.62895027
59.046692
56.048656
-2.3982905
6.3137068
-0.45495683
-1.3947439
12.723959
3.7833833
-4.0711386
6.0940877
13.833879
4.1643971
42.408258
1.3353834
56.010935
-0.58742962
59.798649
-1.3443432
59.803605
54.704313
-2.5578693
9.8208456
-0.94926935
-1.0494019
11.215491
4.1333654
-9.2539058
5.7501823
12.217062
3.2701827
44.888257
0.61487938
58.666239
-1.1288363
61.542365
-1.4658537
60.140623
53.238459
-2.8219275
12.317094
0.32567944
-0.64824955
9.0418134
4.6119841
-14.514139
5.52205
11.306997
2.4088113
48.001496
-0.66979611
61.744846
-2.3324198
63.204989
-2.0191023
59.827305
51.219357
-3.1534616
13.904539
1.5660163
-0.33139034
6.2197422
5.1271021
-19.972632
4.979676
11.454423
1.2327008
51.748471
-1.5567562
64.534303
-2.5645336
64.212766
-1.8098831
59.072655
49.409474
-3.1308099
15.495663
1.5396854
0.6603872
2.4285451
5.997733
-25.309978
4.5456302
12.906525
0.32066818
55.973433
-2.6211386
67.47611
-3.3895078
64.981135
-2.3523763
58.035523
47.057097
-2.8385596
16.178476
2.1557473
1.8181787
-2.2281932
6.3345031
-29.826302
3.5857775
15.655251
-1.1204192
60.67963
-3.3972486
69.75294
-3.6454757
65.229362
-2.0183742
56.408422
45.038723
-2.1474567
15.763392
2.5625409
2.8468798
-7.2225298
6.4470527
-33.426475
2.9220588
19.180245
-2.0753793
65.677068
-4.2561593
71.93372
-4.2838515
65.257055
-2.0604788
54.185049
42.978244
-1.9050028
2.9034632
14.764931
3.3460867
-12.473619
5.7545749
-35.834963
1.3399235
23.594896
-3.9220077
70.938999
-5.1143351
73.126047
-4.0610817
64.203801
-1.8411803
51.965148
41.137064
-0.24437966
-22.326657
0.095023569
22.476013
1.0378783
22.043197
-23.325455
1.1507624
61.318105
-61.43099
1.3448016
67.816703
-68.010742
4.580967
30.997225
-34.23339
8.0235675
-16.735636
13.293036
10.397807
-37.096193
34.721953
11.341267
-45.353752
44.410291
-32.941613
32.033938
-0.28820746
-22.136225
0.097775826
0.8482055
20.906784
0.84281958
61.323491
1.3455913
67.313931
5.1077626
27.235053
8.7597094
-20.387583
11.115181
-39.451665
12.067801
-46.306371
-33.784669
-0.32868143
-21.912379
0.10483506
0.68478805
19.893314
0.613034
61.395245
1.5033098
66.423656
5.7874161
22.950947
9.5479649
-24.148132
11.90323
-41.80693
12.892525
-47.295667
-34.545297
-0.35610518
-21.666928
0.11065392
0.57553016
18.961679
0.463258
61.507518
1.7266804
65.160233
6.5019769
18.17565
10.392695
-28.038849
12.763291
-44.177527
13.806559
-48.338935
-35.234876
-0.39045911
-21.395778
0.11930925
0.45383003
18.11739
0.31276362
61.648584
2.0048141
63.468183
7.3352074
12.845257
11.328384
-32.032026
13.657176
-46.506318
14.747343
-49.429102
-35.873965
-0.42969376
-21.090553
0.12446882
0.34750174
17.340194
0.22831934
61.767766
2.4066498
61.289852
8.3317258
6.920181
12.384643
-36.084943
14.623271
-48.744946
15.703108
-50.508939
-36.452665
-0.45296174
-20.76865
0.13105873
0.24707517
16.640157
0.179216
61.835626
2.963887
58.505181
9.4013893
0.48267875
13.457979
-40.141532
15.638318
-50.925286
16.675986
-51.546607
-36.953631
-0.47929713
-20.42496
0.13560651
0.13263494
16.028225
0.20111979
61.767141
3.6720975
55.034203
10.471831
-6.3170551
14.456888
-44.126589
16.605273
-53.07367
17.593751
-52.535085
-37.394629
-0.50596824
0.13811028
-20.057102
0.024740643
15.497516
0.31487892
61.477003
4.5409771
50.808105
11.587912
-13.36399
15.478326
-48.017003
17.536098
-55.131442
18.427884
-53.426871
-37.80464
-2.1091908
16.478836
-3.6403929
-10.729252
-8.7160057
-69.792477
76.399291
-9.5838869
-85.397991
86.265873
-7.2073205
-70.052687
67.67612
-2.294934
-43.170809
38.258423
2.5164338
-24.640096
19.828728
5.7954558
-17.942022
14.663
4.3279195
-20.076387
21.543923
-42.393821
46.721741
-0.87574498
22.359122
-5.0045415
-7.7702187
-62.898003
-9.4691104
-83.699099
-8.2656284
-71.256169
-4.0859765
-47.350461
0.65038616
-29.376458
4.6630096
-21.954646
4.9614555
-20.374833
-37.432366
-0.50802174
27.933767
-5.0666225
-7.471657
-55.934368
-9.3571986
-81.813557
-8.1716512
-72.441716
-5.069076
-50.453036
-1.3605466
-33.084988
2.5266448
-25.841837
3.387469
-21.235657
-34.044897
0.29476228
32.133309
-4.4943048
-6.5707232
-49.068882
-9.2494626
-79.134818
-8.7869723
-72.904206
-5.8423811
-53.397627
-2.3322026
-36.595166
1.4894788
-29.663518
3.6291001
-23.375278
-30.415797
0.58996518
35.523256
-3.9799118
-6.1373666
-42.341551
-8.8276828
-76.444501
-8.6098437
-73.122045
-6.330746
-55.676725
-3.1541621
-39.77175
-0.34580704
-32.471873
1.7161953
-25.437281
-28.699602
1.4591665
37.860294
-3.7962053
-5.1064019
-35.775982
-8.4490321
-73.101871
-8.9030797
-72.667998
-6.7065403
-57.873265
-3.819842
-42.658449
-1.1742206
-35.117495
1.5409693
-28.152471
-27.158632
1.6742394
38.373125
-2.1870696
-4.5433021
-29.558441
-7.6879436
-69.957229
-8.6396489
-71.716292
-7.3732043
-59.139709
-4.6315092
-45.400144
-2.5371838
-37.21182
0.10722482
-30.796879
-27.051407
2.1521675
36.189545
0.031411731
-3.4586148
-23.947659
-7.0923648
-66.323478
-8.2626765
-70.545981
-7.1016513
-60.300734
-4.9074677
-47.594327
-3.0056724
-39.113615
-0.29949688
-33.503055
-27.350904
2.1755279
33.71935
0.29466675
-2.5911344
-19.180997
-6.1057258
-62.808886
-7.5914743
-69.060232
-7.207484
-60.684725
-5.2677718
-49.534039
-3.549663
-40.831724
-1.2188072
-35.83391
-28.569711
0.3738562
31.361499
-31.735355
0.39117061
37.817064
-37.834379
0.21560373
40.516382
-40.340815
-0.38500414
46.76631
-46.165702
-1.537592
52.143264
-50.990676
-2.9964395
57.631193
-56.172345
-3.9487753
57.080705
-56.128368
-1.8818282
34.738352
-36.8053
-16.307287
13.628496
0.79696255
0.4037357
30.957763
0.47397543
37.746824
0.29649546
40.693862
-0.23055017
47.293356
-1.3691425
53.281856
-2.8251906
59.087241
-3.7294228
57.984937
-1.6622182
32.671148
-18.941918
0.97241203
0.39837386
30.559389
0.50793903
37.637259
0.40399675
40.797805
-0.090281551
47.787634
-1.2244765
54.416051
-2.6881697
60.550934
-3.5445163
58.841284
-1.4728899
30.599521
-21.434759
1.019951
0.41693729
30.142452
0.57397391
37.480223
0.46974492
40.902034
0.035858665
48.22152
-1.0753303
55.52724
-2.5119557
61.98756
-3.3056273
59.634956
-1.2577943
28.551688
-23.85592
1.1633667
0.3886048
29.753847
0.58951873
37.279309
0.54460453
40.946948
0.16838855
48.597736
-0.92358507
56.619214
-2.3777948
63.44177
-3.1239094
60.38107
-1.0932002
26.52098
-26.182837
1.2337168
0.38088408
29.372963
0.64394833
37.016245
0.60703674
40.983859
0.27652568
48.928247
-0.79360839
57.689348
-2.1988655
64.847027
-2.8754304
61.057636
-0.93583998
24.581388
-28.380324
1.2616472
0.32025363
29.05271
0.64356471
36.692933
0.66268623
40.964738
0.40189019
49.189044
-0.62910047
58.720338
-2.0626309
66.280557
-2.710743
61.70575
-0.80040364
22.671048
-30.40438
1.2236517
0.28489332
28.767816
0.68163128
36.296196
0.72066203
40.925707
0.52252172
49.387184
-0.48647913
59.729339
-1.8685855
67.662664
-2.4590952
62.29626
-0.66555859
20.877511
-32.384678
1.3147393
0.19810496
0.66039003
0.75437295
0.60751737
-0.347868
-1.7454363
-2.258062
-0.56154879
0.77312387
4.0738406
8.551109
1.0035469
8.0280741
-40.759533
6.7321092
-54.832403
4.4084086
-53.848645
2.5105997
-49.092867
1.249117
-44.90422
0.49343448
-39.585133
0.025675363
-37.366619
-31.70968
4.7338401
2.5710707
1.2461982
8.6859996
-44.711693
6.8857283
-53.032132
4.5217173
-51.484634
2.665923
-47.237073
1.3572869
-43.595583
0.60860851
-38.836454
0.075726881
-36.833738
-31.633953
7.7711033
-5.4904447
0.29041221
9.0920128
-46.032602
7.0252998
-50.965419
4.683163
-49.142497
2.8433614
-45.397271
1.5235528
-42.275775
0.6948466
-38.007748
0.098995181
-36.237886
-31.534958
9.5043791
-14.819248
-0.17557614
9.2536418
-45.781865
7.0704644
-48.782241
4.7801228
-46.852156
3.0034833
-43.620631
1.6429568
-40.915248
0.80746485
-37.172256
0.1619623
-35.592384
-31.372995
9.9626269
-24.491949
-0.28992522
9.2688222
-45.08806
7.105578
-46.618997
4.8922451
-44.638823
3.1439566
-41.872343
1.8025702
-39.573862
0.90459923
-36.274285
0.20366164
-34.891446
-31.169334
10.580747
-33.918587
-1.1541089
9.326208
-43.833521
7.1129049
-44.405694
4.9658756
-42.491793
3.2803695
-40.186837
1.9223346
-38.215827
1.0178072
-35.369758
0.2718411
-34.14548
-30.897493
10.892567
-39.570838
-5.2403156
9.3528569
-42.293811
7.086206
-42.139043
5.0722106
-40.477798
3.4276416
-38.542268
2.0700956
-36.858281
1.1171569
-34.416819
0.32298688
-33.35131
-30.574506
11.228187
-40.05462
-10.744405
9.2751814
-40.340806
7.0499487
-39.91381
5.0944732
-38.522322
3.5142174
-36.962012
2.1802083
-35.524272
1.2146764
-33.451287
0.38468216
-32.521316
-30.189824
11.153491
-38.818403
-12.389709
9.0141279
-38.201443
6.993868
-37.89355
5.1791007
-36.707555
3.6453444
-35.428256
2.303988
-34.182916
1.305327
-32.452626
0.44618772
-31.662177
-29.743636
0.60538712
36.658617
-37.264004
1.0887847
36.97568
-37.459078
1.4802471
37.425943
-37.817405
1.7866766
37.987627
-38.294056
1.9439978
38.348737
-38.506059
1.8924577
38.415409
-38.363869
1.5824954
37.447656
-37.137693
1.0311385
34.287248
-33.735891
27.810857
-27.359298
0.57957902
0.66696665
35.991651
1.2010856
36.441561
1.6537808
36.973247
1.9604263
37.680982
2.1395175
38.169646
2.1280248
38.426902
1.7614883
37.814192
1.0708558
34.977881
28.387869
0.49384388
0.72865967
35.262991
1.2938851
35.876336
1.7796126
36.48752
2.1692715
37.291323
2.413899
37.925019
2.461154
38.379647
2.1858632
38.089483
1.4957815
35.667962
29.239038
0.64461285
0.78330554
34.479685
1.4028536
35.256788
1.9571268
35.933247
2.3507671
36.897682
2.6216251
37.654161
2.7276957
38.273576
2.4524582
38.36472
1.6577079
36.462713
30.25259
0.64415629
0.84214863
33.637537
1.4911359
34.607801
2.0805969
35.343786
2.54707
36.431209
2.8906481
37.310583
3.0657616
38.098463
2.9545012
38.475981
2.2365655
37.180648
31.827592
0.6615629
0.90180334
32.735734
1.594358
33.915246
2.2506339
34.68751
2.7353071
35.946536
3.1074875
36.938402
3.3414989
37.864451
3.2806498
38.53683
2.6452659
37.816032
33.637203
0.8356547
0.95048692
31.785247
1.6675952
33.198138
2.3600978
33.995007
2.9078222
35.398812
3.357164
36.489061
3.6914136
37.530202
3.8034318
38.424812
3.3842412
38.235223
35.903988
1.1174563
1.0034974
30.781749
1.7609902
32.440645
2.5107004
33.245297
3.0799335
34.829578
3.5581042
36.01089
3.9237678
37.164538
4.0894083
38.259171
3.9269216
38.397709
37.756072
2.0748381
1.0381133
1.8165817
2.6092525
3.2559153
3.8385495
4.2955325
4.6611533
4.8574202
3.7950893
-0.35882862
-27.262396
0.26192637
-0.69664709
-33.398073
-0.99300535
-36.841335
-1.1071569
-38.249718
-1.088828
-38.524388
-0.97338367
-38.409501
-0.73293531
-38.057853
-0.41367057
-37.778343
-37.677675
-0.40151687
-27.206239
0.34535995
-0.65569538
-33.143894
-0.88021958
-36.616811
-0.99300123
-38.136936
-0.96923654
-38.548152
-0.83238949
-38.546348
-0.6370627