/*--------------------------------*- C++ -*----------------------------------*\
  =========                 |
  \\      /  F ield         | OpenFOAM: The Open Source CFD Toolbox
   \\    /   O peration     | Website:  https://openfoam.org
    \\  /    A nd           | Version:  11
     \\/     M anipulation  |
\*---------------------------------------------------------------------------*/
FoamFile
{
    format      ascii;
    class       surfaceScalarField;
    location    "4.2";
    object      phi;
}
// * * * * * * * * * * * * * * * * * * * * * * * * * * * * * * * * * * * * * //

dimensions      [0 3 -1 0 0 0 0];

internalField   nonuniform List<scalar> 
10792
(
0.071751667
-0.043768083
-0.072371994
0.04438841
0.071085838
-0.041722157
0.042387986
0.070353943
-0.039724598
0.040456494
0.069533089
-0.037486178
0.038307032
0.068723611
-0.035299708
0.036109186
0.067906944
-0.033149507
0.033966174
0.067011875
-0.030727704
0.031622772
0.066118948
-0.028415239
0.029308166
0.065302473
-0.026010998
0.026827474
0.064466726
-0.023624381
0.024460128
0.063693929
-0.021004636
0.021777432
0.063035263
-0.018716619
0.019375286
0.062491421
-0.016054549
0.01659839
0.061879832
-0.013677598
0.014289187
0.061573697
-0.010953081
0.011259216
0.061152019
-0.0085956226
0.0090173006
0.060863081
-0.005716354
0.0060052918
0.060753137
-0.0033591106
0.0034690547
-0.00065885711
0.06083543
0.00057656359
0.075763753
-0.043138051
-0.076393786
0.075142444
-0.041100848
0.074353164
-0.038935318
0.073566817
-0.036699831
0.072828433
-0.034561325
0.071919189
-0.032240263
0.071048473
-0.029856988
0.070244815
-0.02761158
0.069435494
-0.025201678
0.068610383
-0.02279927
0.067989669
-0.020383923
0.067290869
-0.018017818
0.066699017
-0.015462697
0.066151474
-0.013130055
0.065766512
-0.010568119
0.065318378
-0.0081474891
0.065180722
-0.0055786973
0.065073122
-0.0032515109
-0.00063297449
0.065047239
0.080633393
-0.042606544
-0.081164899
0.079929454
-0.04039691
0.079148554
-0.038154417
0.078420549
-0.035971826
0.07756244
-0.033703216
0.076649946
-0.031327769
0.07585468
-0.029061722
0.075012881
-0.026769781
0.074162443
-0.024351239
0.073403136
-0.022039963
0.072699026
-0.019679814
0.071892832
-0.017211624
0.071333227
-0.014903092
0.0707328
-0.012529627
0.07029723
-0.01013255
0.069957788
-0.0078080464
0.069767505
-0.0053884151
0.069587339
-0.0030713452
-0.00066072577
0.069615091
0.085116679
-0.041848477
-0.085874746
0.084349672
-0.039629902
0.083610433
-0.037415178
0.082797973
-0.035159366
0.081935148
-0.03284039
0.081150794
-0.030543414
0.080363397
-0.028274325
0.079540207
-0.025946591
0.07879471
-0.023605742
0.078028625
-0.021273878
0.077242672
-0.01889386
0.076573912
-0.016542864
0.075979023
-0.014308204
0.075411081
-0.011961685
0.075054532
-0.0097760005
0.074706652
-0.0074601664
0.074523948
-0.0052057118
0.074380765
-0.0029281615
-0.00068160299
0.074401642
0.090458685
-0.041144054
-0.091163108
0.089821195
-0.038992412
0.088988444
-0.036582427
0.088222736
-0.034393658
0.087455787
-0.032073441
0.086706132
-0.029793759
0.085881454
-0.027449648
0.085043338
-0.025108474
0.084242765
-0.022805169
0.083400288
-0.020431401
0.08264233
-0.018135902
0.081953081
-0.015853616
0.081308184
-0.013663306
0.080780738
-0.01143424
0.080337434
-0.0093326965
0.079966567
-0.0070892994
0.079731619
-0.0049707641
0.079556457
-0.0027529996
-0.00068188698
0.079556741
0.095703291
-0.040528764
-0.096318581
0.094943233
-0.038232355
0.094209503
-0.035848696
0.093500818
-0.033684973
0.092666202
-0.031238826
0.091853501
-0.028981057
0.090945885
-0.026542032
0.090085025
-0.024247615
0.089248772
-0.021968916
0.088491385
-0.019674014
0.087787866
-0.017432384
0.08713018
-0.015195929
0.086497366
-0.013030492
0.085993604
-0.010930478
0.085539722
-0.0088788144
0.085224392
-0.0067739692
0.085026316
-0.0047726884
0.084923782
-0.0026504659
-0.00074083864
0.084982734
0.10200279
-0.039862959
-0.10266859
0.10120574
-0.037435308
0.10049384
-0.035136797
0.099634497
-0.032825628
0.098759525
-0.030363854
0.097887943
-0.028109474
0.09699125
-0.025645339
0.096198785
-0.02345515
0.095403151
-0.021173281
0.094703628
-0.018974492
0.093983785
-0.01671254
0.093284109
-0.014496253
0.092632858
-0.012379241
0.092115732
-0.010413353
0.091653687
-0.0084167693
0.091346202
-0.0064664839
0.091104419
-0.0045309057
0.091067467
-0.0026135132
-0.0007221027
0.091048731
0.10818747
-0.039112782
-0.10893764
0.10727261
-0.036520449
0.10647645
-0.034340643
0.1055555
-0.031904672
0.10473411
-0.029542462
0.10388086
-0.027256229
0.10306495
-0.024829429
0.1022315
-0.022621699
0.10135336
-0.020295139
0.10057455
-0.018195683
0.099798245
-0.015936234
0.099139344
-0.013837352
0.098501871
-0.011741768
0.097985979
-0.0098974616
0.097564936
-0.0079957256
0.097295321
-0.0061968692
0.097079674
-0.0043152585
0.096977694
-0.0025115334
-0.00070153787
0.096957129
0.11535897
-0.038143496
-0.11632826
0.1143911
-0.035552583
0.11348102
-0.033430556
0.11247401
-0.030897667
0.11165869
-0.028727142
0.11076347
-0.026361007
0.10994088
-0.024006839
0.10905721
-0.021738026
0.10823182
-0.019469755
0.10748591
-0.017449776
0.10679642
-0.015246742
0.10618669
-0.013227625
0.10556464
-0.011119718
0.10499362
-0.0093264336
0.10449042
-0.0074925294
0.10414489
-0.0058513379
0.10389453
-0.0040649034
0.10385758
-0.0024745816
-0.00071317686
0.10386922
0.12239955
-0.036959805
-0.12358324
0.12150634
-0.034659377
0.12055897
-0.032483181
0.11959716
-0.029935853
0.11869991
-0.027829899
0.11768922
-0.025350318
0.11681872
-0.023136333
0.11592186
-0.020841166
0.11514633
-0.018694228
0.11433755
-0.01664099
0.11363966
-0.014548861
0.11301555
-0.012603515
0.11246609
-0.010570259
0.11198501
-0.0088453525
0.11157557
-0.0070830904
0.11125912
-0.0055348817
0.11107037
-0.0038761552
0.11095962
-0.0023638325
-0.00072864051
0.11097509
0.13059271
-0.035722403
-0.13183011
0.12965091
-0.033717574
0.12851578
-0.031348047
0.12763173
-0.029051803
0.12664566
-0.026843833
0.12574174
-0.024446397
0.12490899
-0.022303588
0.12401086
-0.019943037
0.12322106
-0.017904429
0.12231347
-0.015733391
0.12157753
-0.013812926
0.12085467
-0.011880655
0.12030383
-0.010019415
0.11978069
-0.0083222117
0.11935393
-0.0066563293
0.11899128
-0.0051722392
0.11876006
-0.0036449321
0.11863901
-0.0022427815
-0.00076315884
0.11867353
0.1393674
-0.034576346
-0.14051345
0.13823466
-0.032584836
0.13696284
-0.030076229
0.13592394
-0.028012908
0.13467768
-0.025597567
0.13369731
-0.023466029
0.13273181
-0.02133809
0.13191726
-0.01912848
0.13111814
-0.017105309
0.13031607
-0.014931329
0.12962061
-0.013117459
0.1288958
-0.011155846
0.12833666
-0.009460282
0.12781849
-0.007804043
0.1274481
-0.0062859333
0.12709058
-0.0048147232
0.12688903
-0.0034433756
0.12674421
-0.0020979626
-0.00083751834
0.12681857
0.14851399
-0.033305694
-0.14978464
0.14729635
-0.0313672
0.14619853
-0.028978408
0.14513554
-0.026949919
0.14397145
-0.024433471
0.14301506
-0.022509638
0.14187153
-0.020194566
0.14100329
-0.018260242
0.14007295
-0.016174961
0.13930345
-0.014161831
0.1384882
-0.012302214
0.13775704
-0.010424678
0.13714105
-0.0088442964
0.1366202
-0.0072831933
0.1361913
-0.005857037
0.13584609
-0.0044695118
0.13565643
-0.0032537122
0.13549703
-0.0019385606
-0.00092793068
0.13558744
0.15893627
-0.031963329
-0.16027864
0.15742279
-0.029853719
0.1561813
-0.027736919
0.15494516
-0.025713778
0.1538544
-0.023342703
0.15274285
-0.021398088
0.15158615
-0.019037869
0.15059634
-0.017270432
0.14958507
-0.015163696
0.14880407
-0.01338083
0.14796402
-0.011462161
0.14730741
-0.0097680684
0.14663124
-0.0081681286
0.14612225
-0.0067741996
0.14566501
-0.005399799
0.14533037
-0.0041348685
0.14510419
-0.0030275324
0.14498098
-0.0018153519
-0.00096973596
0.14502279
0.1695945
-0.030548032
-0.1710098
0.16805275
-0.028311966
0.16677502
-0.026459194
0.16531194
-0.024250697
0.16416392
-0.022194679
0.16284747
-0.020081637
0.16175948
-0.017949886
0.16066308
-0.016174026
0.15966538
-0.014166003
0.1587505
-0.01246595
0.15785954
-0.010571201
0.15717669
-0.0090852178
0.15650786
-0.007499301
0.15603187
-0.0062982018
0.1556003
-0.004968235
0.15528922
-0.0038237919
0.15503285
-0.0027711562
0.15492604
-0.0017085402
-0.00095459827
0.1549109
0.18135845
-0.02875795
-0.18314853
0.17974869
-0.026702208
0.17824822
-0.024958726
0.1767503
-0.022752772
0.17552852
-0.020972907
0.17419597
-0.018749084
0.17321104
-0.01696496
0.17203686
-0.014999845
0.17110954
-0.013238676
0.17012652
-0.011482932
0.16933906
-0.0097837408
0.16854131
-0.0082874677
0.16785758
-0.0068155769
0.16728083
-0.0057214486
0.16680882
-0.0044962207
0.16649942
-0.0035143946
0.16625005
-0.0025217841
0.1661863
-0.0016447934
-0.00093949247
0.1661712
0.19386134
-0.026778021
-0.19584127
0.1921284
-0.024969258
0.19040515
-0.023235484
0.18887877
-0.021226393
0.18739411
-0.019488239
0.18598821
-0.017343191
0.18473685
-0.015713599
0.18348384
-0.013746833
0.18249289
-0.012247725
0.18145174
-0.010441785
0.18068404
-0.009016044
0.17981394
-0.007417366
0.17921418
-0.0062158176
0.17855466
-0.0050619207
0.17813793
-0.0040794913
0.17776716
-0.0031436288
0.17757049
-0.002325114
0.17751384
-0.0015881399
-0.00090695513
0.1774813
0.20761165
-0.024789123
-0.20960055
0.20575592
-0.023113524
0.20392209
-0.021401658
0.20232235
-0.01962665
0.20069874
-0.017864637
0.19935712
-0.016001567
0.19800762
-0.014364099
0.19683068
-0.01256989
0.19570996
-0.011127004
0.19470597
-0.0094377939
0.19382991
-0.0081399872
0.19301721
-0.0066046685
0.1923884
-0.0055870038
0.19172529
-0.0043988149
0.19133204
-0.0036862378
0.19091823
-0.0027298223
0.19074471
-0.0021515923
0.19060962
-0.0014530537
-0.00091845125
0.19062112
0.22190824
-0.022832354
-0.22386501
0.21996851
-0.021173796
0.2180945
-0.019527644
0.21632896
-0.017861115
0.21462092
-0.016156595
0.213128
-0.01450865
0.21164805
-0.012884144
0.21033931
-0.011261156
0.20906238
-0.0098500667
0.20799994
-0.0083753534
0.20699907
-0.0071391191
0.20623695
-0.0058425469
0.20547083
-0.0048208855
0.20486385
-0.0037918328
0.20432631
-0.0031486986
0.20394581
-0.0023493283
0.20373036
-0.0019361372
0.2036059
-0.0013285987
-0.00099065338
0.2036781
0.23732875
-0.020696978
-0.23946413
0.23530414
-0.01914918
0.23342511
-0.017648616
0.23163721
-0.016073217
0.2299758
-0.014495188
0.22841399
-0.012946837
0.22695931
-0.011429462
0.22561919
-0.0099210392
0.22435534
-0.008586213
0.22324185
-0.0072618684
0.22223151
-0.0061287733
0.22143797
-0.0050490104
0.22067522
-0.0040581355
0.22009476
-0.0032113731
0.21947867
-0.0025326024
0.21908104
-0.0019517053
0.21873672
-0.0015918108
0.21856368
-0.00115556
-0.00091849707
0.21849152
0.253991
-0.018368087
-0.25631989
0.25180245
-0.01696063
0.24969827
-0.015544445
0.24770176
-0.014076704
0.24584895
-0.012642372
0.24416639
-0.011264281
0.24263013
-0.0098932031
0.2412121
-0.008503008
0.23991757
-0.007291681
0.23873784
-0.0060821383
0.23770736
-0.0050982996
0.23684349
-0.0041851343
0.23615372
-0.0033683679
0.2356053
-0.0026629573
0.2351038
-0.0020311017
0.23473778
-0.0015856829
0.23439003
-0.0012440559
0.23420072
-0.00096625346
-0.00079956963
0.23408179
0.27154415
-0.016092862
-0.27381937
0.26941742
-0.014833905
0.26731904
-0.013446061
0.26536472
-0.012122382
0.26350387
-0.010781521
0.26180549
-0.0095659082
0.26022732
-0.0083150341
0.25883064
-0.0071063229
0.25752152
-0.0059825652
0.25631066
-0.0048712777
0.25523231
-0.0040199473
0.25426021
-0.0032130321
0.25348722
-0.0025953768
0.25288283
-0.0020585734
0.2524333
-0.0015815634
0.25204731
-0.0011997004
0.25176778
-0.00096452212
0.25157328
-0.00077175396
-0.00069409262
0.2514678
0.29031383
-0.013593063
-0.29281363
0.28796244
-0.012482513
0.28574818
-0.0112318
0.28370759
-0.010081798
0.28180386
-0.0088777906
0.28005801
-0.0078200618
0.27850026
-0.0067572809
0.27712436
-0.0057304206
0.2759037
-0.0047619021
0.27480925
-0.0037768275
0.27380374
-0.0030144404
0.27292081
-0.0023301076
0.27211718
-0.0017917399
0.27149729
-0.0014386825
0.27098748
-0.0010717573
0.27061688
-0.00082910149
0.27031563
-0.00066327231
0.27009951
-0.00055562975
-0.00059324994
0.26999866
0.31095413
-0.011054753
-0.31349244
0.30845811
-0.0099864924
0.30613228
-0.0089059739
0.30393184
-0.007881353
0.30189429
-0.0068402394
0.30003423
-0.005960001
0.29833432
-0.0050573753
0.29686283
-0.0042589324
0.2955862
-0.0034852699
0.29450065
-0.00269128
0.2935849
-0.0020986864
0.29275201
-0.0014972237
0.29206473
-0.0011044569
0.29142727
-0.00080122058
0.29095325
-0.00059774044
0.2906105
-0.00048634933
0.29036668
-0.00041945163
0.29025641
-0.00044536361
-0.00048089921
0.29014406
0.33269082
-0.0080388052
-0.33570677
0.32992943
-0.0072251063
0.32741605
-0.0063925914
0.3251398
-0.0056051055
0.32310495
-0.0048053894
0.32127108
-0.0041261247
0.3196244
-0.0034106974
0.31820482
-0.0028393528
0.31697541
-0.0022558616
0.31598027
-0.0016961416
0.31517476
-0.0012931721
0.3145117
-0.00083416902
0.31400297
-0.00059571766
0.31353602
-0.00033427397
0.31316601
-0.00022772697
0.31282735
-0.0001476911
0.31252542
-0.00011752093
0.31229992
-0.00021986766
-0.00027378149
0.3120928
0.35699498
-0.004305633
-0.36072816
0.35368691
-0.0039170352
0.35078986
-0.0034955403
0.3482045
-0.0030197484
0.34596715
-0.0025680352
0.34398209
-0.0021410678
0.34231512
-0.0017437209
0.340882
-0.001406234
0.33969682
-0.0010706859
0.33878913
-0.00078844675
0.33804442
-0.00054846604
0.33754119
-0.0003309425
0.33714913
-0.00020365183
0.33687829
-6.3437755e-05
0.33664966
9.0504051e-07
0.33643989
6.2077018e-05
0.33631025
1.2125641e-05
0.33611023
-1.9853546e-05
-0.00016696034
0.33600341
0.38428484
-0.38859047
0.3803678
0.37687226
0.37385252
0.37128448
0.36914341
0.36739969
0.36599346
0.36492277
0.36413433
0.36358586
0.36325492
0.36305127
0.36298783
0.36298873
0.36305081
0.36306293
0.36304308
0.36287612
0.061128934
0.001857601
-0.0021511053
0.061446388
0.004344968
-0.0046624219
0.062271214
0.0068935383
-0.0077183647
0.063052749
0.009412582
-0.010194117
0.064454093
0.011809621
-0.013210965
0.065784472
0.014395402
-0.015725782
0.067595733
0.016947586
-0.018758847
0.069493427
0.019320371
-0.021218065
0.071677051
0.021860083
-0.024043708
0.074042735
0.024208722
-0.026574406
0.076646002
0.026690319
-0.029293586
0.079494531
0.028887277
-0.031735806
0.08258714
0.031200298
-0.034292908
0.085953456
0.033232821
-0.036599138
0.089473825
0.035577403
-0.039097772
0.093478727
0.037515777
-0.041520679
0.097740091
0.039525801
-0.043787166
0.10259276
0.041212301
-0.046064974
0.042875591
0.10774936
-0.048032191
0.065238264
0.0016665759
0.065675951
0.0039072814
0.066556287
0.0060132019
0.06755178
0.0084170891
0.069035052
0.010326349
0.070523042
0.012907412
0.072593616
0.014877012
0.074551017
0.01736297
0.077066689
0.019344411
0.079415517
0.021859894
0.082330843
0.023774993
0.085038145
0.026179974
0.088363071
0.027875372
0.091460513
0.030135379
0.095270679
0.031767237
0.098907865
0.033878591
0.10327557
0.035158095
0.10761759
0.036870283
0.037887647
0.11260553
0.069779614
0.0015020523
0.070295783
0.003391113
0.071054488
0.0052544963
0.072206657
0.0072649202
0.073500073
0.0090329324
0.075180895
0.01122659
0.077093591
0.012964316
0.07923761
0.015218951
0.081635791
0.01694623
0.084175392
0.019320293
0.08704799
0.020902396
0.089998376
0.023229588
0.093269654
0.024604094
0.096563635
0.026841399
0.10026876
0.028062108
0.10397421
0.030173148
0.10811634
0.031015965
0.1122003
0.032786322
0.033119991
0.11696795
0.074653129
0.0012505646
0.075169132
0.0028751101
0.076084093
0.0043395351
0.077235028
0.0061139858
0.0786633
0.0076046599
0.080423521
0.009466368
0.082356002
0.011031835
0.084592068
0.012982885
0.08690933
0.014628968
0.089572711
0.016656911
0.092288027
0.018187079
0.095316765
0.02020085
0.098294277
0.021626582
0.10156016
0.023575515
0.10490799
0.024714274
0.1085798
0.026501341
0.11215538
0.027440385
0.11614602
0.028795684
0.029360264
0.11990575
0.079683569
0.0011237365
0.080286539
0.0022721402
0.081172838
0.0034532362
0.082335682
0.0049511412
0.083908987
0.0060313553
0.085621917
0.0077534379
0.087662702
0.008991049
0.089846033
0.010799555
0.092191365
0.012283635
0.094775961
0.014072315
0.09738467
0.015578369
0.1003016
0.01728392
0.10307973
0.018848449
0.1061027
0.020552547
0.10908668
0.021730292
0.11209049
0.023497528
0.1150954
0.024435477
0.11807307
0.025818013
0.0265716
0.12086174
0.085253806
0.00085266432
0.085954906
0.0015710401
0.086798063
0.002610079
0.08816655
0.0035826541
0.089608169
0.0045897365
0.091410405
0.0059512014
0.093358111
0.0070433424
0.095510741
0.0086469246
0.09784812
0.0099462556
0.10029691
0.011623521
0.10280263
0.01307265
0.10547699
0.01460956
0.10798823
0.016337207
0.11076349
0.01777729
0.1130964
0.01939738
0.11553336
0.02106057
0.11759237
0.022376465
0.11936453
0.024045853
0.025259093
0.12067704
0.091287119
0.00061427587
0.091883693
0.00097446612
0.092766988
0.0017267845
0.094100978
0.0022486638
0.095514195
0.0031765196
0.097450038
0.0040153577
0.099251174
0.0052422058
0.10151529
0.0063828072
0.10360308
0.0078584714
0.10596696
0.009259636
0.1081779
0.010861706
0.11048597
0.012301491
0.11255058
0.014272598
0.11463718
0.015690694
0.11613044
0.017904124
0.11774729
0.01944372
0.11847242
0.021651332
0.11918027
0.023337999
0.025712049
0.11872732
0.097323163
0.00024824172
0.097910068
0.00038756171
0.098933599
0.00070325284
0.10023998
0.00094227887
0.10175458
0.0016619194
0.10355558
0.0022143602
0.10535727
0.0034405137
0.10749846
0.0042416206
0.10945766
0.0058992664
0.11168251
0.0070347864
0.11353617
0.0090080472
0.11548218
0.010355477
0.1169621
0.012792686
0.1183494
0.014303387
0.1190271
0.017226426
0.11939307
0.019077749
0.11867863
0.022365771
0.11769813
0.024318501
0.028314825
0.11509535
0.10430438
-0.00018691231
0.10485158
-0.00015964411
0.10597391
-0.00041907268
0.10714583
-0.00022964829
0.10868934
0.00011840894
0.11030134
0.00060236761
0.11208219
0.0016596644
0.11388512
0.0024386886
0.11563926
0.004145119
0.1173847
0.0052893494
0.11882671
0.0075660405
0.1200595
0.0091226838
0.12077419
0.012077997
0.12121393
0.013863642
0.12087094
0.017569424
0.12011683
0.019831851
0.11815415
0.024328454
0.11550788
0.026964768
0.032555456
0.11126725
0.11129648
-0.000508309
0.11187677
-0.00073992914
0.11298196
-0.0015242653
0.1140896
-0.0013372888
0.11575761
-0.0015496069
0.11714408
-0.00078410263
0.11901729
-0.00021354197
0.12050254
0.00095344048
0.12215798
0.002489673
0.12336839
0.0040789469
0.12438572
0.0065487096
0.1248865
0.0086219012
0.12497085
0.01199365
0.12422942
0.014605069
0.12274563
0.019053211
0.12045143
0.022126051
0.11712922
0.027650669
0.11306437
0.031029617
0.037859892
0.10775993
0.11897146
-0.00080623853
0.1196611
-0.0014295702
0.12052694
-0.002390111
0.12168393
-0.0024942709
0.12305429
-0.0029199704
0.12428156
-0.0020113756
0.12590666
-0.0018386417
0.12700067
-0.00014057321
0.12840006
0.0010902843
0.12883598
0.0036430328
0.12939463
0.0059900503
0.12900677
0.0090097601
0.12839137
0.012609059
0.12658253
0.016413904
0.12432931
0.021306435
0.12083751
0.025617851
0.11684757
0.031640603
0.11184459
0.036032603
0.043479942
0.10622454
0.12712288
-0.0011105508
0.12780956
-0.0021162532
0.12864916
-0.003229709
0.12989249
-0.0037376031
0.13104135
-0.0040688312
0.13235026
-0.0033202889
0.13354149
-0.0030298679
0.13447373
-0.0010728119
0.13532692
0.0002370915
0.13529257
0.0036773779
0.13520089
0.0060817369
0.13375459
0.010456055
0.13216657
0.014197081
0.12931596
0.019264511
0.12630277
0.024319628
0.12204697
0.029873651
0.11767804
0.036009537
0.11228831
0.04142233
0.049011965
0.10675629
0.13587034
-0.0013934552
0.13655184
-0.0027977472
0.13724568
-0.0039235516
0.13828928
-0.0047812006
0.13921183
-0.004991387
0.14038034
-0.0044887945
0.14100415
-0.0036536841
0.14164168
-0.0017103425
0.1417342
0.00014457393
0.14141582
0.003995757
0.14050597
0.0069915859
0.13858528
0.012376745
0.13646153
0.016320828
0.1329563
0.022769744
0.12938829
0.027887643
0.1245464
0.034715539
0.12007212
0.04048382
0.11445976
0.04703469
0.054542787
0.10892893
0.14535462
-0.0017252913
0.14593122
-0.0033743436
0.14655336
-0.0045456898
0.14749692
-0.0057247643
0.14829878
-0.0057932509
0.14928554
-0.0054755515
0.14960538
-0.0039735208
0.14985275
-0.0019577142
0.14908705
0.00091026895
0.14814467
0.0049381387
0.14632674
0.0088095183
0.14418819
0.014515289
0.1413075
0.019201518
0.137474
0.026603248
0.13370738
0.031654259
0.12888275
0.039540173
0.1248061
0.044560465
0.11944846
0.052392328
0.058480443
0.11551081
0.15520944
-0.0020238293
0.15568157
-0.0038464813
0.15630292
-0.0051670382
0.15702385
-0.0064456896
0.15763963
-0.0064090339
0.15829275
-0.0061286737
0.15832617
-0.0040069394
0.15819377
-0.0018253092
0.15699941
0.0021046224
0.15578903
0.0061485208
0.15345909
0.011139456
0.15094594
0.01702844
0.1472284
0.022919059
0.14364904
0.030182608
0.13988101
0.035422283
0.13610476
0.043316428
0.1333186
0.047346627
0.13055143
0.055159492
0.057754395
0.13127748
0.16643505
-0.0022876867
0.16680525
-0.004216684
0.16735522
-0.0057170033
0.16776045
-0.0068509165
0.1680872
-0.0067357845
0.16810936
-0.0061508412
0.16770741
-0.0036049888
0.16702235
-0.0011402518
0.16553837
0.0035886087
0.16396344
0.0077234453
0.1612187
0.0138842
0.1585338
0.01971334
0.15505179
0.02640107
0.15258769
0.032646711
0.14984628
0.038163687
0.14866368
0.044499033
0.14860128
0.047409024
0.15132242
0.05243835
0.050271899
0.15880492
0.17762456
-0.0024309457
0.17794197
-0.0045340907
0.17846672
-0.0062417588
0.17881889
-0.0072030813
0.1790304
-0.0069473024
0.17869683
-0.0058172656
0.17811802
-0.0030261868
0.17702772
-4.9942357e-05
0.17537136
0.0052449675
0.17328387
0.0098109362
0.17044548
0.016722587
0.16805444
0.02210438
0.16559757
0.028857941
0.16460355
0.033640724
0.1640083
0.038758938
0.16647092
0.042036416
0.17064308
0.04323686
0.17921616
0.043865269
0.038683324
0.19080474
0.19055272
-0.0023625461
0.19060831
-0.0045896784
0.19072747
-0.0063609192
0.19076776
-0.0072433714
0.19066427
-0.0068438132
0.19003677
-0.0051897669
0.18925997
-0.0022493845
0.18776802
0.0014420023
0.18612091
0.006892076
0.18393953
0.011992317
0.18189165
0.018770468
0.18052066
0.023475374
0.17988657
0.029492031
0.18105554
0.032471754
0.18382352
0.035990956
0.19005764
0.035802296
0.19783553
0.035458973
0.20911937
0.032581424
0.027681562
0.22012113
0.20370492
-0.0023893589
0.20393725
-0.0048220121
0.2039943
-0.0064179673
0.20380103
-0.0070501019
0.20335836
-0.0064011482
0.20259534
-0.0044267442
0.20166799
-0.0013220367
0.19993897
0.0031710304
0.19832729
0.0085037522
0.19636583
0.013953776
0.19547212
0.019664181
0.19541192
0.023535575
0.19695956
0.027944389
0.20038342
0.029047897
0.20607088
0.030303492
0.21413248
0.02774069
0.22290189
0.026689568
0.2330292
0.022454119
0.020728422
0.23998234
0.21854548
-0.002443313
0.21856503
-0.004841563
0.21837475
-0.0062276917
0.21807015
-0.0067455049
0.21748568
-0.0058166721
0.2166114
-0.0035524634
0.21532644
-3.7083372e-05
0.21383846
0.0046590098
0.21264316
0.0096990532
0.21175566
0.014841279
0.21253105
0.018888792
0.21405478
0.02201184
0.21793352
0.024065655
0.22318113
0.02380028
0.23033996
0.023144664
0.23805295
0.020027697
0.24546807
0.019274454
0.25186372
0.016058466
0.01836491
0.25422723
0.23420867
-0.0025701867
0.23396872
-0.0046016218
0.2337001
-0.005959067
0.2331273
-0.0061727029
0.23222747
-0.0049168396
0.23117853
-0.0025035287
0.22993502
0.0012064249
0.22877257
0.0058214634
0.22807076
0.010400862
0.22859065
0.014321391
0.23050799
0.016971449
0.233535
0.018984835
0.23881897
0.018781679
0.24439236
0.018226896
0.25112215
0.016414868
0.2568402
0.014309652
0.26134827
0.014766386
0.2629609
0.01444583
0.020504696
0.26082112
0.25127458
-0.0023769615
0.25097178
-0.0042988226
0.25069079
-0.0056780776
0.2500445
-0.0055264118
0.24942999
-0.0043023294
0.24845317
-0.0015267114
0.24743726
0.0022223371
0.24689353
0.006365195
0.24733931
0.0099550774
0.24921595
0.012444752
0.25208091
0.014106486
0.25642187
0.01464388
0.2613549
0.013848645
0.266316
0.013265795
0.27142631
0.011304561
0.27373486
0.012001102
0.27425513
0.01424611
0.27132252
0.017378443
0.025544736
0.26628248
0.26964512
-0.0020234174
0.26927118
-0.0039248827
0.2684569
-0.004863796
0.26736993
-0.0044394469
0.26628557
-0.0032179604
0.26537932
-0.0006204671
0.26498095
0.0026207125
0.26524344
0.0061027044
0.26665144
0.0085470705
0.26914363
0.0099525688
0.27252183
0.010728279
0.27693147
0.010234244
0.28095842
0.009821696
0.28509905
0.0091251667
0.28698399
0.0094196178
0.28626573
0.012719359
0.28465241
0.015859429
0.28058687
0.021443982
0.028083967
0.27804764
0.29000337
-0.0018827292
0.28964392
-0.0035654304
0.28900702
-0.0042268975
0.28840545
-0.0038378718
0.28760885
-0.0024213627
0.28698426
4.1235771e-06
0.28711043
0.0024945483
0.28813972
0.0050734076
0.2901713
0.0065154903
0.2928409
0.0072829734
0.29615834
0.0074108337
0.29948395
0.0069086356
0.3023644
0.0069412462
0.30396065
0.0075289147
0.30290795
0.010472321
0.30186292
0.013764395
0.30042326
0.01729909
0.30005239
0.021814845
0.023777136
0.30435922
0.31165178
-0.0014417048
0.31076497
-0.0026786193
0.30942401
-0.0028859392
0.30799621
-0.0024100701
0.30702281
-0.0014479655
0.30698068
4.6252442e-05
0.30741221
0.0020630184
0.30896263
0.003522986
0.31119051
0.0042876127
0.31386355
0.0046099333
0.3167851
0.0044892879
0.31938547
0.0043082586
0.32131102
0.0050156963
0.32195039
0.0068895446
0.32272346
0.0096992554
0.3246656
0.011822251
0.32744166
0.014523032
0.33386937
0.015387136
0.014918564
0.34272794
0.33574695
-0.0011852418
0.33501168
-0.0019433537
0.33415418
-0.0020284348
0.33352159
-0.0017774809
0.33330514
-0.0012315136
0.33356428
-0.00021288859
0.33478152
0.00084577869
0.33664199
0.0016625138
0.33870595
0.00222365
0.34090551
0.0024103814
0.34268187
0.0027129263
0.3437992
0.003190925
0.34449687
0.0043180301
0.34603435
0.0053520588
0.34898339
0.0067502157
0.35328494
0.0075206992
0.35959877
0.0082092094
0.36814847
0.0068374344
0.0064292315
0.3766378
0.36169088
0.35974753
0.35771909
0.35594161
0.3547101
0.35449721
0.35534299
0.3570055
0.35922915
0.36163953
0.36435246
0.36754338
0.37186141
0.37721347
0.38396369
0.39148439
0.3996936
0.40653103
0.41296026
0.10645253
0.051197442
-0.049900604
0.10558764
0.052732611
-0.05186773
0.10475537
0.054286049
-0.053453775
0.10451447
0.055126669
-0.054885768
0.10462008
0.056336076
-0.056441688
0.1049651
0.057742248
-0.058087264
0.10590308
0.057781399
-0.058719383
0.1073084
0.058377627
-0.059782945
0.10911262
0.059565211
-0.061369433
0.1113606
0.059000374
-0.061248355
0.11437043
0.05821623
-0.06122606
0.11751702
0.058112878
-0.061259463
0.12083599
0.057992887
-0.061311864
0.12427941
0.057017191
-0.060460603
0.12797892
0.054387527
-0.058087043
0.13085731
0.053115927
-0.055994317
0.13134006
0.05254082
-0.053023565
0.129726
0.051341404
-0.049727347
0.050064915
0.12625896
-0.046597878
0.11106708
0.052735892
0.10969423
0.054105467
0.1087631
0.05521718
0.1082585
0.05563126
0.10793429
0.056660293
0.1083451
0.057331435
0.10910727
0.05701923
0.11016691
0.057317983
0.11182732
0.0579048
0.11395733
0.056870364
0.11659728
0.055576281
0.1194714
0.055238755
0.12250726
0.054957029
0.12572731
0.05379714
0.12863688
0.051477963
0.1311978
0.050555001
0.13299104
0.050747587
0.13393486
0.050397577
0.050904132
0.13309565
0.11472403
0.054979812
0.11304414
0.055785356
0.11164997
0.056611358
0.11067681
0.056604414
0.1101028
0.057234305
0.11006679
0.05736745
0.11055067
0.056535342
0.1111461
0.056722554
0.1125937
0.056457206
0.11470745
0.054756615
0.11682228
0.053461447
0.11916802
0.052893009
0.1226031
0.051521952
0.1267936
0.049606645
0.13036837
0.04790319
0.13311192
0.047811448
0.13552286
0.048336643
0.13697112
0.048949326
0.050438305
0.13743694
0.1175517
0.057333855
0.11509761
0.058239444
0.11329665
0.058412319
0.11157277
0.058328294
0.11037868
0.058428397
0.10999297
0.057753162
0.10957894
0.056949373
0.10996256
0.056338932
0.11152315
0.054896611
0.11279229
0.053487479
0.11472997
0.051523768
0.11813475
0.049488233
0.12251806
0.047138639
0.12661632
0.045508379
0.13014531
0.044374207
0.13402118
0.043935573
0.13896814
0.043389689
0.14431965
0.043597816
0.045749144
0.14900881
0.11794671
0.060248879
0.11513571
0.06105045
0.11280757
0.060740451
0.11033935
0.060796522
0.10877715
0.059990594
0.10726228
0.059268036
0.10645481
0.057756839
0.10665967
0.056134075
0.10691831
0.054637963
0.10844895
0.051956847
0.11138345
0.048589268
0.1145938
0.046277877
0.11860095
0.043131496
0.12433489
0.039774434
0.13217537
0.036533722
0.14179803
0.03431292
0.15156029
0.033627429
0.16045582
0.034702278
0.038299621
0.16790535
0.11660575
0.064320167
0.11332144
0.064334763
0.10973894
0.064322949
0.10695103
0.063584431
0.10414554
0.062796082
0.10218993
0.061223644
0.10062785
0.059318923
0.099225372
0.05753655
0.099719638
0.054143696
0.10136129
0.050315193
0.10272516
0.047225403
0.10710577
0.041897269
0.11492871
0.035308556
0.12423599
0.030467149
0.13343876
0.027330954
0.14196282
0.025788857
0.14961576
0.025974486
0.15689419
0.027423853
0.031036896
0.16415691
0.11405039
0.06899709
0.10962718
0.068757977
0.10503086
0.068919272
0.10081776
0.067797528
0.096683031
0.06693081
0.093382551
0.064524125
0.089734069
0.062967405
0.088173937
0.059096682
0.086955266
0.055362366
0.08544602
0.051824439
0.086971201
0.045700222
0.092835729
0.036032741
0.098071827
0.030072458
0.099703039
0.028835937
0.098356527
0.028677466
0.095258126
0.028887257
0.091794899
0.029437713
0.089366143
0.02985261
0.031348498
0.089054541
0.10939591
0.074696533
0.10337836
0.074775528
0.097604103
0.07469353
0.091526203
0.073875428
0.085813778
0.072643235
0.079538719
0.070799185
0.073930432
0.068575691
0.068512685
0.06451443
0.062012311
0.06186274
0.058617695
0.055219056
0.056843193
0.047474724
0.05354144
0.039334495
0.046107698
0.0375062
0.035178873
0.039764763
0.022462707
0.041393632
0.0096495964
0.041700368
-0.0032017101
0.042289019
-0.017020726
0.043671625
0.045722504
-0.031394733
0.10406848
0.0818953
0.096470828
0.082373183
0.088924807
0.082239551
0.080796558
0.082003677
0.072518355
0.080921437
0.06303984
0.080277699
0.053370624
0.078244907
0.041820711
0.076064343
0.033136813
0.070546638
0.027643238
0.06071263
0.017548876
0.057569085
0.0022984894
0.054584881
-0.01494361
0.054748299
-0.03167711
0.056498263
-0.048924397
0.058640918
-0.066878295
0.059654267
-0.085019378
0.060430103
-0.10366797
0.062320218
0.065430877