/*--------------------------------*- C++ -*----------------------------------*\
  =========                 |
  \\      /  F ield         | OpenFOAM: The Open Source CFD Toolbox
   \\    /   O peration     | Website:  https://openfoam.org
    \\  /    A nd           | Version:  11
     \\/     M anipulation  |
\*---------------------------------------------------------------------------*/
FoamFile
{
    format      ascii;
    class       volScalarField;
    location    "0.35923525";
    object      Ma;
}
// * * * * * * * * * * * * * * * * * * * * * * * * * * * * * * * * * * * * * //

dimensions      [0 0 0 0 0 0 0];

internalField   nonuniform List<scalar> 
880
(
1.118016635923817
1.118016634793396
1.117913278383099
1.101702618274585
1.118016635922823
1.118016632481563
1.117870541095874
1.096269153414997
1.118016635905756
1.118016621504525
1.117737699443444
1.089039353036434
1.118016635824109
1.118016566726951
1.117400366253517
1.069555334540531
1.118016636535325
1.118016634945924
1.118016603634989
1.118016146181414
1.118016282148671
1.118014695901439
1.118008386364897
1.118021818286225
1.116457628664198
1.115369381920088
1.113824381858705
1.113109266946247
1.03131868550405
0.9943410014172748
0.9723377946588301
0.9700775473077605
1.118010992362099
1.117995259892812
1.117968928149458
1.117859302156371
1.117902556742274
1.117468096146876
1.116770920369919
1.115507667249268
1.104434101000344
1.097435556762883
1.088274693332418
1.07990410030132
0.9590693861992093
0.9591352117009118
0.9575137146083031
0.9810536686238676
1.040053157062686
1.07562425504524
1.089969216561293
1.104393085782463
1.065631743273718
1.065219090288795
1.069326335564278
1.077707439424809
1.111149058855957
1.105552667954639
1.10043280335512
1.097673163144823
1.11731675301798
1.116401047013422
1.115078589333448
1.113440682772828
1.111890114807055
1.110735961757312
1.109985375223174
1.109839981693517
1.097061472416123
1.098712161129916
1.102514879299038
1.107802574633395
1.086124903137198
1.096164040872612
1.105647014598011
1.113536471116318
1.111645876204976
1.119220186581321
1.123416397971006
1.126389521268086
1.128791865645611
1.120906538446792
1.113436943825338
1.109951952930286
1.079490477725346
1.125823027536633
1.120187699720138
1.110313932642375
0.8046144202711579
1.115050917818605
1.125647182623101
1.111386104059852
0.5734045119182289
1.037972080082033
1.125572540671053
1.113024045905267
1.113322211313856
1.121409862232668
0.9542287338531668
0.5177903968592824
1.108802934830868
1.108874607232391
0.8848701840149976
0.5549431865733501
1.106524198641819
1.080246592957381
0.807505823461738
0.5746166413082513
1.100895800600328
1.03351032761884
0.7627580959631693
0.614086169141155
0.6624721967517112
0.7509878535500617
0.9748997793657863
1.089463968003099
0.7143565474442536
0.7749390982176754
0.921915706889791
1.069248419497992
0.767491691469931
0.8176036039645573
0.905348503212795
1.037926783285921
0.815171481951161
0.8746819401422512
0.9234563266033261
1.006076065751817
0.9854193185268666
0.9755971691792041
0.9503705000317054
0.8753675464528308
1.009919848526855
1.039761002463777
1.036596062082223
0.9571063202445277
1.038620555492463
1.101927580416995
1.127949772409029
1.064399259236351
1.064422934469173
1.14982811733085
1.216003088030233
1.193060830645829
1.084293460444691
1.191061061895263
1.305726466165971
1.394837799980593
1.1090671362767
1.22150601490112
1.366102982997205
1.585974816627316
1.124974325784215
1.226891935942797
1.411598184468688
1.774901974005907
1.134436795493145
1.212808067671903
1.386971113911641
1.945073674668895
1.717464810180547
1.321799505750373
1.201072930114298
1.140474238920153
1.181727304231822
1.275074318687043
1.188874191587584
1.140461600835113
1.027533460201865
1.2528455647308
1.179569346718539
1.136956427741171
0.8788696685445414
1.215797914800362
1.165456615605106
1.132922938862502
0.8055032936030744
1.162028977461242
1.142392079274468
1.12567493784822
0.7301835334490941
1.092242235544685
1.117139538022568
1.118953268649447
0.6969534349512722
1.041878911271236
1.105959156049175
1.117614319505851
0.6807096918004083
1.033195469240975
1.106960155573231
1.11761470474676
0.6500052682392986
0.9389530199236333
1.06946605352009
1.113028397695309
0.657184928718494
0.9372246243998538
1.069605417919436
1.112891696036964
0.6852869908129898
0.9362582731803244
1.070401382488031
1.112842269638907
0.7090159087692408
0.9439670388714544
1.073784847925871
1.113118190875859
0.6807096918008453
1.033195469242297
1.106960155577393
1.11761470475193
0.6969534349522496
1.041878911275391
1.105959156051141
1.11761431950944
0.7301835334517227
1.092242235547686
1.117139538023505
1.118953268652717
0.805503293603974
1.162028977465963
1.142392079275145
1.125674937849443
1.140474238918071
1.201072930115385
1.321799505750258
1.717464810180135
1.140461600834753
1.188874191588011
1.275074318687905
1.181727304235536
1.136956427739175
1.17956934671804
1.252845564736316
1.027533460199792
1.132922938859642
1.16545661560161
1.215797914802629
0.8788696685463171
1.945073674673831
1.386971113912305
1.212808067674095
1.134436795492697
1.77490197400662
1.411598184469548
1.226891935944325
1.1249743257827
1.585974816626635
1.366102982995128
1.221506014902951
1.109067136271443
1.39483779997861
1.305726466167981
1.191061061899326
1.084293460439883
0.9854193185245058
0.975597169176124
0.9503705000296016
0.8753675464531222
1.00991984852654
1.039761002464106
1.036596062080188
0.9571063202442031
1.038620555496089
1.101927580418875
1.127949772407711
1.064399259235621
1.064422934468145
1.149828117333604
1.216003088029626
1.193060830643839
0.8151714819514884
0.8746819401418184
0.9234563266012752
1.006076065744749
0.7674916914708469
0.8176036039651983
0.9053485032120565
1.037926783284411
0.7143565474445903
0.7749390982188483
0.921915706889935
1.06924841949478
0.6624721967526397
0.7509878535493147
0.97489977936154
1.089463968001987
1.113322211314772
1.121409862232545
0.9542287338547664
0.517790396860806
1.108802934825425
1.108874607231192
0.8848701840158585
0.5549431865750477
1.106524198633247
1.080246592951347
0.8075058234618445
0.5746166413091166
1.100895800598096
1.03351032762046
0.7627580959646094
0.6140861691417706
1.11302404590452
1.111386104060613
1.11031393263851
1.109951952929707
1.125572540675357
1.125647182626309
1.120187699718171
1.113436943824302
1.037972080086643
1.115050917819044
1.125823027539729
1.120906538448009
0.5734045119204944
0.8046144202742002
1.079490477724431
1.128791865645335
1.109839981690861
1.107802574631048
1.113536471115373
1.126389521267716
1.109985375226109
1.102514879295633
1.105647014597791
1.123416397970713
1.110735961756979
1.098712161129366
1.096164040876057
1.119220186584307
1.111890114809878
1.097061472416817
1.08612490313576
1.111645876205543
1.117316753018312
1.111149058860368
1.065631743272675
1.040053157060604
1.116401047016276
1.105552667959292
1.065219090288416
1.07562425504606
1.115078589329316
1.100432803359688
1.069326335566477
1.089969216566749
1.113440682775041
1.097673163145834
1.077707439425193
1.10439308578491
0.9810536686246939
1.079904100301447
1.115507667253636
1.117859302152952
0.9575137146092774
1.088274693331872
1.116770920372193
1.117968928151222
0.9591352117011489
1.097435556764852
1.117468096154979
1.117995259895067
0.9590693861996742
1.10443410100328
1.117902556746118
1.118010992359814
0.9700775473066321
1.113109266946495
1.11802181828679
1.118016146179236
0.9723377946569698
1.113824381859208
1.118008386368273
1.118016603632581
0.9943410014112819
1.115369381921292
1.118014695904813
1.118016634947369
1.031318685494941
1.116457628666875
1.118016282151763
1.118016636532614
1.118016635923625
1.118016634792657
1.11791327838298
1.101702618273673
1.118016635921967
1.118016632485307
1.117870541096674
1.096269153404686
1.118016635905015
1.118016621508175
1.117737699443393
1.089039353020617
1.118016635822624
1.118016566729141
1.117400366253696
1.069555334528412
1.090021955371129
1.079809400330773
1.058234813119933
1.008456210481121
1.079809400339802
1.06415059835133
1.027796397934807
0.9529334321144448
1.058234813139497
1.027796397949504
0.9622082382005362
0.859109516019275
1.008456210499841
0.9529334321366226
0.8591095160324164
0.7515453008497857
0.7259581200811918
0.7634729926211703
0.8354134899216765
0.9069059922257617
0.7808840853108036
0.7857146489867434
0.8156865486307886
0.8610037057096439
0.7683371739391553
0.8085910413924889
0.8384377582736864
0.8598148511534444
0.8035047987314384
0.8475338414314778
0.8694716728214352
0.8807782951944348
0.8966520995641138
0.9095158492648743
0.9296247994162907
0.9684915882833047
0.8949921365503302
0.9106170297579338
0.9352852798389906
0.9903472542612027
0.8839071238023268
0.9081222728812945
0.936598349450392
1.05409292113618
0.8334670076605132
0.8609972496879542
0.8995071426659444
1.141561380537861
1.149102624090122
1.19019095743525
1.162244731097172
1.155848555921363
1.27048409147203
1.298132314023766
1.245479997283953
1.213594541472832
1.425516393751148
1.363578568898715
1.297061632079523
1.251312184229922
1.160550748136247
1.10103596479374
1.087576867267613
1.089678422278828
1.158621896442625
1.159546153539077
1.157141175321373
1.153222070088288
1.197679320170909
1.182975013687127
1.168753827189351
1.156243715216816
1.22363556742223
1.198458090148339
1.175102556663538
1.153896369549079
1.088934817656688
1.078627621057877
1.068265249035607
1.050980316407138
1.122114342902128
0.8700129330726117
0.5643568150678619
0.3648340148170957
1.090920136435109
0.697613791969157
0.3661656235578528
0.1741360013448901
1.032836561828852
0.5043396558188595
0.1475437554286546
0.03135561864729672
0.8517602492083817
0.3004640700326069
0.02332790955910629
0.1011545056816323
0.3408976664613012
0.4415095100358465
0.5060765274657308
0.569619417300228
0.2433984684637652
0.3991283029539134
0.4925648120247287
0.5666266759880045
0.1101847921835753
0.3087581839719944
0.4557145428784862
0.5501826713580105
0.009858449658221202
0.1609775122321281
0.3251026652335324
0.4612703180902213
0.6437897044244353
0.7091233942255393
0.7653463460060932
0.8044259337495312
0.6372069718592468
0.7038026641377502
0.7599631290240579
0.799677596999258
0.6207887849907315
0.6914814173388227
0.7536166090603288
0.7976356316664588
0.5749308595198048
0.6673093032941242
0.7485518776840081
0.7963447402319823
0.8505508505408264
0.9213132598548616
1.016683933182978
1.130832247597633
0.8424443123069224
0.9072177274574937
0.9950902892243374
1.146748708146914
0.8386706969493969
0.8955821204799534
1.009277139131857
1.46524749826242
0.8366971492797504
0.8901275887440674
1.035239590664903
2.043034472548489
1.358004157641074
1.5027473422022
0.7467044198901241
1.54094584835185
1.440688724166516
1.29188846199032
1.120960197553728
1.900704012907403
1.484630830615862
0.9245275216226734
1.364564823010686
1.930163083723583
1.143592128747369
0.437243312645451
1.650010806760464
1.864181258290151
1.320054520496209
0.890699750295383
0.6860908894243819
0.4518938993781717
1.399963691082743
0.9917540122784404
0.7130694618329948
0.3512400550719956
1.337998053420452
0.9695904565377522
0.614746683411842
0.2354615162022752
1.275453367590362
0.9266891699200592
0.5551665926173315
0.1790069772735396
0.3129814251657666
0.09001605413872553
0.1519542071799932
0.3539392335771064
0.357567112222678
0.2740358753582482
0.06743124344203355
0.2737590718424499
0.3253539343273958
0.3765519780883469
0.2087357828283664
0.1802091702500428
0.2563802674846439
0.377071680216222
0.2874960423371774
0.05460252790066224
0.3303612206298319
0.3633324939629473
0.3674660880042392
0.3665574459912852
0.3127523207206937
0.2977562099163018
0.3017587608917341
0.2879428719629855
0.2125420049976186
0.1577254417573437
0.1531299626323354
0.1300877319175885
0.1153287425902778
0.06703492908557053
0.08520894448659441
0.08051848595632588
0.06427393009447298
0.0605396143111973
0.05568896130569691
0.04946458447390949
0.08590688640274503
0.03554224451291856
0.01249121052071438
0.03216497705272659
0.2343472992902046
0.1729367067608974
0.1018703901283869
0.04156897980123663
0.3263219092152912
0.278147438125542
0.2179028940752145
0.1782803489707269
0.04946458447366068
0.03216497705276
0.04156897980103975
0.1782803489705927
0.0556889613050117
0.01249121052084913
0.1018703901284095
0.2179028940760258
0.0605396143106036
0.03554224451309001
0.1729367067610234
0.2781474381262423
0.06427393009405952
0.08590688640301088
0.2343472992903537
0.326321909215375
0.3665574459902315
0.3674660880041706
0.3633324939625042
0.3303612206295713
0.2879428719629489
0.301758760891642
0.2977562099158497
0.3127523207203834
0.1300877319177085
0.1531299626323107
0.1577254417573172
0.2125420049973967
0.08051848595641434
0.08520894448697161
0.0670349290861228
0.1153287425907959
0.05460252790032441
0.287496042334984
0.3770716802136964
0.2563802674830157
0.1802091702499321
0.2087357828269326
0.3765519780852927
0.3253539343241127
0.273759071842327
0.06743124344132737
0.2740358753547772
0.3575671122192707
0.3539392335771911
0.1519542071813993
0.09001605413473418
0.3129814251605572
0.4518938993734998
0.6860908894251311
0.8906997503102851
1.320054520484483
0.3512400550691299
0.7130694618316855
0.9917540122842121
1.399963691083686
0.2354615162010762
0.6147466834108413
0.9695904565390068
1.337998053421919
0.1790069772736869
0.5551665926173559
0.9266891699203231
1.275453367593055
1.540945848311396
0.7467044198865344
1.502747342198184
1.358004157638351
1.900704012897013
1.12096019756201
1.291888461989546
1.440688724165442
1.930163083729083
1.364564823017513
0.9245275216208931
1.484630830613615
1.864181258293056
1.650010806769525
0.4372433126460291
1.143592128748316
1.130832247596486
1.016683933182506
0.9213132598554766
0.8505508505411107
1.146748708146818
0.9950902892233608
0.9072177274570299
0.842444312307828
1.465247498261606
1.009277139131604
0.8955821204786767
0.8386706969494635
2.043034472545215
1.035239590664542
0.8901275887424903
0.8366971492803613
0.8044259337507373
0.7653463460075128
0.7091233942251782
0.6437897044248212
0.7996775970003401
0.759963129023902
0.7038026641388803
0.6372069718593387
0.7976356316659148
0.7536166090610306
0.6914814173390722
0.6207887849910428
0.7963447402326269
0.7485518776841372
0.6673093032942071
0.574930859518941
0.5696194173009552
0.5060765274675852
0.4415095100358282
0.3408976664618979
0.5666266759883167
0.4925648120266615
0.3991283029546316
0.2433984684646112
0.5501826713582909
0.4557145428793283
0.3087581839727607
0.110184792184364
0.4612703180894898
0.3251026652326536
0.1609775122323922
0.009858449658438705
0.3648340148180816
0.5643568150704003
0.8700129330733939
1.122114342899932
0.1741360013457632
0.366165623560306
0.6976137919716322
1.09092013643316
0.03135561864670055
0.1475437554302747
0.5043396558214066
1.032836561826704
0.1011545056814891
0.02332790955921417
0.3004640700334333
0.8517602492052562
1.153222070087161
1.157141175325184
1.159546153545214
1.158621896447425
1.156243715214799
1.168753827190355
1.182975013692177
1.197679320174398
1.153896369546628
1.175102556663469
1.198458090153092
1.223635567426087
1.050980316402869
1.068265249036815
1.078627621060838
1.088934817660425
1.155848555926224
1.162244731104112
1.190190957434022
1.149102624089118
1.213594541479056
1.245479997290884
1.298132314022636
1.270484091471612
1.251312184236509
1.297061632086443
1.363578568897088
1.425516393751705
1.089678422279476
1.087576867273159
1.101035964792767
1.160550748138675
0.9684915882833769
0.9296247994161304
0.9095158492618258
0.8966520995619558
0.9903472542613393
0.9352852798357404
0.9106170297546391
0.894992136546937
1.054092921136819
0.9365983494498575
0.9081222728776009
0.8839071237972985
1.141561380537076
0.8995071426634963
0.8609972496847182
0.8334670076564945
0.880778295192679
0.8598148511506886
0.8610037057064368
0.9069059922139475
0.8694716728195754
0.8384377582688031
0.8156865486254162
0.8354134899088068
0.84753384142549
0.8085910413851941
0.7857146489790748
0.7634729926118791
0.8035047987272494
0.7683371739321339
0.7808840853031728
0.7259581200777441
0.6232862867253727
1.002705630945214
1.09902069454945
1.116673359217074
0.657412788511319
0.9785218752729515
1.091855344361857
1.115850716140788
0.6902743979113923
0.9705199223533247
1.08581952496032
1.114840427367126
0.7062609055163647
0.9574432113883747
1.079433104367592
1.113852894991083
1.113028397693147
1.06946605351971
0.9389530199226367
0.6500052682371317
1.112891696037433
1.069605417919561
0.9372246243990086
0.6571849287194306
1.112842269639491
1.070401382488644
0.9362582731795432
0.685286990813235
1.113118190877257
1.073784847927999
0.9439670388708463
0.7090159087681814
1.113852894991761
1.114840427364537
1.115850716141831
1.116673359221423
1.079433104371371
1.08581952496205
1.091855344365203
1.099020694553229
0.9574432113888911
0.9705199223547756
0.9785218752737007
1.002705630944997
0.7062609055160116
0.6902743979116657
0.6574127885111752
0.623286286725141
)
;

boundaryField
{
    back
    {
        type            empty;
    }
    inlet
    {
        type            calculated;
        value           nonuniform List<scalar> 
16
(
1.118016635923817
1.118016635923327
1.118016635921991
1.118016635900154
1.118016636034887
1.118016635839496
1.118016624558312
1.118016452908534
1.118016452907681
1.118016624557771
1.118016635839877
1.118016636034292
1.118016635923624
1.118016635923231
1.118016635921705
1.118016635899328
)
;
    }
    front
    {
        type            empty;
    }
    top
    {
        type            calculated;
        value           uniform 0;
    }
    outlet
    {
        type            calculated;
        value           nonuniform List<scalar> 
16
(
1.111558887851455
1.111422187792698
1.111388613357402
1.111763742803507
1.116097276652547
1.11512006840213
1.113890245860787
1.112672813031594
1.111558887848877
1.111422187792749
1.111388613358005
1.111763742804996
1.112672813032114
1.113890245858048
1.115120068403494
1.116097276657063
)
;
    }
    bottom
    {
        type            calculated;
        value           uniform 0;
    }
    wall
    {
        type            calculated;
        value           uniform 0;
    }
}


// ************************************************************************* //
