/*--------------------------------*- C++ -*----------------------------------*\
  =========                 |
  \\      /  F ield         | OpenFOAM: The Open Source CFD Toolbox
   \\    /   O peration     | Website:  https://openfoam.org
    \\  /    A nd           | Version:  11
     \\/     M anipulation  |
\*---------------------------------------------------------------------------*/
FoamFile
{
    format      ascii;
    class       volScalarField;
    location    "0.35923525";
    object      p;
}
// * * * * * * * * * * * * * * * * * * * * * * * * * * * * * * * * * * * * * //

dimensions      [0 2 -2 0 0 0 0];

internalField   nonuniform List<scalar> 
880
(
80.0000000000004
80.00000016385775
80.01345658290541
81.88034094188818
80.00000000017729
80.0000004813165
80.0166904082466
82.76388851695937
80.00000000090172
80.00000187777135
80.03089488398599
83.82257791123331
80.0000000120275
80.0000082456754
80.06380925035306
85.40754369805484
79.9999999446778
80.00000002780087
80.00000611598668
80.00009435549556
80.00003799621466
80.00014606289866
80.00091099741562
80.00134649193859
80.14459790223745
80.2345734080244
80.38548760525124
80.5377859995952
88.34436036338897
91.39559044491941
94.00065354856126
95.23496781469414
80.0002334352873
80.00190270498287
80.00718963337469
80.02228089523258
80.01262417346159
80.054075893985
80.10847685925398
80.22875591698899
81.27049518475945
81.90766324469656
82.71481621927461
83.76511987272336
96.38506860443093
97.95087655368162
98.27348412761756
97.50849233209749
90.98665375298145
87.50957088856013
85.83751636835427
84.74259000291842
85.69174082179019
86.37140996063958
86.77396414049075
86.80858875898086
80.63879784821006
81.12353772032452
81.63900011909736
82.02323150956954
80.07908811076086
80.19128750489928
80.36115828623237
80.59965721839991
80.87775358588847
81.15708384912359
81.43361973340768
81.64004360716346
82.31285406925672
82.48080970569397
82.56760545812638
82.57334653637911
86.44906178368927
85.94967962243015
85.2945492915013
84.61630424176931
83.58709942540422
82.89854897904232
82.50699035747786
82.07914138515507
82.08344758681298
84.14366064755289
82.52050251839042
81.76636512949894
87.74221415933437
83.86378048718969
82.3695014780558
81.74665607994285
120.5568107865748
85.26202624762982
82.18750717418881
81.49455946105121
158.3474400072615
93.05753358432031
82.67018097565698
81.40186247056234
81.37293901655833
83.39320809584407
102.7712577406428
175.0764849594898
80.87268842329539
84.75155569266151
113.7340736803696
174.2793833419282
81.08510289854414
87.9014467276682
128.372392205315
176.1372772572799
81.89135729708953
93.58545796658207
142.2707347456088
173.4128222400481
167.7074834888489
149.950665678251
102.2396335133847
83.66776424158193
160.7384329600626
151.1909426653384
111.8296941035996
86.84017399402896
153.3431954089083
148.9209178167055
120.1254634652151
91.94264815071554
145.6347162141586
138.9087985294458
121.4586983218723
98.31227588563769
103.9487786399073
117.3638525512568
126.567646231609
136.6078127013158
103.1375063825978
109.2148214560345
113.4276100441071
123.6649344341518
100.8366245450564
101.4842589796924
100.6813416357076
107.3274226920093
97.84648930419732
95.22408283477341
89.17513289876185
88.30752585938936
95.4683013933122
89.32755584726262
78.72375099904666
66.39565289390816
91.68565252803083
83.96082580580271
69.93167689049996
43.06377830872246
88.80542267772519
81.54220875032037
63.23961943372022
26.3939282999299
86.35646570039445
80.46176790630865
58.99110240554384
14.84810099368476
15.60574955538885
60.56916717302894
79.58678736258021
84.17248116395325
24.7632300086875
61.36499169879276
78.99418474712277
82.7050933631308
27.33970136743123
61.04522085683547
78.13600005562559
81.71382662246799
25.83948624187746
60.43857095942633
77.5298024776605
81.17535364399032
31.26909558540031
63.06654425716292
77.2020969414596
80.23975012144457
36.95816238148981
65.60887262655142
77.11657237552915
79.68640205783954
43.59639142062152
68.8497091278803
77.314491042787
79.66585515902143
51.42002376888647
71.09838443595802
77.69928865863893
79.73914769296525
53.28212717027075
58.94015879288443
73.28918529039561
79.26093455546069
51.93650346869255
60.14529103386235
73.51430755942529
79.25271251389046
49.49655911099045
61.86260376657751
74.01487559847857
79.254611039246
47.17456883999434
63.8210202113528
74.73205256160684
79.31312411965277
51.42002376888454
71.09838443589234
77.69928865864223
79.7391476926412
43.59639142065814
68.8497091275738
77.31449104266979
79.66585515854726
36.95816238149249
65.60887262633661
77.11657237512742
79.68640205731761
31.269095585455
63.06654425692036
77.20209694136472
80.2397501211364
84.17248116417997
79.5867873626332
60.56916717301132
15.60574955511695
82.70509336309951
78.9941847470879
61.36499169872518
24.76323000842773
81.71382662249952
78.13600005568172
61.04522085640319
27.33970136736682
81.17535364401552
77.52980247791277
60.43857095931146
25.83948624187488
14.84810099370028
58.99110240545534
80.46176790627489
86.35646570047956
26.39392829981499
63.23961943376069
81.54220875041489
88.80542267777331
43.0637783086554
69.93167689071767
83.96082580582882
91.68565252828822
66.39565289400429
78.72375099885872
89.32755584692416
95.4683013934858
103.9487786401198
117.3638525519164
126.5676462321082
136.6078127012578
103.1375063824819
109.2148214558904
113.427610044328
123.664934434226
100.836624544585
101.4842589795608
100.6813416356789
107.327422692068
97.84648930407786
95.22408283457617
89.17513289867317
88.30752585955499
145.6347162141612
138.9087985296361
121.4586983222569
98.31227588646479
153.3431954088416
148.9209178168085
120.1254634653846
91.94264815082654
160.7384329600968
151.1909426652753
111.8296941034377
86.8401739942813
167.7074834885741
149.9506656785821
102.2396335137481
83.66776424162039
81.3729390164914
83.39320809588331
102.77125774054
175.0764849592117
80.87268842378323
84.75155569282963
113.7340736803652
174.2793833415395
81.08510289929428
87.90144672833152
128.3723922053711
176.1372772571473
81.89135729720722
93.58545796647857
142.2707347457326
173.412822239813
81.40186247057467
81.49455946098055
81.74665608030513
81.76636512956154
82.67018097525811
82.187507173941
82.36950147813397
82.52050251835996
93.05753358387176
85.26202624765574
83.86378048689299
84.14366064744127
158.3474400067847
120.5568107861968
87.74221415941983
82.08344758682053
81.64004360742996
82.57334653648617
84.61630424194188
82.07914138531802
81.4336197331284
82.56760545833438
85.29454929168121
82.50699035757108
81.15708384911348
82.48080970572516
85.94967962234864
82.89854897868996
80.87775358562365
82.31285406905053
86.44906178400387
83.5870994254728
80.07908811062993
80.63879784796237
85.69174082203281
90.98665375321777
80.19128750461452
81.12353771991914
86.37140996092874
87.50957088849738
80.3611582865331
81.63900011870255
86.77396414051303
85.83751636784037
80.59965721818085
82.02323150945313
86.80858875929579
84.74259000265275
97.50849233200933
83.76511987279993
80.22875591681108
80.02228089560091
98.27348412758049
82.7148162193628
80.10847685912596
80.00718963334339
97.95087655376622
81.90766324458747
80.05407589326765
80.00190270472977
96.38506860438969
81.270495184545
80.01262417321996
80.00023343564365
95.2349678145615
80.5377859996719
80.0013464919966
80.00009435595186
94.00065354811741
80.38548760524417
80.0009109971646
80.00000611627338
91.39559044451026
80.23457340798105
80.00014606267838
80.0000000276608
88.34436036304525
80.14459790211997
80.00003799612524
79.99999994537085
80.00000000002807
80.00000016396199
80.01345658291056
81.88034094175839
80.00000000026193
80.00000048100623
80.01669040820653
82.76388851696058
80.00000000110963
80.00000187755403
80.03089488404906
83.82257791151031
80.00000001233936
80.00000824559866
80.06380925040337
85.40754369817834
83.52397836346086
85.09526363308311
87.64366791669903
92.78680657728724
85.09526363337419
87.15058529608082
90.99715174108233
98.69100854468955
87.64366791682289
90.99715174109146
97.31191398575984
106.8207738533336
92.78680657734887
98.69100854449499
106.8207738536351
117.1819366449868
127.9923805363334
119.0251493688423
115.1013046839183
106.8655394063073
126.2796627540771
123.6456053562636
123.6040272250008
119.5300740696855
126.3198067415522
125.4943070767489
125.0506452000281
123.6401019827887
123.7373353635986
123.3302512911139
123.2434486822552
122.3928524335447
119.6767753207874
117.8559338200279
114.2518098163639
109.3401070635095
119.9428949258687
118.0397981676498
114.3867906767766
109.805089440664
120.2785814077302
118.2215687910521
114.3689875560695
110.2398999388777
120.4533614760119
118.1133057204407
114.5207666535718
108.5601452095803
82.83050685754262
71.90504416436119
70.60492991370056
70.98549209041698
75.82087284639815
69.03044076028014
69.65707876935271
70.38173809235902
69.99731638439256
68.89584667341919
70.22944835485639
70.92989603393278
60.73660926996738
66.59797512400532
69.23782605868362
70.19843861198584
70.93008729031121
71.29237079052106
72.10774532067479
73.05116857257299
70.47277245160724
70.85096573419624
71.73555525272384
72.92905112016805
70.90451797757356
71.13424375049996
71.87253615278138
72.80678290232922
70.2969288514966
70.6181056124822
71.55370714770351
72.84658568261753
78.67353326790726
114.034666615493
165.0702256513965
181.42744289512
81.3632933521679
121.5213455172483
162.5390181479976
173.2945212031606
83.49434257934065
125.2961094889399
161.3137099754235
171.9957734032846
84.86350650048757
130.712074872994
161.6590694453383
171.9728232448568
218.1626500805588
209.3376720034948
201.7908313890298
190.5377228358234
219.3305691739954
212.1167008479144
203.947823543356
192.3782574607933
218.3263894881361
213.6473557216324
205.048257602748
193.4989280274794
213.209608723396
215.5722767576877
206.9711340376778
195.2369355047449
178.1486304177838
167.8958004964813
158.2747146378739
153.3866596265058
180.1470017122692
169.2803417810902
158.9648683562868
153.75999627215
181.29549211421
169.4893828117503
159.5126485561291
153.7252933055298
183.7018076059051
170.914497081229
161.1740328147889
154.8235202060488
148.5697530753348
140.6581821543474
126.7741801144927
105.8850762490698
149.2635488716953
142.1818543568118
128.8939489103118
114.3600014018976
149.2078948062273
142.6097245788926
130.6897773019419
119.667479331716
150.3700487871754
144.954865325509
134.0436732241581
134.5834625305643
64.62303680736819
16.54900607071943
2.690619685443914
1.283616870249809
49.95164359282015
10.39447481611487
2.242196146844636
1.464418099977882
34.73868718783212
6.571957743442198
1.96343631041618
1.620818004952207
19.55113838034723
3.061008274466488
1.726205689474951
1.81327597350722
1.929257952472327
4.153550558417773
6.785781063677526
10.67161113192836
2.736370507530096
5.087918971610878
7.800735632925424
11.94484498247334
3.19957983721369
5.473009802330141
8.646019906211471
12.64696577286856
3.753884905491582
6.199493170113504
10.09296356232966
13.79309820276008
12.51726679216482
18.94030141845595
26.03305311057884
34.74108191162706
12.12982496253428
17.87734138393384
24.72002551814901
33.23101473498028
12.44053379611319
16.35110532659804
22.87554044412786
32.23959393033659
11.69549356642088
14.46080805050629
19.06072839514135
30.28220135373155
35.0339030973595
33.20776401962723
32.54790695403494
33.17743448700787
31.86524832020197
31.78647006889706
32.24761198604069
32.35377047500556
31.01255923123115
32.65718509064138
32.98672271309433
33.0224841443725
29.23680650068002
31.45587776339383
31.77609822923118
32.50251703222931
32.92045967377573
33.2314029318493
33.49141314259549
33.61796786614648
32.97863177000555
32.93623613074844
32.84475868631958
32.95095923963004
32.92856184933957
33.39768523910107
33.83632829327758
34.09497598540172
34.75146680057908
35.80220586106417
36.54013050238603
36.54222246752978
33.61796786614835
32.95095923961207
34.09497598542325
36.54222246753437
33.49141314262111
32.84475868631856
33.83632829328774
36.54013050239255
33.23140293182666
32.93623613076257
33.39768523913288
35.80220586110093
32.92045967382698
32.97863176998829
32.92856184935382
34.75146680062485
33.17743448709886
32.54790695405006
33.20776401968512
35.03390309739338
32.35377047503005
32.24761198608884
31.78647006895349
31.86524832024031
33.0224841444095
32.98672271316069
32.65718509069222
31.01255923128808
32.50251703223844
31.77609822925998
31.45587776342857
29.2368065007308
30.28220135382645
19.06072839526371
14.46080805060743
11.69549356650663
32.23959393041441
22.87554044421591
16.35110532670482
12.44053379622514
33.2310147350584
24.720025518263
17.87734138404739
12.12982496263211
34.74108191168971
26.03305311068946
18.94030141854485
12.51726679230455
10.6716111319874
6.785781063704366
4.153550558379201
1.929257952499675
11.94484498253082
7.800735632970857
5.08791897159967
2.736370507532198
12.64696577293201
8.646019906271638
5.473009802329543
3.199579837209385
13.79309820282222
10.09296356238387
6.199493170127538
3.753884905486291
1.283616870287128
2.690619685406392
16.5490060706145
64.62303680743345
1.46441809999274
2.242196146831836
10.39447481606514
49.95164359276504
1.620818004951677
1.963436310406178
6.571957743432645
34.7386871878488
1.813275973504567
1.726205689464562
3.061008274466782
19.55113838033175
105.8850762491282
126.7741801144288
140.6581821541307
148.5697530752769
114.360001401818
128.8939489102305
142.1818543567147
149.263548871504
119.6674793316219
130.6897773017635
142.6097245788608
149.2078948061762
134.5834625305939
134.0436732240064
144.9548653255524
150.3700487870277
153.3866596264334
158.2747146375735
167.8958004962232
178.1486304172493
153.7599962720527
158.9648683562208
169.2803417802535
180.1470017116335
153.7252933056666
159.512648555789
169.4893828109825
181.2954921136207
154.8235202059779
161.1740328146016
170.9144970808189
183.7018076055142
190.5377228354507
201.7908313886606
209.3376720032215
218.1626500806015
192.3782574605364
203.9478235431435
212.1167008475141
219.3305691740328
193.4989280273176
205.0482576024461
213.6473557213473
218.3263894881099
195.2369355046581
206.9711340375108
215.5722767572204
213.2096087236081
181.4274428951225
165.0702256511377
114.0346666155557
78.6735332681895
173.2945212030752
162.5390181478234
121.521345517288
81.36329335246631
171.9957734031942
161.3137099752766
125.2961094889293
83.49434257965332
171.9728232445694
161.6590694451952
130.7120748729806
84.86350650081116
73.05116857279467
72.10774532042262
71.29237079000667
70.93008728995733
72.92905112042335
71.73555525261247
70.85096573366995
70.47277245138568
72.80678290260828
71.87253615261298
71.13424374999396
70.9045179773518
72.84658568289169
71.55370714747616
70.61810561195752
70.29692885116145
70.98549208997403
70.60492991335707
71.90504416448769
82.83050685767978
70.38173809193005
69.65707876893569
69.03044076049964
75.82087284648502
70.92989603350472
70.22944835442394
68.89584667367397
69.99731638444213
70.19843861155137
69.23782605816963
66.5979751242463
60.73660927004734
109.3401070635439
114.2518098163849
117.8559338203221
119.6767753206654
109.8050894406427
114.3867906770426
118.0397981678801
119.9428949256668
110.2398999388841
114.3689875560542
118.2215687910917
120.2785814075722
108.5601452095446
114.5207666538135
118.1133057207605
120.4533614758518
122.3928524329451
123.6401019819151
119.5300740687979
106.8655394062786
123.2434486814299
125.0506451990352
123.604027223647
115.1013046834667
123.3302512904749
125.4943070756635
123.6456053547315
119.0251493677862
123.7373353628421
126.3198067406304
126.2796627521667
127.992380534177
54.09198435659611
71.2715576153514
77.56392754551439
79.75944520354352
50.81866497104876
69.89470665849052
76.93571327582799
79.66604200824851
48.22210208876437
68.23888866787202
76.32178946870131
79.5499039298511
46.39902469538604
65.93403469552415
75.50441247142109
79.42097133918077
79.26093455538592
73.28918529040028
58.94015879288998
53.2821271703288
79.25271251375092
73.51430755943623
60.14529103388034
51.93650346872121
79.25461103921921
74.01487559858859
61.86260376655219
49.49655911105017
79.31312411960408
74.73205256156879
63.82102021134411
47.17456884004462
79.42097133903202
79.54990392974373
79.6660420081717
79.75944520330359
75.50441247117139
76.32178946858853
76.93571327554
77.56392754539033
65.93403469556264
68.23888866788838
69.89470665863196
71.27155761551472
46.39902469536537
48.22210208870649
50.81866497104608
54.09198435662663
)
;

boundaryField
{
    back
    {
        type            empty;
    }
    inlet
    {
        type            zeroGradient;
    }
    front
    {
        type            empty;
    }
    top
    {
        type            zeroGradient;
    }
    outlet
    {
        type            fixedValue;
        value           uniform 80;
    }
    bottom
    {
        type            zeroGradient;
    }
    wall
    {
        type            zeroGradient;
    }
}


// ************************************************************************* //
