/*--------------------------------*- C++ -*----------------------------------*\
  =========                 |
  \\      /  F ield         | OpenFOAM: The Open Source CFD Toolbox
   \\    /   O peration     | Website:  https://openfoam.org
    \\  /    A nd           | Version:  11
     \\/     M anipulation  |
\*---------------------------------------------------------------------------*/
FoamFile
{
    format      ascii;
    class       volVectorField;
    location    "0.35923525";
    object      U;
}
// * * * * * * * * * * * * * * * * * * * * * * * * * * * * * * * * * * * * * //

dimensions      [0 1 -1 0 0 0 0];

internalField   nonuniform List<vector> 
880
(
(24.99999999999999 -2.806008295919616e-12 0)
(24.99999998203183 -1.217391863834079e-08 0)
(24.9982902580914 -0.0005554051562425435 0)
(24.71736443837463 0.007624539274484707 0)
(24.99999999998872 -2.831253132953665e-11 0)
(24.99999994445427 -7.039646028647248e-08 0)
(24.99747960199326 -0.001722074247194537 0)
(24.63269839306275 -0.159335820019136 0)
(24.99999999963697 -2.437740161555013e-10 0)
(24.99999976102305 -2.871807601380151e-07 0)
(24.9951455770216 -0.003584452359039962 0)
(24.51360500778648 -0.2644843482314839 0)
(24.99999999829957 1.052098708388124e-09 0)
(24.9999988181946 -1.167831623326923e-06 0)
(24.9890858658836 -0.007016739136376986 0)
(24.13724911479066 -0.4137218697744995 0)
(25.0000000111903 -4.114361474645833e-09 0)
(24.99999998001881 8.779405134935939e-09 0)
(24.99999953213299 -9.298345664646346e-07 0)
(24.99999314126271 -1.184357741164676e-05 0)
(24.99999376813735 -4.448621984277566e-06 0)
(24.99996304621266 -1.867010166217608e-05 0)
(24.99985589150654 1.067365669761134e-05 0)
(25.00017477341591 -0.001107677983141299 0)
(24.97171089164839 -0.01019831173057282 0)
(24.95164322863388 -0.006360370343266773 0)
(24.92414702823693 0.0107310403316409 0)
(24.91407841541271 -0.06683416870487859 0)
(23.40264595764067 -0.09542256351024631 0)
(22.69017859064933 0.6348495483208317 0)
(22.26856084716924 1.335025740137121 0)
(22.24430827494497 1.74622720616824 0)
(24.99988402790194 -6.198133343860975e-06 0)
(24.99960662211791 -0.0003640867872050393 0)
(24.99925376684284 -0.001529037683837624 0)
(24.99747572905417 -0.004522200637834569 0)
(24.99801878035693 -0.0006930953828643811 0)
(24.99019688622334 -0.0003535296555432907 0)
(24.97715048211422 0.005493413908329952 0)
(24.95441981489706 0.008911090219489229 0)
(24.75586185261602 -0.01080189137415486 0)
(24.63017949649571 0.09839475867642304 0)
(24.46165342495255 0.2785195695344916 0)
(24.31834958487594 0.4062570969380482 0)
(21.98167801898335 2.340706360834832 0)
(21.98733192570441 2.779769542099101 0)
(21.88512722044671 3.317359965512992 0)
(22.33926341762429 3.758406147396082 0)
(23.38567947815561 4.323111043560424 0)
(24.11422612689581 4.173018711475437 0)
(24.45810044136873 3.766263516228979 0)
(24.81733063425328 3.316631508794851 0)
(24.07886219709785 0.7463980000401345 0)
(24.09386026622187 1.104402218956763 0)
(24.19612153588316 1.349487261313322 0)
(24.38213606805586 1.475560690390272 0)
(24.87564161419078 0.03529353921161626 0)
(24.7719043212233 0.1155042988286013 0)
(24.67954161741065 0.2412728019029657 0)
(24.63421652745604 0.3945562114664866 0)
(24.98787384003117 -0.01055563474449257 0)
(24.97236313215706 -0.02426000643730877 0)
(24.95024738354945 -0.04404380935648991 0)
(24.92405194026383 -0.070561938823906 0)
(24.90149210651385 -0.1010170601427861 0)
(24.88771229235999 -0.1311313244070614 0)
(24.88284759135297 -0.1445265393443282 0)
(24.88832842544621 -0.1379803532749803 0)
(24.63263965292192 0.5574742603008015 0)
(24.67445967743195 0.7120233460349401 0)
(24.76092522088509 0.8382217096428214 0)
(24.87669419903803 0.8925650348543788 0)
(24.54954235372143 1.60877214296493 0)
(24.7525816945215 1.654942457518677 0)
(24.94052877628495 1.627179479220467 0)
(25.09323488968139 1.555462541333662 0)
(24.99115110899561 2.905789175519682 0)
(25.1787293240177 2.489595960052459 0)
(25.29112409856159 2.094355794978794 0)
(25.3634551288758 1.778073758230509 0)
(25.42831751123087 1.377466110255292 0)
(25.24435353354816 1.453726501601639 0)
(24.99916233964768 0.9127343652344533 0)
(24.89607524392611 -0.1212245868403017 0)
(24.54808653027171 1.559487742552931 0)
(25.34338708235359 1.289311325915181 0)
(25.14340654041703 0.8617733224186922 0)
(24.90333274403626 -0.09618168183150941 0)
(19.15454889699978 1.728676289252231 0)
(25.15906058530845 1.29720723718312 0)
(25.25814833543155 0.7517556937536156 0)
(24.9162190428613 -0.08053331658553309 0)
(14.12719812973085 2.095947872179356 0)
(23.70236770539981 1.628782544416482 0)
(25.27712108622423 0.7747343121378572 0)
(24.94896556733996 -0.09185010738730368 0)
(24.95452753685767 -0.0667931266624523 0)
(25.21733577391442 0.7182140437534515 0)
(22.05152252666455 2.269329846765757 0)
(12.48988574647691 3.860287945476569 0)
(24.83136781993478 -0.08882701059716247 0)
(24.994603198526 0.8082244027680519 0)
(20.60605707134197 3.314530554098712 0)
(12.79860917110456 5.640542673329767 0)
(24.78951092622193 -0.1158486190216498 0)
(24.47446473556207 1.156878438625345 0)
(18.82503406431974 4.64944322634605 0)
(12.64755056936759 7.078641519684137 0)
(24.69832480635882 -0.1634640233392058 0)
(23.59937592420273 1.928776734387338 0)
(17.58781559021126 6.058340458415665 0)
(13.13583764073768 8.144185509100303 0)
(14.0475446035433 8.855740343977134 0)
(16.96794067545359 7.293779726018744 0)
(22.43007331788693 3.156577765723829 0)
(24.51833116489546 -0.1864963539975071 0)
(15.13572646512293 9.393306857715203 0)
(17.24089246109813 8.219361537587266 0)
(21.21734556859525 4.641883363940788 0)
(24.19846843834724 -0.07130707587035971 0)
(16.37658550806849 9.684278058565528 0)
(18.11055373214329 8.754313388767317 0)
(20.70758685081899 5.995870573212304 0)
(23.69391597832793 0.2364003940715318 0)
(17.54805997805965 9.75679672887 0)
(19.39760665564063 8.854134479055457 0)
(20.87609481721188 7.035941483058878 0)
(23.19631141916611 0.7228896533453546 0)
(22.91100375714511 0.8509420635755917 0)
(22.04904855142147 7.091131953415146 0)
(21.1210797346165 8.806657950064629 0)
(18.96385482410557 9.897796028561768 0)
(23.45623413719049 0.6463655606455131 0)
(23.50851424073335 6.648115351523827 0)
(23.10797687633287 8.41524683658597 0)
(20.90706056984842 9.810492925664773 0)
(24.04001075214951 0.3441002006571179 0)
(24.9316282375541 5.875070159196662 0)
(25.19364531076321 7.620153064371798 0)
(23.44735297612324 9.238273674746065 0)
(24.51868632302124 -0.2494513323255773 0)
(26.06332044665059 4.606848686934859 0)
(27.16638908440871 6.226687412083959 0)
(26.40059558793812 7.616381822333193 0)
(24.8841912076797 -0.3075665640334503 0)
(26.92925150969397 3.628093953564263 0)
(29.04978587113423 4.804325132460917 0)
(30.6834586658282 4.759020844141535 0)
(25.30046100355227 -0.4989498691671728 0)
(27.49764773284532 2.60174127299767 0)
(30.11082707787719 3.390621419067521 0)
(34.00250442428024 0.7046101009761132 0)
(25.54326524755082 -0.5425536037377204 0)
(27.54994365713034 1.647317589900891 0)
(30.83474097995646 1.256058470364684 0)
(36.34819848813098 -4.253973399392939 0)
(25.65368327880585 -0.5437319356332226 0)
(27.22443785280128 1.022792607386457 0)
(30.3123315440363 -0.3107708903727144 0)
(37.77908910221978 -9.251795418715663 0)
(34.01927315510453 -7.327960027431767 0)
(29.13038158127303 -1.41729629887372 0)
(26.9423157093943 0.3554907250594311 0)
(25.69370331406252 -0.5467442770061613 0)
(25.634347235442 -3.215002098244072 0)
(28.24645050295648 -1.93656451078418 0)
(26.64809582636156 -0.1001418068859988 0)
(25.62904418267623 -0.4720478391121891 0)
(23.0890217838371 -3.612746491101009 0)
(27.75004617343965 -2.841724202142045 0)
(26.39348358531945 -0.559428164042206 0)
(25.50625783099919 -0.3592815444497147 0)
(19.90308552938263 -3.659477127897156 0)
(26.97781582714026 -3.450133102866687 0)
(26.04929375487289 -0.9532348275334758 0)
(25.38978790089173 -0.2750988095823751 0)
(18.0852392622984 -4.760174786488659 0)
(25.72426230715479 -4.391146230925722 0)
(25.48600351782318 -1.289815535892353 0)
(25.18021185391772 -0.2156638007463534 0)
(15.43322408876783 -6.813667890860533 0)
(24.08647584446152 -4.635048511706009 0)
(24.89651374820036 -1.125723856509117 0)
(25.00123486097004 -0.1079233039338402 0)
(14.37828440262993 -6.976705381627911 0)
(23.02531317861551 -4.04853086160907 0)
(24.65192824456446 -0.7358981243178854 0)
(24.97081096544108 -0.04913432916835415 0)
(14.33667217697419 -5.861283025888457 0)
(22.80033825243496 -3.600450097719107 0)
(24.67303799717996 -0.6014465386834754 0)
(24.97608523060867 -0.03607854803538244 0)
(14.2222999367358 -0.6632653795250669 0)
(20.34306999927075 -0.1132418714569101 0)
(23.64827929358713 0.01058019745603046 0)
(24.85559804299219 0.001982410584859783 0)
(14.20389571176831 -1.755779650402438 0)
(20.33971045663847 -0.5377829289665644 0)
(23.66319086098323 0.0006335638002972535 0)
(24.85254098503056 0.004365053157180379 0)
(14.41821621131352 -3.256110126509053 0)
(20.34762427615096 -0.9878808899945967 0)
(23.70250982600169 -0.07175197152586806 0)
(24.85179060825483 0.0002504390212455878 0)
(14.47003605622929 -4.649569427814781 0)
(20.55622192676675 -1.352407287109932 0)
(23.80224132109583 -0.1947110425831193 0)
(24.86017627994208 -0.01138989328534851 0)
(14.33667217699359 5.861283025870024 0)
(22.80033825245879 3.600450097711191 0)
(24.6730379972828 0.6014465386361364 0)
(24.97608523071773 0.03607854801601516 0)
(14.37828440266729 6.976705381606266 0)
(23.02531317868625 4.048530861659435 0)
(24.65192824460871 0.7358981243021188 0)
(24.97081096550212 0.04913432921443548 0)
(15.433224088824 6.813667890885705 0)
(24.08647584450467 4.63504851174916 0)
(24.89651374819035 1.125723856553343 0)
(25.00123486101913 0.1079233039842718 0)
(18.08523926232111 4.760174786490028 0)
(25.72426230723118 4.391146230990822 0)
(25.48600351783214 1.289815535926326 0)
(25.18021185393033 0.2156638007945039 0)
(25.69370331402321 0.5467442769475827 0)
(26.94231570942473 -0.3554907250939401 0)
(29.13038158127902 1.417296298865082 0)
(34.01927315502763 7.32796002755931 0)
(25.62904418266677 0.4720478390606238 0)
(26.64809582637232 0.100141806878718 0)
(28.24645050299074 1.93656451078826 0)
(25.63434723548686 3.215002098344688 0)
(25.50625783095401 0.3592815444036385 0)
(26.39348358530973 0.5594281640684979 0)
(27.75004617352562 2.841724202274726 0)
(23.08902178377848 3.612746491146355 0)
(25.38978790082458 0.2750988095619421 0)
(26.04929375480673 0.953234827505285 0)
(26.97781582716486 3.450133102944677 0)
(19.9030855294265 3.659477127921004 0)
(37.77908910235877 9.251795418882562 0)
(30.31233154404784 0.3107708903675546 0)
(27.2244378528518 -1.022792607395087 0)
(25.6536832788 0.5437319355860908 0)
(36.34819848813823 4.253973399441929 0)
(30.83474097997905 -1.256058470322628 0)
(27.54994365717459 -1.647317589907741 0)
(25.54326524751589 0.5425536037495368 0)
(34.00250442427318 -0.7046101009340703 0)
(30.11082707784739 -3.390621419051703 0)
(27.49764773288845 -2.601741272975886 0)
(25.30046100343528 0.4989498692360978 0)
(30.68345866579909 -4.759020844123826 0)
(29.0497858711767 -4.804325132431503 0)
(26.92925150977736 -3.628093953533723 0)
(24.88419120757072 0.3075665641214424 0)
(22.91100375709117 -0.850942063557615 0)
(22.04904855135673 -7.091131953417432 0)
(21.12107973457428 -8.80665795006812 0)
(18.96385482412343 -9.897796028561446 0)
(23.45623413717457 -0.6463655606010323 0)
(23.50851424073548 -6.648115351518089 0)
(23.10797687629159 -8.415246836570747 0)
(20.9070605698539 -9.810492925661592 0)
(24.04001075221633 -0.3441002006373535 0)
(24.93162823758934 -5.87507015920796 0)
(25.19364531073624 -7.620153064348796 0)
(23.44735297611835 -9.238273674732669 0)
(24.51868632299128 0.2494513323953115 0)
(26.06332044670873 -4.606848686910562 0)
(27.16638908439904 -6.226687412046915 0)
(26.40059558790566 -7.61638182231949 0)
(17.5480599780741 -9.756796728872606 0)
(19.39760665563343 -8.85413447906269 0)
(20.87609481716756 -7.035941483054714 0)
(23.19631141902301 -0.7228896533613174 0)
(16.37658550809482 -9.684278058580386 0)
(18.11055373216497 -8.754313388773657 0)
(20.70758685080036 -5.995870573220302 0)
(23.69391597829186 -0.2364003940682491 0)
(15.13572646513349 -9.393306857728323 0)
(17.24089246113858 -8.2193615375819 0)
(21.21734556859891 -4.641883363911683 0)
(24.19846843827468 0.07130707587742276 0)
(14.04754460357687 -8.855740343980653 0)
(16.96794067545359 -7.293779725985297 0)
(22.43007331780131 -3.156577765689982 0)
(24.51833116486828 0.1864963539989776 0)
(24.95452753687505 0.06679312668513278 0)
(25.21733577391208 -0.7182140437270381 0)
(22.05152252669759 -2.269329846780174 0)
(12.48988574651584 -3.860287945481793 0)
(24.8313678198315 0.08882701059540563 0)
(24.99460319850987 -0.8082244027239874 0)
(20.60605707136452 -3.314530554098718 0)
(12.7986091711438 -5.640542673351893 0)
(24.78951092605568 0.1158486190149642 0)
(24.47446473545218 -1.156878438562145 0)
(18.82503406433671 -4.649443226314359 0)
(12.64755056938954 -7.078641519686394 0)
(24.69832480630904 0.1634640233423814 0)
(23.59937592424192 -1.928776734312659 0)
(17.58781559026682 -6.058340458388475 0)
(13.13583764075556 -8.144185509107357 0)
(24.94896556731903 0.0918501074011325 0)
(24.91621904287463 0.08053331659809294 0)
(24.90333274396315 0.09618168186117201 0)
(24.89607524391686 0.1212245868366636 0)
(25.27712108630318 -0.7747343121393249 0)
(25.25814833549557 -0.7517556937444512 0)
(25.14340654037282 -0.8617733224069066 0)
(24.99916233962113 -0.9127343652500014 0)
(23.70236770548783 -1.62878254443513 0)
(25.15906058531774 -1.297207237187253 0)
(25.34338708241002 -1.289311325928074 0)
(25.24435353357265 -1.45372650159436 0)
(14.12719812978509 -2.095947872181312 0)
(19.1545488970664 -1.72867628924793 0)
(24.54808653025442 -1.559487742527882 0)
(25.42831751122279 -1.377466110229713 0)
(24.88832842539898 0.1379803532822174 0)
(24.87669419899349 -0.8925650348340864 0)
(25.09323488967081 -1.555462541308512 0)
(25.36345512888223 -1.778073758178519 0)
(24.882847591414 0.144526539325066 0)
(24.76092522081984 -0.8382217096347153 0)
(24.94052877629075 -1.62717947919772 0)
(25.29112409856464 -2.094355794935615 0)
(24.88771229235307 0.1311313243977793 0)
(24.67445967742626 -0.7120233459828971 0)
(24.75258169459712 -1.654942457532374 0)
(25.17872932407079 -2.489595960052502 0)
(24.90149210656688 0.1010170600618836 0)
(24.63263965293448 -0.5574742602788666 0)
(24.54954235369804 -1.608772142959072 0)
(24.99115110901371 -2.90578917551128 0)
(24.98787384002722 0.01055563465935466 0)
(24.87564161428239 -0.0352935391177648 0)
(24.07886219708706 -0.7463980000318307 0)
(23.38567947812189 -4.323111043532418 0)
(24.97236313220499 0.02426000632138647 0)
(24.7719043213163 -0.1155042987573109 0)
(24.09386026622935 -1.10440221892161 0)
(24.11422612691713 -4.173018711476818 0)
(24.95024738346611 0.04404380932959424 0)
(24.6795416175059 -0.241272801831747 0)
(24.19612153594225 -1.34948726131491 0)
(24.45810044146796 -3.766263516276514 0)
(24.92405194030307 0.07056193875586371 0)
(24.63421652747832 -0.3945562114130817 0)
(24.38213606807859 -1.47556069035272 0)
(24.81733063429585 -3.316631508819131 0)
(22.33926341764651 -3.758406147383281 0)
(24.31834958488195 -0.4062570969414601 0)
(24.95441981499125 -0.008911090124685104 0)
(24.99747572898883 0.004522200624558166 0)
(21.88512722047432 -3.317359965496691 0)
(24.46165342494425 -0.2785195695385903 0)
(24.97715048215955 -0.005493413870351012 0)
(24.99925376687865 0.001529037652816016 0)
(21.98733192572012 -2.779769542086201 0)
(24.63017949653806 -0.0983947586822953 0)
(24.99019688637416 0.0003535296625481656 0)
(24.99960662215397 0.0003640866655350641 0)
(21.98167801899847 -2.340706360819312 0)
(24.75586185267566 0.01080189136665105 0)
(24.9980187804334 0.000693095398016622 0)
(24.99988402786681 6.198147611690116e-06 0)
(22.2443082749154 -1.74622720615315 0)
(24.91407841542513 0.0668341687094456 0)
(25.00017477343449 0.001107678002427378 0)
(24.99999314123308 1.184362064586983e-05 0)
(22.26856084711685 -1.335025740123991 0)
(24.92414702824905 -0.01073104033482076 0)
(24.99985589157354 -1.067365753488909e-05 0)
(24.99999953209123 9.298438368852929e-07 0)
(22.69017859049881 -0.6348495483297282 0)
(24.95164322865975 0.006360370334373024 0)
(24.99996304627821 1.867009241246688e-05 0)
(24.99999998004261 -8.824819994890056e-09 0)
(23.40264595742241 0.0954225634632872 0)
(24.9717108917053 0.01019831172528276 0)
(24.99999376819771 4.448635042473322e-06 0)
(25.00000001114298 4.1175279230918e-09 0)
(25.00000000000002 5.954578789220091e-12 0)
(24.99999998201898 1.215720922394028e-08 0)
(24.99829025808695 0.0005554051383433747 0)
(24.71736443834861 -0.007624539117754101 0)
(24.99999999997173 4.182294735484633e-11 0)
(24.99999994453042 7.037298796418497e-08 0)
(24.99747960200991 0.00172207422481943 0)
(24.63269839283135 0.1593358200893154 0)
(24.99999999962681 2.564807611701531e-10 0)
(24.99999976109916 2.871844583620241e-07 0)
(24.99514557702307 0.003584452345683588 0)
(24.51360500744305 0.2644843481621832 0)
(24.99999999828481 -1.026207378209816e-09 0)
(24.99999881823999 1.167844277418213e-06 0)
(24.98908586588969 0.007016739126088518 0)
(24.13724911452402 0.4137218697190794 0)
(24.52527860000256 1.098759325205807e-10 0)
(24.35980187608208 0.1495547244666529 0)
(23.97405553870531 0.1736330400060869 0)
(23.03856403095639 0.01871809975085939 0)
(24.35980187629838 -0.1495547242496187 0)
(24.08844443005928 4.096524406361183e-11 0)
(23.4095857958469 -0.06031069495636131 0)
(21.96068065767042 -0.486378984643255 0)
(23.97405553915561 -0.1736330399132152 0)
(23.40958579618268 0.06031069503223033 0)
(22.12863316821224 6.328500482115484e-11 0)
(20.03097687029687 -0.5819750187156535 0)
(23.03856403138575 -0.0187180997715377 0)
(21.96068065817996 0.4863789845845348 0)
(20.03097687061479 0.5819750186704258 0)
(17.78920336381704 -2.40081152386139e-10 0)
(17.25879857189991 2.521585988633359 0)
(17.89936560968363 2.91735159128545 0)
(19.54341172371284 2.655844654471397 0)
(21.08695175100934 1.88781433407345 0)
(18.24492393129337 4.246789871267793 0)
(18.3081387044091 4.20300490572289 0)
(19.04067246138649 4.114783616337584 0)
(20.0739914785821 3.952548496876071 0)
(17.68387194798039 5.193204399025455 0)
(18.85058672761838 4.491074706769596 0)
(19.52793634959009 4.691880469429669 0)
(20.05234968473014 4.563750524150236 0)
(18.33526761604807 5.754223244905327 0)
(19.70556713623593 4.717196593437129 0)
(20.2057275406028 4.891235171237337 0)
(20.49071248385545 4.805576499116789 0)
(20.79097636172755 4.932707720699985 0)
(21.02926675150028 5.061731815651552 0)
(21.40435919411105 5.120580960705521 0)
(22.16085356145622 5.280349463759463 0)
(20.72901307132479 4.994249443325991 0)
(21.03869740468947 5.101571370538609 0)
(21.53837435559012 5.117414842642988 0)
(22.65129084978682 5.500672750712958 0)
(20.47285738447048 4.93126104915266 0)
(20.97344576553854 5.105924590369906 0)
(21.55537262671405 5.158192729387362 0)
(24.101373418269 5.943007710199201 0)
(18.97618151178431 5.851122399873544 0)
(19.59933878529393 5.875951782238194 0)
(20.50317987349074 5.734762728608204 0)
(25.83119205521501 7.12589925493214 0)
(25.81525886728373 3.187581987442934 0)
(26.40945394659449 0.8090345529288961 0)
(25.72185881815903 0.487078183766643 0)
(25.59509954529365 0.3820583424354039 0)
(28.37611014777879 2.198782152809069 0)
(28.69592273822534 0.3397472489694797 0)
(27.56801877863928 0.2832496086474928 0)
(26.89269687902118 0.3137580917134683 0)
(31.54902531710572 1.904714707846487 0)
(30.14994876791069 0.04577617989905297 0)
(28.75773408439895 0.05144589803341025 0)
(27.77933121040058 0.09386652048799617 0)
(25.07990704377532 1.987935501653988 0)
(24.21747218982668 0.6522650726054888 0)
(24.0723234866443 0.0897053179826259 0)
(24.15978535563109 -0.2164444081107695 0)
(25.66542403366669 0.3867737890193211 0)
(25.71343585005155 0.3198140142017933 0)
(25.70095425902611 0.2051411978375056 0)
(25.65343065940083 0.1716713576028445 0)
(26.53711945535098 0.341738557861639 0)
(26.22459492886873 0.2915148181208518 0)
(25.94662965704851 0.1915969878743866 0)
(25.72127054210626 0.1306880756070107 0)
(27.15029711807215 0.1478464639051337 0)
(26.59223998748355 0.1471935711394976 0)
(26.09880540446683 0.09830532823780888 0)
(25.66597807273156 0.085143166221176 0)
(24.13123324292195 -0.4622498351939573 0)
(23.90331373533395 -0.6207331380431459 0)
(23.70231620731457 -0.7154380220524595 0)
(23.36993540537598 -0.6662464397508425 0)
(25.20556565250833 0.7716837603226711 0)
(20.09254200069427 5.098246488153372 0)
(13.72004775927978 3.924576654207386 0)
(9.345255064722059 1.05934170635354 0)
(24.62766070744322 1.255318977929995 0)
(16.07244216785384 4.95158784350805 0)
(8.863908329746394 2.740878145707284 0)
(4.471074689476929 -0.1764276280961339 0)
(23.43578099286989 1.295010929877558 0)
(11.69353977100583 3.634447502024388 0)
(3.139772734413686 2.029180541724378 0)
(-0.7690040947835066 0.2418294251083684 0)
(19.41410565216168 -0.7286042247339899 0)
(7.302993832057521 -0.7958099926842523 0)
(0.2337798940397637 0.542980517356568 0)
(-2.595574310797232 0.1744025941702091 0)
(8.569183254312117 2.693907114089999 0)
(10.58535338619262 4.559495698491219 0)
(11.49759158955158 6.280336397895859 0)
(12.44950904694166 7.625630206607533 0)
(6.136722570871282 1.993706740202179 0)
(9.511384599319037 4.411056965565954 0)
(11.20127441838794 6.226210913248678 0)
(12.40429789111371 7.67215675933868 0)
(2.933355638068383 0.01199830152028048 0)
(7.442517851859275 3.33198444641687 0)
(10.26715046660427 6.036199522346524 0)
(12.02121768190819 7.596921446490477 0)
(0.2395722717308444 -0.1062360992533221 0)
(3.470320591293397 2.476005640673379 0)
(7.538081785835645 3.976220018877962 0)
(10.63465047478992 5.46399572731795 0)
(13.63848454618825 8.986469597838505 0)
(14.7705331374195 10.00813843584746 0)
(15.91944441102591 10.56578998270935 0)
(16.81353285668398 10.85599489792032 0)
(13.55815555707663 8.920992868431819 0)
(14.71380381306775 9.954788824263662 0)
(15.82396307851116 10.54167680785148 0)
(16.69640461808712 10.88142699083151 0)
(13.23585945648837 8.764169323335274 0)
(14.51737684380817 9.775728040986161 0)
(15.74209799457694 10.47463651013161 0)
(16.62308141183457 10.96198987503316 0)
(13.11736122022249 6.74823759077279 0)
(14.67199493669168 8.448607836866094 0)
(15.76612375024027 10.30182158135363 0)
(16.64567148646841 10.93922201876133 0)
(17.82792759910668 11.27568922967988 0)
(19.42338202779702 11.76985282436361 0)
(21.77504325847811 11.69321792121582 0)
(24.777974964362 10.42095151308294 0)
(17.62279034709463 11.27977238487574 0)
(19.07493024581192 11.72986065340661 0)
(21.211534977232 11.74952149935422 0)
(24.97582043269497 12.47346553515671 0)
(17.47371680096451 11.36886856795939 0)
(18.72298190148159 11.78346827929169 0)
(21.34547735850681 12.58553915676098 0)
(31.48514669881263 18.45883007079908 0)
(17.43736924009311 11.39313363415676 0)
(18.64012632328814 11.7921209373654 0)
(22.0680714983544 13.17484154475156 0)
(43.24392761071064 25.51572662156392 0)
(30.59386950568828 5.261197859566596 0)
(32.03809434427248 -3.582404402204747 0)
(12.65433042885054 8.691353076936402 0)
(7.857843998086098 30.84074112168063 0)
(32.23134115306909 4.90022239891893 0)
(26.46677361285705 -1.952374560316847 0)
(8.976547197280654 17.41679879132728 0)
(8.448268587406098 29.02676092798909 0)
(31.97400129987846 3.292515600904703 0)
(17.20843658067911 -4.302832246910032 0)
(3.828933931363134 21.32883373112715 0)
(4.611970601869663 29.02646751978862 0)
(20.30819244292091 -8.299025707308981 0)
(7.328042359308347 -0.571615954155628 0)
(2.088298430743031 24.81799750064033 0)
(2.648149094476988 28.73385364103116 0)
(7.01781075444296 24.62055770534742 0)
(2.699423868763042 17.69683909953352 0)
(-0.7734589484218347 14.87143533291308 0)
(-2.833126542191128 9.937915892468606 0)
(6.712146001022785 23.57245998689071 0)
(1.914934054670341 19.24732104396322 0)
(-0.4568910604621676 14.98162643436789 0)
(-1.253607869804461 7.687136547911177 0)
(3.278166156194003 22.61470033307456 0)
(1.430355975199287 18.10662054432026 0)
(-0.3154440144792859 12.35855507102793 0)
(-0.815926496887775 4.90041009302035 0)
(0.7861646029884041 22.03868437062646 0)
(-0.4547298174185339 17.36653363301386 0)
(-1.909240594718215 10.96799810209947 0)
(-1.738848921141326 3.285174148091925 0)
(-6.07375204380291 3.289705697783424 0)
(-2.016609802467805 0.2620813208052284 0)
(2.429095521948406 -2.420569353861031 0)
(4.457069988512734 -6.632228278937987 0)
(-6.812349983830791 3.051074715201087 0)
(-5.955629704890741 0.348666260149302 0)
(-1.266629119520417 -0.7974322341586176 0)
(2.679224584183363 -5.575559965733017 0)
(-6.212814510754328 2.126661021796987 0)
(-7.806298370898839 0.6686689902694543 0)
(-4.517764271670538 0.3046210567103567 0)
(0.03259030953230511 -4.086249384397806 0)
(-4.585698254937423 2.18426111664738 0)
(-7.136560446432985 2.668508698841236 0)
(-5.229327813511647 3.072696285370103 0)
(-0.6497039489377208 -1.052241763420789 0)
(2.361442295024654 -6.935589307275704 0)
(2.293350856170338 -7.541109729390378 0)
(3.156976785982727 -7.215801364439995 0)
(4.463033824236503 -6.469228741371112 0)
(1.465806586500674 -6.80354752525851 0)
(1.926691453312639 -6.27529096251921 0)
(3.127086261333361 -5.840750151320467 0)
(3.899729856733619 -4.9244616839831 0)
(0.4568025039783165 -4.750840356724108 0)
(0.6585795504375636 -3.491363810730832 0)
(1.655410730250611 -3.003686530401538 0)
(2.137385879933377 -1.923701525909184 0)
(1.659002984550412 -1.986498298928604 0)
(1.311194941232974 -0.752559609197233 0)
(1.877127680575961 -0.3122955681357608 0)
(1.653221885758103 0.636736739846698 0)
(0.7800636120493127 1.147339148807197 0)
(-0.03302097355800607 1.284729848045286 0)
(-0.6587441045008612 0.9682933872739633 0)
(-0.9813395445816119 0.3366284854756971 0)
(1.587026473893619 -0.9804780240374791 0)
(0.5863251936114792 -0.481549570845655 0)
(-0.2570384667154501 -0.05724020263028694 0)
(-0.6750836366520784 -0.02422920814110265 0)
(3.363793881983151 -3.806077516396041 0)
(2.444108060838194 -2.796924978761059 0)
(1.338087317350766 -1.704909676325446 0)
(0.6067631478031925 -0.6385322852789037 0)
(5.107064905834796 -4.816760680240129 0)
(4.969939681341774 -3.302457981670893 0)
(4.187968132914921 -2.02201564648733 0)
(3.720989065389942 -0.729368536388817 0)
(-0.981339544583899 -0.3366284854528155 0)
(-0.6750836366524124 0.02422920815089374 0)
(0.6067631478031548 0.6385322852731972 0)
(3.720989065391248 0.7293685363693172 0)
(-0.658744104504338 -0.9682933872538833 0)
(-0.2570384667161987 0.05724020263977442 0)
(1.338087317354997 1.704909676322723 0)
(4.187968132944413 2.022015646469143 0)
(-0.03302097356182829 -1.284729848032185 0)
(0.58632519361003 0.4815495708528295 0)
(2.444108060840286 2.796924978762453 0)
(4.969939681361168 3.302457981671033 0)
(0.7800636120471617 -1.147339148797128 0)
(1.587026473896642 0.9804780240428613 0)
(3.363793881978949 3.806077516403701 0)
(5.107064905833946 4.816760680245176 0)
(4.463033824223969 6.469228741353745 0)
(3.156976785988999 7.215801364436078 0)
(2.293350856173805 7.541109729382046 0)
(2.361442295040633 6.935589307266152 0)
(3.899729856732937 4.924461683982871 0)
(3.127086261342131 5.840750151314204 0)
(1.926691453327192 6.275290962506173 0)
(1.465806586522348 6.803547525248513 0)
(2.137385879936575 1.923701525908995 0)
(1.655410730255919 3.003686530397664 0)
(0.6585795504478923 3.491363810728317 0)
(0.4568025039919872 4.750840356718101 0)
(1.653221885761121 -0.636736739843269 0)
(1.877127680583601 0.3122955681401096 0)
(1.311194941242941 0.7525596092047907 0)
(1.659002984558974 1.98649829893649 0)
(-0.6497039489201131 1.052241763422783 0)
(-5.229327813477144 -3.072696285343192 0)
(-7.136560446396158 -2.668508698810315 0)
(-4.585698254910074 -2.184261116638931 0)
(0.03259030954761786 4.086249384395597 0)
(-4.517764271642918 -0.3046210566875071 0)
(-7.806298370841912 -0.6686689902520881 0)
(-6.21281451069948 -2.126661021769569 0)
(2.679224584196675 5.575559965724702 0)
(-1.266629119487508 0.7974322341822867 0)
(-5.95562970481999 -0.3486662601234986 0)
(-6.81234998378344 -3.051074715151446 0)
(4.457069988525333 6.63222827893314 0)
(2.429095521972775 2.420569353882436 0)
(-2.016609802380529 -0.2620813207841473 0)
(-6.073752043712811 -3.28970569771911 0)
(-2.833126542185956 -9.937915892357124 0)
(-0.7734589484799353 -14.87143533292507 0)
(2.699423868802641 -17.69683909979681 0)
(7.01781075418083 -24.62055770549662 0)
(-1.25360786980028 -7.687136547847424 0)
(-0.4568910604733196 -14.9816264343441 0)
(1.914934054759342 -19.24732104405061 0)
(6.712146001061185 -23.5724599869061 0)
(-0.8159264968894531 -4.900410092996105 0)
(-0.3154440144842822 -12.35855507101612 0)
(1.430355975223571 -18.10662054433694 0)
(3.278166156212263 -22.61470033308805 0)
(-1.738848921136392 -3.28517414809989 0)
(-1.90924059472254 -10.96799810210734 0)
(-0.4547298174201352 -17.36653363302566 0)
(0.7861646029993665 -22.03868437066654 0)
(7.857843997731391 -30.84074112173852 0)
(12.65433042858947 -8.691353077247031 0)
(32.03809434418633 3.582404402248537 0)
(30.59386950564672 -5.261197859545536 0)
(8.448268587271821 -29.02676092804604 0)
(8.976547197222692 -17.41679879152015 0)
(26.46677361284086 1.952374560287912 0)
(32.23134115305317 -4.90022239889761 0)
(4.611970601887855 -29.02646751987461 0)
(3.828933931308179 -21.32883373123524 0)
(17.20843658066783 4.302832246862454 0)
(31.97400129984758 -3.292515600896454 0)
(2.648149094481783 -28.73385364109231 0)
(2.088298430720405 -24.81799750075628 0)
(7.328042359331025 0.5716159540913436 0)
(20.30819244295589 8.29902570729992 0)
(24.77797496435048 -10.42095151306259 0)
(21.77504325848343 -11.6932179211994 0)
(19.4233820278302 -11.7698528243569 0)
(17.8279275991192 -11.27568922968566 0)
(24.9758204327062 -12.4734655351477 0)
(21.21153497722384 -11.74952149932576 0)
(19.07493024581358 -11.72986065339116 0)
(17.62279034712282 -11.27977238488571 0)
(31.48514669880549 -18.45883007078495 0)