/*--------------------------------*- C++ -*----------------------------------*\
  =========                 |
  \\      /  F ield         | OpenFOAM: The Open Source CFD Toolbox
   \\    /   O peration     | Website:  https://openfoam.org
    \\  /    A nd           | Version:  11
     \\/     M anipulation  |
\*---------------------------------------------------------------------------*/
FoamFile
{
    format      ascii;
    class       volScalarField;
    location    "0.3375";
    object      Ma;
}
// * * * * * * * * * * * * * * * * * * * * * * * * * * * * * * * * * * * * * //

dimensions      [0 0 0 0 0 0 0];

internalField   nonuniform List<scalar> 
880
(
1.11801663592382
1.11801663527719
1.117943598527932
1.10404619337444
1.11801663592427
1.118016634121162
1.11790597774184
1.099077032752783
1.118016635913763
1.118016628590707
1.117795049424667
1.092481389694063
1.118016635855571
1.118016598087169
1.11750574055146
1.073750691042385
1.118016636415479
1.118016634936728
1.118016611610946
1.118016200453807
1.118016411055177
1.118015026834565
1.118009401202577
1.11802191951578
1.116681918472901
1.115704566022667
1.114342257408563
1.113890921980109
1.036181094245384
0.9997574584643344
0.9785776405222127
0.9759946704717989
1.118011792943761
1.118000677360791
1.11798374262216
1.117894752607487
1.117922667968945
1.117561095643618
1.116986763872713
1.115952242717591
1.105730496028904
1.099306923654529
1.090904216376872
1.083270383613974
0.9649570763106158
0.9647425926728808
0.9627643874607871
0.9850916426914234
1.043231923442587
1.077386289047258
1.091716883488848
1.104745564118758
1.069343047534129
1.068770970496585
1.07335613137699
1.080951779426643
1.112168549964044
1.1074155517853
1.10284520661305
1.100368619948644
1.117456636915823
1.116701494499954
1.115598948326965
1.114269449696123
1.113042159484988
1.112145836816299
1.111555919420931
1.111370189820384
1.099951429788525
1.101746466772235
1.105552376325551
1.110521357820807
1.0893188362512
1.0991504934911
1.107675504730286
1.115251105338806
1.111653581784442
1.120286213853809
1.123666622821584
1.127851598949362
1.130646781469517
1.122668751205414
1.115774040399028
1.111264313103846
1.102107641077021
1.127410109268244
1.121888154951978
1.111491354487927
0.877670714853393
1.121880333313504
1.126281645987471
1.112352671204595
0.6113385161909026
1.058694892807478
1.127054615648815
1.114299771913683
1.113078971067529
1.123064355840053
0.9800031148917568
0.5368362076162904
1.111309117659399
1.113022763289357
0.9159045369682799
0.5694447803980404
1.110173214320607
1.090379718234436
0.8415400338522547
0.5872902201283867
1.106614806331215
1.053513546379614
0.7894514162954346
0.6198939979564714
0.6651121053995414
0.7635702320906611
1.001562839687431
1.098844226711291
0.7139450077478647
0.7805623010422442
0.9502058950072921
1.083889758826436
0.7649212400260723
0.8155338704018599
0.9235665532337236
1.060162579474673
0.8122441417218607
0.8667337521363586
0.9277428555366379
1.032355670983847
1.008251302900558
0.9804192286972648
0.9437804473635102
0.8720906949828701
1.025824992193654
1.040917615587677
1.031059294288714
0.9538800111801092
1.049032564688816
1.102574874092576
1.124633233414204
1.059966284493373
1.069227314133464
1.145768043798037
1.211776966334761
1.187095269716064
1.08539340825038
1.184270298232599
1.293573702650233
1.385211861392294
1.106926306310336
1.212896619360294
1.346769231766503
1.573582088569263
1.121622258742821
1.21521153423231
1.378779055341986
1.789330057524125
1.130043865809287
1.200654840185944
1.345522427965158
1.857717559553941
1.506106616593461
1.294410079229995
1.190396473742105
1.135004338491772
1.098201477176984
1.258205617186175
1.17822632676308
1.134765297353248
0.9842120811413367
1.236331735962039
1.168602190463873
1.131542253028736
0.8515649283320769
1.198925282618908
1.154819898613297
1.127748543409411
0.777961601624796
1.139855820233472
1.133241402609309
1.122313909256101
0.725683188477125
1.079280924649986
1.113181588750447
1.118308335325758
0.7077303716461363
1.035813850860337
1.105726351207346
1.11757373664248
0.7060824610875238
1.037599608437016
1.108037402233616
1.117652770745276
0.6821770039509171
0.9604251092250529
1.081712150980568
1.115007880493352
0.6979862434254522
0.9582220999345156
1.081197846361936
1.114863649222044
0.726857727065509
0.9564418508141587
1.081084819914483
1.114722661738429
0.742913303228009
0.9621605807795882
1.082908059465669
1.114786507530908
0.7060824610879947
1.037599608439278
1.108037402237409
1.117652770750679
0.7077303716468686
1.035813850863641
1.10572635120859
1.117573736645365
0.7256831884790446
1.079280924653063
1.113181588751559
1.118308335328869
0.7779616016250935
1.139855820237348
1.133241402610172
1.122313909257081
1.13500433849109
1.19039647374185
1.294410079228373
1.506106616600609
1.134765297352677
1.178226326762623
1.258205617185831
1.098201477178505
1.131542253026796
1.16860219046326
1.236331735966915
0.9842120811415025
1.127748543408027
1.154819898610605
1.198925282622525
0.8515649283326993
1.85771755955718
1.345522427965308
1.200654840187852
1.130043865809544
1.789330057524614
1.378779055343373
1.215211534232385
1.121622258742574
1.573582088568986
1.346769231766491
1.212896619361245
1.106926306306404
1.38521186139127
1.293573702651381
1.184270298234474
1.0853934082451
1.008251302897958
0.980419228694262
0.9437804473611865
0.8720906949825676
1.025824992193456
1.040917615588036
1.031059294286884
0.9538800111790159
1.049032564692342
1.10257487409378
1.124633233412872
1.059966284492723
1.069227314131025
1.145768043800048
1.211776966334076
1.187095269714779
0.8122441417221485
0.8667337521361927
0.9277428555351005
1.032355670976099
0.7649212400265174
0.8155338704020376
0.9235665532341161
1.060162579473642
0.713945007748415
0.7805623010426358
0.9502058950082164
1.08388975882438
0.6651121054000049
0.7635702320899432
1.001562839683097
1.098844226709796
1.113078971067832
1.12306435584129
0.9800031148933405
0.5368362076177076
1.111309117653599
1.113022763286807
0.9159045369691255
0.5694447803988066
1.110173214312683
1.090379718228319
0.8415400338521801
0.5872902201294861
1.106614806328339
1.053513546381289
0.7894514162967513
0.619893997956622
1.114299771914194
1.112352671205158
1.111491354485133
1.111264313103338
1.127054615653869
1.126281645989144
1.121888154953346
1.115774040399701
1.058694892812017
1.121880333314976
1.127410109272057
1.122668751207347
0.6113385161928523
0.8776707148560621
1.102107641076525
1.130646781469346
1.111370189818134
1.11052135781775
1.115251105336665
1.12785159894752
1.111555919422147
1.105552376322751
1.107675504728797
1.123666622821713
1.112145836816374
1.10174646677119
1.09915049349353
1.120286213857748
1.113042159487657
1.099951429788952
1.089318836251085
1.111653581785149
1.117456636916516
1.112168549969061
1.069343047531996
1.043231923441274
1.116701494503326
1.107415551788357
1.068770970495142
1.077386289046724
1.11559894832448
1.102845206615147
1.073356131378731
1.091716883493847
1.114269449698059
1.100368619950518
1.080951779426131
1.104745564122333
0.9850916426921965
1.083270383614175
1.115952242722038
1.11789475260493
0.9627643874616904
1.090904216375901
1.116986763876462
1.117983742623231
0.9647425926722879
1.099306923655494
1.117561095650819
1.118000677363356
0.9649570763112687
1.105730496031351
1.117922667972926
1.118011792940592
0.9759946704723022
1.113890921979987
1.118021919516264
1.118016200451304
0.9785776405216112
1.114342257409454
1.118009401205994
1.118016611609758
0.9997574584608125
1.115704566024104
1.118015026837105
1.118016634938256
1.036181094236723
1.116681918474656
1.118016411057844
1.118016636412303
1.11801663592376
1.118016635276837
1.117943598528089
1.104046193370376
1.118016635923182
1.118016634123858
1.117905977742183
1.099077032733392
1.118016635913007
1.118016628593388
1.117795049425232
1.092481389674775
1.118016635853887
1.118016598090131
1.117505740552553
1.073750691029003
1.093924190256742
1.08456168563586
1.064525715674506
1.016108177776576
1.084561685660336
1.069981370972118
1.035131447213854
0.9614966339711756
1.064525715727303
1.035131447258768
0.9704301285602898
0.8675390647115868
1.016108177802435
0.9614966340060233
0.8675390647416308
0.758863897073612
0.7319406238933284
0.7701716513001126
0.8430254239116957
0.9146800371477271
0.7870777903481533
0.7921019665942949
0.8223382855788047
0.8680802694968106
0.7753084796176252
0.8143992483928305
0.8447212818430911
0.8665789497170953
0.810016069533937
0.8529462304029705
0.8751074162405409
0.8866933227051997
0.9023061423726551
0.9138995649165128
0.9333659237527691
0.97047720419312
0.900151915899202
0.9145556571931883
0.9384051307739221
0.9923936321203827
0.8888650322623312
0.9114249920009273
0.9397040014444935
1.055910784461379
0.8401707030225708
0.8660512090248137
0.9027786861818315
1.142931733291243
1.151341509517188
1.191274430297541
1.162880736078237
1.155383425776343
1.272032105623529
1.297523242725093
1.244006337614104
1.212392189339783
1.427463202530741
1.361746243852783
1.294011367022142
1.249486840082173
1.161285676842442
1.098672198402246
1.085849385532182
1.087226797584968
1.154478191963427
1.155225497473671
1.153488350122855
1.150269912505756
1.192806574070896
1.177089860715707
1.163980294613453
1.151397826006886
1.218103876286127
1.19132062140278
1.169740939368782
1.147901092054059
1.08249165609845
1.07244352693912
1.061718622601687
1.044251692654759
1.138272572814622
0.934774841321875
0.6218225246131283
0.3931597824009436
1.120399822317874
0.7855712615450082
0.4282300354039493
0.1993525386405343
1.082270055095193
0.6081235272093449
0.2092658202261122
0.01679391443688388
0.9248814785981267
0.3905856977676955
0.04974142924934197
0.08719383166525907
0.3589191940503061
0.44624212184861
0.4910198025487252
0.5643035441638975
0.2670530978982276
0.4121789366007081
0.4883499058735218
0.5622139499592803
0.1324642996667283
0.3297439501954809
0.4616879056595757
0.548949802504982
0.017923549353811
0.1786987803204318
0.3357097006100412
0.4610807252622595
0.6304155614235869
0.6992130865789815
0.7588854819115561
0.8058575474329088
0.6291482140105114
0.6913997364743386
0.753263199241063
0.8030501849556819
0.619746260999939
0.679856193010826
0.7466724659475789
0.8017698221689464
0.5646304846755436
0.6654863256441388
0.7429611045849308
0.8004331112257863
0.8556713751856385
0.9260010120782275
1.013320860846366
1.126310826521864
0.8500423335230047
0.9131395806565228
0.9949560598180499
1.141470900412888
0.8481243799740538
0.9016458884780245
1.011363255588464
1.455922862504722
0.8465366845171576
0.8957761793079002
1.037534406641949
2.03033448477415
1.350159401715877
1.491519818463794
0.7942991197277751
1.757450072867748
1.434493823213758
1.276141723938727
1.157870951543491
1.883195986219278
1.476991335474812
0.8948011107484857
1.336119156055489
1.841260625442042
1.143034682303526
0.4145850912007298
1.570027003620125
1.777323979683495
1.255507569548528
0.7574288243646027
0.6330812321685713
0.4205152538244821
1.327680466974586
0.9115547909137111
0.6698071781065477
0.3302601810118352
1.281730627239707
0.9347512674976429
0.591677252610992
0.2249338668125052
1.225876357269438
0.9072377847786668
0.5413217508940711
0.1712001331244831
0.2618166546891326
0.0359004804959096
0.2127314166512147
0.3979774511162804
0.3035152823151781
0.2093685772176681
0.06996792508432828
0.3319662981845874
0.2760390169426309
0.3113831975329153
0.1284066477569649
0.2225726348118779
0.2206597953013416
0.3220450523317362
0.2003179364594024
0.1271671992533351
0.3538200907258128
0.3894990448555579
0.4040423744918617
0.4114151569437612
0.3494509296257279
0.350668963912434
0.3603408942902095
0.3447856725391496
0.2713267503988153
0.2191353331919288
0.208285654647523
0.1676875222409095
0.2450209263693636
0.1566452685060261
0.1348086642355391
0.08725052033804441
0.05826126473718143
0.06364865420601254
0.07111348704831218
0.07266523409055209
0.1108945209734852
0.0516529823688902
0.03330797365860989
0.05905774386743644
0.2932853604765958
0.2254788332103023
0.1392101290826794
0.05678673624022984
0.3785216879183654
0.3349671279855533
0.2711418954969897
0.2161510570425534
0.07266523409054559
0.05905774386740145
0.05678673623909477
0.2161510570422071
0.07111348704814582
0.03330797365851488
0.1392101290816895
0.2711418954974205
0.06364865420579537
0.05165298236852784
0.2254788332096862
0.334967127986084
0.05826126473707505
0.1108945209733074
0.2932853604763089
0.3785216879184342
0.4114151569435527
0.4040423744916859
0.38949904485496
0.353820090725411
0.344785672538921
0.3603408942899239
0.3506689639117375
0.349450929625101
0.1676875222407855
0.208285654647296
0.219135333191515
0.2713267503982607
0.08725052033812701
0.1348086642356547
0.1566452685060492
0.2450209263692994
0.127167199253544
0.2003179364580021
0.3220450523293615
0.2206597952993567
0.222572634811461
0.1284066477559884
0.3113831975304366
0.2760390169400336
0.3319662981838783
0.06996792508459033
0.2093685772152463
0.3035152823125165
0.3979774511157307
0.2127314166513662
0.03590048049380344
0.261816654685714
0.4205152538200672
0.6330812321680701
0.7574288243749958
1.255507569565038
0.3302601810090242
0.6698071781051805
0.9115547909184253
1.327680466981221
0.2249338668110692
0.5916772526100953
0.9347512674984567
1.281730627242602
0.1712001331240781
0.5413217508932456
0.907237784777726
1.225876357271412
1.75745007286484
0.7942991197301733
1.491519818459725
1.350159401713901
1.883195986223112
1.157870951552071
1.276141723936415
1.434493823212301
1.84126062544665
1.336119156062731
0.8948011107472034
1.476991335474353
1.777323979688914
1.570027003628854
0.4145850912017918
1.14303468230361
1.126310826521203
1.013320860846368
0.9260010120776164
0.8556713751857653
1.141470900412343
0.9949560598175602
0.9131395806556913
0.8500423335223222
1.455922862504061
1.011363255587812
0.9016458884771602
0.8481243799728941
2.030334484773313
1.03753440664133
0.8957761793071488
0.8465366845158171
0.8058575474331818
0.7588854819122691
0.6992130865799747
0.6304155614242836
0.803050184955499
0.7532631992416179
0.6913997364749798
0.6291482140105333
0.8017698221683035
0.746672465948332
0.6798561930113799
0.6197462609997573
0.800433111225098
0.7429611045861557
0.6654863256449293
0.5646304846757741
0.5643035441632819
0.4910198025486296
0.4462421218488432
0.35891919405117
0.5622139499587795
0.4883499058730841
0.4121789366012318
0.2670530978992815
0.5489498025044139
0.4616879056591536
0.3297439501960498
0.1324642996674518
0.4610807252610052
0.3357097006095957
0.1786987803203568
0.01792354935412786
0.3931597824021374
0.6218225246156718
0.9347748413227966
1.138272572812754
0.1993525386416246
0.4282300354067192
0.7855712615473456
1.120399822316075
0.01679391443660199
0.209265820228065
0.6081235272119097
1.082270055092829
0.08719383166489307
0.0497414292500523
0.390585697768042
0.924881478594394
1.150269912504664
1.15348835012489
1.155225497479335
1.154478191965933
1.151397826005175
1.163980294615601
1.177089860720327
1.192806574073077
1.147901092051867
1.169740939370554
1.191320621407383
1.218103876288172
1.04425169265092
1.061718622603118
1.072443526941781
1.082491656100966
1.155383425780808
1.162880736085025
1.191274430296588
1.151341509516368
1.212392189345679
1.244006337620934
1.297523242724223
1.272032105623256
1.249486840088647
1.294011367028792
1.361746243851204
1.427463202531382
1.087226797584369
1.085849385537141
1.098672198400747
1.16128567684485
0.9704772041938042
0.9333659237529219
0.9138995649141124
0.9023061423707787
0.992393632121144
0.9384051307727883
0.9145556571902906
0.9001519158964423
1.055910784462404
0.9397040014427447
0.9114249919963761
0.8888650322588059
1.142931733292212
0.9027786861819215
0.8660512090243253
0.8401707030225299
0.886693322705567
0.8665789497169082
0.8680802694953991
0.9146800371372455
0.8751074162393634
0.8447212818401391
0.8223382855746487
0.8430254238963736
0.8529462304000565
0.814399248387513
0.7921019665875806
0.7701716512881865
0.8100160695333423
0.7753084796152986
0.7870777903410657
0.7319406238886238
0.6392389875838491
1.01294061317152
1.10237164676798
1.117099837047667
0.679996323306064
0.9923784299932393
1.096421163176189
1.116504434567502
0.7049488143003801
0.9862611852686306
1.091554748571026
1.115799100289147
0.7313275146900526
0.9740646715984705
1.086770690487547
1.115181382834524
1.115007880491838
1.081712150980478
0.9604251092245324
0.6821770039493671
1.114863649221772
1.081197846361036
0.958222099933474
0.6979862434262244
1.114722661738715
1.081084819916446
0.9564418508134702
0.7268577270662524
1.114786507530822
1.082908059468181
0.9621605807793429
0.7429133032275005
1.115181382835291
1.115799100287491
1.116504434567895
1.117099837051865
1.086770690490356
1.091554748572277
1.096421163177803
1.102371646770122
0.9740646715995217
0.9862611852698282
0.9923784299945769
1.012940613172332
0.731327514689756
0.7049488143003024
0.6799963233057966
0.6392389875840837
)
;

boundaryField
{
    back
    {
        type            empty;
    }
    inlet
    {
        type            calculated;
        value           nonuniform List<scalar> 
16
(
1.11801663592382
1.118016635923584
1.118016635922976
1.118016635908082
1.118016636017777
1.118016635911582
1.118016628524032
1.118016458133738
1.118016458132894
1.118016628523578
1.1180166359117
1.11801663601746
1.118016635923759
1.118016635923557
1.118016635922667
1.11801663590749
)
;
    }
    front
    {
        type            empty;
    }
    top
    {
        type            calculated;
        value           uniform 0;
    }
    outlet
    {
        type            calculated;
        value           nonuniform List<scalar> 
16
(
1.114113566632953
1.113948871819992
1.113790485417767
1.113872147551437
1.116756340494296
1.116026317029454
1.11514540124668
1.114371698977614
1.114113566631132
1.113948871819439
1.113790485418059
1.113872147551587
1.114371698978255
1.115145401244748
1.116026317030238
1.116756340498626
)
;
    }
    bottom
    {
        type            calculated;
        value           uniform 0;
    }
    wall
    {
        type            calculated;
        value           uniform 0;
    }
}


// ************************************************************************* //
