/*--------------------------------*- C++ -*----------------------------------*\
  =========                 |
  \\      /  F ield         | OpenFOAM: The Open Source CFD Toolbox
   \\    /   O peration     | Website:  https://openfoam.org
    \\  /    A nd           | Version:  11
     \\/     M anipulation  |
\*---------------------------------------------------------------------------*/
FoamFile
{
    format      ascii;
    class       volVectorField;
    location    "5.925";
    object      U;
}
// * * * * * * * * * * * * * * * * * * * * * * * * * * * * * * * * * * * * * //

dimensions      [0 1 -1 0 0 0 0];

internalField   nonuniform List<vector> 
4455
(
(99.999237 0.43622923 0)
(99.944711 1.2167488 -1.8671153e-18)
(99.685145 1.9415866 6.4159286e-18)
(99.456966 2.3206878 2.626766e-20)
(98.954712 2.7746548 6.0227516e-18)
(98.458255 2.991612 -2.280566e-17)
(97.593837 3.4954538 1.0165853e-17)
(96.735238 3.4771794 0)
(95.157184 4.2114067 -6.1807271e-17)
(100.01684 0.49687472 -1.1983298e-17)
(100.00336 1.2839377 1.1716467e-17)
(99.708572 2.1186899 -1.4463412e-17)
(99.477108 2.514351 2.4190066e-17)
(98.938534 2.9641125 -4.6555282e-17)
(98.444716 3.1387309 5.0899902e-17)
(97.556135 3.5499761 -4.8831004e-18)
(96.61267 3.4582417 7.1026506e-18)
(94.792306 3.5694518 2.6794466e-16)
(100.09743 0.49386618 -1.2315228e-17)
(99.973486 1.4085269 1.5678614e-17)
(99.76173 2.2188621 1.4169659e-17)
(99.457702 2.7268172 -1.4131559e-17)
(99.05171 3.1758552 6.1740728e-17)
(98.488675 3.4300733 -3.5031404e-17)
(97.552567 3.7937727 4.4919795e-18)
(96.569326 3.5807853 -9.9974809e-17)
(94.666012 3.9409506 -1.898091e-16)
(100.1358 0.52880566 2.6025598e-19)
(100.00727 1.4681989 -1.9770348e-18)
(99.793002 2.3391625 3.3122435e-17)
(99.517923 2.8943776 4.5684306e-18)
(99.104539 3.4142304 -2.3620204e-19)
(98.553043 3.6493036 -6.6654909e-18)
(97.53618 4.2134451 7.4217592e-17)
(96.420477 3.8084592 1.99983e-16)
(94.405238 4.6486889 1.5754992e-16)
(100.16874 0.53774448 2.3829e-17)
(100.05403 1.5177453 -2.6805946e-17)
(99.818738 2.4336306 3.3828974e-17)
(99.577171 3.0353041 3.8003543e-20)
(99.176476 3.6217155 -4.1967803e-17)
(98.633211 3.8884067 -1.2886325e-17)
(97.562269 4.5024277 -5.8515784e-17)
(96.280152 4.0296245 -9.3970789e-17)
(94.066682 4.9256473 -4.6459286e-16)
(100.19489 0.54400417 0)
(100.09301 1.5347054 0)
(99.857859 2.5126378 -5.9323133e-17)
(99.672559 3.1630044 -6.8062688e-17)
(99.288574 3.8581593 0)
(98.729924 4.1753079 -9.2373082e-17)
(97.621078 4.8727975 -7.8788915e-18)
(96.231916 4.3595286 -5.6179423e-18)
(93.633479 5.5244583 5.7282422e-16)
(100.21733 0.5421591 0)
(100.13077 1.5297025 -1.5858431e-18)
(99.920948 2.5781833 1.7849396e-18)
(99.758721 3.2467504 6.6524508e-17)
(99.398425 3.9886511 -4.9192034e-18)
(98.841107 4.3428271 1.9621764e-16)
(97.675293 5.1325671 0)
(96.094352 4.5860407 0)
(93.351286 6.0005162 2.6170569e-16)
(100.23441 0.52825001 4.3541631e-17)
(100.16749 1.5050705 0)
(99.982669 2.6091224 0)
(99.887998 3.3583267 0)
(99.525514 4.2036366 0)
(98.952036 4.6182373 -9.7695973e-17)
(97.77116 5.4807324 -1.0483009e-16)
(96.089772 4.9511246 1.5264422e-16)
(92.888649 6.6719786 5.7471358e-19)
(100.25373 0.50640265 -4.287601e-17)
(100.19611 1.4470576 -1.5040069e-18)
(100.03076 2.589184 -1.7214394e-18)
(99.968993 3.3453668 3.8739055e-18)
(99.691526 4.2732685 1.5010712e-16)
(99.123963 4.7544982 1.7022772e-16)
(97.875424 5.7804176 3.327237e-16)
(95.971811 5.2404061 -1.4982181e-16)
(92.676748 7.2831204 -4.5017149e-16)
(100.26105 0.47786005 0)
(100.26711 0.44101156 7.8034596e-17)
(100.25979 0.39639158 -7.7412361e-17)
(100.24427 0.34502727 7.3395711e-17)
(100.22785 0.29888051 -7.1747871e-17)
(100.19577 0.23465808 1.4222454e-16)
(100.16131 0.18957968 -1.3807023e-16)
(100.12827 0.12864018 0)
(100.04761 0.059310923 0)
(100.23192 1.4091223 0)
(100.2605 1.3429619 1.3616025e-18)
(100.29609 1.2668972 0)
(100.31495 1.1636488 3.8457721e-18)
(100.33295 1.0552917 7.7838147e-17)
(100.36431 0.93967726 -2.3183075e-16)
(100.34261 0.78512781 1.4986461e-16)
(100.38782 0.68244657 -2.274487e-18)
(100.31634 0.43383834 1.4311104e-16)
(100.121 2.5936664 1.0029082e-16)
(100.18737 2.5755202 -1.9699904e-16)
(100.26679 2.5045421 1.8689358e-16)
(100.35043 2.4385087 -6.3655953e-18)
(100.40263 2.3021237 -8.7397886e-17)
(100.50717 2.2192708 -2.6408481e-18)
(100.54396 2.0222773 0)
(100.67615 1.9158413 4.9272857e-18)
(100.71003 1.528837 -2.3833642e-18)
(100.09997 3.4413604 1.0518711e-16)
(100.24834 3.4699022 -2.1312572e-16)
(100.35894 3.4710358 2.0139919e-16)
(100.54315 3.4483924 -9.7295721e-17)
(100.62121 3.3486924 -6.0459261e-18)
(100.82801 3.2970627 2.886162e-18)
(100.88119 3.1288556 0)
(101.11022 3.0353939 -2.6870916e-18)
(101.11839 2.672633 1.6092543e-16)
(99.806917 4.4349944 -1.2057561e-16)
(100.05936 4.6121011 0)
(100.18998 4.6715193 -1.0921581e-16)
(100.45928 4.789816 1.1261926e-16)
(100.60577 4.7510646 -1.0032656e-16)
(100.89047 4.8257737 1.0367779e-16)
(101.04264 4.7160231 0)
(101.3778 4.7616766 0)
(101.49197 4.5004025 5.7143703e-18)
(99.255628 4.9564444 -1.4850473e-16)
(99.50743 5.2655039 -1.4005965e-16)
(99.697305 5.3720325 1.346382e-16)
(99.96342 5.6280425 1.2723497e-16)
(100.17888 5.6307531 -1.2266416e-16)
(100.4789 5.8373353 0)
(100.70239 5.7469549 2.2231694e-16)
(101.02624 5.8966243 -2.0149399e-18)
(101.22115 5.6751601 -4.1048222e-16)
(98.015098 6.0315268 -1.7597226e-16)
(98.228496 6.6496548 0)
(98.488795 6.8017961 0)
(98.777206 7.3387325 4.7410349e-18)
(99.121904 7.4133788 0)
(99.518016 7.9197524 0)
(99.915471 7.913554 0)
(100.38686 8.3778898 0)
(100.77396 8.2524188 0)
(96.006786 5.652809 6.9340853e-18)
(95.979793 6.4777239 0)
(96.157322 6.9440721 6.11268e-18)
(96.329318 7.7602856 -1.1241065e-17)
(96.648711 8.1131274 -1.6799064e-16)
(97.009205 8.7931631 -1.5656057e-16)
(97.4349 9.0020216 3.033386e-16)
(97.92658 9.5429022 2.8788547e-16)
(98.434104 9.6498636 -2.7251991e-16)
(92.051957 8.0600956 8.3673832e-16)
(92.017045 9.9488555 -5.2141897e-16)
(92.183473 11.08342 4.68409e-16)
(92.78995 12.841648 -4.482599e-16)
(93.501326 13.609242 -6.1836294e-16)
(94.441312 15.139019 1.1457457e-15)
(95.384408 15.602358 -7.2009873e-16)
(96.498794 16.958958 -3.3226346e-16)
(97.283479 16.979395 3.1250161e-16)
(100.0875 0.099656017 -1.882503e-19)
(100.14025 0.13313694 1.9270789e-16)
(100.22796 0.17875265 -2.8284031e-19)
(100.34348 0.23025284 -1.9390719e-16)
(100.48335 0.28224151 1.8886794e-19)
(100.64735 0.33644161 1.9400035e-16)
(100.83495 0.39038295 -1.9494296e-16)
(101.0484 0.44588644 -1.8877548e-19)
(101.30826 0.51698649 -9.7148375e-17)
(100.37994 0.55929025 -2.0530165e-16)
(100.5418 0.58707845 2.0622802e-16)
(100.65949 0.78579116 -2.0642942e-16)
(100.90571 0.79156496 0)
(101.08085 0.99929391 2.0647665e-16)
(101.38259 0.99752461 -5.6334968e-19)
(101.56929 1.1550975 -4.7012418e-19)
(101.93597 1.2008744 -2.0619894e-16)
(102.15562 1.2762169 1.0278136e-16)
(100.8459 1.6950798 2.1890222e-16)
(101.04559 1.9103015 -2.1965974e-16)
(101.25879 1.9814612 -2.1982162e-16)
(101.42626 2.2530999 2.2035207e-16)
(101.71761 2.2724603 -2.206428e-16)
(101.87631 2.5527721 2.1986744e-16)
(102.20605 2.5561195 -2.2019666e-16)
(102.41048 2.8679581 9.2441032e-19)
(102.78116 2.8463608 2.1952296e-16)
(101.37824 2.7877468 -2.3531427e-16)
(101.51616 3.0974603 -9.2029433e-19)
(101.79479 3.1526419 9.2321654e-19)
(101.93647 3.4519526 0)
(102.24027 3.4898977 -1.3960823e-21)
(102.40269 3.8034693 -2.3402238e-16)
(102.74544 3.8260413 2.378836e-16)
(102.93767 4.1640488 9.1748035e-19)
(103.31864 4.157702 9.1495599e-19)
(101.80798 4.697287 -9.9261665e-19)
(101.93987 5.0361833 -2.5409244e-16)
(102.21543 5.134724 3.0410526e-19)
(102.3125 5.432977 2.5535333e-16)
(102.59849 5.5000416 2.5476186e-16)
(102.72103 5.8118428 -2.560485e-16)
(103.04961 5.8608059 -9.9120672e-19)
(103.21652 6.2042328 -9.8911838e-19)
(103.59803 6.2233276 -9.8694583e-19)
(101.53572 5.8592584 2.7990676e-16)
(101.64365 6.2340678 0)
(101.93348 6.3341547 0)
(102.02993 6.6724848 2.7662403e-16)
(102.34612 6.743233 -2.8029998e-16)
(102.48131 7.0932553 -2.7778054e-16)
(102.83941 7.1397339 5.5417592e-16)
(103.02073 7.5125202 -2.4214994e-18)
(103.44683 7.5363156 -5.5071886e-16)
(101.20394 8.6090157 -1.2187248e-18)
(101.31377 9.0298001 0)
(101.61612 9.2271714 1.2084341e-18)
(101.68983 9.5401068 3.0638138e-16)
(102.02113 9.6916145 -3.0822486e-16)
(102.15127 9.9688239 3.0477404e-16)
(102.53861 10.11804 -3.0542899e-16)
(102.73026 10.363548 -1.177762e-18)
(103.16213 10.488356 2.9998802e-16)
(98.985094 10.048238 -3.4379454e-16)
(99.421956 10.524022 3.4830704e-16)
(99.971816 10.823045 -3.4311298e-16)
(100.43159 11.175076 3.4138816e-16)
(100.9712 11.349824 -3.3326662e-16)
(101.44227 11.630934 3.3534292e-18)
(101.99311 11.703183 3.3445397e-16)
(102.49253 11.838537 2.5585289e-18)
(103.00196 11.831555 1.6210664e-16)
(98.261974 17.85804 0)
(98.848608 17.962149 -3.7283456e-16)
(99.748456 18.600876 6.8860631e-18)
(100.25663 18.538046 8.2003067e-18)
(101.20437 18.908632 7.2441451e-16)
(101.67378 18.364395 -3.601559e-16)
(102.8568 18.227734 -3.5062173e-16)
(103.34768 17.055836 3.5219897e-16)
(104.68096 16.198396 1.7272475e-16)
(104.9537 14.59584 -2.0164935e-16)
(105.31603 13.590707 0)
(105.40083 12.394896 1.9576245e-16)
(105.2751 11.878219 -1.9565486e-16)
(104.82518 10.867163 0)
(104.25866 10.505921 0)
(103.36957 9.5306846 0)
(102.54088 9.4507165 -2.0252924e-16)
(101.69356 8.5720593 2.025306e-16)
(103.33705 11.882292 -1.8463659e-16)
(103.72025 11.891067 0)
(104.00866 11.764881 0)
(104.25124 11.68588 0)
(104.37289 11.509435 0)
(104.43552 11.419982 0)
(104.40268 11.260962 0)
(104.3085 11.236284 1.732887e-16)
(104.1151 11.156397 -3.4617873e-16)
(103.37183 10.686254 -3.2591908e-18)
(103.74743 10.843062 -3.266113e-16)
(103.95258 10.987708 0)
(104.29484 11.118224 -1.5843968e-16)
(104.46169 11.220246 1.5842353e-16)
(104.75014 11.301236 0)
(104.8688 11.375278 0)
(105.09041 11.453527 0)
(105.1393 11.549453 0)
(103.61062 7.8833284 2.9508764e-16)
(104.05349 7.9985623 0)
(104.22386 8.3264524 1.4337803e-16)
(104.6601 8.4189163 -2.8534072e-16)
(104.8209 8.7330671 1.4196205e-16)
(105.24254 8.8148116 0)
(105.38815 9.1310889 0)
(105.79578 9.2150038 0)
(105.92033 9.5419678 1.3481957e-16)
(103.77256 6.587002 0)
(104.17875 6.6293744 2.6141768e-16)
(104.37681 6.9930938 -3.9092148e-16)
(104.79867 7.0179934 1.2950384e-16)
(105.00535 7.3799537 1.2697677e-16)
(105.43436 7.3898335 -1.3164828e-18)
(105.64702 7.7547666 -2.4994644e-16)
(106.08985 7.7616825 2.472008e-16)
(106.30548 8.1429755 -1.2289786e-16)
(103.53054 4.5199187 0)
(103.93745 4.5193713 1.1954006e-16)
(104.18528 4.8947726 -1.1954006e-16)
(104.61698 4.8700273 0)
(104.88798 5.2446526 -2.3239971e-16)
(105.34466 5.1953256 2.3239974e-16)
(105.64053 5.5756359 1.1369772e-16)
(106.1249 5.5106659 -2.2606391e-16)
(106.43985 5.9019339 1.1236093e-16)
(103.01739 3.1894841 0)
(103.41889 3.1671729 0)
(103.68073 3.522047 0)
(104.10814 3.4784391 -1.0855348e-16)
(104.39302 3.8424557 2.1610291e-16)
(104.85143 3.7801576 -2.1403975e-16)
(105.16332 4.1584677 1.0648615e-16)
(105.65464 4.0788572 -1.0417845e-16)
(105.99583 4.4755029 2.0710562e-16)
(102.57557 1.4019746 -2.0775685e-16)
(102.85193 1.3907973 7.7987054e-19)
(103.28141 1.6213252 1.0272387e-16)
(103.63318 1.532711 -1.0099129e-16)
(104.08347 1.7943151 1.0099128e-16)
(104.44742 1.6943146 0)
(104.95492 1.9219314 9.7967962e-17)
(105.32698 1.8360651 -1.9480352e-16)
(105.88759 2.0676119 9.6835541e-17)
(101.47155 0.57487426 5.772275e-19)
(101.77968 0.66130669 9.7914356e-17)
(102.15372 0.78586034 9.6633254e-17)
(102.45557 0.83384206 -9.6633263e-17)
(102.84947 0.94040411 0)
(103.19383 0.96131386 0)
(103.65895 1.0852049 -9.3504927e-17)
(104.0486 1.1114723 1.8605042e-16)
(104.58364 1.2244589 -9.2545469e-17)
(105.00877 1.2624244 0)
(105.60573 1.3688646 -8.9227442e-17)
(106.07378 1.395053 1.257672e-18)
(106.7206 1.5107546 1.3354955e-18)
(107.23867 1.535542 1.4138254e-18)
(107.93033 1.6264943 8.5220445e-17)
(108.50882 1.659462 8.213185e-17)
(109.24514 1.768417 -8.2131854e-17)
(109.88117 1.7883905 0)
(106.29484 1.9455776 0)
(106.88617 2.2092948 0)
(107.32835 2.0676789 -9.1652842e-17)
(107.95626 2.3399179 1.4613862e-18)
(108.43011 2.1894606 1.5305142e-18)
(109.07669 2.5080052 8.8659117e-17)
(109.60636 2.3277602 8.5380534e-17)
(110.27597 2.6909188 -8.5380514e-17)
(110.84097 2.5034649 0)
(106.5216 4.3801583 -1.029269e-16)
(106.89054 4.7982728 0)
(107.45251 4.6904857 0)
(107.84639 5.1314668 -9.7292429e-17)
(108.4461 5.0134191 1.9300398e-16)
(108.86946 5.4847614 -1.6463276e-18)
(109.51646 5.3571731 -1.7201229e-18)
(109.97138 5.8646936 -9.2345404e-17)
(110.67079 5.7278235 0)
(106.95434 5.8281894 -1.0953407e-16)
(107.28426 6.2386567 1.095323e-16)
(107.83175 6.1643842 0)
(108.17124 6.6015946 0)
(108.7564 6.5351033 1.0321978e-16)
(109.10523 7.0099793 -1.0321705e-16)
(109.73721 6.9581259 9.9709657e-17)
(110.09807 7.4835023 -5.0779541e-17)
(110.78497 7.44866 -4.8924306e-17)
(106.77565 8.1613061 -1.1999107e-16)
(106.98899 8.5676097 1.1999104e-16)
(107.48526 8.6054724 0)
(107.68959 9.0426128 0)
(108.21255 9.1074808 0)
(108.4068 9.5868379 0)
(108.96657 9.6871627 0)
(109.15749 10.228353 0)
(109.77044 10.363302 0)
(106.32109 9.6478421 -1.3482307e-16)
(106.42079 9.9912359 1.3195217e-16)
(106.82314 10.129929 -1.3195715e-16)
(106.89245 10.511331 1.2909183e-16)
(107.31204 10.702786 -1.2907483e-16)
(107.33921 11.144201 0)
(107.7849 11.405943 0)
(107.77752 11.940887 0)
(108.28458 12.27679 0)
(105.30384 11.658357 0)
(105.27197 11.802113 -1.4960372e-16)
(105.37776 11.968831 1.4959759e-16)
(105.3058 12.241974 0)
(105.29388 12.442816 1.4693337e-16)
(105.28677 12.867907 -1.4693333e-16)
(105.14558 13.159489 0)
(105.19147 13.741827 7.2237928e-17)
(104.97146 14.160248 -1.44047e-16)
(103.95382 11.206015 1.7288118e-16)
(103.60434 11.323641 1.7262986e-16)
(103.339 11.402236 -1.7272702e-16)
(102.89152 11.707998 1.7309184e-16)
(102.55575 11.870174 -3.4654685e-16)
(101.94309 12.320281 3.4741758e-16)
(101.63067 12.699586 -3.4847971e-16)
(100.82897 13.276804 1.7453254e-16)
(100.54403 13.861155 0)
(100.61187 8.6794444 -2.0726608e-16)
(99.853486 8.1091638 2.0726687e-16)
(98.580966 8.136123 0)
(97.869327 8.0095036 0)
(96.423413 8.0027528 0)
(95.678489 8.1812621 0)
(94.134097 8.377511 0)
(93.335077 8.703547 -1.1343164e-16)
(91.639218 9.1505345 1.1343034e-16)
(90.829784 9.9153685 1.1668161e-16)
(99.60339 14.658621 0)
(105.09317 14.932981 7.1801428e-17)
(108.2564 12.938434 0)
(109.97431 10.989635 0)
(111.16822 8.0395799 0)
(111.16396 6.2806349 4.334862e-17)
(111.56428 2.8925156 3.9943221e-17)
(110.67678 1.8845498 3.8414763e-17)
(88.877144 10.416208 -1.1667752e-16)
(99.346658 15.422823 0)
(104.87723 15.459101 0)
(108.84465 13.338029 5.905885e-17)
(110.66656 11.152367 0)
(111.9244 8.0177685 -4.5893488e-17)
(111.9257 6.1320888 -8.5665439e-17)
(112.17025 2.7083744 -7.8886744e-17)
(111.36955 1.9198676 -7.5852288e-17)
(88.174629 11.831017 0)
(98.305941 16.518434 0)
(104.96966 16.496237 7.0226153e-17)
(108.84041 14.17384 -5.9066938e-17)
(110.9111 11.891486 0)
(112.34766 8.6888279 4.5892935e-17)
(112.46774 6.7377681 4.231809e-17)
(112.91305 3.1470847 3.8944178e-17)
(112.21513 2.0136998 3.7437516e-17)
(85.878223 12.68683 1.217378e-16)
(98.118001 17.467147 0)
(104.92515 17.135014 -1.397829e-16)
(109.51119 14.624539 0)
(111.66508 12.057374 0)
(113.18756 8.6672937 -4.3614096e-17)
(113.29339 6.5706177 -4.0111459e-17)
(113.63563 2.9106107 0)
(112.97372 2.0502401 -3.5333046e-17)
(85.389623 14.632031 -1.2177678e-16)
(97.055107 18.937759 -8.92541e-17)
(104.95885 18.450907 6.9557497e-17)
(109.58339 15.665105 0)
(112.07186 12.931594 0)
(113.66139 9.4139739 4.3622435e-17)
(113.90009 7.2303187 4.0112437e-17)
(114.34011 3.445532 0)
(113.87159 2.1468262 3.533304e-17)
(82.872154 16.2161 0)
(96.983586 20.105775 8.9245679e-17)
(105.12344 19.231917 -6.7861099e-17)
(110.37711 16.153403 0)
(112.78635 13.119982 0)
(114.60524 9.4085655 -4.1082435e-17)
(114.79412 7.0313326 -3.7687288e-17)
(115.19139 3.1468497 0)
(114.70959 2.167307 -3.3025677e-17)
(82.497748 19.161004 0)
(95.92272 22.04538 0)
(105.20554 20.86088 6.7861021e-17)
(110.59301 17.427786 -2.6683848e-17)
(113.43456 14.042011 -2.2634727e-17)
(115.17291 10.164578 6.0932357e-17)
(115.49737 7.7461683 5.5884589e-17)
(115.9261 3.7469452 0)
(115.64876 2.256559 4.8926759e-17)
(80.153859 21.364808 0)
(96.12257 23.466948 -4.4185895e-17)
(105.57075 21.775079 0)
(111.47972 17.928758 2.6679751e-17)
(114.21394 14.348672 2.2634726e-17)
(116.16739 10.205815 -7.3680829e-19)
(116.41687 7.500978 -3.5703061e-17)
(116.8283 3.4384748 0)
(116.54105 2.2790035 -1.5901086e-17)
(80.106396 25.469456 -6.3185304e-17)
(95.167753 26.093924 4.4174809e-17)
(105.89713 23.808727 0)
(112.002 19.472055 0)
(115.05054 15.245164 0)
(116.96228 10.93545 -3.7449499e-17)
(117.31123 8.217013 7.1354632e-19)
(117.63485 4.0110257 0)
(117.50643 2.3438304 0)
(118.78625 2.326112 0)
(118.5789 3.768337 0)
(118.2192 8.0033264 -2.6788968e-19)
(117.92441 11.086595 1.9226904e-17)
(115.94655 15.657219 0)
(112.97828 19.900258 -3.2145315e-18)
(106.54822 24.685407 -6.5060999e-19)
(96.029243 27.471563 -3.5878105e-17)
(78.528945 28.602328 1.1700712e-16)
(119.73056 2.280199 -6.6946753e-18)
(119.47438 4.0902208 -9.0896057e-19)
(119.23612 8.3994956 8.4640414e-18)
(118.94916 11.355995 -2.9179269e-20)
(117.12673 16.172786 -8.3155615e-18)
(114.0716 21.174537 1.1319101e-17)
(107.62548 26.691259 -4.133459e-18)
(96.199663 30.580885 4.6004353e-17)
(79.974089 33.760534 -5.9164664e-17)
(120.77832 2.2336833 1.3157271e-17)
(120.45281 3.8579053 0)
(120.368 8.1895045 1.5094521e-17)
(120.11386 11.506828 -7.9586681e-18)
(118.26377 16.483667 8.4256426e-18)
(115.46416 21.373595 -2.0998282e-17)
(109.08028 27.296023 -1.7904105e-17)
(98.646154 31.517259 1.0089849e-17)
(82.185281 35.568458 1.7921053e-18)
(121.87387 2.1797419 -6.4620913e-18)
(121.40309 4.0582086 -8.331718e-19)
(121.3351 8.4685804 -6.5306206e-18)
(121.17483 11.725199 9.0685419e-18)
(119.67428 16.898631 3.2150505e-18)
(116.90048 22.81162 1.1019061e-17)
(110.80243 29.464989 1.414923e-17)
(99.591396 34.67249 5.415112e-18)
(84.203118 39.772555 -6.2026945e-18)
(122.96066 2.1115821 1.4332669e-18)
(122.47756 3.8509648 -1.5262601e-18)
(122.591 8.2504112 -8.5348807e-19)
(122.5357 11.794934 2.7061415e-18)
(121.03702 17.068161 -3.2763377e-18)
(118.69401 22.661037 -3.6161781e-18)
(112.68426 29.718221 -3.6691063e-18)
(102.53447 35.258885 4.1423202e-18)
(86.237855 41.191804 -7.6974274e-18)
(124.02314 2.0212358 -1.449176e-18)
(123.47234 3.926295 1.5446139e-18)
(123.70304 8.249285 -8.0239681e-19)
(123.74113 11.8364 -5.0441045e-20)
(122.7324 17.439991 -9.6638097e-19)
(120.46665 24.084789 2.4479607e-18)
(114.76815 31.843942 -3.4659099e-18)
(103.84951 38.399631 3.9225675e-18)
(88.55066 45.004696 0)
(125.06238 1.9077041 -1.2602152e-18)
(124.52363 3.7303121 -7.0062837e-19)
(124.90737 8.0364832 -6.908883e-19)
(125.15719 11.727462 -8.1764016e-19)
(124.18859 17.404439 -8.2334998e-19)
(122.39038 23.679113 2.3359506e-18)
(116.82233 31.817269 -5.8496017e-18)
(106.91774 38.673595 8.4605766e-18)
(90.675565 46.21643 -5.537018e-18)
(126.06472 1.7665104 3.6183385e-18)
(125.53586 3.6406369 2.5174428e-18)
(126.04407 7.8123943 3.4550299e-18)
(126.44479 11.48715 3.5730909e-18)
(126.01283 17.495657 2.5992855e-18)
(124.40132 24.874075 -9.4453858e-19)
(119.31652 33.807674 -2.9789253e-18)
(108.71815 41.811827 -1.136278e-18)
(93.079012 49.589409 -6.2912599e-18)
(127.01683 1.5994443 -6.7056623e-18)
(126.5727 3.4187126 -2.5488178e-18)
(127.28287 7.4620897 -8.2690034e-18)
(127.93039 11.290885 -2.1703759e-18)
(127.6399 17.108487 4.7362226e-18)
(126.57633 23.992074 2.710527e-18)
(121.51581 33.417087 -1.3114528e-17)
(112.04324 41.72325 3.0634816e-18)
(95.18063 50.222301 1.1852342e-17)
(98.281495 52.925725 -1.0800361e-17)
(114.43734 44.862686 3.8933934e-18)
(124.58696 35.082463 1.7294699e-17)
(128.7109 24.995068 -2.3315701e-18)
(129.49609 17.032972 4.7011527e-19)
(129.17574 10.785932 3.3149418e-18)
(128.34187 7.03871 5.560267e-18)
(127.475 3.1773974 -2.8335446e-19)
(127.90192 1.406599 8.6334388e-18)
(100.96792 53.707201 3.7735001e-17)
(117.85869 44.32926 2.2854068e-18)
(126.82721 34.34717 -2.0154292e-17)
(131.11244 23.722083 -6.0839775e-19)
(131.19058 16.236081 -4.2747334e-18)
(130.68356 10.286789 -4.0470556e-18)
(129.50935 6.5052229 -8.5619354e-18)
(128.44098 2.8900813 0)
(128.70342 1.1873597 -4.0351433e-18)
(104.89509 57.286017 -4.8050711e-17)
(120.87439 47.252909 2.0613424e-17)
(130.4642 35.525443 9.6762992e-18)
(133.37768 24.230616 -4.821329e-19)
(133.0906 15.848946 6.2446128e-18)
(131.88283 9.5188052 -5.8844126e-20)
(130.49288 5.9072709 1.9391603e-18)
(129.23957 2.5408666 6.701425e-18)
(129.40302 0.94681468 6.6749682e-18)
(107.94667 58.164181 -8.2238328e-18)
(124.50689 46.040889 -1.0223071e-18)
(132.76694 34.24378 -1.1361741e-18)
(135.84556 22.556415 0)
(134.71155 14.634751 -6.4007844e-18)
(133.26198 8.7652895 0)
(131.49629 5.1909439 6.8271036e-18)
(129.9998 2.1249172 -1.3333107e-17)
(129.97986 0.68406875 -6.5986665e-19)
(111.89563 61.266884 -2.4298874e-18)
(128.22283 48.676394 -1.0169234e-17)
(136.82333 34.942077 6.4094953e-19)
(138.17553 22.547484 0)
(136.56072 13.848248 -3.2904663e-18)
(134.34409 7.7054652 4.4297621e-18)
(132.25572 4.3681893 3.3056194e-19)
(130.62038 1.6817376 1.2449938e-17)
(130.41584 0.40632123 -6.1707336e-18)
(114.73422 61.007799 -2.3499655e-17)
(132.19749 46.799483 -2.1841405e-19)
(139.01302 32.929134 -1.9063198e-19)
(140.56385 20.289591 8.3286381e-20)
(137.98624 12.212815 1.4704119e-18)
(135.505 6.724233 -8.1799062e-18)
(133.10991 3.4978397 2.7435412e-19)
(131.18756 1.1895282 -5.9520873e-18)
(130.70359 0.11997904 0)
(118.92119 63.295611 1.5850703e-17)
(136.34936 49.025325 4.9387147e-19)
(143.41861 32.873713 -4.5727127e-20)
(142.77589 19.668825 4.7281194e-19)
(139.65287 11.097817 1.2767474e-18)
(136.367 5.327203 3.6304486e-18)
(133.51813 2.5308075 3.1267194e-19)
(131.48376 0.61942148 -2.8650379e-19)
(130.82306 -0.02599445 0)
(121.91889 62.490504 0)
(140.82249 46.680404 1.3313064e-18)
(145.34323 30.208539 -1.1351677e-18)
(144.90863 16.845708 1.2467694e-17)
(140.71697 8.9743618 1.7529899e-19)
(137.15054 4.1453582 2.9928852e-18)
(134.10522 1.4664156 -6.93288e-18)
(131.79398 0.082197922 9.0133303e-18)
(130.81865 -0.34357462 9.3133154e-18)
(126.9949 64.32905 -3.6894583e-18)
(145.36733 48.12029 -4.5365274e-17)
(149.82661 29.248469 1.8225643e-18)
(146.85487 15.635925 -1.2931674e-17)
(142.0464 7.5353413 3.5581771e-20)
(137.78941 2.5265636 -3.2724728e-18)
(134.13673 0.45437315 7.4707862e-18)
(131.71241 -0.56919004 -9.3709242e-18)
(130.64284 -0.61888085 -2.8177391e-19)
(130.19038 -0.75808894 -9.1171758e-18)
(131.72862 -1.1671142 8.0145796e-18)
(134.3799 -0.72197571 0)
(138.04156 1.2134288 1.7426345e-19)
(142.70344 5.0177101 -8.1549076e-18)
(148.5905 12.133611 -2.0588816e-17)
(151.69876 25.536668 0)
(150.56668 44.756663 -1.6116146e-17)
(131.07022 62.806413 3.5760474e-18)
(129.67806 -1.1183136 0)
(131.22597 -1.8657621 -8.3064913e-18)
(133.93184 -1.8663307 0)
(138.31238 -0.72440044 2.6442968e-19)
(143.46376 3.0899476 1.762619e-17)
(150.13397 9.9288649 2.3078386e-17)
(156.14468 22.847226 -4.8790129e-17)
(156.14175 44.666178 5.6103981e-17)
(139.27217 64.648461 -4.9707997e-17)
(128.74123 -1.0678117 0)
(130.88611 -2.5093194 0)
(133.75675 -2.936172 -5.4769237e-18)
(137.8822 -2.1185527 0)
(143.41374 0.24325974 -1.0001317e-17)
(150.94099 5.8591837 2.7336678e-17)
(157.32472 17.755999 4.4152874e-17)
(161.83815 39.434624 4.50834e-18)
(145.0149 61.878462 -2.8145894e-17)
(127.95679 -1.4090311 0)
(130.01922 -3.1164225 0)
(132.76328 -4.0550716 5.5906146e-18)
(137.69099 -3.9252088 -1.8316592e-19)
(143.4769 -1.5945761 -1.0829334e-17)
(151.58851 3.4032372 -2.943113e-17)
(160.63407 13.927607 0)
(167.08277 37.180452 -1.1178297e-16)
(156.30326 62.196913 8.9728207e-17)
(126.49517 -1.3629401 1.6428453e-19)
(129.36262 -3.7080516 -1.7790129e-19)
(132.15406 -4.9187668 0)
(136.60608 -5.3047895 5.6593801e-19)
(142.66121 -4.4735597 2.4786018e-17)
(151.21864 -0.68833567 -1.3840958e-18)
(160.49824 7.8464539 -6.3411526e-17)
(171.53733 29.889588 1.2388135e-16)
(163.4611 57.37353 -1.9070562e-16)
(125.53 -1.3708162 -1.8383071e-19)
(128.07006 -4.2883854 1.9936951e-19)
(130.76463 -5.8270455 0)
(136.03284 -6.8151518 3.043041e-19)
(142.0493 -6.0688612 -1.3538682e-17)
(150.92927 -2.9610571 1.3930041e-18)
(162.05179 3.5990098 6.5579553e-17)
(174.79778 25.144575 0)
(178.11373 54.926822 1.9176662e-16)
(123.77624 -1.3945085 2.0801542e-19)
(127.19276 -4.6592165 1.2521391e-17)
(129.72371 -6.4605838 -1.6285394e-19)
(134.41209 -8.0737394 2.8430102e-18)
(140.56637 -8.7485351 -1.0345501e-17)
(149.49182 -6.6535916 0)
(160.11924 -2.3286254 0)
(176.19628 15.128232 1.4561065e-16)
(184.55312 47.89488 0)
(122.49782 -1.2967809 0)
(125.60217 -5.1558597 -1.3010476e-17)
(128.09753 -7.090307 0)
(133.53166 -9.1540892 -2.2927732e-18)
(139.52731 -9.9876457 1.0138319e-17)
(148.57584 -8.2962109 -2.8892555e-17)
(159.79572 -5.766674 0)
(176.21156 8.5694753 -1.6556866e-16)
(198.2872 42.961347 4.0197081e-16)
(120.76398 -1.1060366 0)
(124.57952 -5.4385413 0)
(126.6903 -7.4599706 -2.7756691e-19)
(131.39836 -10.332995 3.6843383e-19)
(137.4222 -12.610627 -6.7860005e-20)
(146.52665 -11.483596 2.98242e-17)
(156.48444 -11.445303 0)
(172.37248 -5.2723155 0)
(199.47724 24.730076 -4.0414045e-16)
(118.8117 -0.96986485 -5.8235245e-19)
(122.80873 -5.7934727 1.5562489e-19)
(125.08654 -7.8159112 1.6093042e-17)
(130.41722 -10.962561 0)
(136.59751 -13.257202 0)
(145.94174 -12.547262 2.2051002e-18)
(156.8572 -11.670293 5.2456124e-17)
(171.97896 -2.0703848 -2.4049665e-18)
(211.49006 27.794572 0)
(117.5667 -0.78733687 -6.1504515e-19)
(121.80875 -6.0881011 1.5618038e-19)
(123.69773 -8.0577175 -1.4461702e-17)
(128.42735 -12.03003 0)
(135.20309 -14.853273 0)
(146.17219 -13.778487 -2.2520698e-18)
(158.39781 -12.351176 -1.6304612e-16)
(176.51047 -1.2012111 2.666781e-18)
(210.10133 24.227642 -8.2399663e-16)
(116.33927 -0.46859005 0)
(120.06957 -6.195812 4.0129937e-17)
(122.4034 -8.6096256 0)
(127.86208 -12.979982 1.358512e-19)
(135.50736 -16.312717 -1.4834003e-19)
(147.41045 -16.364292 2.4922167e-18)
(161.38673 -14.784455 2.3484691e-16)
(182.98227 -1.9877622 -3.1792898e-18)
(197.38136 21.985626 7.7984097e-16)
(115.23153 -0.068250916 5.2216534e-17)
(118.98116 -6.4768378 -3.8124723e-17)
(121.23456 -8.8589256 3.6491567e-17)
(126.13862 -14.434862 2.0048013e-17)
(134.47669 -18.557583 1.1218432e-17)
(148.01935 -18.101384 -5.9341203e-17)
(163.99121 -17.26143 -1.2698185e-16)
(183.0426 -4.8850976 -3.3577628e-16)
(179.51923 31.251149 0)
(114.29319 0.38307966 -1.0683258e-16)
(117.20337 -6.3564992 4.4924578e-17)
(119.97528 -9.5360107 -3.5300917e-17)
(125.27168 -15.220578 2.6011745e-18)
(134.6279 -20.215585 -1.0882633e-17)
(149.44209 -21.628715 -4.5537313e-18)
(165.53934 -20.583699 0)
(182.79881 -8.2933919 3.1935522e-16)
(148.73267 50.557101 0)
(113.54264 0.87158657 1.1093128e-16)
(116.00125 -6.5064051 -4.2773765e-17)
(118.5683 -9.4794282 4.1103612e-17)
(123.0969 -16.534253 -2.2194107e-17)
(133.08908 -22.595868 1.0773471e-18)
(149.19853 -23.593352 6.0414293e-17)
(166.52391 -22.719478 -1.477862e-16)
(180.75276 -8.9798001 -4.0961566e-16)
(112.9544 72.080025 5.5525702e-16)
(112.93841 1.3107263 -5.7049064e-17)
(114.21888 -6.0231092 1.5338939e-18)
(117.26565 -10.016515 -3.9662325e-17)
(121.95254 -17.011078 2.6727968e-19)
(132.73307 -24.141692 -2.8829065e-19)
(150.44688 -27.158092 6.8392711e-17)
(165.09248 -26.754952 3.036485e-16)
(177.50751 -9.7218951 3.8699528e-16)
(95.572185 69.187958 -5.2606424e-16)
(112.56615 1.8229381 -8.3900824e-19)
(113.01206 -5.9249005 9.0010642e-19)
(115.66884 -9.660202 4.4216679e-17)
(119.39233 -18.116288 2.9239259e-17)
(130.70851 -26.800191 5.6075082e-18)
(148.858 -29.463715 -1.3520689e-16)
(164.32255 -29.416925 -3.17426e-16)
(170.92764 -10.823764 -4.4300808e-16)
(36.925708 47.22242 5.7905918e-16)
(112.19834 2.2311721 6.4383537e-17)
(111.44023 -4.9925004 -7.4319529e-19)
(114.37488 -9.981865 4.1766802e-18)
(118.14529 -18.28818 -2.835751e-17)
(129.86844 -28.014199 -4.3509053e-18)
(150.06393 -33.291067 6.926706e-17)
(161.09618 -34.684233 1.5992398e-16)
(155.50143 -15.269932 4.2298549e-16)
(-9.0544262 -3.3133801 -5.5080094e-16)
(-5.0481545 21.42718 -9.2829726e-16)
(143.33466 -13.84479 -5.4712448e-18)
(157.5645 -36.836318 2.6429939e-18)
(147.75644 -34.967284 -2.2527489e-18)
(127.65255 -30.675798 0)
(115.42742 -19.007826 -7.3057677e-19)
(112.72224 -9.3020798 -1.0024896e-16)
(110.3649 -4.6003073 -6.2184406e-17)
(112.47158 2.6805186 -1.315909e-16)
(-5.1042237 20.026382 9.011005e-16)
(135.14619 -18.003749 0)
(156.08384 -42.309608 0)
(147.23503 -38.631674 1.6237294e-16)
(126.05852 -31.478326 0)
(114.07027 -18.65299 8.5049487e-17)
(111.79221 -9.0637294 1.6422264e-16)
(109.28129 -3.3244696 5.9114287e-17)
(112.6352 3.4272059 -7.2803368e-17)
(-16.514261 17.969457 6.4855495e-18)
(126.70425 -17.356265 -5.222782e-18)
(151.80046 -43.13395 0)
(144.19069 -39.681379 -1.5888874e-16)
(123.61136 -33.487579 0)
(111.09958 -18.797213 -8.4355616e-17)
(110.06741 -8.1649313 -1.0806073e-16)
(108.64964 -2.4235373 -1.4618065e-18)
(113.61416 3.6388987 1.3831303e-16)
(-24.694585 12.974426 1.6840774e-15)
(119.77884 -22.30348 -1.2486849e-15)
(149.43742 -48.094582 5.9132639e-18)
(143.20485 -42.817203 0)
(121.23116 -34.042979 2.2197604e-17)
(109.72148 -18.067955 0)
(109.28846 -7.4848616 1.0457869e-18)
(108.04379 -0.76038639 -1.5261259e-18)
(114.56562 4.6332902 5.26174e-19)
(-31.130706 14.400341 -1.6184247e-15)
(110.77367 -21.231856 -1.2477345e-17)
(144.67948 -48.727561 4.5255214e-16)
(139.66504 -44.134908 -2.0664881e-18)
(119.02428 -35.344525 9.1964741e-18)
(106.55306 -17.628356 0)
(107.53491 -6.2282196 1.2773863e-16)
(107.77565 0.56968335 0)
(116.43474 5.1359039 0)
(-37.36317 12.515701 5.8515745e-18)
(103.66617 -25.585393 1.1682214e-15)
(142.08782 -53.502344 -8.6751844e-16)
(138.32598 -46.985491 1.2647516e-16)
(115.81687 -36.01743 -3.0417338e-17)
(105.28197 -16.734879 -1.1581748e-16)
(107.09804 -5.1106616 -1.23808e-16)
(107.8357 2.5564057 -1.6438218e-18)
(117.9179 5.7327306 1.518261e-16)
(-46.547592 9.7343424 5.6315185e-18)
(94.581675 -23.999423 -1.1395434e-15)
(137.25151 -53.964687 4.2910439e-16)