/*--------------------------------*- C++ -*----------------------------------*\
  =========                 |
  \\      /  F ield         | OpenFOAM: The Open Source CFD Toolbox
   \\    /   O peration     | Website:  https://openfoam.org
    \\  /    A nd           | Version:  11
     \\/     M anipulation  |
\*---------------------------------------------------------------------------*/
FoamFile
{
    format      ascii;
    class       volScalarField;
    location    "0.35923745";
    object      T;
}
// * * * * * * * * * * * * * * * * * * * * * * * * * * * * * * * * * * * * * //

dimensions      [0 0 0 1 0 0 0];

internalField   nonuniform List<scalar> 
880
(
500.0000000000027
500.000000292371
500.0240611161739
503.3408220736475
500.0000000004407
500.0000008570672
500.0298647659012
504.8871583170268
500.0000000016358
500.0000033381324
500.0553421277724
506.7156823059987
500.0000000211684
500.0000146210545
500.1147628538076
509.4284371668449
499.9999999006574
500.000000075423
500.000010166746
500.0001636975903
500.0000671592888
500.0002570980703
500.0016144382816
500.0023566328683
500.2633651146804
500.4347037376532
500.7186582023524
500.9607667144472
514.9178664568938
521.1125978462804
526.3743134619249
529.0292415274662
500.0004089497185
500.0033847183122
500.0128253247722
500.0397785133204
500.0227916415324
500.0985671727036
500.2005098643035
500.4220248051532
502.4155897251566
503.6984062913046
505.2861720602951
507.2307474133436
531.2573527912474
533.898441529882
534.3926233590188
533.1640399563611
522.840196625148
517.6389026606299
515.4439748456371
513.96953573715
511.047543209713
512.6642127046338
513.5779760429557
513.7075908894345
501.1772461479067
502.0603228154919
503.0083364389162
503.7666035565713
500.1411479633815
500.3406018141205
500.6412599994866
501.0639266804968
501.5574548469085
502.0499086259375
502.5356225443152
502.8872668078844
504.3928601822869
504.7490386044052
504.9504959832251
504.9006033871872
513.06792129241
512.1692503577946
510.98662285126
509.7491227866611
512.2219262473541
511.0323245049941
510.2808454626693
509.5129760348339
508.9400182236051
508.8784227527675
504.7598034506336
503.095336162831
519.1989417469784
508.0402920586764
504.3860440527946
503.0561075051798
571.319167886193
510.4333988853303
503.9292167135749
502.6034630211799
620.3442151257908
523.8958496270686
504.780536789814
502.4449068589063
502.3965941861394
506.0674692982763
539.677534802115
637.4093858832413
501.5158959864052
508.5904168107122
556.3031540151039
635.1892726084203
501.8918805850395
514.4423500487676
576.610781396176
636.1938065488212
503.3246869943327
524.8676542982977
594.7480973362756
633.4377076917103
628.3166507530447
604.8054191693359
539.8159979755835
506.4865722431881
621.8129115299935
607.4544104794704
554.9983785111054
512.1641564844106
614.4985260095801
605.2838668109314
566.994962274176
521.1593713798026
606.6427239188502
594.2586815593987
569.0869098550048
532.0899212995006
541.2923996787644
563.5993737602894
579.7591334102402
597.1535962898691
539.8330916699974
552.0559885229427
562.8276783623332
582.2093879158225
535.835477285501
540.3215057924275
544.5105128989749
560.5778254715598
530.6373572717215
529.8356045846699
525.312210635944
530.4062329447767
526.7524586574425
520.4505118946855
508.495113105091
495.5316184340431
520.591222337143
511.2780121443099
491.9680662281277
459.8350076672377
515.7630642915075
506.0172587659782
477.9299731517659
425.1205709775278
511.5882945874817
504.5831774783992
477.6777117082904
399.8653978348875
410.5396578701093
486.825841854322
503.2609439844418
507.7684400375417
477.9394744335754
493.0368572408525
502.4041458619095
505.1698545521492
517.2609249068632
495.7343798902763
500.8734618830667
503.3599298054476
530.1719644812904
500.4058868756302
500.2272418912615
502.290542115353
539.0029049304787
504.3269183617716
498.9655183263084
500.3929623951675
533.7938652387785
504.2973567074904
497.6634729764496
499.2219099732804
525.7953654786933
503.4850237606154
497.2753645952922
499.19423434856
517.7073069364835
499.1156487617301
497.079387352091
499.4038915478684
479.7739649473476
469.4022122891385
488.9353407702133
498.6805270677162
474.2561312045682
471.2942033501893
489.42449537927
498.6803691736118
465.2308129178061
473.4182203689451
490.326832283257
498.6945428788509
459.5027619983361
476.2500974830328
491.3790102453108
498.7838896440319
517.7073069365299
499.1156487612917
497.0793873523321
499.4038915475921
525.7953654787156
503.485023759903
497.2753645951086
499.1942343474561
533.7938652387865
504.2973567068798
497.6634729752977
499.2219099724544
539.0029049305899
504.3269183607109
498.9655183260586
500.3929623947438
507.768440037761
503.2609439849015
486.8258418544161
410.5396578691236
505.1698545519622
502.4041458619695
493.0368572410441
477.9394744324387
503.3599298055619
500.8734618834918
495.7343798894399
517.2609249067474
502.2905421153755
500.2272418917265
500.4058868750245
530.1719644816303
399.8653978383737
477.6777117084836
504.5831774787725
511.5882945877337
425.1205709774459
477.9299731516066
506.0172587664463
515.7630642912478
459.8350076671308
491.9680662292072
511.2780121444819
520.5912223374374
495.5316184345149
508.4951131048318
520.4505118939085
526.7524586576286
541.2923996787517
563.5993737608973
579.7591334108715
597.1535962903729
539.8330916695232
552.0559885226053
562.8276783625809
582.2093879164429
535.8354772847273
540.3215057921527
544.5105128989894
560.5778254719074
530.6373572715281
529.8356045841836
525.3122106355512
530.4062329452161
606.6427239192476
594.258681559932
569.0869098552953
532.0899213004311
614.498526010142
605.2838668114586
566.9949622742844
521.1593713797067
621.8129115305187
607.4544104799587
554.9983785107839
512.1641564845316
628.3166507535605
604.8054191697141
539.8159979760243
506.4865722430275
502.3965941858817
506.0674692981589
539.6775348019936
637.4093858835074
501.515895987083
508.5904168110445
556.3031540152081
635.1892726086886
501.89188058599
514.4423500499537
576.6107813967139
636.1938065489052
503.3246869943387
524.8676542982915
594.748097336961
633.4377076918496
502.4449068587426
502.6034630209273
503.0561075057815
503.0953361629758
504.7805367891079
503.929216713215
504.386044053047
504.7598034504147
523.8958496263
510.4333988852068
508.0402920580379
508.878422752619
620.3442151258801
571.3191678857885
519.1989417471973
508.9400182234788
502.8872668084134
504.9006033876004
509.7491227870308
509.5129760350599
502.5356225441175
504.950495983506
510.9866228512561
510.2808454627812
502.04990862593
504.7490386046061
512.1692503580501
511.0323245043532
501.5574548464856
504.3928601819381
513.0679212924912
512.2219262475536
500.1411479627641
501.177246147523
511.0475432099833
522.8401966254169
500.3406018136123
502.0603228151406
512.6642127050518
517.6389026605348
500.6412600000961
503.0083364383167
513.5779760434066
515.4439748447122
501.0639266800933
503.7666035565385
513.7075908894758
513.9695357366968
533.1640399563963
507.23074741365
500.4220248051168
500.0397785135415
534.3926233591222
505.2861720604441
500.200509863984
500.0128253246294
533.8984415301252
503.6984062911344
500.0985671714755
500.0033847180794
531.2573527914783
502.4155897247035
500.0227916411518
500.0004089500906
529.0292415272006
500.9607667148517
500.0023566330378
500.0001636982874
526.3743134614358
500.7186582023876
500.0016144381333
500.000010167238
521.1125978456591
500.4347037375981
500.0002570979287
500.0000000750825
514.9178664564471
500.2633651144598
500.000067158444
499.999999901189
500.0000000001753
500.0000002925185
500.0240611161035
503.3408220734141
500.0000000005271
500.0000008567644
500.0298647661034
504.8871583168154
500.0000000018922
500.0000033379117
500.0553421277889
506.7156823064743
500.0000000219067
500.0000146208557
500.1147628538976
509.4284371671742
506.2254643126086
508.9278994104379
513.2492448103644
521.8956092304668
508.9278994108533
512.3867992791971
518.7555853589457
531.3321403929123
513.2492448106567
518.7555853589781
528.8806485032894
544.0768897056162
521.8956092305784
531.3321403926752
544.0768897061962
560.2595767714073
577.2416702807911
564.2359926597387
557.354522889791
544.9499245191905
575.4561815897139
571.5456894628624
570.3314956099275
564.6289177223075
575.3922121651375
574.3217857956167
573.7614198527255
572.0574018954385
571.9799936582554
571.5451004195005
571.6840143026476
570.9797311376155
567.8988986657412
565.55356046854
560.461300375601
553.2864555945173
567.558370507183
565.1532686041467
560.2395128158239
553.9644348642503
567.5747679387846
564.9925152253423
559.9824199475491
554.5583676437625
567.6370987077987
564.7359146811865
560.1859994364744
550.972492843124
512.381353982516
492.8098751398981
489.949911855482
490.4502826403289
501.8264566364695
488.7084166253885
489.9704461394599
491.0967291979375
491.5798000102733
488.8777856695094
491.5593148020927
492.8373630924843
469.926692552044
484.1233279040035
489.9012678612944
491.5987130892522
490.7931397646745
491.8104490731721
493.332709666183
494.8469706532527
491.0038515100068
491.4807483889642
492.8626710754469
494.86156264946
492.3163764038045
492.3385649218436
493.2672733392591
494.7356739210018
491.2482443321745
491.4194371056031
492.7258029993911
494.84035945843
505.0246273005965
567.6805935663818
639.3625966522783
664.5435591881784
510.9454756351496
581.166832149407
642.008515230882
660.2513183718125
516.4248139197409
589.4978406590318
641.9785784727484
660.949635669267
520.2340693729158
597.7655659694042
642.1830436816443
661.3626737978122
694.3007912879862
681.4451413703091
670.1396306879099
656.8747533809496
702.7509303232108
690.0066883202107
676.8979992608168
662.5489750542679
708.728566449803
697.4717089598488
683.0148578709483
668.0404046933886
706.6523472959974
701.2937999290676
687.1939494280576
671.8349698592464
643.6156720329097
633.0267309030751
623.2180678688344
618.9683064980383
648.714080747426
637.1071473433993
625.9494103820622
621.0677436351069
653.8775619817585
640.6174698857924
629.5057670934004
623.1776549094659
658.2962950360894
643.6920839303704
632.9965703874835
625.5983790337705
615.0674078680721
607.6462381129669
590.9805428263841
565.0079511224247
616.8448700185547
609.2347821702961
593.7783687160849
592.6504342368588
617.839031448493
610.1545947024632
602.7703158269386
620.4155996349957
619.7334970508814
614.0058185907563
616.350571214018
603.9811606453644
522.5289491851941
460.1973043893328
422.6691816745104
426.5787410989411
512.0670795334719
421.983509240993
305.5295556373927
252.9724187797857
468.7317695340752
368.1013039153527
252.1786122997874
231.8539730129106
368.0076262672386
282.5858650187394
227.8297949839223
239.5910962088054
376.1323466684248
403.9256050579456
471.0871740172069
522.9240588684808
306.4935981370539
380.3604072768348
441.8186508755015
491.7073781359362
291.6671175312023
350.9018712953884
404.4014965125976
445.1314524561135
298.9376390619901
351.4329457129816
402.1239839119699
431.150505218402
487.0606174009998
510.3457721024729
509.2798515719509
509.6873846609919
435.7733422537475
473.9286585086824
492.6751894375153
510.5675532485221
407.3533259959281
432.914232558895
470.5547416376487
514.1746259649772
392.4922891635163
408.2738131777732
445.0625612972634
512.9335393094992
491.8264715365617
470.6135706123407
459.3928303495944
459.7036374185477
495.178676802369
486.0223001863772
482.0172730195309
475.8954012498628
504.2373647920693
507.4085235015423
501.6103047866889
488.6176133269307
503.6019760094657
508.6045173117382
498.7249832777325
484.0919707976778
465.9310154770102
450.6270755200278
442.2369735279053
439.8952340273016
471.5288842539812
455.6884258769358
444.4200928902968
441.0562145131597
469.7953592021459
461.2954699919611
452.6146336161466
448.9981705867729
462.8009372878129
460.2202366646782
455.479143987569
452.3445121895096
439.8952340272657
441.0562145131265
448.9981705867973
452.3445121896027
442.2369735277571
444.4200928901534
452.614633616149
455.4791439878172
450.6270755197373
455.6884258766685
461.2954699918364
460.2202366648731
465.9310154765588
471.5288842537902
469.7953592020011
462.800937287984
459.7036374186483
459.3928303495853
470.6135706126383
491.8264715367636
475.8954012499017
482.0172730196256
486.0223001867022
495.1786768025673
488.6176133266966
501.610304786469
507.4085235016743
504.2373647921341
484.0919707974173
498.7249832776433
508.6045173116243
503.6019760094331
512.9335393096106
445.0625612976778
408.2738131783846
392.4922891641245
514.1746259650811
470.5547416381402
432.9142325594857
407.353325996659
510.567553248692
492.6751894378637
473.9286585092278
435.7733422546358
509.6873846611277
509.2798515721425
510.3457721030209
487.0606174015768
522.9240588682692
471.0871740171608
403.9256050564514
376.132346677776
491.707378135922
441.8186508757577
380.3604072761891
306.4935981375878
445.131452456408
404.4014965132523
350.9018712949502
291.6671175310435
431.1505052187877
402.123983912462
351.43294571336
298.9376390622783
426.5787411209337
422.669181676455
460.1973043891781
522.5289491852832
252.9724187837854
305.5295556371778
421.983509240334
512.0670795340382
231.8539730133187
252.1786122993724
368.1013039162424
468.7317695349895
239.5910962088872
227.8297949832498
282.5858650193287
368.0076262680274
565.0079511227968
590.980542826777
607.6462381135244
615.0674078682948
592.6504342371794
593.7783687162714
609.2347821705392
616.8448700191076
620.4155996355292
602.7703158269458
610.1545947021699
617.8390314487121
603.981160646375
616.350571213957
614.0058185904614
619.7334970511397
618.9683064986926
623.2180678691924
633.0267309028466
643.6156720329901
621.0677436356539
625.9494103820315
637.1071473432031
648.7140807472339
623.1776549095864
629.5057670936394
640.6174698853346
653.8775619813161
625.5983790342242
632.99657038764
643.692083930127
658.2962950360152
656.8747533808537
670.1396306874142
681.4451413698987
694.3007912876118
662.5489750541536
676.8979992607281
690.0066883199272
702.7509303226033
668.0404046929223
683.0148578705791
697.4717089590373
708.7285664500113
671.8349698588444
687.1939494278466
701.2937999291106
706.6523472952258
664.5435591881626
639.362596652014
567.680593566339
505.024627301051
660.2513183716692
642.0085152305994
581.1668321493124
510.9454756357111
660.9496356690354
641.9785784724096
589.4978406588273
516.4248139203105
661.3626737982771
642.1830436813085
597.7655659691795
520.2340693734789
494.8469706539066
493.3327096660655
491.8104490724364
490.7931397640304
494.8615626501079
492.8626710753225
491.4807483879994
491.003851509593
494.7356739216414
493.2672733389826
492.3385649208541
492.3163764032751
494.8403594590701
492.7258029990292
491.4194371045495
491.2482443312667
490.4502826395369
489.9499118548553
492.8098751403207
512.3813539828827
491.096729197183
489.9704461386133
488.7084166259115
501.8264566367556
492.8373630917106
491.5593148011179
488.877785669963
491.5798000104865
491.5987130884433
489.9012678601299
484.1233279043763
469.9266925522625
553.286455594646
560.4613003757505
565.5535604692975
567.8988986655318
553.9644348645824
560.2395128158415
565.1532686048325
567.5583705068964
554.5583676434013
559.9824199474546
564.9925152259451
567.5747679385001
550.9724928430547
560.1859994365826
564.7359146812363
567.637098707573
570.9797311367159
572.0574018943737
564.6289177213081
544.9499245193114
571.6840143017131
573.7614198511023
570.3314956081887
557.3545228893137
571.5451004183959
574.3217857938605
571.545689459948
564.2359926579388
571.9799936572903
575.392212163281
575.4561815862796
577.2416702771096
505.1317412103711
497.2539226732748
496.8135680003635
499.4842144311057
485.4159379215826
492.0362452123705
495.3926394503238
499.3453974769279
470.3696995667765
486.3990088108239
493.9791115276821
499.1480302234446
460.1373738475983
480.4284649615126
492.495488017421
498.9410641277908
498.6805270672455
488.935340770292
469.4022122890224
479.773964947425
498.6803691732204
489.424495379401
471.2942033499572
474.256131204917
498.6945428787654
490.3268322836701
473.4182203685622
465.2308129181336
498.7838896439627
491.379010245639
476.2500974827666
459.5027619984992
498.9410641273352
499.1480302233804
499.3453974769323
499.4842144311046
492.4954880171619
493.9791115274875
495.3926394496859
496.8135680000562
480.4284649617742
486.3990088110947
492.0362452129471
497.2539226736969
460.1373738474259
470.3696995665194
485.4159379215917
505.1317412104242
)
;

boundaryField
{
    back
    {
        type            empty;
    }
    inlet
    {
        type            zeroGradient;
    }
    front
    {
        type            empty;
    }
    top
    {
        type            zeroGradient;
    }
    outlet
    {
        type            fixedValue;
        value           uniform 500;
    }
    bottom
    {
        type            zeroGradient;
    }
    wall
    {
        type            zeroGradient;
    }
}


// ************************************************************************* //
