/*--------------------------------*- C++ -*----------------------------------*\
  =========                 |
  \\      /  F ield         | OpenFOAM: The Open Source CFD Toolbox
   \\    /   O peration     | Website:  https://openfoam.org
    \\  /    A nd           | Version:  11
     \\/     M anipulation  |
\*---------------------------------------------------------------------------*/
FoamFile
{
    format      ascii;
    class       surfaceScalarField;
    location    "13.3";
    object      phi;
}
// * * * * * * * * * * * * * * * * * * * * * * * * * * * * * * * * * * * * * //

dimensions      [0 3 -1 0 0 0 0];

internalField   nonuniform List<scalar> 
10792
(
0.07057913
-0.042735136
-0.071104412
0.043260418
0.069975449
-0.040648018
0.041251699
0.069248544
-0.038525738
0.039252642
0.068397555
-0.036192124
0.037043113
0.067639849
-0.033965383
0.03472309
0.066822329
-0.031675941
0.03249346
0.065999679
-0.029301234
0.030123884
0.065165267
-0.0269532
0.027787612
0.064317996
-0.024288015
0.025135285
0.063576887
-0.022047706
0.022788815
0.062777044
-0.019189933
0.019989776
0.062143443
-0.016880884
0.017514485
0.061506535
-0.014022387
0.014659295
0.060953794
-0.011593537
0.012146278
0.060551136
-0.0087407175
0.0091433749
0.060026241
-0.0061655924
0.0066904879
0.059818386
-0.0032800641
0.0034879193
0.059639859
-0.00071135758
0.00088988371
0.0021909093
0.059755311
-0.0023063611
0.074781003
-0.042118551
-0.075397588
0.07408984
-0.039956855
0.073252968
-0.037688866
0.072493575
-0.035432731
0.071758631
-0.03323044
0.070955908
-0.030873218
0.070152322
-0.028497647
0.069245731
-0.02604661
0.068557698
-0.023599982
0.067690782
-0.02118079
0.06695779
-0.018456941
0.066330352
-0.016253446
0.065639576
-0.013331611
0.065155214
-0.011109175
0.064661765
-0.0082472681
0.064299476
-0.0058033038
0.064124127
-0.0031047149
0.063930226
-0.00051745667
0.0021986592
0.063922476
0.079368312
-0.041526513
-0.07996035
0.078701017
-0.03928956
0.078016343
-0.037004193
0.077407967
-0.034824355
0.076621225
-0.032443698
0.075776874
-0.030028866
0.074869871
-0.027590645
0.074046746
-0.025223485
0.073222967
-0.022776203
0.072312865
-0.020270687
0.071673165
-0.017817241
0.070906822
-0.015487104
0.070341381
-0.012766171
0.069799552
-0.010567346
0.069289297
-0.0077370133
0.069012405
-0.0055264114
0.068687565
-0.0027798757
0.068607755
-0.00043764644
0.0022964861
0.068509928
0.084197863
-0.040857704
-0.084866672
0.083494015
-0.038585712
0.082825702
-0.036335879
0.082013381
-0.034012035
0.08107702
-0.031507337
0.080206447
-0.029158293
0.079408315
-0.026792512
0.078584949
-0.02440012
0.07773501
-0.021926264
0.07703673
-0.019572407
0.076340812
-0.017121324
0.075626028
-0.01477232
0.075119529
-0.012259672
0.07451832
-0.009966137
0.074171869
-0.0073905618
0.073800845
-0.0051553879
0.073584016
-0.0025630468
0.073440222
-0.00029385216
0.0023121094
0.073424598
0.089542219
-0.040259271
-0.090140652
0.088940551
-0.037984045
0.088106552
-0.035501879
0.087282313
-0.033187796
0.086479421
-0.030704445
0.08575011
-0.028428983
0.084907885
-0.025950287
0.084057466
-0.023549702
0.083292529
-0.021161327
0.08252359
-0.018803468
0.081780319
-0.016378053
0.081091459
-0.01408346
0.080509454
-0.011677667
0.079947484
-0.0094041674
0.079487973
-0.0069310504
0.079063824
-0.0047312395
0.078825746
-0.002324969
0.078645724
-0.00011382977
0.0023300053
0.078627828
0.095033556
-0.039435119
-0.095857708
0.094235273
-0.037185762
0.093447969
-0.034714575
0.092662056
-0.032401884
0.091887937
-0.029930326
0.091053166
-0.027594211
0.090161236
-0.025058357
0.089430768
-0.022819234
0.08858042
-0.020310979
0.087791608
-0.018014656
0.0870373
-0.015623744
0.086337789
-0.013383949
0.085755073
-0.011094951
0.085160849
-0.0088099434
0.084732769
-0.0065029711
0.084356445
-0.004354915
0.084127714
-0.0020962382
0.084040441
-2.6557484e-05
0.0022840787
0.084086367
0.10106515
-0.038762505
-0.10173776
0.10038535
-0.036505958
0.099638263
-0.033967492
0.098850136
-0.031613757
0.097969362
-0.029049551
0.097155766
-0.026780616
0.096422639
-0.02432523
0.095619358
-0.022015953
0.09477413
-0.019465751
0.09402011
-0.017260637
0.093216357
-0.014819991
0.092526654
-0.012694246
0.09186629
-0.010434588
0.091321234
-0.0082648878
0.090875084
-0.0060568204
0.090495999
-0.00397583
0.090359509
-0.0019597486
0.090184442
0.00014850889
0.0021950026
0.090273518
0.10755947
-0.03794706
-0.10837492
0.10666448
-0.035610968
0.10578992
-0.033092935
0.10494678
-0.030770619
0.10415347
-0.028256234
0.10330901
-0.025936157
0.1024254
-0.023441626
0.10153527
-0.021125822
0.10071278
-0.018643257
0.099913055
-0.016460913
0.099129693
-0.01403663
0.098480264
-0.012044817
0.097837771
-0.009792095
0.097372548
-0.0077996648
0.096926651
-0.0056109236
0.096632847
-0.0036820266
0.09635814
-0.0016850417
0.096299
0.00020764913
0.0021414706
0.096352532
0.11458822
-0.037112586
-0.11542269
0.11366086
-0.034683615
0.11289576
-0.032327831
0.1120498
-0.029924662
0.1112099
-0.027416331
0.11034019
-0.025066444
0.10944774
-0.022549177
0.10858807
-0.020266157
0.1077515
-0.017806683
0.10695076
-0.015660177
0.10625512
-0.013340989
0.10559822
-0.011387916
0.1049529
-0.009146776
0.10440675
-0.0072535162
0.10390055
-0.0051047204
0.10356505
-0.003346524
0.10330568
-0.0014256728
0.10327377
0.00023955776
0.0021083382
0.1033069
0.12226802
-0.036156457
-0.12322415
0.12120483
-0.033620422
0.12021634
-0.031339338
0.11912098
-0.028829307
0.11816455
-0.026459894
0.1171753
-0.024077199
0.11629187
-0.021665749
0.1154173
-0.019391579
0.11464279
-0.017032173
0.11387109
-0.014888482
0.11315126
-0.012621156
0.11245026
-0.010686916
0.1118386
-0.0085351204
0.11133777
-0.0067526814
0.11092276
-0.0046897123
0.11063897
-0.0030627315
0.11037273
-0.0011594347
0.11036188
0.00025040524
0.0021347464
0.11033547
0.13010987
-0.035055163
-0.13121117
0.12910341
-0.032613964
0.12813851
-0.030374433
0.12718007
-0.027870874
0.1263142
-0.02559402
0.12537762
-0.02314062
0.12452569
-0.020813819
0.1236317
-0.01849759
0.12278907
-0.016189544
0.12190706
-0.014006473
0.12115736
-0.011871451
0.12041795
-0.0099475039
0.11984599
-0.0079631604
0.11932079
-0.0062274812
0.11898092
-0.0043498428
0.11866682
-0.0027486384
0.11852373
-0.0010163451
0.11840246
0.00037167928
0.0020733278
0.11846388
0.13886413
-0.033670799
-0.14024849
0.13777081
-0.031520644
0.13655043
-0.029154056
0.13546759
-0.026788034
0.13443152
-0.024557954
0.13346509
-0.022174192
0.13258509
-0.019933819
0.13168944
-0.017601936
0.13087203
-0.015372132
0.13000195
-0.013136395
0.12925194
-0.011121446
0.12846775
-0.0091633067
0.12783324
-0.0073286499
0.12726944
-0.0056636867
0.12689308
-0.0039734801
0.12658783
-0.0024433943
0.12649993
-0.00092844404
0.12640636
0.00046524888
0.0018902049
0.12658949
0.14831655
-0.032440044
-0.1495473
0.14724739
-0.030451486
0.14602962
-0.027936285
0.14495373
-0.02571215
0.14372884
-0.023333064
0.14263784
-0.021083188
0.14158135
-0.018877336
0.14068587
-0.016706454
0.13986546
-0.014551717
0.13911109
-0.012382034
0.13843368
-0.010444031
0.13769349
-0.0084231178
0.13712302
-0.0067581823
0.13656899
-0.0051096571
0.13615345
-0.0035579389
0.13582433
-0.0021142698
0.13567697
-0.00078108571
0.13556504
0.00057717976
0.0017276058
0.13572764
0.15829156
-0.031001249
-0.15973035
0.15685203
-0.02901196
0.15559064
-0.026674898
0.15456875
-0.024690256
0.15350833
-0.022272641
0.15251099
-0.020085855
0.15138852
-0.017754864
0.15039914
-0.015717074
0.14945595
-0.01360853
0.14866625
-0.011592332
0.14789392
-0.0096716978
0.14718101
-0.0077102086
0.14653114
-0.0061083091
0.14597469
-0.0045532123
0.14553688
-0.0031201285
0.145233
-0.0018103941
0.14509224
-0.00064032501
0.1450282
0.00064122289
0.0015277319
0.14522807
0.16965964
-0.029731769
-0.17092913
0.16802347
-0.027375781
0.16655277
-0.025204201
0.16509184
-0.023229324
0.16383621
-0.02101701
0.16273825
-0.018987892
0.16169086
-0.01670748
0.16071015
-0.014736367
0.15971559
-0.012613967
0.15883618
-0.010712917
0.15798886
-0.0088243811
0.15731624
-0.0070375883
0.15668518
-0.0054772497
0.15616526
-0.0040332955
0.15571503
-0.0026698997
0.15541537
-0.0015107334
0.15519456
-0.00041951234
0.15518558
0.00065020598
0.0013582482
0.15535506
0.18084438
-0.02835469
-0.18222146
0.17944981
-0.025981207
0.17826776
-0.024022149
0.17676191
-0.021723478
0.17542816
-0.019683264
0.17405969
-0.017619417
0.17292697
-0.015574761
0.17181454
-0.013623943
0.17083013
-0.011629551
0.16997254
-0.0098553338
0.16916041
-0.0080122419
0.16848572
-0.0063629019
0.16786637
-0.0048579006
0.16738975
-0.0035566778
0.16700648
-0.0022866279
0.16676315
-0.0012674073
0.16658553
-0.00024189155
0.16658039
0.00065534901
0.0012549577
0.16668368
0.19332788
-0.026540148
-0.19514242
0.19169849
-0.024351816
0.19023375
-0.022557412
0.18880001
-0.020289739
0.18753132
-0.018414568
0.18611672
-0.01620482
0.18493655
-0.014394591
0.18369315
-0.01238054
0.18272273
-0.010659136
0.18168879
-0.0088213905
0.18082713
-0.0071505824
0.18003975
-0.0055755213
0.17937655
-0.004194697
0.17884736
-0.0030274925
0.1784433
-0.0018825679
0.1781562
-0.00098030289
0.17801251
-9.8204226e-05
0.17804463
0.0006232268
0.0011654849
0.1781341
0.20660815
-0.024785758
-0.20836254
0.20503318
-0.022776845
0.20337104
-0.020895269
0.2018973
-0.018816001
0.2004893
-0.017006571
0.199169
-0.014884517
0.19793528
-0.013160868
0.19674015
-0.011185418
0.1957225
-0.0096414814
0.19470344
-0.0078023329
0.19391888
-0.0063660186
0.1931407
-0.0047973464
0.19254659
-0.003600583
0.19199625
-0.0024771568
0.19165481
-0.0015411235
0.19137373
-0.00069922684
0.19123668
3.8851777e-05
0.19125863
0.0006012678
0.0010177276
0.19140639
0.22045903
-0.022925375
-0.22231942
0.21880386
-0.021121673
0.21718049
-0.019271899
0.21573484
-0.017370347
0.21425647
-0.015528209
0.21293707
-0.013565113
0.21161023
-0.01183403
0.21049383
-0.010069018
0.2093457
-0.0084933444
0.20836896
-0.0068255989
0.20745777
-0.0054548303
0.20662021
-0.003959784
0.20595378
-0.0029341566
0.20534897
-0.0018723427
0.20495637
-0.0011485218
0.20462029
-0.00036315363
0.20452617
0.00013297873
0.20449305
0.00063438461
0.000903443
0.20460733
0.23620781
-0.02096649
-0.23816669
0.23428685
-0.019200714
0.23248308
-0.017468126
0.23082086
-0.01570813
0.22925793
-0.01396528
0.22784145
-0.012148632
0.22652121
-0.010513793
0.22537221
-0.0089200174
0.22426548
-0.0073866123
0.22335955
-0.0059196736
0.22245712
-0.004552397
0.22175518
-0.0032578438
0.22107338
-0.0022523559
0.22055998
-0.0013589417
0.22016472
-0.00075326035
0.21991883
-0.00011726434
0.21980221
0.00024959919
0.21981213
0.00062445856
0.00080537053
0.2199102
0.25213315
-0.019157594
-0.25394205
0.25037391
-0.017441475
0.24863293
-0.015727144
0.2469388
-0.014014001
0.24532761
-0.01235409
0.24381705
-0.010638066
0.24241112
-0.0091078695
0.24111552
-0.0076244192
0.23996142
-0.0062325119
0.23895267
-0.0049109248
0.23804909
-0.0036488165
0.23731565
-0.0025244048
0.23661227
-0.001548968
0.23605824
-0.00080491258
0.23559373
-0.00028875079
0.23540726
6.9201856e-05
0.2352906
0.00036625618
0.23540855
0.0005065077
0.00066789691
0.23554603
0.26956021
-0.016854114
-0.27186369
0.26754015
-0.015421409
0.265682
-0.013868996
0.26399523
-0.01232723
0.26239646
-0.010755322
0.26092608
-0.0091676891
0.25958349
-0.0077652715
0.25832293
-0.0063638599
0.25723358
-0.0051431628
0.25626519
-0.0039425404
0.25547589
-0.0028595131
0.25482666
-0.0018751738
0.25428099
-0.0010032962
0.25375596
-0.00027988922
0.25331018
0.00015703596
0.25298055
0.00039882587
0.25281945
0.00052735948
0.25280776
0.00051819906
0.00053671086
0.25293894
0.28853248
-0.014463455
-0.29092314
0.28626094
-0.013149866
0.28418955
-0.011797611
0.28229202
-0.010429698
0.28059785
-0.0090611485
0.27908188
-0.0076517201
0.27768397
-0.0063673585
0.27642564
-0.0051055287
0.27528935
-0.0040068802
0.27437001
-0.0030231993
0.27356123
-0.0020507308
0.27293113
-0.001245074
0.27246736
-0.00053953139
0.27217185
1.5625296e-05
0.2719401
0.00038878721
0.27170329
0.00063563729
0.27161916
0.00061148803
0.27157963
0.0005577292
0.00041670539
0.27169963
0.3088496
-0.011776885
-0.31153617
0.30643443
-0.010734696
0.30421243
-0.0095756107
0.30222266
-0.0084399243
0.3004093
-0.0072477939
0.2988469
-0.0060893166
0.2974728
-0.0049932542
0.29626055
-0.0038932823
0.29523607
-0.0029823972
0.29429603
-0.002083167
0.2935741
-0.0013287958
0.29298224
-0.00065321595
0.29250347
-6.0757534e-05
0.29217344
0.00034565335
0.29194342
0.00061880829
0.29184019
0.00073886602
0.29174198
0.00070969637
0.29172921
0.00057050344
0.00034820918
0.2917977
0.33155295
-0.0083918715
-0.33493797
0.32851346
-0.007695202
0.32580969
-0.0068718412
0.32344792
-0.0060781557
0.32137059
-0.0051704606
0.31959622
-0.0043149456
0.31810826
-0.0035052932
0.31689456
-0.0026795846
0.31593472
-0.0020225638
0.31515765
-0.0013060909
0.31460484
-0.00077598772
0.31424776
-0.00029613357
0.31411261
7.4390706e-05
0.31405166
0.00040659901
0.3140274
0.00064307495
0.3140547
0.00071155929
0.31406865
0.00069574699
0.3141156
0.00052356239
0.00028966402
0.31417414
0.35632004
-0.0044894756
-0.36022243
0.35274933
-0.004124494
0.34961561
-0.0037381183
0.34683612
-0.0032986663
0.34447651
-0.0028108587
0.34250235
-0.0023407844
0.34086914
-0.0018720802
0.33962243
-0.0014328768
0.33863817
-0.0010383034
0.33798492
-0.00065284242
0.33755151
-0.0003425705
0.33731087
-5.5498933e-05
0.33723857
0.00014669321
0.33733837
0.00030679256
0.33754669
0.00043475577
0.33771086
0.00054739778
0.33790211
0.0005044881
0.33801061
0.00041507101
0.0002462789
0.33805399
0.38401552
-0.388505
0.37989103
0.37615291
0.37285424
0.37004338
0.3677026
0.36583052
0.36439764
0.36335934
0.3627065
0.36236392
0.36230843
0.36245512
0.36276191
0.36319667
0.36374407
0.36424855
0.36466362
0.3649099
0.059746974
0.0050226672
-0.0050143306
0.059943834
0.0079205403
-0.0081173998
0.060377593
0.010625521
-0.01105928
0.060983382
0.013641313
-0.014247102
0.06181022
0.01627917
-0.017106008
0.062845391
0.019346838
-0.020382009
0.064164941
0.022135413
-0.023454963
0.06561743
0.025103375
-0.026555864
0.067362542
0.028099329
-0.029844442
0.069219401
0.031136353
-0.032993211
0.071284512
0.033958511
-0.036023623
0.073582011
0.036970811
-0.039268308
0.076125502
0.039633116
-0.042176608
0.078925069
0.042672674
-0.045472241
0.082030038
0.045495502
-0.04860047
0.085433475
0.04831879
-0.051722227
0.089371408
0.05127616
-0.055214094
0.093617541
0.053886497
-0.058132629
0.056591563
0.098646319
-0.061620341
0.063899142
0.0050460011
0.064193739
0.0076259435
0.064715826
0.010103434
0.065519992
0.012837147
0.066521873
0.015277288
0.067795103
0.018073608
0.069238549
0.020691968
0.07092774
0.023414184
0.072865797
0.026161273
0.075020177
0.028981973
0.077269685
0.031709003
0.079807787
0.034432708
0.082603186
0.036837717
0.085530924
0.039744936
0.088984587
0.042041839
0.092553549
0.044749828
0.096835817
0.046993893
0.1013481
0.049374214
0.051098627
0.10684104
0.068586921
0.0049690081
0.068785444
0.0074274201
0.069373105
0.0095157735
0.07016504
0.012045212
0.071256994
0.014185335
0.072546588
0.016784015
0.074107142
0.019131414
0.075896338
0.021624988
0.077937837
0.024119773
0.080230684
0.026689126
0.082768331
0.029171356
0.085612244
0.031588795
0.088715631
0.033734331
0.092058434
0.036402132
0.09595155
0.038148723
0.09999671
0.040704669
0.10470095
0.042289652
0.10963656
0.0444386
0.045331906
0.11540329
0.073510312
0.0048832943
0.073773382
0.0071643496
0.074470178
0.0088189778
0.075283678
0.011231713
0.076549007
0.012920006
0.077884101
0.015448921
0.079696257
0.017319259
0.081518078
0.019803167
0.083840186
0.021797666
0.086220858
0.024308453
0.08911053
0.026281684
0.092066565
0.028632761
0.095420278
0.030380618
0.099048618
0.032773792
0.10311954
0.034077798
0.10752724
0.036296975
0.11246042
0.037356473
0.11777859
0.039120423
0.039668775
0.12344172
0.07863454
0.0048765823
0.079030566
0.0067683229
0.079677238
0.0081723065
0.080687564
0.010221386
0.08195734
0.01165023
0.083471372
0.013934888
0.085314523
0.015476108
0.087261044
0.017856647
0.089618572
0.019440137
0.092193758
0.021733268
0.095086505
0.023388937
0.098285924
0.025433342
0.10177928
0.026887262
0.10566485
0.028888218
0.10981919
0.02992346
0.11437922
0.031736946
0.11935934
0.032376354
0.1244696
0.034010165
0.033963383
0.13017499
0.084171504
0.0047914454
0.084655147
0.0062846804
0.085364446
0.0074630067
0.086529924
0.0090559093
0.087792233
0.010387921
0.089539092
0.01218803
0.091354855
0.013660346
0.093596918
0.015614583
0.096059411
0.016977644
0.098849811
0.018942868
0.10186638
0.020372369
0.10524384
0.022055884
0.1087565
0.023374604
0.11275085
0.024893866
0.11675756
0.025916744
0.12123912
0.027255394
0.12574583
0.027869637
0.13057984
0.029176162
0.028990399
0.13555282
0.090306861
0.0047581026
0.090836081
0.0057554606
0.09154258
0.0067565077
0.092755241
0.0078432481
0.094106625
0.0090365375
0.095979355
0.0103153
0.097863978
0.011775723
0.10034427
0.013134296
0.10276938
0.01455253
0.10573115
0.015981099
0.10875705
0.017346472
0.11220587
0.018607064
0.11573937
0.019841095
0.11955381
0.021079433
0.12340414
0.022066409
0.12744462
0.023214917
0.13134379
0.023970471
0.13560956
0.024910389
0.025423369
0.13917659
0.096469047
0.0046415869
0.097094492
0.0051300153
0.097892323
0.0059586775
0.09924744
0.0064881314
0.10067363
0.0076103474
0.10262143
0.0083674989
0.10460841
0.0097887442
0.10716546
0.010577244
0.10967255
0.012045446
0.11276745
0.012886193
0.11572332
0.014390606
0.11918782
0.015142568
0.12239438
0.016634535
0.12611213
0.017361675
0.1293776
0.018800944
0.13291238
0.019680134
0.13608989
0.020792968
0.13916561
0.021834669
0.022991178
0.1415978
0.10365032
0.0042981662
0.10418061
0.0045997209
0.1050914
0.0050478962
0.10638118
0.0051983524
0.10785855
0.0061329712
0.10982922
0.0063968319
0.11195497
0.0076629966
0.11455379
0.0079784243
0.11714447
0.0094547608
0.12018732
0.0098433475
0.12303606
0.01154186
0.12626357
0.011915065
0.12905057
0.013847535
0.13229498
0.01411726
0.13471239
0.016383535
0.13751286
0.01687967
0.13918223
0.01912359
0.1409665
0.020050404
0.022218464
0.14173921
0.11077746
0.0038561817
0.11127604
0.0041011376
0.11252355
0.0038003848
0.11374523
0.0039766698
0.11552194
0.0043562685
0.1174102
0.0045085697
0.11969111
0.0053820837
0.12214947
0.0055200688
0.12478554
0.0068186941
0.12755218
0.0070767047
0.13024896
0.0088450824
0.13308628
0.0090777448
0.13556157
0.011372237
0.1379774
0.011701437
0.13961761
0.014743321
0.14134603
0.015151247
0.14164306
0.018826559
0.14189481
0.019798659
0.02372212
0.14039115
0.11881327
0.0035067845
0.11939934
0.003515075
0.12063099
0.002568732
0.12176159
0.0028460672
0.12371047
0.002407393
0.12540999
0.0028090481
0.12787027
0.0029218045
0.13006843
0.0033219079
0.13261099
0.0042761389
0.13485772
0.0048299733
0.13732332
0.0063794829
0.13939236
0.0070087017
0.14124922
0.0095153806
0.1424505
0.01050015
0.1431889
0.014004926
0.1432622
0.015077951
0.14234136
0.019747392
0.14082899
0.021311034
0.027299797
0.13725131
0.12689343
0.0032028432
0.1277372
0.0026712991
0.12882497
0.0014809697
0.13018657
0.001484465
0.13207786
0.00051610606
0.13378297
0.0011039321
0.13625291
0.00045187025
0.13821433
0.0013604807
0.14067946
0.0018110174
0.14258768
0.0029217464
0.14463757
0.0043295907
0.14590812
0.0057381565
0.14704519
0.0083783118
0.14715727
0.010388065
0.14675723
0.014404968
0.14499786
0.016837326
0.14258339
0.022161863
0.1390515
0.024842921
0.0320505
0.1343008
0.13601049
0.0029199851
0.13692411
0.0017576854
0.13780958
0.00059549924
0.1394011
-0.00010705334
0.14101736
-0.0011001517
0.1428974
-0.000776109
0.14495809
-0.0016088251
0.14669478
-0.00037620216
0.1488137
-0.00030790836
0.15001962
0.0017158326
0.15141299
0.0029362161
0.15175591
0.0053952337
0.15187558
0.008258646
0.15078167
0.011481974
0.1492655
0.015921138
0.14638098
0.019721848
0.14283398
0.025708865
0.13810538
0.029571519
0.037505198
0.13265068
0.14557882
0.0025692383
0.14646343
0.00087307763
0.14742401
-0.00036508643
0.14906982
-0.0017528559
0.15044878
-0.0024791135
0.15238236
-0.0027096876
0.1539342
-0.0031606684
0.15561485
-0.0020568556
0.15711951
-0.001812562
0.15798132
0.00085402304
0.15872549
0.0021920435
0.1578569
0.0062638263
0.15691187
0.009203678
0.15455351
0.013840331
0.15203883
0.018435814
0.14800553
0.023755152
0.14385182
0.029862574
0.13829381
0.035129526
0.043473195
0.13232582
0.15579931
0.0021249858
0.15663679
3.5598138e-05
0.15764336
-0.001371659
0.15912405
-0.0032335444
0.16042048
-0.0037755437
0.16223002
-0.0045192192
0.16335216
-0.0042828081
0.16481679
-0.0035214861
0.16547516
-0.0024709306
0.16596044
0.00036873823
0.165463
0.0026894796
0.16401734
0.0077094927
0.1623799
0.010841114
0.15911452
0.01710571
0.15573264
0.021817699
0.15070445
0.028783343
0.14597982
0.034587199
0.13961729
0.041492059
0.04962293
0.13346756
0.16717656
0.0016321102
0.16787534
-0.00066319064
0.16893345
-0.0024297691
0.17022004
-0.0045201304
0.17147512
-0.0050306236
0.17295295
-0.0059970438
0.17377387
-0.0051037351
0.17474478
-0.004492393
0.17449776
-0.0022239088
0.1741469
0.00071959912
0.1724793
0.0043570823
0.17081459
0.0093741952
0.16802084
0.013634872
0.16425533
0.020871213
0.16026681
0.025806219
0.15504965
0.034000501
0.15047449
0.039162367
0.1445858
0.047380744
0.053950463
0.14025827
0.17865442
0.0011117957
0.17937624
-0.0013850154
0.18044228
-0.003495801
0.18141091
-0.0054887687
0.18256712
-0.0061868289
0.1836166
-0.0070465253
0.18422766
-0.0057147917
0.18457597
-0.0048407081
0.18380666
-0.0014545902
0.18297722
0.001549033
0.180792
0.0065423021
0.17858464
0.011581556
0.17464273
0.017576779
0.170955
0.024558947
0.16659512
0.030166103
0.16239482
0.038200801
0.15907017
0.042487009
0.15609036
0.050360559
0.052585779
0.15745504
0.19188115
0.00063703676
0.19261931
-0.0021231717
0.19352878
-0.0044052702
0.194154
-0.0061139881
0.19496347
-0.0069962991
0.19535027
-0.0074333314
0.19552874
-0.0058932598
0.19505585
-0.0043678197
0.19387984
-0.00027857705
0.19240946
0.003019416
0.18981317
0.0091385843
0.18711711
0.014277622
0.18325288
0.021441008
0.18045933
0.027352502
0.17713178
0.033493654
0.17594906
0.039383516
0.17593059
0.042505478
0.17941736
0.046873789
0.04404007
0.18796307
0.20504189
0.00020247831
0.20564663
-0.0027279035
0.20638376
-0.005142406
0.20711164
-0.0068418686
0.20777416
-0.007658819
0.20765966
-0.007318829
0.20745494
-0.0056885363
0.20639177
-0.0033046492
0.20515951
0.00095368068
0.20301977
0.0051591597
0.2002144
0.01194395
0.19739175
0.017100276
0.19461284
0.024219912
0.19327488
0.028690464
0.1925859
0.034182634
0.19535931
0.03661011
0.1999419
0.037922881
0.20942408
0.037391612
0.03255954
0.22090461
0.22015796
-4.5275204e-05
0.22064137
-0.0032113129
0.221146
-0.0056470382
0.22159189
-0.0072877594
0.22176319
-0.0078301173
0.22147474
-0.0070303816
0.22089699
-0.0051107809
0.21938433
-0.0017919885
0.21787389
0.0024641132
0.21525259
0.0077804655
0.21316342
0.014033119
0.21123778
0.019025915
0.21063919
0.024818501
0.21161117
0.027718486
0.21465386
0.031139941
0.22093316
0.030330816
0.22888965
0.029966395
0.24000353
0.026277725
0.02318818
0.24937489
0.23592921
-0.00042845179
0.23624109
-0.0035231951
0.23649674
-0.005902693
0.23655936
-0.007350375
0.23623376
-0.0075045133
0.23553669
-0.0063333199
0.23435753
-0.0039316131
0.23287083
-0.0003052938
0.23102611
0.0043088323
0.22873389
0.010072687
0.22780899
0.014958016
0.22727608
0.019558833
0.22920842
0.022886162
0.23265502
0.02427188
0.2386618
0.025133164
0.24627662
0.022715992
0.25481207
0.021430948
0.26334986
0.017739939
0.018480447
0.26805759
0.2532955
-0.00078501099
0.25338468
-0.0036123733
0.25346385
-0.0059818625
0.25323252
-0.0071190413
0.25276492
-0.0070369154
0.25199749
-0.0055658849
0.25083994
-0.0027740692
0.24936721
0.0011674422
0.24762227
0.0060537668
0.24678047
0.010914492
0.24711897
0.014619515
0.24879337
0.01788443
0.2527388
0.018940734
0.25759208
0.019418596
0.26446907
0.018256181
0.27122116
0.015963902
0.2775206
0.01513151
0.28120499
0.014055545
0.018634743
0.28105069
0.27180671
-0.00089208595
0.27166877
-0.0034744304
0.27132065
-0.0056337476
0.27056235
-0.006360742
0.26944144
-0.0059160007
0.26796041
-0.0040848551
0.2666049
-0.0014185566
0.26534957
0.0024227654
0.2646202
0.0067831403
0.26523048
0.010304212
0.26692214
0.012927856
0.27064147
0.014165103
0.27534927
0.014232932
0.28094716
0.0138207
0.28706471
0.012138634
0.29125852
0.011770097
0.29378818
0.012601848
0.29307138
0.014772339
0.021621066
0.29008506
0.2918575
-0.00095187957
0.29179111
-0.0034080404
0.29130953
-0.0051521759
0.29068524
-0.005736444
0.28983647
-0.0050672322
0.28878135
-0.003029736
0.28765388
-0.00029108735
0.28701443
0.0030622135
0.28744247
0.006355099
0.28909233
0.0086543604
0.29196059
0.010059597
0.29570826
0.010417428
0.29977515
0.010166048
0.30450429
0.0090915565
0.30775058
0.008892341
0.30889571
0.010624967
0.30858963
0.012907926
0.30630258
0.017059392
0.022845084
0.30507856
0.31398291
-0.00076064554
0.31319288
-0.0026180173
0.31196291
-0.003922203
0.31028098
-0.004054516
0.30839978
-0.003186024
0.30703926
-0.0016692248
0.3063846
0.00036357556
0.30661927
0.0028275427
0.30811586
0.0048585085
0.31076938
0.0060008395
0.31443275
0.0063962326
0.31862096
0.0062292141
0.32284581
0.0059412064
0.32614794
0.0057894201
0.32755452
0.0074857669
0.32861098
0.0095685035
0.32908763
0.012431282
0.33062706
0.015519954
0.017710506
0.33576164
0.33792047
-0.00062712042
0.33703986
-0.0017374089
0.33577357
-0.0026559177
0.33453559
-0.0028165357
0.33352814
-0.0021785682
0.33305468
-0.0011957615
0.33327289
0.00014536385
0.33470811
0.0013923227
0.3369535
0.0026131147
0.33972477
0.003229569
0.34249349
0.0036275093
0.3450922
0.0036305053
0.34682442
0.0042089876
0.34788161
0.0047322377
0.34915409
0.0062132805
0.35184817
0.006874426
0.35565571
0.008623741
0.36268623
0.0084894359
0.0080861218
0.37231062
0.36428278
0.36254537
0.35988946
0.35707292
0.35489435
0.35369859
0.35384396
0.35523628
0.35784939
0.36107896
0.36470647
0.36833698
0.37254597
0.3772782
0.38349148
0.39036591
0.39898965
0.40747909
0.41556521
0.097221341
0.066052096
-0.064627118
0.096348421
0.06863434
-0.067761419
0.095473876
0.071906766
-0.07103222
0.095208266
0.074367446
-0.074101836
0.094939505
0.077272274
-0.077003513
0.09550271
0.079983456
-0.080546661
0.09627785
0.083162728
-0.083937868
0.098124272
0.085049199
-0.08689562
0.10020856
0.088182439
-0.090266724
0.10236369
0.090459211
-0.092614348
0.10518291
0.091841389
-0.094660608
0.10684517
0.09266433
-0.094326584
0.10768129
0.092070476
-0.0929066
0.10790789
0.089969007
-0.090195609
0.10694195
0.086101804
-0.085135861
0.10364933
0.080117897
-0.076825272
0.097688489
0.071337004
-0.065376168
0.087684197
0.060584519
-0.050580227
0.048279811
0.073955191
-0.034550804
0.10555604
0.067337093
0.10485369
0.069336688
0.10430169
0.072458769
0.10441666
0.074252469
0.10479304
0.076895897
0.10589685
0.078879646
0.10715953
0.081900045
0.10914471
0.083064028
0.1119961
0.085331044
0.114779
0.087676308
0.11859087
0.088029527
0.12214792
0.08910728
0.12559038
0.088628017
0.12772711
0.08783227
0.12903032
0.084798595
0.12804759
0.081100626
0.12488223
0.074502368
0.11779905
0.067667693
0.059093236
0.10698563
0.11403417
0.068706211
0.11307786
0.070292999
0.11258186
0.072954762
0.11234739
0.074486941
0.112856
0.076387292
0.11379987
0.077935772
0.11533532
0.080364593
0.11723947
0.081159882
0.11989455
0.08267596
0.12335796
0.084212903
0.12673761
0.084649872
0.13084347
0.085001426
0.13444188
0.085029605
0.13769498
0.084579173
0.14000702
0.082486556
0.14070331
0.080404327
0.13857763
0.076628058
0.13439203
0.071853292
0.066531818
0.12695344
0.12206628
0.070081657
0.12099839
0.071360891
0.12027763
0.073675517
0.11979747
0.074967105
0.11992101
0.07626375
0.12025548
0.077601306
0.12144913
0.079170935
0.12312784
0.079481173
0.12553039
0.080273414
0.12888591
0.08085738
0.13143505
0.082100735
0.13503782
0.081398659
0.13896932
0.081098103
0.14266684
0.080881654
0.14506747
0.080085918
0.14675649
0.078715312
0.14621223
0.077172317
0.1438876
0.074177919
0.071532405
0.13888702
0.12855041
0.071706236
0.12706005
0.072851253
0.12607869
0.074656875
0.12541826
0.075627535
0.12537441
0.076307598
0.1253385
0.077637223
0.12615935
0.078350085
0.12756525
0.078075271
0.12921563
0.078623029
0.13135433
0.078718685
0.13402812
0.07942694
0.1375701
0.077856678
0.14086392
0.077804282
0.14356254
0.078183041
0.14590317
0.077745286
0.14785772
0.076760762
0.1492768
0.07575324
0.14868245
0.074772262
0.074632223
0.14558263
0.13357744
0.073681611
0.13154315
0.074885546
0.13002909
0.076170936
0.12906409
0.076592541
0.12824862
0.077123067
0.12792968
0.077956159
0.12866151
0.077618255
0.12935961
0.077377176
0.13056505
0.077417582
0.1327039
0.076579841
0.1354647
0.076666133
0.13813821
0.075183168
0.14087908
0.075063421
0.14434865
0.074713469
0.14769083
0.074403101
0.15024116
0.074210438
0.15134361
0.074650785
0.15106273
0.075053143
0.076278517
0.14941644
0.13653085
0.07632735
0.1339631
0.077453301
0.13234203
0.077792002
0.13060925
0.078325325
0.12938186
0.078350453
0.12888473
0.078453286
0.1286909
0.077812086
0.12907882
0.07698926
0.13035371
0.076142691
0.13162989
0.075303663
0.1340858
0.074210222
0.1373764
0.071892569
0.14107696
0.071362854
0.14487417
0.070916262
0.14810033
0.071176938
0.15171634
0.070594428
0.15494122
0.071425911
0.15852203
0.071472328
0.074255587
0.16054496
0.13799656
0.079928588
0.13505061
0.080399252
0.13225032
0.080592289
0.13002393
0.080551715
0.1282702
0.080104187
0.12688074
0.079842745
0.12631194
0.078380882
0.12611291
0.077188294
0.12650589
0.075749706
0.12844016
0.073369402
0.13202979
0.070620585
0.13508717
0.068835191
0.13880273
0.067647291
0.14464349
0.065075504
0.15281451
0.063005917
0.16227117
0.061137772
0.17128554
0.062411544
0.17909238
0.063665485
0.068530253
0.18481771
0.1374881
0.0841797
0.13366905
0.084218307
0.1297837
0.084477634
0.12672896
0.083606455
0.12353169
0.083301464
0.12164917
0.081725256
0.11979872
0.08023134
0.11893479
0.078052216
0.12006003
0.074624468
0.1218341
0.07159533
0.12334094
0.069113751
0.12659271
0.065583416
0.13483771
0.059402291
0.14614203
0.053771192
0.15784375
0.051304198
0.16841447
0.050567045
0.17911272
0.051713295
0.18814643
0.054631776
0.060361684
0.196315
0.13494672
0.089624136
0.12957837
0.089586655
0.12472491
0.089331095
0.11990946
0.088421909