/*--------------------------------*- C++ -*----------------------------------*\
  =========                 |
  \\      /  F ield         | OpenFOAM: The Open Source CFD Toolbox
   \\    /   O peration     | Website:  https://openfoam.org
    \\  /    A nd           | Version:  11
     \\/     M anipulation  |
\*---------------------------------------------------------------------------*/
FoamFile
{
    format      ascii;
    class       surfaceScalarField;
    location    "8.5";
    object      phi;
}
// * * * * * * * * * * * * * * * * * * * * * * * * * * * * * * * * * * * * * //

dimensions      [0 3 -1 0 0 0 0];

internalField   nonuniform List<scalar> 
8667
(
15.889923
1.7800909
0.10776415
13.997328
1.5918407
0.30075376
12.099822
1.3876698
0.509837
10.217759
1.1697425
0.71231979
8.3299531
0.98887189
0.89893422
6.4669458
0.75866787
1.1043394
4.6097646
0.57581905
1.2813621
2.8145265
0.31630614
1.478932
-0.099927688
1.8465319
1.0679222
15.889146
3.6687229
13.988903
3.4920839
12.094373
3.2821996
10.199525
3.0645904
8.3156772
2.87272
6.4478709
2.6264742
4.5948922
2.4287977
2.8175459
2.0936524
1.6463958
1.0712224
15.888897
5.5576042
13.986159
5.3948221
12.086902
5.1814563
10.187973
4.9635191
8.296623
4.7640701
6.4317234
4.4913738
4.5796462
4.2808749
2.8041944
3.8691043
3.4005325
1.0500577
15.888974
7.4464084
13.98463
7.2991661
12.079862
7.0862245
10.17752
6.8658609
8.2850878
6.6565021
6.4139492
6.3625124
4.5590169
6.1358072
2.7899839
5.6381374
5.1275254
1.0629909
15.888996
9.3351882
13.982615
9.2055476
12.075805
8.9930346
10.170037
8.771628
8.2715167
8.5550229
6.3945316
8.2394975
4.5427885
7.9875503
2.7797148
7.4012111
6.8511405
1.0560997
15.887181
11.225785
13.982759
11.10997
12.072512
10.903282
10.162525
10.681615
8.2639062
10.453642
6.3770077
10.126396
4.5169483
9.8476097
2.75688
9.1612795
8.5591382
1.0488823
15.886751
13.116813
13.982248
13.014472
12.072901
12.812629
10.15779
12.596725
8.2528713
12.358561
6.3653915
12.013876
4.4997166
11.713285
2.7407434
10.920253
10.245726
1.0541553
15.886521
15.00807
13.98397
14.917023
12.071125
14.725474
10.154909
14.512942
8.2447736
14.268696
6.3484617
13.910188
4.4731055
13.588641
2.7100639
12.683294
11.915531
1.0402595
15.886535
16.899313
13.985474
16.818084
12.072194
16.638754
10.15345
16.431686
8.2380845
16.184061
6.3401416
15.808131
4.4545561
15.474226
2.6844776
14.453373
13.573955
1.0260528
18.728117
15.948974
20.556252
15.949643
22.383732
15.950305
24.210443
15.951068
26.036472
15.951731
27.861377
15.952875
29.684565
15.954592
31.506422
15.955923
15.958369
33.325833
18.653843
14.113215
20.488966
14.114519
22.323092
14.116179
24.15632
14.11784
25.987544
14.120507
27.817551
14.122869
29.647549
14.124594
31.481597
14.121875
14.121425
33.31854
18.485522
12.266447
20.33157
12.268472
22.177295
12.270454
24.023138
12.271997
25.869139
12.274506
27.715091
12.276917
29.55625
12.283436
31.392777
12.285347
12.296968
33.217235
18.285005
10.413128
20.141933
10.411543
22.000201
10.412186
23.859438
10.41276
25.71748
10.416464
27.577348
10.417048
29.442051
10.418733
31.311834
10.415565
10.420795
33.188007
18.034633
8.5625552
19.890582
8.555595
21.751389
8.5513783
23.614674
8.5494752
25.479794
8.551345
27.344556
8.5522859
29.205166
8.558123
31.061671
8.5590591
8.5634538
32.919012
17.648953
6.7217331
19.50162
6.7029278
21.37041
6.682588
23.251542
6.6683434
25.149507
6.6533798
27.062061
6.6397323
28.987622
6.6325617
30.916292
6.6303895
6.6321795
32.847566
17.295722
4.900237
19.137867
4.8607828
20.993076
4.8273792
22.878551
4.7828687
24.774248
4.7576828
26.688254
4.7257261
28.605668
4.7151483
30.540809
4.6952482
4.6991384
32.47385
16.159296
3.1943143
17.963484
3.0565943
19.835646
2.955217
21.786711
2.831804
23.774781
2.7696125
25.81604
2.6844676
27.873071
2.6581173
29.965969
2.6023493
2.5985792
32.066529
15.149854
1.6184153
16.979397
1.2270514
19.134734
0.79988077
21.423485
0.54305306
23.775698
0.41739868
26.141238
0.31892775
28.535791
0.26356438
30.911791
0.22634943
33.306016
0.20435395
33.198824
0.12700862
33.070639
0.12818526
32.942455
0.12818395
32.814153
0.12830197
32.686121
0.12803262
32.559427
0.12669397
32.433052
0.12637426
32.309003
0.12404926
0.12300644
32.185997
33.191124
0.25442525
33.065917
0.2533917
32.942091
0.25201021
32.820753
0.24964042
32.702146
0.24663888
32.586618
0.24222182
32.474532
0.23846046
32.366194
0.23238711
0.22692168
32.262279
33.090215
0.38144442
32.967218
0.37638963
32.846765
0.37246283
32.729997
0.36640794
32.615569
0.36106707
32.505574
0.35221744
32.398835
0.34519884
32.297322
0.33390007
0.32424534
32.199999
33.073193
0.49625828
32.963647
0.48593609
32.859577
0.47653272
32.760027
0.46595768
32.664867
0.45622673
32.575169
0.44191579
32.490449
0.42991866
32.412914
0.41143525
0.39810127
32.339058
32.814209
0.60106203
32.716775
0.58336939
32.623503
0.56980475
32.538229
0.55123192
32.457757
0.53669894
32.386199
0.51347376
32.318674
0.49744379
32.260178
0.46993064
0.45435024
32.203929
32.787508
0.66112025
32.739415
0.63146231
32.694606
0.6146137
32.658671
0.58716684
32.626042
0.56932801
32.60034
0.53917559
32.576755
0.52102908
32.558817
0.4878689
0.46976953
32.543397
32.447492
0.6874782
32.431836
0.64711832
32.420542
0.62590733
32.419216
0.5884928
32.418966
0.56957835
32.421661
0.53648038
32.426121
0.51656926
32.428064
0.48592571
0.47093804
32.426896
32.23525
0.51875704
32.409982
0.47238574
32.593795
0.44209518
32.772257
0.41003061
32.951297
0.3905382
33.113426
0.37435171
33.263103
0.36689166
33.3809
0.36812917
0.38769998
33.464138
33.657219
0.16755485
33.959774
0.16983036
34.219398
0.18247109
34.427505
0.20192372
34.579661
0.23838175
34.662041
0.29197201
34.686241
0.34269134
34.617508
0.43686214
34.505118
0.50009049
34.448807
0.55849617
-0.50218481
34.239674
0.54144645
-0.33231385
33.958635
0.51768758
-0.23664895
33.649494
0.5040288
-0.19488723
33.321247
0.48871243
-0.16046592
32.981235
0.4923077
-0.15229543
32.665738
0.49105293
-0.17555592
32.375632
0.50682174
-0.21671625
0.51584774
32.111476
-0.25169167
33.625422
0.39721164
33.744852
0.42201672
33.825548
0.43699173
33.874927
0.45464995
33.895391
0.46824855
33.901493
0.48620506
33.88964
0.50290654
33.868686
0.52777539
0.5489824
33.835551
32.537727
0.28638029
32.648712
0.31103173
32.744864
0.34084024
32.833938
0.36557567
32.907735
0.3944512
32.976965
0.41697557
33.033144
0.4467272
33.090064
0.47085554
0.50370538
33.135341
32.643133
0.18664443
32.747264
0.2069008
32.849408
0.23869611
32.954479
0.26050471
33.054005
0.29492551
33.154271
0.31670963
33.246967
0.35403126
33.34055
0.37727232
0.41704379
33.427212
32.277681
0.11289253
32.355026
0.12955641
32.437944
0.15577767
32.524202
0.17424712
32.61627
0.20285736
32.708654
0.22432551
32.809687
0.25299808
32.906604
0.28035527
0.30971986
33.013928
32.393065
0.058885904
32.450028
0.072592964
32.517492
0.088313479
32.585941
0.10579817
32.666688
0.12211015
32.744686
0.14632785
32.836154
0.16153006
32.922778
0.19373098
0.20817915
33.024319
32.233694
0.025190577
32.272334
0.033953335
32.317871
0.042776047
32.370123
0.053546055
32.427815
0.06441824
32.496103
0.078039996
32.56587
0.091763342
32.651703
0.1078976
0.12416161
32.735721
32.282422
0.0050472499
32.310062
0.0063132907
32.340723
0.0121156
32.380683
0.013585545
32.422502
0.022599736
32.475945
0.024597223
32.530943
0.036765292
32.601232
0.037608361
0.053130043
32.672264
32.191044
32.197357
32.209473
32.223058
32.245658
32.270255
32.307021
32.344629
32.397759
32.4526
-0.054841194
32.522744
-0.070143341
32.600408
-0.077664729
32.691148
-0.090739977
32.795344
-0.10419596
32.910524
-0.1151799
33.044771
-0.1342472
33.188878
-0.14410709
-0.16885649
33.357735
32.759945
-0.14252299
32.849047
-0.15924526
32.956392
-0.18500967
33.064724
-0.19907126
33.192902
-0.23237475
33.323148
-0.2454257
33.476136
-0.28723541
33.630131
-0.29810153
-0.3484825
33.809757
32.832747
-0.2395496
32.937105
-0.26360298
33.045892
-0.29379691
33.169482
-0.32266097
33.292657
-0.35555035
33.436992
-0.38976009
33.575899
-0.42614217
33.741043
-0.46324629
-0.50384552
33.896406
33.121376
-0.33660641
33.235254
-0.37748064
33.342799
-0.40134275
33.46872
-0.44858127
33.587813
-0.47464413
33.727698
-0.52964461
33.857291
-0.55573543
34.012521
-0.6184763
-0.64697244
34.155648
33.120306
-0.44298441
33.228867
-0.48604171
33.34092
-0.51339583
33.452329
-0.55999018
33.568386
-0.59070067
33.681291
-0.64254977
33.800516
-0.67496067
33.915172
-0.73313206
-0.76913407
34.037334
33.515267
-0.53103978
33.595657
-0.56643218
33.678135
-0.59587316
33.752004
-0.63385918
33.828239
-0.66693581
33.894453
-0.70876397
33.966455
-0.74696271
34.026635
-0.79331185
-0.8367701
34.094271
33.182988
-0.57868642
33.218284
-0.60172878
33.254202
-0.63179065
33.28009
-0.65974759
33.304858
-0.69170412
33.312184
-0.71609002
33.314182
-0.74896043
33.296111
-0.7752407
-0.8127214
33.272062
33.797303
-0.54043823
33.750405
-0.55483017
33.690034
-0.57142002
33.59566
-0.56537408
33.475467
-0.57151035
33.331524
-0.57214778
33.167368
-0.58480355
32.982255
-0.59012817
-0.61673058
32.786264
31.842818
-0.27177941
31.548409
-0.26042138
31.197363
-0.22037425
30.882007
-0.25001795
30.654196
-0.34369926
30.510412
-0.42836447
30.35727
-0.43166148
30.173683
-0.40654111
29.954292
-0.39733891
0.64559433
29.695554
-0.38685622
0.85141047
32.580448
0.89025752
33.233215
0.83402315
34.150505
0.7184723
34.152884
0.54818499
34.325935
0.35799818
34.086593
0.17603571
33.991719
33.533771
0.71615322
29.402594
-0.42319396
0.89884278
32.397758
0.93837197
33.193686
0.87416356
34.214714
0.74870172
34.278346
0.58969584
34.484941
0.41383262
34.262456
0.20564694
34.199905
33.739418
0.7666415
29.042744
-0.40679163
0.9602233
32.204177
1.001689
33.15222
0.94697022
34.269433
0.82746319
34.397853
0.64360051
34.668804
0.43239582
34.473661
0.21637142
34.415929
33.955789
0.83753498
28.696721
-0.49151198
1.0161768
32.025535
1.0553791
33.113018
0.98979952
34.335012
0.85802475
34.529628
0.68053016
34.846299
0.48341036
34.670781
0.24637492
34.652965
34.202164
0.88317302
28.321503
-0.50795486
1.0906243
31.818084
1.1342231
33.069419
1.0742803
34.394955
0.94825369
34.655655
0.74700176
35.047551
0.51347269
34.90431
0.26219068
34.904247
34.464355
0.95135864
27.945553
-0.57540845
1.1507266
31.618716
1.1927493
33.027396
1.1192907
34.468413
0.9779095
34.797036
0.77939402
35.246066
0.55957584
35.124128
0.29122849
35.172594
34.755583
1.0008918
27.465302
-0.52064126
1.2414545
31.378153
1.2894415
32.979409
1.2165293
34.541326
1.0786972
34.934868
0.85865379
35.466109
0.60214746
35.380634
0.31193623
35.462805
35.067519
1.0899422
26.978902
-0.60354218
1.3109408
31.157155
1.351759
32.938591
1.2636607
34.629424
1.1092804
35.089248
0.88527809
35.690112
0.64472748
35.621185
0.34272249
35.76481
35.410242
1.155728
26.307542
-0.48436729
1.4353957
30.877487
1.4762472
32.89774
1.3833526
34.722319
1.2267738
35.245827
0.97500182
35.941884
0.6923128
35.903874
0.36398547
36.093138
35.774227
-0.0343211
35.808548
0.0061857183
36.052631
0.077339122
35.832721
0.19421948
35.825003
0.32713968
35.112907
0.50193238
34.547526
0.69888154
32.70079
1.0160638
30.560305
26.062217
1.2613885
-0.041936266
35.850485
-0.019507985
36.030203
0.013182852
35.80003
0.10144532
35.736741
0.21370804
35.000644
0.37817454
34.383059
0.54347978
32.535485
0.7910343
30.31275
25.930145
0.92310662
-0.063113642
35.913598
-0.051864012
36.018953
-0.0031257334
35.751292
0.10280414
35.630811
0.21284402
34.890604
0.36815002
34.227753
0.51876642
32.384869
0.74686062
30.084656
25.826366
0.85063951
-0.071871676
35.98547
-0.080843544
36.027925
-0.069507707
35.739956
0.0038273252
35.557476
0.093760333
34.800671
0.2430468
34.078467
0.37638745
32.251528
0.56274862
29.898295
25.795587
0.59352692
-0.087603778
36.073074
-0.096597726
36.036919
-0.06594004
35.709298
0.02088167
35.470654
0.10896234
34.712591
0.25349539
33.933934
0.37856835
32.126455
0.55037334
29.72649
25.726052
0.61990911
-0.10336273
36.176436
-0.13926769
36.072824
-0.14724707
35.717277
-0.088017489
35.411425
-0.0089046713
34.633478
0.1319871
33.793042
0.24450635
32.013936
0.395473
29.575523
25.69299
0.42853425
-0.11326679
36.289703
-0.13748001
36.097037
-0.12077904
35.700576
-0.048740329
35.339386
0.02278005
34.561957
0.15871423
33.657108
0.26562927
31.907021
0.40942275
29.43173
25.624286
0.47812726
-0.13179576
36.421499
-0.18548398
36.150725
-0.20842815
35.723521
-0.16046447
35.291422
-0.085786516
34.48728
0.044286905
33.527034
0.13972768
31.81158
0.26520473
29.306253
25.563134
0.32635675
-0.13698543
36.558484
-0.17225255
36.185992
-0.16636458
35.717633
-0.10204485
35.227103
-0.03775128
34.422986
0.088249613
33.401034
0.18209222
31.717738
0.29732396
29.191021
25.472864
0.38759425
-0.17175848
25.375961
0.2686615
-0.066213655
29.085476
0.01526858
31.636255
0.13815942
33.278143
0.2081415
34.353004
0.24883071
35.186413
0.21575608
35.750707
0.15404822
36.2477
36.712533
-0.22333846
25.279241
0.32005769
-0.12796943
28.990107
-0.049253305
31.557539
0.071630157
33.157259
0.13552918
34.289105
0.19340783
35.128535
0.18992096
35.754194
0.15390278
36.283718
36.866435
-0.12807912
25.141764
0.26555611
-0.03070304
28.892731
0.040320979
31.486515
0.15996655
33.037614
0.23015341
34.218918
0.2743843
35.084304
0.23534109
35.793237
0.16778154
36.351278
37.034217
-0.18346518
25.066517
0.25871267
-0.11273139
28.821997
-0.046997313
31.420781
0.07543664
32.91518
0.14233088
34.152024
0.20071914
35.025916
0.19609738
35.797859
0.16291872
36.384456
37.197136
-0.13079994
24.904979
0.29233805
-0.041504074
28.732701
0.021609973
31.357667
0.14890092
32.787889
0.22715664
34.073768
0.2765013
34.976571
0.23639546
35.837965
0.17137332
36.449479
37.368509
-0.18064489
24.866507
0.2191166
-0.14598038
28.698037
-0.082811415
31.294498
0.048323399
32.656754
0.12404253
33.998049
0.19050752
34.910106
0.19258663
35.835886
0.16441634
36.477649
37.532925
-0.17156204
24.735932
0.30213682
-0.10922014
28.635695
-0.041248844
31.226527
0.10629611
32.509209
0.19748958
33.906855
0.25566651
34.851929
0.22171125
35.869841
0.16671913
36.532641
37.699644
-0.23620002
24.757528
0.21460417
-0.23230587
28.631801
-0.15794589
31.152167
-0.0066044031
32.357868
0.082803957
33.817447
0.16383837
34.770895
0.17475359
35.858926
0.15541578
36.551979
37.85506
-0.25352633
24.718885
0.29216964
-0.2319127
28.610187
-0.13967791
31.059932
0.039682233
32.178507
0.14793651
33.709193
0.21974628
34.699085
0.19518188
35.88349
0.15358038
36.59358
38.008641
0.0015951731
38.007045
0.095427451
36.499748
0.21650889
35.762409
0.38109344
34.5345
0.55000245
33.540284
0.75102822
31.977482
0.8577316
30.953229
0.71425371
28.753665
25.098254
0.33488416
0.016267259
37.990778
0.095076316
36.420939
0.18169852
35.675787
0.33497302
34.381226
0.52081969
33.354437
0.76662249
31.731679
0.92853126
30.79132
0.8294382
28.852758
25.460878
0.46681453
0.050060435
37.940718
0.16950728
36.301492
0.31115334
35.53414
0.48928847
34.203091
0.68001017
33.163715
0.93840799
31.473281
1.1548737
30.574854
1.0817597
28.925872
26.206023
0.33661464
0.077541283
37.863176
0.17620996
36.202823
0.28079645
35.429554
0.45192253
34.031965
0.65581343
32.959825
0.95912363
31.169971
1.257243
30.276735
1.3119174
28.871198
26.967735
0.55020595
0.11910388
37.744073
0.27227868
36.049649
0.43420093
35.267632
0.61399692
33.852169
0.81052947
32.763292
1.1084815
30.872019
1.4753274
29.909889
1.6196404
28.726884
28.050326
0.53704876
0.14911261
37.59496
0.26818544
35.930576
0.39918055
35.136637
0.58734383
33.664005
0.79333181
32.557304
1.1158219
30.549529
1.5578501
29.467861
1.9343138
28.350421
28.96281
1.0218304
0.20016829
37.394792
0.39012807
35.740616
0.57393852
34.952826
0.7552128
33.482731
0.9412843
32.371233
1.2283294
30.262484
1.7018209
28.994369
2.2587675
27.793474
29.779795
1.4417818
0.24291655
37.151875
0.39162182
35.591911
0.55149437
34.792954
0.75502066
33.279205
0.93855539
32.187698
1.2242436
29.976795
1.7302948
28.488318
2.5636779
26.960091
29.928754
2.4147188
0.2909988
36.860876
0.52675047
35.356159
0.74136959
34.578335
0.94407398
33.0765
1.1077115
32.02406
1.3077911
29.776716
1.8344832
27.961626
2.9006807
25.893894
29.56657
3.2628649
-1.5107657
38.371642
-3.0215698
36.866963
-4.4632033
36.019968
-5.7209492
34.334246
-6.7948111
33.097922
-7.6085897
30.590494
-8.0587743
28.411811
-8.8229195
26.658039
31.39043
-10.646779
-1.516397
39.888039
-3.0064664
38.357033
-4.4751832
37.488685
-5.821165
35.680228
-6.9231735
34.199931
-7.695957
31.363278
-8.1379679
28.853821
-8.7798961
27.299967
31.800776
-9.1902423
-1.5134303
41.401469
-3.0388942
39.882496
-4.5488702
38.998661
-5.8836393
37.014997
-6.9971031
35.313395
-7.7659803
32.132155
-8.1304833
29.218325
-8.3040612
27.473545
27.587171
-4.0904561
-1.5008983
42.902368
-3.0270416
41.40864
-4.5472184
40.518838
-5.9667881
38.434567
-7.1279362
36.474543
-7.8164966
32.820715
-8.005333
29.407161
-7.6676173
27.135829
20.173148
-0.25359438
-1.4549822
44.35735
-3.0298784
42.983536
-4.6053072
42.094266
-6.0291808
39.85844
-7.1819004
37.627262
-7.8525032
33.491318
-7.7693049
29.323963
-6.8205408
26.187065
13.516574
-0.16396688
-1.4463098
45.80366
-3.0028173
44.540044
-4.5954039
43.686853
-6.1082467
41.371283
-7.3096129
38.828628
-7.9692972
34.151003
-7.525327
28.879992
-5.8334518
24.49519
7.6680322
0.015090307
-1.3966786
47.200338
-2.9871273
46.130492
-4.6243449
45.32407
-6.159405
42.906344
-7.3520305
40.021254
-7.9374947
34.736467
-7.0151569
27.957655
-3.7754862
21.255519
2.9341487
0.95839725
-1.3383599
48.538698
-2.9432685
47.735401
-4.5919111
46.972713
-6.2328772
44.54731
-7.4774381
41.265815
-7.9272067
35.186235
-6.2476897
26.278138
-1.512436
16.520266
-0.12429511
1.5460078
-1.2694463
49.808144
-2.92216
49.388115
-4.6003759
48.650929
-6.2748364
46.22177
-7.4991266
42.490105
-7.6991452
35.386254
-4.966959
23.545951
-0.52353337
12.07684
-2.0185086
1.3706801
-0.29971722
-2.3800586
0.66126716
2.1689507
9.6081721
4.7357785
20.979124
4.7744038
35.347629
3.9620599
43.302449
2.7654726
47.418357
1.6607406
49.755661
0.6208512
50.428004
50.428996
-0.71973906
-2.2806607
0.62034114
1.5125607
7.3758723
4.5918913
17.899793
4.7864158
35.153104
3.9298166
44.159048
2.7250917
48.623082
1.594703
50.88605
0.53806034
51.484647
50.967056
-0.96812771
-1.9024959
0.58996296
1.0524873
5.3552573
4.4190827
14.533198
4.8039512
34.768236
3.928818
45.034181
2.6381627
49.913738
1.4936247
52.030588
0.47598156
52.50229
51.443038
-0.9057404
-1.5036554
0.5068998
0.90287902
3.5466379
4.203742
11.232335
4.770531
34.201447
3.8732831
45.931429
2.576751
51.21027
1.4104864
53.196852
0.39566281
53.517113
51.8387
-0.68288333
-1.2113221
0.39054999
0.96111519
1.9026394
3.9960681
8.1973817
4.7714716
33.426043
3.8503718
46.852529
2.4708351
52.589807
1.2973131
54.370374
0.33675882
54.477668
52.175459
-0.50215241
-1.0359599
0.32679021
1.0234914
0.37699563
3.8172425
5.4036306
4.7114814
32.531805
3.7731247
47.790886
2.3907447
53.972186
1.2020404
55.559079
0.25893826
55.42077
52.434397
-0.34175447
-0.60279181
-0.091413606
1.0569275
-1.0216864
3.6755005
2.7850576
4.702463
31.504842
3.7248937
48.768455
2.2756908
55.421389
1.0796134
56.755156
0.19664211
56.303741
52.63104
-0.20907915
-0.20474655
-0.18896614
1.0917958
-2.3225613
3.5561753
0.32067816
4.6236489
30.437368
3.6230365
49.769067
2.1805124
56.863914
0.98183499
57.953833
0.13707619
57.1485
52.768116
-0.14861445
0.34797382
-0.40410594
1.0420309
-3.5132067
3.4266534
-2.0639444
4.5518872
29.312135
3.5602114
50.760743
2.0538598
58.370265
0.84394022
59.163753
0.079387308
57.913053
52.847503
-0.097971414
-0.088305679
0.53425091
2.5401043
-6.1512824
5.3155951
-4.8394351
4.456368
30.171362
1.7826528
53.434458
-0.33132186
60.48424
-1.5085306
60.340962
-1.4915056
57.896028
51.355997
0.19150668
-1.0498658
0.77005336
3.0762786
-9.0360544
5.2463143
-7.0094709
3.723147
31.694529
0.69364967
56.463956
-1.6408126
62.818702
-2.5643474
61.264497
-1.8966058
57.228286
49.459392
0.26388957
-2.0230671
0.70931177
3.2394888
-12.011654
5.1933854
-8.9633674
2.7708193
34.117095
-0.3226801
59.557455
-2.1923335
64.688355
-2.740495
61.812658
-1.824133
56.311924
47.635259
0.33770466
-3.150224
0.78945223
3.4507133
-15.124662
4.9810922
-10.493746
1.9268489
37.171338
-1.4865676
62.970872
-3.5076569
66.709445
-3.7118515
62.016853
-2.2547374
54.85481
45.380521
0.31602349
-4.1374925
0.67124498
3.3980539
-18.206693
4.6932978
-11.78899
0.86244937
41.002187
-2.5440858
66.377407
-3.7935593
67.958918
-3.6730332
61.896327
-1.8790243
53.060801
43.501497
0.1753604
-3.7007114
-0.61214154
3.4227
-21.454032
4.4407771
-12.807067
0.054207199
45.388757
-3.5037584
69.935372
-4.8736725
69.328832
-4.2267844
61.249439
-1.9084794
50.742496
41.593018
-0.063575743
-3.0570262
-0.58010945
3.3620046
-24.879613
3.8527432
-13.297806
-1.3425724
50.584072
-4.4192592
73.012059
-4.9632606
69.872834
-3.6950427
59.981221
-1.5711137
48.618567
40.021904
0.074423374
-4.0243203
0.8928707
3.7737451
-28.578934
3.6945403
-13.218601
-2.1058861
56.384499
-5.1125812
76.018754
-5.7157249
70.475978
-4.2438375
58.509333
-2.4279026
46.802632
37.594001
0.35704381
1.4312093
-5.8125734
3.9756248
-32.197515
2.6708132
-11.91379
-3.9294444
62.984756
-6.205969
78.295279
-5.7652038
70.035212
-3.7576883
56.501818
-1.9452677
44.990211
35.648734
-0.5123778
-4.8901815
0.24362082
5.1589383
0.11354403
38.581622
-39.207544
0.095852906
72.741973
-72.724282
2.5494646
44.313227
-46.766839
6.3442894
-14.37184
10.577015
8.9750614
-38.264015
35.633243
10.385453
-48.885787
47.475396
10.526486
-49.431447
49.290414
-22.067682
22.176989
-0.54158556
-4.5856383
0.23704221
-0.049446283
38.089482
0.11304032
72.579486
3.0831788
41.343089
6.9407754
-18.229436
9.5691595
-40.892399
10.965084
-50.281712
11.151291
-49.617654
-22.008921
-0.57823515
-4.2420371
0.2346338
-0.25474489
37.765992
0.14545362
72.179288
3.7181737
37.770369
7.6219767
-22.133239
10.207548
-43.477971
11.505256
-51.579419
11.684545
-49.796943
-22.069989
-0.61577637
-3.856683
0.23042211
-0.47962244
37.629838
0.2104468
71.489218
4.4079335
33.572882
8.3125545
-26.03786
10.891554
-46.05697
12.042399
-52.730264
12.141686
-49.89623
-22.272341
-0.67075584
-3.4157411
0.22981391
-0.761611
37.720693
0.24725008
70.480357
5.104602
28.71553
9.0541627
-29.987421
11.674118
-48.676925
12.660109
-53.716256
12.601962
-49.838083
-22.589358
-0.7289801
-2.9168594
0.23009829
-1.0588033
38.050517
0.29108413
69.13047
5.8015652
23.205049
9.7716966
-33.957552
12.404682
-51.309911
13.345991
-54.657564
13.116199
-49.608291
-22.962247
-0.77902771
-2.3673283
0.22949654
-1.3061764
38.577665
0.41543157
67.408862
6.538598
17.081883
10.559586
-37.978541
13.122991
-53.873315
14.031298
-55.565872
13.653639
-49.230631
-23.400792
-0.81290588
-1.7748701
0.22044754
-1.4422477
39.207007
0.66889226
65.297722
7.2623986
10.488376
11.382596
-42.098738
13.84419
-56.33491
14.703163
-56.424845
14.164571
-48.692039
-23.922777
-0.83299202
0.21142721
-1.1533054
-1.485746
39.859761
1.0241692
62.787807
8.0012922
3.5112533
12.177455
-46.274901
14.539704
-58.697159
15.338422
-57.223563
14.710712
-48.064329
-24.635529
-3.584036
-1.3100766
-3.296756
8.1908681
-9.3591012
-74.924065
80.69913
-8.7213071
-81.068893
80.431099
-4.6142202
-57.848418
53.741331
0.95887673
-26.870517
21.29742
5.708429
-11.299644
6.5500914
7.955841
-15.966206
13.718795
3.8649217
-28.819557
32.910477
-56.078629
59.943551
-2.372825
5.9509424
-4.8881944
-8.5573882
-68.739502
-9.0196687
-80.606613
-5.8313791
-61.036707
0.46613428
-33.168031
5.3819383
-16.215448
7.6988929
-18.283161
5.2613162
-26.381981
-50.817313
-2.1420019
13.173478
-5.080534
-8.3164816
-62.565022
-9.0727309
-79.850364
-6.6118262
-63.497612
-1.0950935
-38.684764
4.1408887
-21.45143
6.0202005
-20.162473
4.1393526
-24.501133
-46.677961
-1.1786099
19.2393
-4.8872121
-7.5168427
-56.226789
-9.2767924
-78.090414
-7.4493125
-65.325092
-2.7718102
-43.362266
2.0632558
-26.286496
5.2300802
-23.329297
5.0397699
-24.310823
-41.638191
-0.91956607
24.796581
-4.6377157
-7.1445662
-50.001789
-9.0813992
-76.153582
-7.5533247
-66.853167
-3.9497012
-46.96589
-0.01152212
-30.224675
3.1176765
-26.458496
3.4749386
-24.668085
-38.163252
-0.084436539
29.048952
-4.1679349
-6.2783779
-43.807848
-8.8848494
-73.54711
-8.246471
-67.491545
-5.113141
-50.09922
-1.1457314
-34.192085
2.1861613
-29.790389
3.6016394
-26.083563
-34.561613
0.065482517
31.429652
-2.4461833
-5.7270938
-38.015272
-8.344241
-70.929963
-8.2155765
-67.62021
-5.7474436
-52.567352
-2.2647211
-37.674808
0.33565566
-32.390765
2.0258893
-27.773796
-32.535723
0.63072668
30.645708
0.15321579
-4.7056205
-32.678926
-7.8039598
-67.831623
-8.1754942
-67.248676
-6.1221437
-54.620702
-3.1442103
-40.652741
-0.53491605
-35.000059
1.5561995
-29.864912
-30.979524
0.34946315
29.169278
1.1269658
-3.9421093
-28.387354
-6.9865092
-64.787223
-7.8364157
-66.39877
-6.5234895
-55.933628
-3.8098855
-43.366345
-1.8115949
-36.99835
0.43605419
-32.112561
-30.54347
0.17400994
30.025379
-30.199389
0.3080622
34.943933
-35.077985
0.20498377
37.68986
-37.586781
-0.12534614
43.018976
-42.688646
-1.0974287
49.424636
-48.452553
-2.4766867
56.121359
-54.742101
-3.511434
57.917983
-56.883236
-1.7917314
43.015198
-44.734901
-11.686429
9.0991975
0.79549929
0.14939225
29.875987
0.33366201
34.759663
0.25306609
37.770456
-0.027945056
43.299987
-0.96826608
50.364957
-2.2926915
57.445785
-3.2841383
58.90943
-1.5378822
41.268942
-14.19166
0.96734948
0.099191569
29.776795
0.34556854
34.513286
0.32237985
37.793644
0.10542908
43.516938
-0.81911279
51.289498
-2.1638697
58.790541
-3.1073018
59.852862
-1.2204085
39.382048
-16.703914
1.291845
0.054820725
29.721975
0.34753106
34.220576
0.34623116
37.794944
0.18957955
43.67359
-0.69169089
52.170769
-1.9849025
60.083753
-2.8880642
60.756023
-1.0587668
37.55275
-19.09517
1.3324893
-0.010922566
29.732897
0.32989621
33.879757
0.3952389
37.729601
0.30903554
43.759793
-0.53912043
53.018924
-1.8530809
61.397714
-2.7286551
61.631597
-0.85271682
35.676812
-21.405528
1.4576408
-0.067366759
29.800264
0.31888044
33.49351
0.40193431
37.646548
0.39164137
43.770086
-0.4121388
53.822705
-1.6792168
62.664791
-2.5113579
62.463739
-0.65409772
33.819551
-23.618464
1.5588382
-0.15204918
29.952313
0.26639395
33.075067
0.43413906
37.478803
0.48812271
43.716102
-0.26785312
54.578682
-1.5477974
63.944734
-2.3710879
63.287029
-0.50714609
31.955608
-25.680106
1.5544948
-0.2276513
30.179965
0.23371086
32.613705
0.42147934
37.291035
0.57238441
43.565197
-0.12996028
55.281027
-1.3633667
65.17814
-2.1508526
64.074516
-0.34014457
30.144899
-27.749378
1.7291256
-0.36350504
0.13763929
0.43032414
0.62917583
-0.023425545
-1.2440553
-1.9567631
-0.19921782
1.2206823
4.0312723
3.9284877
1.1394375
7.5963243
-48.299953
6.0346929
-55.321604
3.8107976
-52.518206
2.1226748
-46.76443
1.1379045
-41.703876
0.51696423
-36.965841
0.17559236
-34.736613
-30.023796
5.8736892
-2.8155775
0.87037573
8.1884978
-50.614762
6.2127759
-53.345882
3.9147603
-50.22019
2.2433683
-45.093038
1.2221793
-40.682687
0.57424512
-36.317907
0.17154074
-34.333909
-29.852256
8.6209666
-11.538043
0.10149919
8.4707046
-50.4645
6.3402837
-51.215461
4.085689
-47.965595
2.4232919
-43.430641
1.3419852
-39.60138
0.65056208
-35.626483
0.18451034
-33.867857
-29.667745
9.2896837
-20.717055
-0.11067225
8.6426493
-49.817465
6.4516096
-49.024422
4.1989553
-45.712941
2.5615372
-41.793223
1.4455727
-38.485416
0.72359213
-34.904503
0.19719701
-33.341462
-29.470548
10.113229
-29.839486
-0.99079778
8.7424477
-48.446684
6.4972818
-46.779256
4.3196482
-43.535307
2.7124118
-40.185987
1.5710771
-37.344081
0.80864055
-34.142066
0.23091685
-32.763738
-29.239631
10.626495
-38.391083
-2.0748986
8.8055888
-46.625777
6.4580496
-44.431716
4.4363211
-41.513579
2.8623567
-38.612022
1.6860637
-36.167788
0.89280621
-33.348809
0.25711816
-32.12805
-28.982513
10.975679
-43.278315
-6.088447
8.9256672
-44.575765
6.5413909
-42.04744
4.5235549
-39.495743
2.9821624
-37.07063
1.811008
-34.996634
0.9828202
-32.520621
0.30452254
-31.449753
-28.677991
11.281779
-43.032296
-11.527798
8.7862486
-42.080234
6.4470495
-39.708241
4.58749
-37.636183
3.1082767
-35.591416
1.916353
-33.80471
1.0637893
-31.668057
0.33347014
-30.719433
-28.344521
11.168389
-41.211201
-12.989484
8.5694026
-39.481248
6.4654503
-37.604289
4.6786657
-35.849399
3.2317487
-34.144499
2.0312305
-32.604192
1.1406788
-30.777505
0.39136827
-29.970123
-27.953152
0.67360833
35.114051
-35.787659
1.2094777
35.586226
-36.122096
1.6772528
36.226664
-36.694439
2.0419753
37.044586
-37.409309
2.2642034
37.767157
-37.989385
2.2558462
38.426865
-38.418508
1.9143771
38.042602
-37.701133
1.2410205
35.37915
-34.705793
28.618054
-27.964816
0.58778328
0.73166145
34.38239
1.3134827
35.004405
1.82664
35.713507
2.222418
36.648808
2.4832619
37.506313
2.5236975
38.38643
2.14368
38.422619
1.315894
36.206936
29.407984
0.52596408
0.78240453
33.599985
1.4000069
34.386803
1.9613816
35.152132
2.4171892
36.193001
2.7411749
37.182328
2.8752211
38.252384
2.6074871
38.690353
1.7813899
37.033033
30.449766
0.7396074
0.83256285
32.767422
1.5011111
33.718255
2.1149222
34.538321
2.5878347
35.720088
2.9561017
36.814061
3.1541107
38.054375
2.9315293
38.912935
2.0180742
37.946488
31.802047
0.66579329
0.88633139
31.881091
1.5733031
33.031283
2.2360145
33.87561
2.7801348
35.175968
3.214649
36.379547
3.5046379
37.764386
3.4720302
38.945543
2.6982554
38.720263
33.764746
0.73555692
0.9271366
30.953954
1.6614775
32.296942
2.37238
33.164707
2.9301585
34.61819
3.4060751
35.90363
3.7828275
37.387633
3.8421308
38.886239
3.2079638
39.35443
36.026459
0.94625082
0.9682549
29.9857
1.7173582
31.547839
2.4713546
32.410711
3.1067813
33.982763
3.640019
35.370392
4.1038075
36.923845
4.3841239
38.605923
3.9934594
39.745094
38.249257
1.7706609
1.0008245
28.984875
1.7876016
30.761062
2.5827315
31.615581
3.2250775
33.340417
3.7957594
34.799711
4.3102008
36.409403
4.6825893
38.233534
4.5962969
39.831387
40.210429
2.6351243
1.0317228
1.8226616
2.6607373
3.3969623
4.0521736
4.6121779
5.2414237
5.5915621
4.5907909
-0.49570703
-27.741225
0.27211574
-0.95374634
-34.247754
-1.3002657
-37.354613
-1.4117555
-38.307019
-1.3462796
-38.054861
-1.1590668
-37.596522
-0.86540531
-36.9881
-0.48383218
-36.503669
-36.271492
-0.52267492
-27.544392
0.32584149
-0.8811073
-33.889321
-1.1602954
-37.075425
-1.2716026