/*--------------------------------*- C++ -*----------------------------------*\
  =========                 |
  \\      /  F ield         | OpenFOAM: The Open Source CFD Toolbox
   \\    /   O peration     | Website:  https://openfoam.org
    \\  /    A nd           | Version:  11
     \\/     M anipulation  |
\*---------------------------------------------------------------------------*/
FoamFile
{
    format      ascii;
    class       surfaceScalarField;
    location    "0.0665";
    object      phi;
}
// * * * * * * * * * * * * * * * * * * * * * * * * * * * * * * * * * * * * * //

dimensions      [0 3 -1 0 0 0 0];

internalField   nonuniform List<scalar> 
1652
(
2.843686947071611
0.8895636090847481
0
1.954123337988149
0.8895636090834618
0
1.064559728903287
0.8895636090848453
0
0.8895631020925201
-1.599231858051553e-10
0.1749961737763771
2.843686947076741
1.779127218162428
1.954123337998014
1.779127218162189
1.064559728910187
1.779127218172474
1.779116465315091
0.1749970585911179
2.843686947090741
2.668690827246526
1.954123338008367
2.668690827244562
1.064559728914365
2.668690827260291
2.668620133988145
0.1750035516289927
2.843686947092868
3.558254436328659
1.954123338013008
3.558254436324421
1.064559728935304
3.55825443621497
3.55817215838419
0.1749957868572715
4.418652025448567
2.872852967045247
5.279049614570543
2.872852967043177
6.139447203693337
2.872852967042502
2.872852967039987
6.999844792763826
4.41865202543751
2.012455377932159
5.279049614550976
2.012455377929712
6.139447203664215
2.012455377929244
2.012455377926215
6.999844792778007
4.418652024103382
1.152057791064389
5.279049712209601
1.152057766390529
6.138614186858854
1.152084704343922
1.151992263969842
7.001291722000619
4.432451791921541
0.2608650438403038
5.37325288338528
0.1421561664962008
6.349673096447517
0.0615234914000975
7.321401971784956
0.0255100873309354
6.941512739242309
0.05833192909431895
6.883180692687882
0.05833184654799606
6.824848654214684
0.05833179733185323
0.05833194121803564
6.766516628616202
6.941515234890384
0.1166581968209922
6.883183993540032
0.116656795316413
6.82485190591292
0.1166552494442452
0.1166577359080757
6.76652203674137
6.943483317418914
0.1722796518535581
6.885497318563081
0.1716132199833113
6.827151106787778
0.1710791897970611
0.1709183286705118
6.769723085478226
7.337739360688961
0.003093016587897179
7.327586487827459
-0.002662790416888994
7.271252119146373
-0.002547168328863147
7.218985583908076
-0.0226571864682209
7.236368908814484
0.007571545071302366
-0.1895935263638003
7.144824140992083
0.01225249566865499
-0.05121541431606047
7.010587633166436
0.0154736595753216
-0.008104096700486896
0.006194141201367187
6.880275974823718
-0.002552180942028193
6.771666288790169
2.434159130959568e-05
6.772233866277065
3.761174168326331e-05
6.772087358305482
4.362815917202667e-05
2.205501900054418e-05
6.76871824997996
6.766527065088447
6.77708079876993e-07
6.76652793731574
8.901536243666186e-07
6.766527206022956
8.482674147547442e-07
4.526667592985589e-07
6.76652073212124
6.766516600543049
6.76651658867188
6.766516589387823
6.766516611683875
6.766516629667155
-1.022278159901191e-07
6.766516632952517
-7.496672616014166e-09
6.766516633048006
-1.138731331451481e-10
1.73794312274822e-12
6.76651663304935
6.766517129988137
-4.868393597923237e-06
6.76651664571435
-3.965922131810018e-07
6.76651663280606
-7.878813379491589e-09
1.288945505883987e-09
6.766516632767661
6.766846631066693
-0.001338911288856881
6.766528480807825
-0.000131680882699492
6.766516679330637
-3.481213768086189e-06
-1.240862418372402e-08
6.766516620598494
6.793868203158434
-0.002595598047408998
6.768535233305625
-0.0008464728934501897
6.766542854749927
-6.724929032886351e-05
6.76651641867614
-5.678995827484989e-07
-1.819106348888155e-08
6.76651639233705
2.33585379927348e-08
-1.402143956497071e-10
6.766516619865052
-2.270406085358445e-13
6.766516632994097
6.766516633049351
-3.089452804694304e-09
6.766516205343488
9.13479158981545e-09
-2.080944083715508e-09
6.766516621944397
-1.46567757930427e-10
6.76651663226053
6.766516633027162
-2.201468728368905e-06
6.766603756428491
1.101829285032885e-06
2.836802270866912e-07
6.766517879656385
4.717186008473817e-08
6.766516772750247
6.766516636322056
0.0001604566839761845
6.784713198721157
-0.06246911727969756
-5.055904889550433e-05
6.766327279964096
-3.888837476484497e-07
6.766500416185344
6.766516586288929
0.1555527356539049
6.610964532352945
0.3111141576533469
6.610959401099717
0.4646419663762791
6.61146546523508
6.75334353830013
0.1946252166958482
0.1555520619469813
6.455412525341957
0.3110886939858293
6.455417742104362
0.4593613639994784
6.45786997978039
6.670505615838379
0.1211971399733938
0.1555508159426439
6.299860508958667
0.3110647573735667
6.29987060958231
0.4530344750283031
6.304396016248136
6.630568582985243
0.07780356592873916
0.155550211977157
6.144308467381411
0.3110457408132804
6.14431982744706
0.4480288138021486
6.149246205482688
6.514618964795943
0.03612293798648214
-0.4450157665971267
6.347355919872999
0.01761427040177799
-0.3110323949491486
5.994616425198164
-0.1555498508418963
5.98877124201351
5.988756329920605
-0.4414061678703403
6.128331228747179
0.01947828846152866
-0.3110106870027315
5.838547874255597
-0.1555490580638412
5.833218466067436
5.833204199642799
-0.4380318165920287
5.918751693763662
0.01786275243226221
-0.3109917481790169
5.68412083069219
-0.1555484183120496
5.677673750911029
5.677652119961389
-0.4326961859159656
5.691812664117609
0.02109126624710245
-0.310945008234385
5.52802987736643
-0.1555463145954957
5.522119492495329
5.522100062767931
0.1992956240054277
5.322798991405716
0.3984465163333147
5.322817208009627
0.5573992623900104
5.328579653922996
5.433567046434357
0.04514051786831863
0.1992941107988921
5.12349806044205
0.3984015166504494
5.123518695576026
0.550520110425466
5.128981562717167
5.152430144416321
0.07072715929012641
0.1992921850081557
4.92419721025289
0.3983614048559653
4.924213810563725
0.5495537679873059
4.928311471133292
4.902630242465682
0.1696912588444037
0.1992943494045946
4.724896082218023
0.3984533203961094
4.724995480727129
0.568386436710884
4.735209546094355
4.684242653990915
0.3967404508294644
-0.3354226060635953
5.06030534388817
-0.6715357858687638
5.060293075189298
-1.048566486938266
5.075874177528462
4.940056317321614
-1.43939102792546
-0.33540552660877
5.395714881223509
-0.6706482452802405
5.395559556475068
-0.9894596878509142
5.386311752909164
4.640266658879266
-0.5064012472664837
-0.3354055778420323
5.731122538851965
-0.6699368600882756
5.730830749886177
-0.9319163165794265
5.68532317614422
4.088278888035429
-0.05683094397138194
-0.335404404730283
6.066531653995102
-0.6689693263940668
6.066165769661447
-0.859043233315878
5.966892825497348
3.655390209857694
0.003703756725492197
0.4313124608709401
3.667369081537418
0.01057175761500807
0.3488811800551954
6.145461174691324
0.1749928566115125
6.241171585239164
6.241527810031593
0.4385328758102142
3.837673495229129
0.007706387453253687
0.349102869052873
6.343205222136441
0.1749936228419156
6.416343407566115
6.416524212431352
0.4575923704844698
4.116981864867364
0.002718019144387566
0.3494769603079256
6.529969372490882
0.1749948358501836
6.591362257155685
6.591520339468923
0.4528867302772521
4.409146532635289
0.01340591289088596
0.3494169835429916
6.71738449745054
0.1749946886054838
6.766397760668124
6.766516494781014
-0.03768816034497613
5.463335257131525
0.2091220305845048
-0.0003186121776816986
6.75600932724651
-9.479687341773513e-07
6.766500273374801
6.766516615348632
-0.01211701876289073
6.25875429436389
0.1648393719232318
-6.215477295468119e-05
6.765141146538546
-1.41023054567313e-07
6.766515281574054
6.766516632125398
-0.003995897738050425
6.679640785259267
0.1463251201129569
-1.514682626879704e-05
6.766792296461642
-2.98852147473383e-08
6.766517943060858
6.766516633084139
-0.002731175909602701
0.1180673081821644
6.758944631241531
-1.32171886120247e-05
6.766219404699142
-3.467533660206357e-08
6.766513985341916
6.766516632804517
1.087098520197651
-0.8226058189546217
-0.0288600994828742
-1.651656589274353e-11
1.982984328246883
-0.8737671244277303
-1.074162980785331e-11
2.85826828940376
-0.8749724627867268
1.302957741700084e-11
-0.8749805747888799
-5.140776693224325e-12
1.087486962586832
-1.651318669436495
-0.03272108952449625
1.982985092848427
-1.747548677073391
2.85826828893687
-1.749944775581872
-1.749961147680241
1.0877656179727
-2.48883450335564
-0.04221015347095346
1.982984816422639
-2.621364408367612
2.858268282037383
-2.624917266155951
-2.624941721346312
1.088551904787636
-0.053343191736431
-3.353950261028473
1.982989129042561
-3.495633265257705
2.85826829306635
-3.499893683897947
-3.499922313926572
-0.002731175910596018
-6.679640785261385
0.1180673081815394
6.758944631240649
-1.321718987523646e-05
-6.766792296468129
6.766219404700557
-3.468133336070878e-08
-6.766517943067573
6.766513985344598
-6.766516633082917
6.766516632819217
-0.00399589773803033
-6.258754294377353
0.1463251201131563
-1.514682942160839e-05
-6.765141146540706
-2.988561931260847e-08
-6.766515281586408
-6.766516632125372
-0.01211701876885951
-5.463335257129552
0.1648393719254236
-6.215477839366379e-05
-6.756009327252963
-1.41022781452449e-07
-6.766500273377867
-6.766516615349844
-0.03768816034444245
-4.409146532627411
0.2091220305821223
-0.0003186121760381244
-6.71738449744903
-9.479679430324239e-07
-6.766397760664607
-6.766516494780237
-0.1749928566038454
6.241527810079841
-6.066531654029195
-0.3488811800298962
6.24117158528418
-6.06616576971687
-0.4313124608626127
6.145461174653962
-5.966892825432556
3.667369081504645
-3.655390209803254
0.01057175761487519
-0.174993622825916
6.41652421245578
-0.3491028690320485
6.416343407587315
-0.4385328758008916
6.343205222117611
3.837673495201889
0.007706387453422614
-0.1749948358379473
6.591520339481176
-0.3494769602860254
6.591362257162736
-0.4575923704746792
6.529969372485144
4.116981864860261
0.002718019145243181
-0.1749946885943714
-0.3494169835167821
-0.4528867302659459
0.01340591288995544
0.8590432333244253
-4.088278888003678
0.003703756724133367
0.668969326426783
-5.685323176112022
0.3354044047470767
-5.730830749920283
-5.731122538881061
0.9319163165867829
-4.640266658856744
-0.0568309439706761
0.6699368601097813
-5.386311752891902
0.3354055778537346
-5.395559556502715
-5.39571488124297
0.9894596878629118
-4.940056317313589
-0.5064012472646585
0.6706482453031292
-5.07587417752177
0.3354055266135268
-5.060293075201998
-5.060305343895592
1.048566486950881
-4.684242653990056
-1.439391027929811
0.671535785887025
-4.735209546094834
0.3354226060725145
-4.724995480730376
-4.724896082218854
0.1992956240108168
5.322798991425318
-5.522100062794248
0.3984465163468361
5.322817208022586
-5.522119492523967
0.5573992623984114
5.328579653897422
-5.52802987734608
5.433567046411351
-5.691812664087632
0.04514051786926054
0.1992941108045336
5.123498060454719
0.3984015166637469
5.123518695591294
0.5505201104333479
5.128981562702962
5.152430144400576
0.07072715928943629
0.1992921850147307
4.924197210257803
0.398361404869904
4.924213810572648
0.5495537679933464
4.928311471126728
4.902630242457893
0.1696912588448715
0.1992943494110524
0.3984533204099548
0.5683864367161701
0.3967404508315313
-0.4326961859085787
-5.918751693747599
0.02109126625237279
-0.3109450082208169
-5.684120830662603
-0.1555463145887874
-5.677673750934397
-5.677652119980512
-0.4380318165813033
-6.128331228750809
0.01786275243433
-0.3109917481662182
-5.83854787421047
-0.1555484183061907
-5.833218466095289
-5.833204199655595
-0.4414061678669228
-6.347355919844248
0.01947828846087452
-0.3110106869872659
-5.99461642522644
-0.155549058056721
-5.988771242005488
-5.988756329925649
-0.4450157665944616
-6.514618964745918
0.01761427039248964
-0.3110323949357885
-6.149246205510503
-0.1555498508354347
-6.144319827466687
-6.1443084673805
0.1555527356537061
6.610964532355005
-6.766516586288488
0.3111141576542226
6.610959401102392
-6.766500416178024
0.4646419663781689
6.611465465224248
-6.766327279964421
6.753343538305297
-6.784713198720975
0.1946252166922786
0.1555520619466387
6.455412525336378
0.3110886939860856
6.455417742105409
0.4593613639974821
6.457869979800308
6.670505615826689
0.1211971399771021
0.1555508159423054
6.29986050895805
0.311064757372803
6.299870609575449
0.453034475030867
6.304396016203362
6.63056858301288
0.07780356591972226
0.1555502119765632
0.3110457408125628
0.44802881379488
0.03612293800361499
-6.766516636323272
3.888842916577318e-07
-6.766516633027515
-4.717058377234906e-08
-6.766516633049343
1.441159414028448e-10
2.657873920952625e-13
-6.766516633049342
-6.766516772747596
5.055904561435121e-05
-6.766516632265719
-2.836820867102574e-07
-6.76651663299344
2.08459693951113e-09
1.401811999812708e-10
-6.766516632767051
-6.766517879660413
-0.0001604566844055078
-6.766516621941344
2.201469603724249e-06
-6.766516619863382
3.089055400362639e-09
1.819014899817617e-08
-6.766516620597352
-6.766603756430759
-0.06246911728021948
-6.766516205343638
1.101825436222725e-06
-6.7665163923353
9.134757839035501e-09
-6.766516418674435
2.335961474253523e-08
1.723843290335481e-12
-6.76651663304799
1.287971285179879e-09
-6.766516632805479
-1.240947156144756e-08
-6.766516679329968
-6.766542854748278
-5.678992411883854e-07
-1.138050764737386e-10
-6.766516632952416
-7.878987462461851e-09
-6.76651664571399
-3.481213813216755e-06
-6.766528480811045
-6.76853523330624
-6.7249292021343e-05
-7.496680165530734e-09
-6.766516629667671
-3.965920427617675e-07
-6.766517129985452
-0.0001316808809246339
-6.766846631064304
-6.793868203159843
-0.0008464728935675958
-1.022282350993109e-07
-6.766516611683293
-4.868394774537599e-06
-6.766520732127276
-0.001338911289716638
-6.768718249976384
-6.8802759748262
-0.002595598047631487
-6.777140059144315e-07
6.766516600526878
-6.766516628600405
-2.434160194819679e-05
6.766527065070165
-6.766522036716582
-0.007571545079762876
6.771666288811191
-6.769723085507521
7.236368908820484
-7.218985583923779
-0.1895935263629496
-8.901577157605089e-07
6.766516588661595
-3.761174967464864e-05
6.766527937308475
-0.01225249567139841
6.772233866288293
7.144824140999812
-0.05121541431806292
-8.482711927326747e-07
6.766516589381713
-4.362816743808118e-05
6.766527206029482
-0.01547365958012986
6.77208735831131
7.010587633175626
-0.008104096700559948
-4.526733389242921e-07
-2.205503133956288e-05
-0.006194141203400672
-0.002552180943863724
-0.1709183286723168
-7.271252119163651
-0.02265718646677495
-0.1166577359263364
-6.82715110679557
-0.05833194122084073
-6.824851905905502
-6.824848654194965
-0.1710791898041417
-7.327586487844448
-0.002547168328079663
-0.1166552494641238
-6.885497318539605
-0.05833179733692517
-6.883183993551219
-6.883180692672213
-0.171613219998188
-7.337739360697375
-0.002662790413765603
-0.1166567953346831
-6.94348331731358
-0.0583318465508591
-6.941515234930479
-6.94151273923302
-0.1722796518800584
-7.321401971770107
0.003093016588038844
-0.1166581968439727
-7.001291721965043
-0.05833192909990292
-6.999844792821183
-6.999844792760962
-1.151992263963821
-6.349673096432745
0.02551008733132609
-2.012455377910968
-6.138614186957914
-2.87285296703991
-6.13944720369222
-6.139447203690478
-1.152084704335748
-5.373252883368487
0.06152349140023849
-2.01245537791648
-5.279049712203076
-2.872852967042259
-5.279049614566445
-5.27904961456744
-1.152057766390153
-4.432451791896378
0.1421561664948485
-2.012455377921992
-4.418652024102104
-2.872852967044603
-4.418652025443835
-4.418652025446892
-1.152057791062645
-3.558172158384186
0.2608650438401655
-2.012455377927508
-3.558254436212941
-2.872852967046921
-3.558254436324423
-3.55825443632866
2.843686947076677
0.8895636090796828
1.954123337995112
0.8895636090815642
1.064559728908975
0.8895636090861205
0.8895631019911694
0.1749961738602263
2.843686947077599
1.7791272181565
1.954123337999196
1.779127218159969
1.064559728911151
1.779127218173943
1.779116465365917
0.1749970585757433
2.843686947089469
2.668690827241873
1.95412333800662
2.668690827242819
1.064559728912949
2.668690827261952
2.668620134024171
0.1750035517308259
2.843686947088214
1.954123338006611
1.064559728929785
0.174995786866841
0.174996109053435
0.1749961091133032
0.1749957621529609
0.1749968450477625
0.1749945122613824
0.1750023711498793
0.1748480973145962
0.1750564411132451
0.1749968450995011
0.1749957621635213
0.1749964607508465
0.174996460729042
0.1750050213273492
0.1749922498392841
0.1744558224115202
0.1750581541785353
0.1750023710879466
0.1749945122983064
0.1749922498181267
0.1750050213061808
0.1749362960055106
0.1749362960404266
0.1722558377645175
0.176002355814632
0.1748480973282773
0.1750564411209267
0.1744558224239833
0.1750581541537759
0.1722558377786065
0.176002355827688
0.1714067814029578
0.1714067814140972
-0.08063833139300797
0.2483046128046315
-0.1495789400164543
0.2397790761757683
-0.2176255356715926
0.2378625600179229
0.2140316305512056
-0.01761795641661523
0.2654535829632647
-0.04487011663844043
0.264650648105024
-0.08379489601490031
0.2717259075720848
0.2642191365968009
-0.008572424149098867
0.2722053240158336
-0.02586402236750474
0.2811278256859604
-0.03952539638438057
0.2860346152444738
0.2862889178619138
-0.004751304319596028
0.278826040037786
-0.01484595977983194
0.2939915775264166
-0.02154407973666617
0.2972252640186857
0.2970721635763394
0.3013119138136311
0.005577523732492595
0.3030374876401181
0.001088455309011471
0.3035770194887932
0.001591212913712059
-0.01759113062363732
0.3047624864699369
0.3039741694730458
0.006135635320418276
0.3071665518937801
0.003652222737100808
0.3081667830744597
0.004735588982354322
-0.01732218563195781
0.3133401392797486
0.301527633584411
0.001997062980814979
0.3045482796307754
0.00165636033411759
0.3060899709260843
0.002455316442861621
-0.03652041031652614
0.3284065555665162
0.2856080974338757
0.2887395744541651
0.2902866943239111
0.2520010711572785
0.2813803900487382
-0.1582895820073829
0.2579299768185075
-0.01673541532880179
0.2466643248368749
0.009084681568834574
0.003399185638459423
0.2407301247641421
0.2688825109895837
-0.1228968027834095
0.2517128575229776
0.003327678797505285
0.2477198202937263
0.01399167494453663
0.007060007116960587
0.2423773970696077
0.2703469203023556
-0.07362244354003378
0.2523079453658577
0.006090207366710731
0.2504466015408104
0.01549582005492539
0.01052130456908446
0.2461102635494568
0.1885425497327149
0.201266084918228
0.2193939206596068
0.2300946437240101
0.2359303811079075
-0.0006638676956126077
0.2336752344500043
-0.0005761276776410917
0.2333390394825719
-6.858184982855287e-05
-1.294947704955085e-06
0.2333282031384881
0.2371959392748187
0.002094517586607059
0.2340130113750026
0.0005309091204853678
0.2333559376781922
6.939505441988514e-05
2.827758465884234e-06
0.233328312022091
0.2397889183382789
0.005864975781187609
0.2346410561294128
0.002926940131028344
0.2333887003235058
0.0005182042872051706
2.186708442147856e-05
0.2333285434483362
0.2320581765941148
0.2328621321279766
0.2332778230770627
0.2333277373320262
0.2333281556556635
1.54146126973842e-08
0.2333281556332104
-2.704620249982526e-09
0.2333284934232419
6.609585311290189e-07
-0.08455995870209876
0.2447446812870343
0.2333281545060256
3.500182560456366e-08
0.2333281543912987
-6.879771252688016e-09
0.2333283946015174
4.201533454484263e-07
-0.0868499692410396
0.2193401382436754
0.2333281535449264
1.185246687462893e-07
0.2333281532790568
-3.028905348756439e-09
0.2333285397638719
1.518215769769071e-07
-0.06134132595934472
0.1900189875406751
0.2333281482941113
0.2333281751210191
0.2333285449637025
0.1597396727387014
0.275863354157623
0.1507339473640957
0.2884825037178663
0.1020427905471468
0.2986852307219113
0.06640854169924704
0.02945962582405448
0.3071920308358161
0.2608712541203647
0.1009767365145943
0.2853115480435985
0.06953558479018251
0.3038366056391154
0.04399234825954368
0.01803655509637847
0.3170832680342669
0.2254745690344662
0.0622595679442246
0.2675473964565304
0.0237059517642414
0.2991505269605802
0.01008169413346938
0.007293779256395405
0.3151450514687927
0.2211413798774661
0.2421702252072804
0.258097260523077
0.2792848697110685
0.3100202036209346
0.009510889131780664
0.3103906796026541
0.009555638137109579
0.3097572230681728
0.008672890247802933
0.01041182537989205
0.3094338349372538
0.322074185764078
0.001449007373319544
0.3228695895387128
0.0007173038917448471
0.3229550921941758
0.0006060812053014786
0.002362438694066049
0.3229018821411949
0.320325305967946
-0.001015587563986786
0.3210945191078928
-0.003254568552498283
0.3212315508910899
-0.00282288869932279
-0.0008771219049167334
0.3214460670413609
0.2903198122264579
0.2922409376987594
0.2921760161810051
0.2930736983256836
0.3157689749497914
0.02735377677990525
0.3274323401948323
0.05375811299802935
0.3556877765509205
0.1491355232383126
0.3324844218678075
0.4322821554215037
0.3292928352988645
0.01672841037751627
0.343731460955033
0.03988267367650267
0.3714486796248258
0.1333276704232924
0.2385103867024387
0.4779602411633244
0.327882513178946
0.006512210876083557
0.3432936136736257
0.02159351700960233
0.3809010900976796
0.09278131317014759
0.07597806253940176
0.5403889531912408
0.3033866013684205
0.3290132018658567
0.4259941749448725
0.4968670840474399
0.2374485924741403
-1.241893313605758
0.03348420347185058
-0.2844961026816374
0.004105683263060829
-0.01806359302247313
0.01183362867821771
-0.0004838030798110394
0.1625259749348413
-0.9122665148207657
0.01678520260942457
-0.1221451516719429
0.0020754316880887
-0.002549251728307257
0.006208821388963066
0.0002935067973662137
0.08803998715055167
-0.463110199414885
0.009891355939721595
-0.03222699132659315
0.003360648934290812
0.00813105105868648
0.002124149271405147
0.0007542039668039426
0.02949214282825034
-0.005490434485866906
0.00252648766245305
0.001450291023102132
0.0007329882969709742
0.00959511798603677
0.0004566580891327172
0.006545538135304594
0.002212748254462962
-0.0003594834442282799
-0.0005806697981190732
0.01653873791933027
-0.002178176721842422
0.00565097830273812
-0.005095855122771276
0.001742096721077058
-0.003303891992096386
-0.005643170686669807
-0.002957771598773553
-0.0004112440577615992
-0.002352049248834589
0.0007896944885190313
-0.005579078210403095
-0.002227407187453956
-0.003855372286848487
-0.006813381463110828
-0.001419308802507714
-0.00267893965456753
-0.003096939460840732
-0.007422879483907636
-0.007070635562860644
-0.007312328178492132
0.1333441159049069
0.1192501441670502
0.1924803593810978
0.1402530928979186
0.2224819411668041
0.1515846353022681
0.1160536982765035
0.2443874399734162
0.08437827089009291
0.04502914024046654
0.16043609363514
0.09204001825239808
0.2017784357672805
0.1382236151866508
0.1008023463286404
0.2386959723109091
0.03053173755482822
0.01236091555556283
0.1101248020867187
0.02861773019562031
0.1754180300283373
0.08908477883989988
0.06161186355422804
0.2349661761169681
-0.003002153746566816
0.02030693349633508
0.1138928976075057
0.1939311776193433
0.2005944205640485
-0.2658393530663326
0.3299497012939835
0.1597960994597701
-0.1856126897986956
0.2602970275757094
0.1283921399829401
-0.1145825149519158
0.2031601539423598
-0.07718703929580033
0.1038714832815182
0.1464491964271727
0.1924775783951436
-0.2068209050807518
0.1193189942481599
-0.1142180864567267
0.07406317310630688
-0.06160225603055083
-0.02995752114346104
0.07578865425117093
0.1551609943274853
-0.1215236959651001
0.0816812631928284
-0.0431424309816743
0.04142670093613709
-0.01237947943385719
-0.01091052093048325
0.0294017483911505
0.08013163839630898
0.0260081664938126
0.02089508512874715
0.02841583335461824
0.03110490552675868
0.005549257604550091
0.02920890194559032
-0.001359284307948459
0.01750338855096659
-0.007717798699663433
-0.01883286725655322
-2.748495875337653e-14
0.03938276659728556
0.007944055773411571
0.05394765324766249
0.0001598151354244397
0.04121020011760111
-0.0005615042986311519
-0.00126187683068496
8.337774914934926e-14
0.08937658272268929
0.02960133333155517
0.09177267029011968
0.02206771906273131
0.07564318880679848
0.01706475474780976
0.02383070660629547
1.361966095458911e-13
0.09389689720450792
0.07890346758407371
0.05221508632071031
1.695310558602614e-13
-0.01883286725655483
-0.01750338855102979
-0.001261876830661368
-0.04121020011753876
0.02383070660633749
-0.07564318880662994
-0.05221508632036746
0.02886009948288036
-0.007717798699618424
-0.02920890194557502
-0.0005615042986401794
-0.05394765324763386
0.01706475474788618
-0.09177267029007398
-0.07890346758371752
0.03272108952452518
-0.001359284307928733
-0.03110490552672043
0.0001598151354891691
-0.03938276659726844
0.02206771906275337
-0.08937658272264691
-0.09389689720417746
0.04221015347098983
0.005549257604538439
-0.02841583335457532
0.007944055773426415
-0.02940174839110886
0.02960133333162183
-0.07578865425120307
-0.1038714832811635
0.05334319173636415
-0.1283921399823376
-0.07718703929575862
0.1464491964268692
-0.1597960994592169
-0.1145825149517368
0.2031601539421286
-0.2005944205639504
-0.1856126897986796
0.2602970275758716
-0.2658393530663977
-0.2443874399735644
0.3299497012939917
-0.07406317310631785
-0.02995752114345673
-0.1193189942478716
-0.06160225603049328
-0.192477578394814
-0.114218086456621
-0.2068209050807793
-0.2386959723108941
-0.04142670093606628
-0.01091052093048892
-0.08168126319269617
-0.01237947943385467
-0.1551609943273316
-0.04314243098163796
-0.1215236959651296
-0.2349661761168977
-0.02089508512876611
-0.02600816649382721
-0.08013163839630638
-0.1939311776194189
-0.1138928976079845
-0.06161186355403225
-0.02030693349675391
-0.08908477884012661
0.003002153746757885
-0.02861773019612301
-0.01236091555515127
0.007312328178518705
-0.1754180300286784
-0.1008023463282778
-0.1101248020872469
-0.1382236151869659
-0.03053173755450971
-0.09204001825362329
-0.04502914023933818
0.002678939654613854
-0.2017784357675156
-0.11605369827592
-0.1604360936356141
-0.1515846353028797
-0.08437827088966171
-0.1402530928997665
-0.1192501441651782
0.0004112440574018522
-0.2224819411668552
-0.1924803593814577
-0.1333441159046724
-0.01653873791937099
-0.002212748254840061
-0.0005806697985727104
-0.0004566580890664074
-0.0003594834437688835
-0.0007329882969329578
0.006545538135408695
0.00959511798588435
0.0004838030799492413
0.003303891991964434
-0.002957771599091455
0.005095855122739698
-0.005643170686374988
0.002178176721883445
0.001742096721117317
0.005650978302611027
-0.0002935067973319546
0.00385537228682946
-0.001419308802578116
0.00557907821037297
-0.006813381462894709
0.00235204924882023
-0.002227407187448752
0.0007896944884287702
-0.0007542039667980845
0.007070635562851856
0.007422879483927775
0.00309693946083033
-0.001450291023065391
-0.004105683262933809
0.01183362867740096
-0.03348420347101159
-0.01806359302212102
-0.2374485924725385
-0.2844961026800423
-1.24189331360735
-0.4322821554219647
-0.002075431688124137
0.006208821388125778
-0.01678520260916663
-0.002549251728388234
-0.1625259749335072
-0.1221451516713265
-0.9122665148213448
-0.4779602411633921
-0.003360648934289168
0.002124149270856801
-0.00989135593954818
0.008131051058402554
-0.08803998714984508
-0.03222699132647856
-0.4631101994153002
-0.540388953191266
-0.002526487662487567
0.005490434485816386
-0.02949214282813423
-0.4968670840478679
-0.3556877765508842
0.3324844218694073
-0.3274323401939806
0.149135523237567
-0.3157689749487531
0.05375811299677169
0.02735377678158724
-0.3094338349361209
-0.3714486796243786
0.2385103867028627
-0.343731460954439
0.133327670420156
-0.3292928352989857
0.03988267367597031
0.01672841038037842
-0.3229018821414736
-0.3809010900985854
0.07597806253972439
-0.343293613673152
0.09278131316332283
-0.3278825131793853
0.02159351700984991
0.006512210877818281
-0.3214460670415492
-0.4259941749452632
-0.3290132018680672
-0.3033866013710049
-0.2930736983282022
-0.3097572230683381
0.01041182538496532
-0.3103906796049476
0.008672890251012033
-0.310020203619664
0.009555638135846478
0.009510889122932187
-0.3071920308345656
-0.3229550921944541
0.002362438698838565
-0.3228695895388806
0.0006060812073959143
-0.3220741857632872
0.0007173038917008823
0.001449007368262478
-0.3170832680346704
-0.3212315508911559
-0.0008771219008896214
-0.3210945191080433
-0.002822888698148618
-0.3203253059676222
-0.003254568552255921
-0.001015587564499709
-0.3151450514694465
-0.2921760161824227
-0.2922409376997722
-0.2903198122265964
-0.2792848697126726
-0.2986852307219645
0.02945962583730066
-0.2884825037175276
0.0664085416925928
-0.2758633541584223
0.1020427905513661
0.1507339473611359
-0.24474468128732
-0.3038366056391177
0.01803655510490376
-0.285311548043401
0.04399234825527498
-0.2608712541205097
0.0695355847928657
0.1009767365130343
-0.2193401382440001
-0.2991505269606916
0.007293779260693856
-0.2675473964563063
0.01008169413122439
-0.2254745690340972
0.02370595176623846
0.06225956794325849
-0.1900189875407405
-0.2580972605228469
-0.2421702252073699
-0.2211413798770137
-0.1597396727381638
-0.2333284934232817
-0.08455995870380129
-0.2333281556330692
6.60955503273275e-07
-0.2333281556555253
-2.705614898790287e-09
1.541541161387272e-08
-0.2333282031383372
-0.2333283946023949
-0.086849969242909
-0.2333281543911307
4.201504629763875e-07
-0.2333281545058621
-6.880756797666976e-09
3.500275458367952e-08
-0.2333283120222186
-0.233328539763229
-0.06134132595932124
-0.2333281532789567
1.518283028190126e-07
-0.2333281535448302
-3.029780148988692e-09
1.185252250235358e-07
-0.2333285434485347
-0.2333285449618711
-0.23332817512049
-0.2333281482942218
-0.2333277373326793
-0.2333390394823389
-1.294947487295861e-06
-0.2336752344502528
-6.858185067204481e-05
-0.2359303811082207
-0.0005761276777905833
-0.0006638676953010236
-0.2407301247645069
-0.2333559376775682
2.827758353973753e-06
-0.2340130113755568
6.939505453301686e-05
-0.2371959392738033
0.0005309091195175863
0.002094517587819811
-0.242377397069512
-0.2333887003226583
2.186708407214688e-05
-0.2346410561301406
0.0005182042877036608
-0.2397889183369505
0.002926940129726885
0.005864975783415716
-0.2461102635493863
-0.2332778230769089
-0.2328621321287519
-0.2320581765943034