/*--------------------------------*- C++ -*----------------------------------*\
  =========                 |
  \\      /  F ield         | OpenFOAM: The Open Source CFD Toolbox
   \\    /   O peration     | Website:  https://openfoam.org
    \\  /    A nd           | Version:  11
     \\/     M anipulation  |
\*---------------------------------------------------------------------------*/
FoamFile
{
    format      ascii;
    class       volScalarField;
    location    "0.056";
    object      Ma;
}
// * * * * * * * * * * * * * * * * * * * * * * * * * * * * * * * * * * * * * //

dimensions      [0 0 0 0 0 0 0];

internalField   nonuniform List<scalar> 
880
(
1.443353270571932
1.443353270571932
1.443353270571932
1.443353274763203
1.443353270571932
1.443353270571932
1.443353270571934
1.443353448498629
1.443353270571932
1.443353270571933
1.443353270571932
1.443351204541392
1.443353270571932
1.443353270571932
1.443353270573443
1.443318149144638
1.443353270571932
1.443353270571932
1.443353270571933
1.443353270571808
1.443353270571932
1.443353270571932
1.443353270571935
1.443353270571932
1.443353270852668
1.443353267519843
1.443354896542401
1.443351922105933
1.441248285182976
1.43285154254223
1.425940794913998
1.424796878546625
1.443353269404585
1.443353268656059
1.443353268261516
1.443353269892077
1.443353237242193
1.443353233161228
1.443353230684405
1.443353225503342
1.443308391159217
1.443301910878375
1.443300074783797
1.443285064591825
1.423782124386285
1.423240559478805
1.423730664031788
1.417956540963415
1.430528476901908
1.442039574324814
1.447534353801344
1.446071665679189
1.443264946650253
1.443292014271464
1.443336343116642
1.443361034504552
1.443353161193223
1.443353194863059
1.443353249789538
1.443353277234596
1.443353263136802
1.443353263008304
1.443353265420468
1.443353268846004
1.443353270371768
1.443353270568916
1.443353270571932
1.443353270571932
1.443353273055231
1.443353270690853
1.443353270575196
1.443353270571471
1.443356151836041
1.443353422867768
1.443353271928369
1.4433532705631
1.443951507913798
1.443390702651713
1.443353716733723
1.44335326386204
1.443353262561641
1.443353270537068
1.443353270571842
1.443353270571932
1.44335326633593
1.443353270783444
1.443353270590262
1.443353270571825
1.44334987410959
1.443353053585258
1.443353263455138
1.443353270298416
1.444079940178079
1.443409827682515
1.443353387473262
1.443353270645737
1.443353271326714
1.443352986781758
1.443302437666503
1.389280197940987
1.443353267366063
1.443352994853982
1.443020970795045
1.320905485071936
1.443353259495568
1.443352878868194
1.442834457394176
1.300903577307553
1.443353255558269
1.4433527745574
1.442733363779837
1.297117779989016
1.290855897342222
1.442628270521175
1.443352644649375
1.44335325140735
1.285225860097944
1.442504820937645
1.443352483112735
1.44335324486458
1.276364054074073
1.442335172004706
1.443352233419356
1.44335323872124
1.269007015882749
1.442117549926701
1.443351907695173
1.443353220953532
1.443353225974383
1.443352060485232
1.442076820386915
1.259488859957
1.443353218464544
1.443351748616113
1.441898497401205
1.25727602991454
1.443353205287381
1.443351487903849
1.441817446032056
1.268708117038331
1.443353219257851
1.443352138023409
1.442327854593225
1.333656861994354
1.443353285375724
1.443359559859211
1.443882298639926
1.439778746469516
1.443353466695391
1.44335480880118
1.442550973715834
1.425971988836634
1.443353262116881
1.443341558677885
1.440172611477344
1.349528672312141
1.443353252024504
1.443325842682341
1.436324707957622
1.269666251514206
1.267094954487737
1.438788808197306
1.443342745698731
1.443353264068838
1.290172633597049
1.439377215977952
1.44334312152814
1.443353263065261
1.316441594834766
1.440877215487529
1.443348683271807
1.443353268172084
1.29741411028544
1.440091414249126
1.443346410392196
1.443353266122649
1.364618712262534
1.442222668760928
1.443351350382726
1.443353269234076
1.420847878680944
1.443195574640161
1.44335310484651
1.443353270476014
1.441501901298485
1.443350850703981
1.443353275785938
1.443353270581544
1.446314755732621
1.443377043422157
1.443353331031225
1.443353270596066
1.423792154661347
1.443045335004198
1.443351825759297
1.443353267733664
1.423878223005923
1.44304618205676
1.443351826849386
1.44335326771968
1.423889940749526
1.44304726654039
1.443351821962726
1.443353267627983
1.422924271321258
1.443045383506037
1.44335182133208
1.443353267485353
1.446314755737132
1.443377043425486
1.443353331036006
1.443353270592599
1.441501901303358
1.443350850708028
1.443353275795461
1.443353270580665
1.420847878680645
1.443195574638497
1.4433531048459
1.443353270476005
1.364618712256752
1.442222668751568
1.44335135038187
1.443353269236444
1.443353264062564
1.443342745685547
1.438788808193894
1.267094954483756
1.443353263060302
1.443343121527335
1.43937721597338
1.290172633595306
1.443353268177432
1.443348683266024
1.440877215487233
1.316441594825707
1.44335326612206
1.443346410389593
1.440091414241903
1.297414110288836
1.269666251520785
1.436324707963968
1.443325842690272
1.443353252027278
1.349528672317803
1.440172611483048
1.44334155868723
1.443353262127934
1.425971988836874
1.442550973723097
1.443354808801406
1.443353466701886
1.439778746467682
1.443882298642538
1.443359559861819
1.443353285363272
1.443353225977587
1.443352060478512
1.442076820383907
1.259488859951007
1.443353218463266
1.443351748612713
1.44189849740032
1.257276029914456
1.443353205281128
1.443351487903961
1.441817446037217
1.268708117038661
1.443353219247208
1.443352138023595
1.442327854596754
1.333656861995056
1.2690070158722
1.442117549932956
1.443351907685797
1.443353220954692
1.276364054066302
1.442335171989302
1.443352233418645
1.443353238719298
1.285225860102073
1.442504820927681
1.443352483102941
1.443353244866299
1.290855897333659
1.442628270535232
1.443352644650577
1.443353251409085
1.443353271321917
1.443352986774858
1.443302437667686
1.389280197948174
1.443353267370842
1.443352994860882
1.4430209707906
1.32090548507475
1.443353259498187
1.443352878867938
1.442834457392918
1.300903577301517
1.443353255561479
1.443352774555415
1.442733363780837
1.297117779991852
1.443353270646844
1.443353270296683
1.443353270571922
1.443353270571932
1.443353387481478
1.443353263456166
1.44335327058554
1.44335327057151
1.443409827680453
1.443353053581663
1.443353270786937
1.443353270538793
1.444079940177905
1.443349874109074
1.443353266335662
1.443353262561275
1.443353270571934
1.443353270571218
1.443353270560797
1.443353263860085
1.443353270571932
1.443353270576365
1.443353271918339
1.443353716733538
1.443353270568771
1.443353270690762
1.443353422874042
1.443390702650873
1.443353270370675
1.443353273056066
1.443356151828606
1.44395150791666
1.443353263143816
1.443353161199371
1.443264946654457
1.430528476903193
1.443353263014176
1.443353194862846
1.44329201427258
1.442039574329819
1.443353265422449
1.443353249781349
1.443336343118357
1.447534353802919
1.443353268847614
1.443353277230386
1.443361034504922
1.446071665684445
1.417956540960836
1.44328506457797
1.443353225507258
1.443353269895366
1.423730664033929
1.443300074768326
1.4433532306859
1.443353268259735
1.423240559469252
1.443301910873203
1.443353233160469
1.443353268658043
1.423782124388929
1.443308391186926
1.443353237243786
1.443353269402848
1.424796878543577
1.443351922100059
1.443353270571932
1.443353270571808
1.425940794915643
1.443354896551607
1.443353270571932
1.443353270571933
1.432851542538647
1.443353267522335
1.443353270571932
1.443353270571933
1.441248285183757
1.443353270852002
1.443353270571932
1.443353270571934
1.443353270571932
1.443353270571933
1.443353270571932
1.443353274632026
1.443353270571931
1.443353270571932
1.443353270571932
1.443353448517499
1.443353270571932
1.443353270571932
1.443353270571932
1.443351204563917
1.443353270571932
1.443353270571932
1.443353270572851
1.44331814915045
1.44335386108357
1.443354781300531
1.443356365165275
1.44316277659054
1.44335478122799
1.443359900866848
1.443377340829363
1.439915258264918
1.443356365190518
1.443377340832821
1.442378009294182
1.412073636842388
1.443162776559499
1.439915258276401
1.412073636856148
1.253019899344949
1.092151639182593
1.189716359018951
1.337839319920361
1.405318205629335
1.145973341006725
1.171687131512937
1.241443695776534
1.304302274025504
1.205308504723903
1.235464835420884
1.261204596892809
1.288804616635534
1.232579518591724
1.286499417385143
1.291574819965175
1.301648072470782
1.308004432184445
1.310734075774826
1.311613627527108
1.296157219184378
1.307757597873122
1.312969022894594
1.31417312853094
1.312054293877513
1.310955447811218
1.31797800587769
1.319083536531363
1.374337627528702
1.237325784800432
1.238667272201915
1.238964382421142
1.472531052598188
1.423285732421353
1.515120551069969
1.496180753583757
1.463169400309438
1.528877640373331
1.636107284045751
1.531245576408399
1.476722102274409
1.660244151208867
1.625793664874466
1.548083178189654
1.492951344453146
1.253641708025755
1.261492309318252
1.332710188578852
1.394579207594734
1.44673302103283
1.443610639695043
1.443358615856339
1.443353325093686
1.450930128668705
1.444002733657596
1.443369627553451
1.443353461885485
1.458177183665224
1.44493958879514
1.443397987432606
1.443353731193583
1.428880047912564
1.441696029070922
1.443323618376912
1.443352496406643
1.443353251351206
1.443353283383418
1.443352018006247
1.391048539246004
1.443353264197719
1.443353274982782
1.443352464061092
1.293594280782806
1.443353281272695
1.443353271642329
1.443353072046016
1.19591437128006
1.443353260688546
1.443353268658886
1.443352542961001
1.043582277554206
0.9165884436287679
0.9704825026840439
1.007035391215402
1.022692545418034
0.77486030405807
0.9211996325502513
1.003320029519839
1.032333866752589
0.6772464614962653
0.8737561098536346
0.9867806623787487
1.024028137611261
0.6053842446316764
0.7844622489932082
0.8723427652189382
0.91094877906491
1.024952212500799
1.024897441288835
1.023455484583442
1.023820817937409
1.037131734996077
1.037762127387597
1.037698550947389
1.03899746004324
1.02981967817984
1.030324652137371
1.030440373231581
1.031324246831231
0.9232021867870054
0.9239558232645465
0.9238075461163101
0.9210385714476761
1.016839620676237
1.020433632078959
1.049265380792999
1.111711757992559
1.036309742007529
1.041912045387884
1.074041003433622
1.160021846166668
1.031721397176518
1.038911662639854
1.087749716289985
1.429123955739659
0.9290296277608914
0.9361219064267066
1.051573717714945
1.915050956274506
1.366023290703126
1.281702605062247
0.4818560246416457
0.1799761416023798
1.338211225872291
1.10879196945383
0.3797240852557344
0.2938000451942314
1.453892084741228
0.9278888699121112
0.3831339536318918
0.2038690633446673
1.054656706375132
0.4353496346392941
0.3000928336070001
0.1894303818679808
0.1777493345975119
0.2112807938351488
0.26913692943485
0.2822535975341373
0.3134770730334965
0.2900444028314206
0.2566724191194705
0.4365158799251526
0.2019193801041591
0.2055018690179038
0.3446854292483435
0.5721083786282162
0.1814930636867262
0.2124002123471975
0.37849024449684
0.6680396840778513
1.242233493323012
1.368803654286265
1.44543571683605
1.484641070779373
0.8701186579881682
1.188426117705739
1.384595166241477
1.504527787287449
0.3798476900709322
0.8078154597187315
1.198899345483664
1.603785219267844
0.2776306322601579
0.5752395932967886
0.9910643406247787
1.945959174385114
1.620412871013836
1.846233753745104
1.42778913729966
1.093421933729687
1.846154119837734
2.498763488276134
2.145182531138648
1.277879759509229
2.02161850165829
2.526865881408657
2.153314071790372
1.256524646509128
1.529698334676987
1.564444542128668
1.485317907666817
0.9035901868990807
0.6207549246551891
0.5965182593525379
0.565244553166169
0.2555627328717761
0.9590456333911945
0.9159865740367167
0.857288565586582
0.438118507340342
0.9920315254708714
0.8586859090223291
0.6265926299653761
0.1821685213747832
0.8682044911575633
0.7124918782177158
0.5694832516470564
0.4984360304480141
0.2555627328740104
0.4381185073408662
0.1821685213740502
0.498436030445254
0.5652445531668102
0.8572885655877106
0.6265926299651084
0.5694832516473222
0.5965182593528593
0.9159865740367161
0.8586859090243337
0.7124918782191921
0.6207549246541525
0.9590456333897822
0.9920315254723031
0.868204491159107
1.093421933730647
1.427789137302236
1.846233753750322
1.620412871022799
1.277879759510982
2.145182531131902
2.498763488276373
1.846154119842221
1.256524646507709
2.153314071787716
2.526865881412015
2.021618501660656
0.9035901868975204
1.485317907665632
1.564444542129033
1.529698334676741
1.945959174386882
0.9910643406248871
0.57523959329664
0.2776306322589047
1.603785219271134
1.198899345486869
0.8078154597195313
0.3798476900697667
1.504527787290995
1.384595166246693
1.188426117706259
0.8701186579853675
1.484641070783373
1.445435716840344
1.368803654286321
1.242233493317755
0.2822535975320807
0.2691369294300089
0.2112807938342475
0.1777493345971035
0.4365158799233666
0.2566724191193219
0.2900444028308633
0.3134770730316655
0.5721083786278169
0.3446854292478219
0.2055018690164076
0.2019193801008836
0.6680396840780569
0.378490244498253
0.2124002123463722
0.1814930636851248
0.1799761416053176
0.48185602464261
1.281702605053566
1.366023290702967
0.2938000451847012
0.3797240852559028
1.108791969449718
1.338211225876636
0.2038690633339844
0.3831339536286059
0.9278888699076702
1.453892084745172
0.1894303818623687
0.3000928336057935
0.4353496346360825
1.05465670637704
1.111711757993586
1.049265380792277
1.020433632077949
1.016839620671945
1.160021846168402
1.074041003433221
1.041912045386064
1.036309742003843
1.429123955742255
1.087749716290184
1.038911662638422
1.031721397174904
1.915050956278107
1.051573717717825
0.9361219064312516
0.9290296277668917
1.023820817932385
1.023455484580455
1.02489744129018
1.024952212496005
1.03899746004045
1.037698550944591
1.037762127387367
1.037131734993685
1.031324246830666
1.030440373229725
1.030324652136951
1.029819678179432
0.921038571453487
0.9238075461178551
0.923955823264912
0.9232021867904204
1.022692545420025
1.007035391212153
0.970482502686187
0.9165884436303714
1.032333866754069
1.003320029517463
0.9211996325522042
0.7748603040585913
1.024028137612297
0.9867806623770174
0.8737561098548773
0.6772464614964911
0.9109487790651001
0.8723427652198048
0.7844622489937823
0.6053842446308287
1.391048539245882
1.443352018008746
1.443353283384779
1.443353251350401
1.293594280782681
1.443352464062017
1.443353274983714
1.443353264197281
1.195914371279745
1.443353072046237
1.443353271642745
1.443353281272498
1.043582277553701
1.443352542961688
1.443353268658968
1.443353260688503
1.44335332509225
1.443358615853877
1.443610639694912
1.446733021037533
1.443353461884094
1.443369627547691
1.444002733663093
1.450930128666194
1.443353731192252
1.44339798742465
1.444939588804526
1.458177183659535
1.443352496407408
1.443323618375785
1.441696029073974
1.428880047915333
1.463169400315036
1.496180753584765
1.515120551074887
1.4232857324216
1.476722102279572
1.531245576408207
1.636107284048987
1.528877640374354
1.492951344458081
1.548083178189114
1.625793664876969
1.660244151210382
1.394579207591054
1.332710188580434
1.261492309319977
1.253641708026731
1.296157219183728
1.311613627527019
1.310734075771596
1.308004432183599
1.312054293880039
1.314173128529928
1.312969022892833
1.307757597871312
1.374337627533755
1.319083536531395
1.317978005878624
1.310955447810455
1.472531052605384
1.238964382428987
1.238667272209005
1.237325784795696
1.301648072468381
1.288804616637423
1.304302274022661
1.40531820563049
1.291574819963801
1.261204596893788
1.241443695775966
1.337839319921891
1.28649941738276
1.23546483542329
1.171687131513759
1.189716359017878
1.232579518597734
1.205308504730499
1.145973341007468
1.092151639184419
1.442414310911876
1.443321756908206
1.443353129250948
1.443353270315947
1.437536580966502
1.443261341288062
1.443352865975869
1.443353269778777
1.426227830195576
1.443148561000576
1.443352385704956
1.443353268729298
1.415889197882695
1.443007719922752
1.443351787017546
1.443353267496198
1.443353267730044
1.443351825761121
1.443045335004003
1.423792154660209
1.443353267716877
1.443351826844987
1.443046182062083
1.423878223002676
1.443353267631624
1.443351821957452
1.443047266542851
1.423889940755685
1.443353267496402
1.443351821326055
1.443045383525403
1.4229242713251
1.443353267497284
1.443353268731338
1.443353269790449
1.443353270328657
1.443351787016821
1.443352385704973
1.443352865978353
1.443353129257559
1.4430077199178
1.443148561005765
1.443261341281725
1.443321756913792
1.415889197890023
1.426227830200692
1.437536580964421
1.442414310912444
)
;

boundaryField
{
    back
    {
        type            empty;
    }
    inlet
    {
        type            calculated;
        value           nonuniform List<scalar> 
16
(
1.443353270571932
1.443353270571932
1.443353270571932
1.443353270571932
1.443353270571932
1.443353270571932
1.443353270571932
1.443353270571808
1.443353270571807
1.443353270571932
1.443353270571932
1.443353270571933
1.443353270571932
1.443353270571932
1.443353270571932
1.443353270571932
)
;
    }
    front
    {
        type            empty;
    }
    top
    {
        type            calculated;
        value           uniform 0;
    }
    outlet
    {
        type            calculated;
        value           nonuniform List<scalar> 
16
(
1.443353266727139
1.443353266709291
1.443353266573929
1.44335326637551
1.443353270210188
1.443353269481372
1.443353268058345
1.443353266384926
1.443353266724807
1.443353266707432
1.443353266576234
1.443353266382654
1.443353266385638
1.44335326805951
1.443353269488792
1.443353270218447
)
;
    }
    bottom
    {
        type            calculated;
        value           uniform 0;
    }
    wall
    {
        type            calculated;
        value           uniform 0;
    }
}


// ************************************************************************* //
