/*--------------------------------*- C++ -*----------------------------------*\
  =========                 |
  \\      /  F ield         | OpenFOAM: The Open Source CFD Toolbox
   \\    /   O peration     | Website:  https://openfoam.org
    \\  /    A nd           | Version:  11
     \\/     M anipulation  |
\*---------------------------------------------------------------------------*/
FoamFile
{
    format      ascii;
    class       volVectorField;
    location    "8.45";
    object      U;
}
// * * * * * * * * * * * * * * * * * * * * * * * * * * * * * * * * * * * * * //

dimensions      [0 1 -1 0 0 0 0];

internalField   nonuniform List<vector> 
4455
(
(99.972805 -0.36759751 0)
(99.926817 -0.89491399 -1.8629606e-18)
(99.671306 -1.3374678 6.3979505e-18)
(99.407178 -1.3953555 2.305254e-20)
(98.912736 -1.563692 6.0596673e-18)
(98.475932 -1.5281527 -2.2774277e-17)
(97.664964 -1.3872681 1.0117521e-17)
(96.717629 -1.1254562 0)
(95.053092 0.048387297 -6.1705378e-17)
(99.958512 -0.33405271 -1.2277652e-17)
(99.896603 -0.82362936 1.1974577e-17)
(99.675067 -1.1590651 -1.4712029e-17)
(99.356897 -1.2605519 2.4486917e-17)
(98.93618 -1.4436627 -4.6915244e-17)
(98.369772 -1.3995023 5.1222334e-17)
(97.469942 -1.3616227 -4.8900842e-18)
(96.483539 -1.1283151 7.1326971e-18)
(94.517499 -0.69676463 2.6841571e-16)
(99.9488 -0.29945623 -1.3017834e-17)
(99.880461 -0.72268907 1.6413424e-17)
(99.664239 -1.017047 1.4385592e-17)
(99.381224 -1.0893533 -1.4301752e-17)
(98.870242 -1.2854824 6.2899675e-17)
(98.353982 -1.0883939 -3.5383151e-17)
(97.329563 -1.0517538 4.5673089e-18)
(96.340061 -0.88553219 -1.012235e-16)
(94.44329 -0.11972255 -1.9011192e-16)
(99.940311 -0.26216753 -1.2157533e-19)
(99.882435 -0.61780912 -1.6594962e-18)
(99.662648 -0.89384108 3.451198e-17)
(99.374514 -0.8940904 4.7013403e-18)
(98.839189 -1.0660142 2.058098e-19)
(98.310185 -0.83772824 -6.8380177e-18)
(97.318861 -0.67347059 7.5959038e-17)
(96.070545 -0.47737002 2.0285834e-16)
(93.852717 0.74878064 1.5920102e-16)
(99.936307 -0.22873684 2.5168183e-17)
(99.887694 -0.51633224 -2.8121097e-17)
(99.662818 -0.74995259 3.6036831e-17)
(99.372025 -0.71945907 1.7553117e-20)
(98.840185 -0.88634815 -4.336758e-17)
(98.271782 -0.56983107 -1.3320399e-17)
(97.282765 -0.42421945 -5.9861316e-17)
(96.053267 -0.14787881 -9.5543201e-17)
(93.527709 1.1135593 -4.708795e-16)
(99.938275 -0.19519389 0)
(99.888743 -0.42234686 0)
(99.682485 -0.60469147 -6.2577116e-17)
(99.393096 -0.57063266 -7.2160216e-17)
(98.850818 -0.66023236 0)
(98.282844 -0.28037006 -9.6954219e-17)
(97.199745 -0.027154203 -8.1982237e-18)
(95.748192 0.30904265 -5.7443111e-18)
(92.860099 1.8568086 5.8328785e-16)
(99.943127 -0.16292652 0)
(99.89092 -0.33375377 -1.7105764e-18)
(99.693304 -0.47771751 1.9253334e-18)
(99.416239 -0.43432454 7.0520578e-17)
(98.854084 -0.49912555 -5.198488e-18)
(98.335109 -0.039763855 2.0684212e-16)
(97.24129 0.20174886 0)
(95.786236 0.74443671 0)
(92.4479 2.3988816 2.7048019e-16)
(99.950026 -0.13030859 4.8575094e-17)
(99.897794 -0.2594305 0)
(99.711556 -0.36228615 0)
(99.458199 -0.26727732 0)
(98.922048 -0.27752425 0)
(98.326407 0.24034682 -1.0345915e-16)
(97.204613 0.61549506 -1.1122285e-16)
(95.541472 1.2729902 1.6000966e-16)
(91.765905 3.3450704 4.0304056e-18)
(99.959522 -0.10138014 -4.783253e-17)
(99.909254 -0.19077956 -1.659122e-18)
(99.736648 -0.26781921 -1.8641898e-18)
(99.498759 -0.17123459 4.2350994e-18)
(98.949613 -0.11337398 1.6311695e-16)
(98.447831 0.4474334 1.8372005e-16)
(97.285241 0.803423 3.5502142e-16)
(95.563396 1.8423732 -1.5707608e-16)
(91.328743 3.8996677 -4.6577088e-16)
(99.966826 -0.077939058 0)
(99.974064 -0.057156671 8.9820219e-17)
(99.978352 -0.040594694 -8.9089507e-17)
(99.981825 -0.027156777 8.5778697e-17)
(99.986186 -0.017743371 -8.370436e-17)
(99.989822 -0.011845519 1.677324e-16)
(99.991633 -0.010705666 -1.6237487e-16)
(99.990041 -0.012482842 0)
(99.99164 -0.019134886 0)
(99.92257 -0.12825522 0)
(99.935871 -0.082622355 1.5496708e-18)
(99.951007 -0.044443088 0)
(99.964828 -0.019689891 4.4215511e-18)
(99.978312 -0.0002074824 9.0460853e-17)
(99.993529 0.013212822 -2.7059269e-16)
(100.00347 0.0189061 1.7531341e-16)
(100.02039 0.029179449 -2.6785561e-18)
(100.02925 0.033001222 1.6982077e-16)
(99.760932 -0.17500548 1.1171754e-16)
(99.780971 -0.0963329 -2.2042372e-16)
(99.806225 -0.033359044 2.1109423e-16)
(99.83699 0.021497131 -6.3590722e-18)
(99.862898 0.060829798 -1.0002705e-16)
(99.898465 0.09604966 -3.0505438e-18)
(99.917568 0.1097049 0)
(99.94226 0.11493803 5.7763995e-18)
(99.937224 0.091406642 -2.818957e-18)
(99.542471 -0.033144253 1.163809e-16)
(99.604903 0.092181648 -2.3672602e-16)
(99.648027 0.18559818 2.2598959e-16)
(99.719047 0.28199126 -1.096561e-16)
(99.759007 0.34883401 -6.8918569e-18)
(99.837237 0.41799069 3.3375251e-18)
(99.879216 0.46457038 0)
(99.994087 0.54653171 -3.1574465e-18)
(100.03536 0.51140628 1.9027039e-16)
(99.011094 0.082789837 -1.3098262e-16)
(99.061965 0.32555944 0)
(99.150668 0.4917963 -1.2243693e-16)
(99.227883 0.65910282 1.2622808e-16)
(99.305169 0.78504696 -1.1466136e-16)
(99.399866 0.90774096 1.1845998e-16)
(99.437928 0.97650646 0)
(99.552698 1.0580544 0)
(99.551067 1.0053477 6.7220485e-18)
(98.412073 0.74650737 -1.6024856e-16)
(98.618468 1.0593661 -1.5434058e-16)
(98.610437 1.3653352 1.4835777e-16)
(98.855681 1.6501975 1.4306123e-16)
(98.915015 1.9022918 -1.3791025e-16)
(99.209626 2.1926008 0)
(99.32596 2.3454023 2.5690409e-16)
(99.605768 2.7096686 -2.9251709e-19)
(99.719362 2.6728114 -4.8041128e-16)
(97.260051 1.2236543 -1.8828507e-16)
(97.354202 1.681146 0)
(97.344369 2.0686623 0)
(97.483946 2.531014 5.2361635e-18)
(97.552555 2.8634239 0)
(97.734051 3.3171395 0)
(97.84779 3.555542 0)
(98.114572 3.9579279 0)
(98.214774 3.9854748 0)
(95.388821 2.4083923 7.3149116e-18)
(95.558285 3.6103811 0)
(95.535516 4.3170457 6.6283891e-18)
(95.950158 5.5405908 -1.2388311e-17)
(96.27511 6.0689726 -1.8767346e-16)
(96.965887 7.0568132 -1.7877369e-16)
(97.567493 7.3631865 3.4238441e-16)
(98.123354 8.4371974 3.321589e-16)
(98.708626 8.4344591 -3.1434581e-16)
(90.472711 5.003344 8.8405504e-16)
(90.040183 7.0711506 -5.4642014e-16)
(89.810819 8.3650192 5.157454e-16)
(90.422121 10.137764 -4.8542142e-16)
(90.99046 11.249439 -6.9338877e-16)
(92.015016 12.893136 1.3062043e-15)
(92.615798 14.030562 -8.2546971e-16)
(93.707416 15.639787 -3.9331131e-16)
(94.636377 15.873809 3.7002595e-16)
(99.985658 -0.045137344 -2.2375935e-19)
(99.994093 -0.057784937 2.2982704e-16)
(100.00758 -0.067498558 -1.8143889e-20)
(100.02329 -0.076930501 -2.3158358e-16)
(100.04199 -0.084993692 2.2689014e-19)
(100.06622 -0.090446723 2.3337539e-16)
(100.09751 -0.093296798 -2.3451491e-16)
(100.13859 -0.094078359 -2.2955971e-19)
(100.19524 -0.089544104 -1.1828673e-16)
(100.06874 0.049308359 -2.4391776e-16)
(100.07547 0.092247346 2.4608121e-16)
(100.1267 0.11960525 -2.4613794e-16)
(100.1256 0.18241454 0)
(100.1787 0.21443086 2.4910426e-16)
(100.18695 0.30021064 5.0098084e-19)
(100.26765 0.33150951 7.2243007e-19)
(100.30274 0.45248104 -2.5107234e-16)
(100.43312 0.48070127 1.2668298e-16)
(99.95858 0.12311302 2.6153883e-16)
(99.945988 0.18013399 -2.6162837e-16)
(99.996242 0.21660958 -2.6393133e-16)
(100.00053 0.32265736 2.6465307e-16)
(100.10921 0.37454175 -2.6758002e-16)
(100.12958 0.52825201 2.6679762e-16)
(100.27923 0.58465808 -2.7012808e-16)
(100.3157 0.77282173 -5.3302925e-19)
(100.50029 0.82659618 2.7096084e-16)
(100.17841 0.65666575 -2.7799503e-16)
(100.1499 0.88197199 -1.0978988e-18)
(100.27552 1.0187456 1.1082524e-18)
(100.24298 1.2552426 0)
(100.32057 1.3781967 -5.0286447e-21)
(100.41227 1.61963 -2.8582051e-16)
(100.41127 1.825258 2.9041331e-16)
(100.63509 2.042422 1.1365465e-18)
(100.63864 2.3173654 1.1425075e-18)
(99.69964 1.1719787 -1.1785081e-18)
(99.651783 1.4194471 -3.0493869e-16)
(99.838758 1.5633423 -1.4140041e-18)
(99.817193 1.8552822 3.0811462e-16)
(100.07113 2.0107202 3.1121175e-16)
(100.07602 2.3658344 -3.1289893e-16)
(100.39047 2.5322157 -1.219094e-18)
(100.41303 2.9321796 -1.225576e-18)
(100.75927 3.0832729 -1.2320475e-18)
(100.01001 3.018537 3.2884081e-16)
(99.984669 3.5507519 0)
(100.20472 3.8318192 0)
(100.11326 4.2904008 3.3386863e-16)
(100.34166 4.5555694 -3.3828554e-16)
(100.28353 5.0418015 -3.4065726e-16)
(100.60645 5.3089866 6.8263974e-16)
(100.60109 5.838491 2.0973346e-20)
(100.98011 6.1050871 -6.9068596e-16)
(98.52357 4.3183738 -1.4392604e-18)
(98.722953 4.8295651 0)
(99.031841 5.1025351 1.4542353e-18)
(99.265941 5.6238255 3.7437442e-16)
(99.668051 5.8999903 -3.7665671e-16)
(99.951767 6.4086081 3.7886156e-16)
(100.36182 6.6404198 -3.7969248e-16)
(100.63343 7.0775119 -1.4886752e-18)
(101.06028 7.2493716 3.8457352e-16)
(99.20484 9.4814451 -4.0505824e-16)
(99.513318 10.283442 4.1063835e-16)
(99.771301 10.883847 -4.138266e-16)
(100.13142 11.432455 4.1171283e-16)
(100.50853 11.840628 -4.1089605e-16)
(100.88934 12.229279 -3.2993937e-19)
(101.26952 12.51063 4.1676747e-16)
(101.68536 12.804127 3.2616509e-18)
(102.06161 12.989948 2.0867075e-16)
(96.123791 16.162246 0)
(96.907557 15.795709 -4.5630985e-16)
(98.219188 15.670476 4.1832139e-18)
(98.797767 15.129156 5.8121018e-18)
(100.0887 14.665587 9.0891114e-16)
(101.08147 13.90071 -4.5424933e-16)
(102.70946 13.734817 -4.5474293e-16)
(103.59844 13.410093 4.5645407e-16)
(104.70021 13.128959 2.3142203e-16)
(105.2698 12.077355 -2.7046916e-16)
(105.96107 11.114002 0)
(106.27856 10.08563 2.7386105e-16)
(106.58619 9.4718985 -2.7382886e-16)
(106.23928 8.6180993 0)
(105.95765 7.9948301 0)
(104.99507 7.5287087 0)
(104.32051 7.4536703 -2.9157627e-16)
(103.02607 7.6726154 2.9157431e-16)
(102.43199 13.192579 -2.3768095e-16)
(102.8002 13.356212 0)
(103.06002 13.391061 0)
(103.34281 13.414209 0)
(103.52651 13.343219 0)
(103.59292 13.389555 0)
(103.54517 13.407744 0)
(103.48199 13.512744 2.3953664e-16)
(103.2478 13.625929 -4.8224616e-16)
(101.2727 7.6121159 2.0574768e-19)
(101.68448 7.9582713 -4.2305853e-16)
(101.83204 8.2697554 0)
(102.25545 8.5775141 -2.1206126e-16)
(102.37807 8.8272819 2.1206105e-16)
(102.75959 9.0934607 0)
(102.81745 9.3503967 0)
(103.14307 9.6251362 0)
(103.09827 9.9188077 0)
(101.00844 6.6280302 3.7166116e-16)
(101.41411 6.9632452 0)
(101.45542 7.4822517 1.8580276e-16)
(101.85299 7.7785004 -3.7164065e-16)
(101.93437 8.3075279 1.8583419e-16)
(102.31647 8.5933878 0)
(102.4304 9.1480627 0)
(102.81853 9.4366335 0)
(102.92331 9.9977012 1.8607922e-16)
(100.78441 3.5110762 0)
(101.166 3.6994179 3.3503225e-16)
(101.20932 4.1681469 -5.0255204e-16)
(101.6411 4.3590405 1.6752869e-16)
(101.70613 4.8673762 1.6748927e-16)
(102.19079 5.06937 -3.5406766e-20)
(102.26168 5.6055571 -3.3493991e-16)
(102.77327 5.8197576 3.3488078e-16)
(102.83973 6.3778012 -1.6740964e-16)
(100.93234 2.5528514 0)
(100.96777 2.8382884 1.5149694e-16)
(101.23991 3.1943113 -1.5149693e-16)
(101.36201 3.3951555 0)
(101.64129 3.7982479 -3.0271267e-16)
(101.80369 4.0245304 3.0277579e-16)
(102.15357 4.4638123 1.5120004e-16)
(102.35533 4.687984 -3.0223367e-16)
(102.74389 5.1744777 1.5105566e-16)
(100.55397 1.0513296 0)
(100.78872 1.1188488 0)
(100.86806 1.3960355 0)
(101.1795 1.4755377 -1.3909155e-16)
(101.27463 1.8003215 2.7818975e-16)
(101.65449 1.9278964 -2.7805817e-16)
(101.76671 2.2295804 1.3899084e-16)
(102.20028 2.4536342 -1.3875697e-16)
(102.36308 2.7055661 2.7736763e-16)
(100.49151 0.63206032 -2.569534e-16)
(100.67176 0.66550052 5.2172222e-20)
(100.75253 0.8474869 1.284806e-16)
(100.96988 0.87856595 -1.2835269e-16)
(101.0979 1.0913718 1.2831404e-16)
(101.37862 1.0897908 0)
(101.54163 1.3462499 1.2802439e-16)
(101.90963 1.3745557 -2.5591932e-16)
(102.10499 1.5958694 1.2785098e-16)
(100.23507 -0.067601523 2.6733509e-20)
(100.33089 -0.087064185 1.1971807e-16)
(100.40383 -0.013450955 1.1974926e-16)
(100.57477 0.0092438754 -1.1974928e-16)
(100.66838 0.067398544 0)
(100.88148 0.10242651 0)
(100.9987 0.16763703 -1.1948835e-16)
(101.25881 0.20038123 2.3887847e-16)
(101.42281 0.28902105 -1.1940727e-16)
(101.77491 0.33317807 0)
(102.0009 0.43097812 -1.1892575e-16)
(102.45106 0.51068011 2.2983628e-19)
(102.73954 0.61199371 2.6691282e-19)
(103.27288 0.69273826 3.092866e-19)
(103.66392 0.82475636 1.181197e-16)
(104.27728 0.91284365 1.1735647e-16)
(104.76764 1.0516638 -1.1735647e-16)
(105.50412 1.1510801 0)
(102.56123 1.636444 0)
(102.81646 1.9271315 0)
(103.35494 1.9403374 -1.2695966e-16)
(103.6495 2.2182645 3.3259081e-19)
(104.31686 2.3151195 3.7093457e-19)
(104.6721 2.6244003 1.2627261e-16)
(105.3922 2.6454009 1.2538096e-16)
(105.904 3.0630679 -1.2538093e-16)
(106.62957 3.0784033 0)
(102.81336 3.0732778 -1.3860649e-16)
(103.11294 3.2512824 0)
(103.48108 3.7334124 0)
(104.014 3.8584286 -1.3770939e-16)
(104.26114 4.4548842 2.7499093e-16)
(104.97892 4.5657726 -3.763126e-19)
(105.23544 5.1599373 -4.2621689e-19)
(106.03663 5.3961512 -1.3659616e-16)
(106.34615 5.9527326 0)
(102.98617 5.3966343 -1.5077229e-16)
(103.44481 5.852857 1.5077225e-16)
(103.67688 6.1232837 0)
(104.21685 6.6079787 0)
(104.50631 6.8757756 1.4983566e-16)
(105.09018 7.4250407 -1.4983564e-16)
(105.39579 7.760876 1.4912606e-16)
(106.1342 8.2720964 -7.4778813e-17)
(106.39888 8.8040785 -7.4339089e-17)
(103.3788 6.6144949 -1.6735519e-16)
(103.4422 7.216087 1.673551e-16)
(104.02516 7.4890206 0)
(104.08894 8.1622076 0)
(104.67568 8.4600971 0)
(104.82297 9.2631575 0)
(105.2967 9.5910672 0)
(105.62252 10.498231 0)
(106.00423 10.911432 0)
(103.30058 10.291484 -1.860783e-16)
(103.40901 10.895862 1.863504e-16)
(103.75698 11.193205 -1.863486e-16)
(103.84859 11.857501 1.867345e-16)
(104.17446 12.207539 -1.8672065e-16)
(104.21979 12.953412 0)
(104.61922 13.364698 0)
(104.6089 14.182657 0)
(105.08413 14.667733 0)
(103.357 10.244008 0)
(103.22232 10.574574 -2.1555036e-16)
(103.45034 10.965293 2.1551611e-16)
(103.22161 11.346158 0)
(103.44393 11.850392 2.1821403e-16)
(103.10787 12.302791 -2.1824737e-16)
(103.32077 12.957121 0)
(102.82966 13.516989 1.1061662e-16)
(103.06916 14.309638 -2.2163569e-16)
(103.14265 13.902465 2.4239147e-16)
(102.78184 14.141815 2.4598992e-16)
(102.63986 14.474963 -2.4598079e-16)
(102.13608 14.757089 2.5017025e-16)
(101.89975 15.112709 -5.0236464e-16)
(101.19681 15.501513 5.0700695e-16)
(100.85335 15.88739 -5.1200653e-16)
(99.984651 16.381692 2.5722387e-16)
(99.617615 16.898181 0)
(102.3587 7.7626995 -3.0016869e-16)
(101.24162 7.7574448 3.0017123e-16)
(100.63507 7.506239 0)
(99.368458 7.2166518 0)
(98.611554 6.7300265 0)
(97.318487 6.4189518 0)
(96.465182 6.2718003 0)
(95.186822 6.50765 -1.6608901e-16)
(94.140698 7.0466255 1.6608345e-16)
(92.633307 7.9603661 1.7090268e-16)
(98.581963 17.674957 0)
(102.43339 15.044457 1.1107191e-16)
(105.03211 15.598992 0)
(106.43406 11.902198 0)
(107.28042 9.2742378 0)
(107.26195 6.2474695 6.7484748e-17)
(107.31872 3.5053586 6.1786437e-17)
(106.10565 1.3071237 5.7861318e-17)
(91.57399 9.1114405 -1.7089994e-16)
(98.239021 18.495392 0)
(102.76531 15.957149 0)
(105.52284 16.142929 9.3857203e-17)
(106.8707 12.369596 0)
(107.58093 9.9066032 -7.3478053e-17)
(107.62 6.8522838 -1.3463338e-16)
(108.05613 3.5909231 -1.2319199e-16)
(106.96141 1.4208936 -1.1536913e-16)
(89.607105 10.464294 0)
(97.036819 19.676812 0)
(102.09317 16.918045 1.1236174e-16)
(105.50273 17.238767 -9.3859416e-17)
(107.23593 13.504896 0)
(108.58998 10.491208 7.347804e-17)
(108.65612 7.2064568 6.7145304e-17)
(108.9641 3.977608 6.1405546e-17)
(107.70287 1.5851853 5.75078e-17)
(88.768958 11.734669 1.7787836e-16)
(96.82299 20.725032 0)
(102.51283 17.920446 -2.2509414e-16)
(106.04904 17.859714 0)
(107.92359 13.982398 0)
(108.97579 11.094606 -7.2652493e-17)
(109.08896 7.8224353 -6.6320412e-17)
(109.70033 4.1693738 0)
(108.68164 1.7227991 -5.6654332e-17)
(86.633639 12.847616 -1.7787813e-16)
(95.584007 22.113519 -1.3683285e-16)
(101.83266 19.124638 1.1271353e-16)
(106.06605 19.148106 0)
(108.20174 15.222797 0)
(110.07909 11.890267 7.2652466e-17)
(110.26912 8.2377997 6.6320383e-17)
(110.81391 4.5505495 0)
(109.58016 1.8891417 5.6654324e-17)
(85.874138 14.400635 0)
(95.508566 23.307397 1.3679706e-16)
(102.32339 20.203907 -1.1314219e-16)
(106.70147 19.83292 0)
(109.04488 15.703503 0)
(110.61049 12.422994 -7.1576727e-17)
(110.77978 8.8897962 -6.5274988e-17)
(111.59258 4.8000193 0)
(110.69723 2.0379475 -5.5580035e-17)
(83.619436 15.762482 0)
(94.279755 25.008057 0)
(101.65481 21.735806 1.1314206e-16)
(106.79319 21.315793 -4.6405226e-17)
(109.45745 17.077762 -4.0649928e-17)
(111.80226 13.369789 1.0704194e-16)
(112.11813 9.3444699 9.7601835e-17)
(112.90998 5.1576364 0)
(111.74406 2.2168905 8.3055769e-17)
(82.996565 18.217672 0)
(94.331871 26.34786 -6.9263751e-17)
(102.27935 22.886125 0)
(107.60674 22.042144 4.6390072e-17)
(110.27522 17.575914 4.0634801e-17)
(112.43992 13.918176 -3.6434976e-19)
(112.72814 10.06182 -6.4310273e-17)
(113.75227 5.5172039 0)
(113.01024 2.3743835 -2.7475738e-17)
(80.486893 20.41114 -9.309072e-17)
(93.255582 28.553602 6.9246702e-17)
(101.73287 24.921452 0)
(107.80147 23.775545 0)
(110.99595 19.130617 0)
(113.80533 14.961173 -6.9792083e-17)
(114.23267 10.462685 3.9312584e-19)
(115.25263 5.828385 0)
(114.20716 2.5490795 0)
(115.81802 2.7159538 0)
(116.16262 6.2882816 0)
(115.00832 11.300154 -1.512633e-18)
(114.49876 15.514103 3.6403707e-17)
(111.81049 19.550321 0)
(108.8148 24.389996 -5.8367572e-18)
(102.68888 25.876409 -6.1025571e-19)
(93.64393 30.098618 -5.7669514e-17)
(80.425317 22.989557 1.7393015e-16)
(117.34009 2.8373126 -1.3074592e-17)
(117.86743 6.3706678 -1.786973e-18)
(116.73336 11.443583 1.5887263e-17)
(116.04037 16.356172 -7.2194206e-20)
(112.97176 20.907475 -1.7018738e-17)
(109.26988 26.095651 2.2122708e-17)
(102.72213 28.045665 -7.1256737e-18)
(93.057536 32.905213 7.4878337e-17)
(79.481435 27.698993 -8.8758782e-17)
(118.89873 2.9372283 2.6145448e-17)
(118.88378 6.8574866 0)
(117.66291 12.292605 3.0908761e-17)
(116.94021 16.777922 -1.6814364e-17)
(114.0963 21.232345 1.7196584e-17)
(110.62007 26.602357 -4.1861735e-17)
(104.44412 28.820298 -3.4265056e-17)
(94.862813 34.229744 1.7065512e-17)
(82.361399 29.654775 1.8134556e-18)
(120.56356 3.0325043 -1.3087825e-17)
(120.78124 6.8993203 -1.7612993e-18)
(119.65461 12.42318 -1.3604927e-17)
(118.62306 17.815551 1.9214834e-17)
(115.5073 22.748793 7.2525379e-18)
(111.5167 28.484251 2.2479536e-17)
(104.9512 31.155108 2.7618792e-17)
(95.041235 36.927586 9.027918e-18)
(82.581485 33.986962 -1.0336608e-17)
(122.34571 3.1305028 3.1462791e-18)
(121.99863 7.3313142 -3.403093e-18)
(120.71496 13.204866 -1.9157478e-18)
(119.82362 17.960118 6.220092e-18)
(116.94018 22.869793 -7.3016357e-18)
(113.08243 28.86589 -8.2023471e-18)
(107.10059 31.749697 -7.127398e-18)
(97.240749 37.944275 8.0500157e-18)
(85.353126 35.71865 -1.199545e-17)
(124.22316 3.225261 -3.183165e-18)
(124.04504 7.4062496 3.4440109e-18)
(122.94105 13.330359 -1.8940846e-18)
(121.56507 19.204354 -9.8294077e-21)
(118.57783 24.450757 -2.3339094e-18)
(114.27316 30.811956 5.5764348e-18)
(107.88971 34.205 -7.0975967e-18)
(97.749128 40.617726 8.0341635e-18)
(85.899034 39.847122 0)
(126.18044 3.3087659 -3.025028e-18)
(125.44584 7.8062651 -1.6933996e-18)
(124.11845 14.000101 -1.815455e-18)
(123.13202 19.054665 -2.1065803e-18)
(120.12155 24.455574 -2.3604765e-18)
(116.04962 31.044681 5.7539474e-18)
(110.21702 34.656944 -1.3490262e-17)
(100.1245 41.455727 1.6966109e-17)
(88.659176 41.068212 -1.0363989e-17)
(128.20995 3.3751847 8.9641878e-18)
(127.64537 7.8814958 6.4636622e-18)
(126.5603 14.18851 9.0123743e-18)
(124.85645 20.333021 9.950933e-18)
(122.08857 25.979909 7.1328443e-18)
(117.39156 33.036143 -2.6473593e-18)
(111.27786 37.199561 -6.9936577e-18)
(100.96043 44.253879 -9.6251213e-19)
(89.395509 44.678226 -1.1428942e-17)
(130.31405 3.4186304 -1.7452333e-17)
(129.18425 8.2091747 -6.5442602e-18)
(127.84346 14.574049 -2.3058598e-17)
(126.74758 20.080267 -6.1032091e-18)
(123.6823 25.90803 1.5730635e-17)
(119.53264 32.993478 8.2256022e-18)
(113.71817 37.406297 -3.923641e-17)
(103.51046 44.842067 7.8939675e-18)
(92.276523 45.357284 2.2365064e-17)
(93.373074 48.520966 -2.1956237e-17)
(104.70215 47.600059 8.7858576e-18)
(115.15333 39.900499 5.8373893e-17)
(121.04307 35.024054 -8.0910199e-18)
(125.90552 27.34442 3.8435852e-18)
(128.62716 21.213011 1.1334963e-17)
(130.4745 14.811802 1.5958769e-17)
(131.50551 8.2252371 -7.7744909e-19)
(132.48636 3.4384931 2.3444524e-17)
(96.330078 48.924221 8.6070101e-17)
(107.35624 47.839274 7.7064747e-18)
(117.70262 39.799833 -8.3133339e-17)
(123.39296 34.651814 -2.5158102e-18)
(127.65311 27.048006 -1.5751615e-17)
(130.496 20.875254 -1.3612602e-17)
(131.85948 14.9723 -2.8260977e-17)
(133.15341 8.5537166 0)
(134.72218 3.4298078 -1.1244058e-17)
(97.554139 51.943822 -1.1028272e-16)
(108.8479 50.412257 7.8082708e-17)
(119.48136 42.165525 4.4764203e-17)
(125.26583 36.636707 -2.4577061e-18)
(130.07862 28.433001 3.3756771e-17)
(132.88792 21.86033 7.5296713e-20)
(134.65432 15.190655 4.5194566e-18)
(135.57402 8.487785 2.160252e-17)
(137.00839 3.3942346 2.0533935e-17)
(100.51802 52.189798 -2.1545831e-17)
(111.59327 50.297309 1.3058255e-17)
(122.10957 41.746187 -6.4356309e-18)
(127.6149 35.987436 0)
(131.948 27.856945 -3.4233829e-17)
(134.47669 21.401709 0)
(136.15374 15.161567 2.4488644e-17)
(137.30319 8.7038927 -4.4202539e-17)
(139.32954 3.331616 -1.1931744e-18)
(102.0805 55.298858 -9.9045605e-18)
(113.39493 52.720761 -6.1127248e-17)
(124.21487 43.963054 6.2673147e-18)
(129.896 37.797687 0)
(134.62111 29.099602 -3.3419364e-17)
(137.31929 22.090029 2.6955021e-17)
(138.99066 15.171506 1.5515725e-18)
(139.78427 8.5914901 4.38626e-17)
(141.66241 3.2362165 -1.9818552e-17)
(105.11843 55.399612 -9.4398322e-17)
(116.27587 52.27827 -5.0351039e-17)
(126.89228 43.231185 -5.7092209e-19)
(132.20892 36.896899 -4.8273301e-18)
(136.5331 28.270568 -7.4054239e-20)
(138.8691 21.61419 -5.3009421e-17)
(140.593 14.955188 1.4870073e-18)
(141.54333 8.6985547 -2.160964e-17)
(143.99115 3.1015434 0)
(107.11836 58.599326 6.4948732e-17)
(118.41985 54.655069 7.3786718e-17)
(129.32182 45.283655 -5.5670628e-19)
(134.81262 38.489663 -4.6394458e-18)
(139.44043 29.307208 2.8930875e-17)
(141.79963 22.028522 2.7820709e-17)
(143.48447 14.895642 1.3777232e-18)
(144.08003 8.5193256 -1.2624173e-18)
(146.29449 2.9277499 0)
(110.26817 58.380331 0)
(121.52926 53.896526 -6.5997685e-18)
(132.00098 44.223025 5.6264827e-18)
(137.09421 37.300553 -6.2687118e-17)
(141.3322 28.236212 -1.8173119e-18)
(143.42544 21.215049 4.5102896e-17)
(145.03483 14.354409 -3.9372351e-17)
(145.79411 8.4368161 3.6378045e-17)
(148.54764 2.712943 3.0556771e-17)
(112.79233 61.469152 1.4687146e-16)
(123.84912 56.14665 1.1542945e-16)
(134.78196 46.094016 -5.363962e-18)
(140.01919 38.669601 6.6099011e-17)
(144.46037 28.991756 -1.636276e-18)
(146.3807 21.641433 -4.590154e-17)
(147.91719 14.209778 4.2568141e-17)
(148.35329 8.193911 -3.8010433e-17)
(150.72755 2.4494253 -2.614965e-18)
(152.83697 2.1040752 -2.8071713e-17)
(149.96865 7.8988333 3.0764229e-17)
(149.45418 13.398058 0)
(148.1141 20.334857 -2.6500694e-18)
(146.30438 27.570204 4.8604392e-17)
(142.23663 37.075745 5.3161194e-17)
(137.46775 44.515771 0)
(127.63387 55.22241 -8.5409998e-18)
(116.26112 60.685718 -1.4352835e-16)
(154.68165 1.721976 0)
(152.56259 7.4671079 -3.1827429e-17)
(152.26096 12.985125 0)
(150.97396 20.417343 -2.4699283e-18)
(149.73619 27.912071 -8.6486704e-17)
(145.72621 38.015066 -5.8047379e-17)
(141.04908 46.066891 6.6255516e-17)
(130.6645 57.131916 -8.587917e-17)
(120.28945 63.943723 1.0743554e-16)
(156.42873 1.3039505 0)
(154.01447 6.8988459 0)
(153.72363 11.942636 -2.9698879e-17)
(152.86667 18.754987 0)
(151.68817 26.04393 4.3458167e-17)
(148.05595 35.881823 -4.5299679e-17)
(143.72426 43.905224 -6.0378635e-17)
(135.0407 55.701038 -4.5440495e-18)
(124.45541 62.129126 -2.2896757e-17)
(157.9937 0.88519938 0)
(156.41373 6.4121204 0)
(156.31953 11.327289 3.0315385e-17)
(155.49831 18.592366 2.8756417e-17)
(154.92289 26.062066 3.5404287e-17)
(151.6479 36.496165 4.9271275e-17)
(147.51487 44.989442 0)
(138.11432 56.786715 6.4015669e-17)
(129.57145 64.890506 -1.1889218e-16)
(159.34339 0.47638626 3.0630321e-19)
(157.57554 5.7100685 -3.3663296e-19)
(157.67915 10.044379 0)
(157.33204 16.598067 -3.6898677e-18)
(156.83445 23.816054 -7.0491499e-17)
(153.9395 34.002155 2.4314243e-18)
(150.16655 42.385604 4.8291225e-17)
(142.20399 54.835671 -7.0768699e-17)
(134.11462 62.125668 9.0827555e-17)
(160.46742 0.076734292 -2.7298051e-19)
(159.68427 5.1151642 3.0050488e-19)
(159.97735 9.3766523 0)
(159.54139 16.176466 -3.0227882e-17)
(159.85955 23.412177 3.6561221e-17)
(157.43285 34.147955 -2.1613977e-18)
(153.67604 43.01015 -4.9947205e-17)
(145.03559 55.119154 0)
(140.39733 64.25839 -8.9036983e-17)
(161.34974 -0.30553684 2.4133152e-19)
(160.53905 4.2590003 1.694885e-17)
(160.99777 7.795754 -6.5897522e-19)
(161.26447 13.941885 2.1207902e-17)
(161.48324 20.805538 2.6489874e-17)
(159.76021 31.221312 0)
(156.60126 40.212703 0)
(148.2685 52.620112 -5.1409542e-17)
(145.49034 60.493366 0)
(161.99707 -0.69910622 0)
(162.20275 3.5816468 -1.7572083e-17)
(162.99943 7.1465256 0)
(163.1093 13.331312 -2.3815229e-17)
(164.20831 20.088347 -2.4006338e-17)
(162.87349 30.870747 2.2021771e-17)
(159.8465 40.497467 0)
(150.40859 52.202445 5.566416e-17)
(151.69656 61.551359 -1.3634145e-17)
(162.34297 -0.87292391 0)
(162.65429 2.6728003 0)
(163.54574 5.3851056 -5.0304083e-19)
(164.29065 10.804875 -5.7043829e-19)
(165.56952 16.426275 1.2642964e-18)
(165.49758 27.02819 -2.2731418e-17)
(164.18126 36.618217 0)
(152.79222 48.60686 0)
(156.02124 57.242889 1.1578658e-17)
(162.56385 -1.3338691 -3.1624859e-19)
(163.86798 1.9659289 -2.7915859e-20)
(165.24526 4.7592785 1.2095627e-17)
(165.87462 10.432198 0)
(167.39708 16.973324 0)
(167.50562 26.930958 -8.2311993e-19)
(166.19818 38.917088 -8.5932957e-18)
(153.36968 51.225781 1.0071503e-18)
(160.31037 56.615005 0)
(162.42379 -1.5337843 -2.6491865e-19)
(164.08902 1.4147936 -1.1817879e-20)
(165.63271 3.9499958 -1.094666e-17)
(167.19988 9.5416338 0)
(168.81855 16.150488 0)
(169.8192 27.783048 2.7088939e-19)
(168.61543 40.841525 -1.1570862e-19)
(153.10198 52.762544 -8.0616111e-19)
(154.98236 54.341818 -6.1794469e-17)
(162.10687 -1.7547408 0)
(164.81999 0.49861737 1.4960384e-17)
(166.98287 3.1185773 0)
(168.87375 9.0352761 4.4858162e-19)
(170.54023 16.487394 -4.8974875e-19)
(171.50903 27.699824 2.1651608e-19)
(172.04887 42.624546 3.6473866e-17)
(149.85162 55.544365 5.8094472e-19)
(138.87032 52.337179 5.8761816e-17)
(161.57348 -1.9852711 1.1642481e-17)
(164.69021 -0.19472261 -1.4280139e-17)
(167.04982 2.208298 1.0540892e-17)
(169.74225 7.5348362 6.2146192e-18)
(172.44617 15.358573 -3.328752e-18)
(173.38326 27.977092 -7.5710828e-18)
(174.61266 43.954536 -2.7889218e-17)
(144.86334 55.269714 7.5077863e-17)
(118.55047 60.145886 0)
(160.798 -2.2158593 -2.2463988e-17)
(165.2054 -1.3582813 9.5361251e-18)
(168.06847 1.1620252 -1.0196965e-17)
(172.01052 6.9986491 -5.2848969e-18)
(174.17894 15.158206 2.9632414e-18)
(175.17654 27.769906 -8.6363463e-18)
(176.14075 45.641916 0)
(139.41818 60.754691 -7.1518536e-17)
(85.492618 70.525193 0)
(159.76341 -2.440999 2.1107729e-17)
(164.84039 -2.2212371 -9.1054403e-18)
(168.04215 0.32796065 5.0425613e-18)
(172.36401 4.9737022 -7.5590356e-19)
(176.19992 13.681024 4.2259333e-19)
(177.27158 27.883621 1.5575189e-17)
(175.8487 48.508696 -5.9529169e-17)
(128.95174 60.01067 3.9629056e-17)
(33.061367 26.045979 3.2748022e-17)
(158.49465 -2.6596733 -1.0427088e-17)
(165.091 -3.6072414 2.1348388e-19)
(168.36323 -1.2904305 -4.9056341e-18)
(174.41181 3.9827387 -3.2253245e-19)
(177.95446 13.30516 3.4793433e-19)
(178.9488 27.732174 3.4283856e-17)
(173.91104 49.014298 1.2396567e-16)
(105.37257 53.329657 -3.7892115e-17)
(-5.581619 4.4964366 -3.1042734e-17)
(156.99609 -2.8636523 -1.1951952e-19)
(164.22247 -4.475206 1.2878718e-19)
(168.40559 -2.1311898 1.2407546e-18)
(174.77624 1.8203437 -1.2163853e-17)
(179.84841 11.533371 2.5015606e-17)
(180.55121 27.147427 -7.5919006e-17)
(169.76474 50.025198 -1.3552897e-16)
(77.561197 47.46625 1.319854e-17)
(-6.4594551 11.410816 4.8761325e-17)
(155.32178 -3.0654704 1.1613057e-17)
(164.03855 -5.799912 -3.8117152e-20)
(168.19291 -3.8025957 -1.1633094e-18)
(175.94933 0.49200872 1.1796081e-17)
(181.30268 10.892271 -2.3105864e-17)
(181.35814 26.858623 4.197317e-17)
(161.26658 50.106338 6.6934917e-17)
(48.381454 32.78759 -1.3208571e-17)
(-14.215778 14.661624 -4.644835e-17)
(-16.745789 13.773002 -9.7518607e-17)
(26.491992 24.176422 -3.4040802e-19)
(154.32017 51.58454 1.3400707e-18)
(181.4639 25.906889 -1.1464061e-18)
(182.76643 8.9891411 0)
(176.22296 -1.5256643 1.480107e-19)
(167.96594 -4.8133011 7.9791841e-19)
(162.68808 -6.6347574 -4.6069294e-18)
(153.45695 -3.2240008 -2.4111901e-17)
(-19.191236 13.462558 9.4198359e-17)
(13.329931 17.834718 0)
(147.25287 50.308701 0)
(182.57298 23.937627 1.6293171e-16)
(183.61058 7.0400335 0)
(176.788 -3.4013952 -4.2032364e-17)
(167.24446 -6.7521479 -3.940906e-18)
(162.00589 -7.9178446 4.4169697e-18)
(151.49783 -3.3197353 -1.5029701e-17)
(-21.251467 12.612156 5.2494664e-19)
(2.7223939 17.694441 -4.2273574e-19)
(138.11971 50.273078 0)
(182.0723 22.906709 -1.5936982e-16)
(184.58415 5.1801837 0)
(176.619 -5.4244545 4.1478106e-17)
(166.65639 -7.7379068 2.9166263e-18)
(160.25418 -8.598018 -1.0895789e-19)
(149.45604 -3.349112 2.7249075e-17)
(-21.909045 12.495078 2.1575251e-16)
(-0.54248716 22.162907 -7.4726076e-17)
(131.10636 47.743513 9.2878157e-19)
(182.49689 20.49798 0)
(184.89143 3.0185537 -1.0642818e-16)
(176.66685 -7.5212636 0)
(165.78077 -9.5891933 3.8081164e-20)
(159.05148 -9.8734429 -1.2540536e-19)
(147.29326 -3.3302339 8.2442023e-20)
(-22.94796 13.349966 -2.0757881e-16)
(0.62664172 31.671663 -2.1065756e-17)
(122.0256 47.699861 2.0353995e-16)
(181.34114 19.433783 -1.432767e-18)
(185.37612 0.95335597 -7.0375991e-18)
(176.13971 -9.5873743 0)
(164.4926 -10.852946 -2.4454447e-18)
(156.98155 -10.320332 0)
(145.0004 -3.3022949 0)
(-22.35062 14.409203 6.8037326e-19)
(1.6552981 39.391719 8.7768869e-17)
(116.32385 45.422872 -4.068548e-16)
(180.93737 16.802034 2.1934343e-16)
(185.285 -1.2955675 1.0945728e-16)
(175.95969 -11.559248 4.8267325e-17)
(163.62855 -12.351181 2.2969571e-18)
(155.34243 -11.540176 -1.7398112e-19)