/*--------------------------------*- C++ -*----------------------------------*\
  =========                 |
  \\      /  F ield         | OpenFOAM: The Open Source CFD Toolbox
   \\    /   O peration     | Website:  https://openfoam.org
    \\  /    A nd           | Version:  11
     \\/     M anipulation  |
\*---------------------------------------------------------------------------*/
FoamFile
{
    format      ascii;
    class       surfaceScalarField;
    location    "4.3";
    object      phi;
}
// * * * * * * * * * * * * * * * * * * * * * * * * * * * * * * * * * * * * * //

dimensions      [0 3 -1 0 0 0 0];

internalField   nonuniform List<scalar> 
10792
(
0.068312129
-0.041777468
-0.068796712
0.042262051
0.067723529
-0.039614422
0.040203022
0.067197099
-0.037349203
0.037875633
0.066446734
-0.035149827
0.035900192
0.065670691
-0.032623676
0.033399718
0.064938911
-0.030467023
0.031198803
0.064165867
-0.027791234
0.028564278
0.063306049
-0.02537835
0.026238169
0.062490196
-0.022657153
0.023473006
0.061832631
-0.02020577
0.020863335
0.061026604
-0.017427287
0.018233314
0.06045449
-0.014807616
0.015379731
0.059803871
-0.012059776
0.012710395
0.059258599
-0.0092804464
0.0098257187
0.058700446
-0.0064329718
0.0069911252
0.058236902
-0.0036180023
0.0040815467
0.057989606
-0.00072474502
0.00097204089
0.057775402
0.0021467227
-0.0019325184
0.0051491126
0.057674657
-0.0050483675
0.072629712
-0.04129647
-0.07311071
0.07203638
-0.039021091
0.071393172
-0.036705995
0.070603106
-0.034359761
0.069909777
-0.031930346
0.06911714
-0.029674386
0.068268071
-0.026942165
0.067478895
-0.024589174
0.066759055
-0.021937313
0.066036711
-0.019483426
0.065288189
-0.016678765
0.064684332
-0.014203759
0.063968786
-0.01134423
0.063421705
-0.0087333655
0.062892351
-0.0059036177
0.062514157
-0.0032398078
0.062192721
-0.00040330866
0.061889019
0.0024504248
0.0052813805
0.061756751
0.077054299
-0.040655225
-0.077695543
0.076546411
-0.038513203
0.075897787
-0.036057371
0.075180597
-0.033642571
0.074526113
-0.031275862
0.073658713
-0.028806987
0.072917078
-0.02620053
0.072229903
-0.023901999
0.071459665
-0.021167075
0.07072942
-0.018753181
0.0699838
-0.015933145
0.0692604
-0.013480359
0.068566228
-0.010650057
0.068015798
-0.0081829355
0.067487799
-0.0053756189
0.067066791
-0.0028187994
0.066692982
-2.950005e-05
0.066422897
0.0027205101
0.0054637539
0.066240524
0.082076928
-0.040201975
-0.082530178
0.081499237
-0.037935511
0.080708636
-0.03526677
0.080100407
-0.033034342
0.079281011
-0.030456465
0.078413509
-0.027939485
0.077755285
-0.025542306
0.076877603
-0.023024317
0.076085382
-0.020374853
0.075265412
-0.017933212
0.074498725
-0.015166458
0.073848208
-0.012829841
0.07319483
-0.0099966796
0.072688307
-0.0076764122
0.072178345
-0.0048656568
0.071805347
-0.0024458006
0.071454502
0.00032134503
0.071252992
0.0029220195
0.0056220648
0.071094682
0.087138154
-0.039574052
-0.087766077
0.086456227
-0.037253584
0.085833066
-0.034643609
0.085116789
-0.032318065
0.084318672
-0.029658348
0.083697406
-0.02731822
0.082891213
-0.024736112
0.082023889
-0.022156994
0.081289773
-0.019640737
0.080483991
-0.017127429
0.079858351
-0.014540818
0.079156906
-0.012128396
0.078552235
-0.0093920087
0.077970426
-0.0070946026
0.077488781
-0.0043840118
0.077127377
-0.0020843964
0.076761347
0.00068737436
0.076581066
0.0031023007
0.0058033087
0.076399823
0.092883176
-0.038923139
-0.09353409
0.092202074
-0.036572482
0.091452484
-0.033894019
0.090754658
-0.031620238
0.090049145
-0.028952835
0.089226423
-0.026495497
0.088303771
-0.02381346
0.087569683
-0.021422905
0.086814657
-0.018885711
0.086049544
-0.016362317
0.085320619
-0.013811893
0.084541696
-0.011349473
0.083964517
-0.0088148292
0.083356956
-0.0064870418
0.082927593
-0.0039546486
0.082457467
-0.0016142704
0.082217345
0.00092749636
0.081961835
0.0033578106
0.0058949798
0.081870164
0.098647021
-0.038242528
-0.099327632
0.097983139
-0.035908599
0.097288837
-0.033199717
0.09655249
-0.030883891
0.09572315
-0.028123495
0.094977527
-0.025749875
0.094242409
-0.023078343
0.093545078
-0.020725574
0.092730018
-0.01807065
0.091985426
-0.015617724
0.091276098
-0.013102565
0.090599668
-0.010673044
0.09001889
-0.008234051
0.089416781
-0.0058849326
0.088995117
-0.0035329842
0.088569265
-0.0011884186
0.088299664
0.0011970968
0.088060094
0.0035973811
0.005906404
0.08804867
0.10553705
-0.037413354
-0.10636622
0.10465469
-0.035026236
0.10389609
-0.03244112
0.10307229
-0.030060096
0.1023034
-0.027354597
0.10157568
-0.025022163
0.10072109
-0.022223753
0.099870557
-0.019875036
0.098975413
-0.017175506
0.098235555
-0.014877866
0.097485709
-0.012352719
0.096799821
-0.0099871559
0.096188326
-0.0076225562
0.095591647
-0.0052882531
0.095095483
-0.0030368199
0.094654361
-0.00074729651
0.094385762
0.0014656962
0.09414418
0.003838963
0.0059165334
0.09413405
0.11203659
-0.036724065
-0.11272588
0.1112642
-0.034253841
0.11046503
-0.031641953
0.10964571
-0.02924078
0.10888859
-0.026597471
0.10807962
-0.0242132
0.10734768
-0.021491808
0.1066489
-0.019176254
0.10587684
-0.016403446
0.10516173
-0.014162759
0.10437372
-0.011564711
0.10376508
-0.0093785128
0.10308586
-0.0069433396
0.10255975
-0.0047621442
0.10204324
-0.0025203014
0.10164846
-0.00035252501
0.10138232
0.0017318409
0.10123354
0.0039877465
0.0058723858
0.10127768
0.12013812
-0.035900763
-0.12096142
0.11922981
-0.033345529
0.11838282
-0.030794961
0.1174421
-0.028300061
0.11654943
-0.025704807
0.11562819
-0.023291959
0.11477489
-0.020638505
0.11385168
-0.018253043
0.11302164
-0.015573409
0.11220401
-0.013345129
0.11138884
-0.010749534
0.11071358
-0.0087032609
0.11002016
-0.0062499171
0.10954596
-0.0042879438
0.1090173
-0.0019916389
0.10873535
-7.0575522e-05
0.10838639
0.0020807961
0.10832513
0.0040490069
0.0059198369
0.10827768
0.12761792
-0.034931507
-0.12858718
0.1266444
-0.032372003
0.12577844
-0.029929006
0.12485095
-0.027372572
0.12405818
-0.024912034
0.1231092
-0.022342981
0.12229121
-0.019820516
0.12145129
-0.017413117
0.12075204
-0.014874162
0.11997939
-0.012572483
0.11934847
-0.010118609
0.11873764
-0.0080924267
0.11820478
-0.0057170597
0.11773336
-0.0038165258
0.11725158
-0.0015098553
0.1169527
0.00022830253
0.11657036
0.0024631391
0.116514
0.0041053629
0.0060555881
0.11637825
0.13684977
-0.033906863
-0.13787441
0.13584964
-0.031371877
0.1348255
-0.028904862
0.13378121
-0.026328283
0.13280525
-0.023936068
0.13184276
-0.0213805
0.13097848
-0.018956232
0.13001552
-0.016450159
0.1291432
-0.014001837
0.12822507
-0.01165436
0.1275144
-0.0094079369
0.12671057
-0.0072885899
0.12616772
-0.0051742166
0.12561283
-0.003261633
0.12526019
-0.0011572152
0.12490621
0.00058228699
0.12472721
0.0026421373
0.12465192
0.0041806466
0.0060943828
0.12461313
0.1455273
-0.032762336
-0.14667182
0.14453997
-0.030384555
0.14350916
-0.027874045
0.14256188
-0.025381007
0.14158993
-0.022964121
0.14063039
-0.020420958
0.13980181
-0.018127654
0.13898778
-0.015636127
0.1382399
-0.013253959
0.13746859
-0.010883042
0.1367456
-0.0086849477
0.13595517
-0.0064981591
0.1353836
-0.0046026491
0.13477744
-0.0026554692
0.13444297
-0.00082275407
0.1340718
0.00095346349
0.13400665
0.0027072903
0.13390033
0.0042869612
0.0059153051
0.13407941
0.15606655
-0.031452556
-0.15737633
0.15485292
-0.029170925
0.1536917
-0.026712816
0.15267931
-0.024368624
0.15155186
-0.02183667
0.15046171
-0.019330805
0.1493217
-0.016987643
0.14834185
-0.014656283
0.14751707
-0.012429175
0.14681013
-0.010176104
0.14616141
-0.0080362265
0.14551035
-0.0058470979
0.14496524
-0.0040575409
0.1444078
-0.0020980292
0.14403924
-0.00045419499
0.14371408
0.0012786275
0.14361431
0.0028070593
0.14351954
0.0043817345
0.0056823147
0.14375253
0.16614219
-0.030272819
-0.16732193
0.16497783
-0.028006558
0.16388321
-0.025618195
0.16289557
-0.023380988
0.16198222
-0.020923321
0.16113524
-0.018483822
0.16013625
-0.01598866
0.15912237
-0.013642404
0.15808135
-0.011388148
0.15720947
-0.0093042231
0.15642628
-0.0072530401
0.155821
-0.0052418172
0.1552495
-0.0034860443
0.15471613
-0.0015646588
0.15431439
-5.2455041e-05
0.15400835
0.0015846772
0.15386799
0.0029474132
0.15387674
0.0043729812
0.0054537678
0.15410529
0.17833398
-0.028955906
-0.1796509
0.17682435
-0.026496921
0.17541757
-0.024211422
0.17403155
-0.021994964
0.17287955
-0.019771325
0.17192031
-0.017524583
0.17104452
-0.015112861
0.17018999
-0.012787876
0.1692991
-0.010497264
0.16845259
-0.0084577062
0.16761794
-0.006418398
0.1669305
-0.0045543685
0.16628977
-0.0028453192
0.16583944
-0.0011143264
0.16544701
0.00033997046
0.16522095
0.0018107455
0.16510816
0.0030601995
0.16521566
0.0042654822
0.0052218769
0.16544755
0.18997315
-0.027773375
-0.19115568
0.18874115
-0.025264915
0.18768993
-0.023160203
0.18639891
-0.020703948
0.18520345
-0.01857586
0.183942
-0.016263133
0.18290408
-0.014074943
0.18193689
-0.011820687
0.18108727
-0.0096476473
0.18025676
-0.0076271948
0.17949748
-0.0056591136
0.17882394
-0.0038808278
0.17819872
-0.0022201032
0.17772802
-0.00064362573
0.17729503
0.0007729606
0.17705172
0.0020540589
0.1769198
0.0031921146
0.17699431
0.0041909765
0.0050366144
0.17717957
0.20329171
-0.026070113
-0.20499497
0.20174991
-0.023723112
0.20035879
-0.02176909
0.19910802
-0.019453176
0.19797444
-0.017442285
0.19677607
-0.015064762
0.19571337
-0.013012239
0.19466355
-0.010770864
0.193804
-0.0087880974
0.19296577
-0.006788966
0.1922814
-0.0049747435
0.19162393
-0.0032233601
0.19109751
-0.001693688
0.19065758
-0.00020369098
0.19031735
0.001113187
0.19013734
0.0022340706
0.19011401
0.0032154464
0.19025599
0.0040489947
0.0047708298
0.19052178
0.21732352
-0.02435677
-0.21903686
0.21581957
-0.02221917
0.21425051
-0.020200026
0.21289455
-0.018097215
0.21153837
-0.016086104
0.21039435
-0.013920745
0.20932128
-0.011939171
0.20832811
-0.0097776939
0.2074692
-0.0079291825
0.20662777
-0.0059475355
0.20594242
-0.0042893925
0.20529378
-0.0025747253
0.2047764
-0.0011763105
0.2043667
0.00020601656
0.20406444
0.0014154475
0.20385517
0.002443334
0.203789
0.0032816204
0.20388562
0.0039523783
0.0044858491
0.2041706
0.23256921
-0.022635617
-0.23429036
0.23101346
-0.020663421
0.22953027
-0.01871683
0.22813096
-0.016697906
0.22672098
-0.014676122
0.22545954
-0.012659311
0.22421195
-0.010691583
0.22317919
-0.0087449328
0.22218465
-0.006934642
0.2213811
-0.0051439819
0.220663
-0.0035712964
0.22010973
-0.002021455
0.21966256
-0.00072914093
0.21930212
0.00056645756
0.21909628
0.0016212916
0.2189993
0.0025403119
0.21903166
0.0032492625
0.2192203
0.0037637371
0.0041188118
0.21958734
0.2487185
-0.020521815
-0.2508323
0.2468019
-0.018746818
0.24514767
-0.017062604
0.24370498
-0.015255216
0.24240522
-0.01337636
0.2411992
-0.011453292
0.24006031
-0.0095526882
0.23903045
-0.0077150751
0.23805214
-0.0059563331
0.23725463
-0.004346475
0.2364887
-0.0028053616
0.23589388
-0.001426632
0.23537542
-0.00021068106
0.23508066
0.00086121745
0.23483542
0.0018665277
0.23475528
0.0026204534
0.2347954
0.0032091405
0.23497799
0.0035811454
0.0037686028
0.2353282
0.26670392
-0.018303921
-0.26892182
0.26465
-0.016692892
0.26271756
-0.015130168
0.26092284
-0.013460491
0.25937948
-0.011833004
0.25801113
-0.010084936
0.25683996
-0.008381523
0.25581849
-0.0066936029
0.25494221
-0.0050800554
0.25418805
-0.0035923152
0.25360199
-0.0022192979
0.25313933
-0.00096397738
0.25274393
0.00018472005
0.25251942
0.0010857315
0.2524464
0.0019395486
0.25249055
0.0025762972
0.252608
0.0030916909
0.25287896
0.0033101863
0.0034052675
0.2532423
0.28593004
-0.015598555
-0.28863541
0.28358303
-0.014345883
0.28147548
-0.013022612
0.27958413
-0.011569146
0.27786847
-0.010117338
0.27637353
-0.0085899957
0.27503813
-0.0070461279
0.27394454
-0.0056000073
0.27301592
-0.0041514371
0.27218811
-0.002764509
0.27155559
-0.0015867748
0.27109546
-0.00050384762
0.27088368
0.00039650335
0.27075552
0.0012138913
0.27082247
0.0018725973
0.2709803
0.002418467
0.27125785
0.0028141352
0.27163285
0.0029351878
0.0029557523
0.27208237
0.3069984
-0.012369806
-0.31022715
0.30412432
-0.011471803
0.30157585
-0.010474146
0.2993948
-0.0093880902
0.29755752
-0.0082800604
0.29596642
-0.0069988961
0.2946911
-0.0057708077
0.29360191
-0.0045108207
0.29276854
-0.0033180686
0.29214441
-0.0021403777
0.29164671
-0.0010890739
0.29125703
-0.00011416193
0.29099034
0.0006631907
0.29092491
0.0012793244
0.29100714
0.001790364
0.29124676
0.0021788508
0.2916409
0.0024199962
0.2921133
0.0024627817
0.0023929126
0.29267614
0.33063237
-0.0087308249
-0.33427135
0.32726934
-0.008108765
0.32420252
-0.0074073334
0.32148507
-0.0066706373
0.31912691
-0.0059219022
0.31711321
-0.0049851959
0.31546436
-0.0041219558
0.31413254
-0.003178998
0.31314284
-0.0023283695
0.31249102
-0.0014885585
0.31212812
-0.00072617112
0.31210304
-8.908876e-05
0.31222549
0.00054074815
0.31246407
0.0010407367
0.31280762
0.0014468143
0.31324989
0.0017365852
0.31375682
0.0019130621
0.31433614
0.0018834622
0.0017841376
0.31494492
0.35583322
-0.0046146797
-0.35994936
0.35203044
-0.0043059921
0.34856957
-0.00394646
0.3454774
-0.0035784705
0.34271557
-0.0031600669
0.34042818
-0.002697806
0.33853601
-0.0022297862
0.33709809
-0.001741073
0.33604555
-0.0012758326
0.33538761
-0.00083061678
0.3350588
-0.00039736766
0.33497759
-7.8794542e-06
0.33524464
0.00027370657
0.33571931
0.00056606769
0.33636033
0.00080579119
0.33704841
0.001048503
0.33778463
0.0011768435
0.33859902
0.0010690743
0.0011204572
0.3392627
0.38385321
-0.38846789
0.37954721
0.37560075
0.37202228
0.36886222
0.36616441
0.36393462
0.36219355
0.36091772
0.3600871
0.35968973
0.35968186
0.35995556
0.36052163
0.36132742
0.36237592
0.36355277
0.36462184
0.3657423
0.057401268
0.0083949352
-0.0081215467
0.057287334
0.011402842
-0.011288908
0.057357309
0.014417009
-0.014486984
0.05749205
0.017536219
-0.017670961
0.057826984
0.020598236
-0.02093317
0.058368159
0.023663969
-0.024205143
0.059015835
0.026946505
-0.027594181
0.05985931
0.030155649
-0.030999125
0.060747216
0.033447709
-0.034335615
0.061751344
0.036775681
-0.037779808
0.06283081
0.04004361
-0.041123076
0.063975216
0.043448754
-0.044593161
0.065175571
0.046801673
-0.048002029
0.066423397
0.050238343
-0.051486168
0.067667097
0.053738154
-0.054981854
0.068889294
0.057379658
-0.058601855
0.070021418
0.061113225
-0.062245349
0.071026391
0.064962198
-0.065967171
0.068846917
0.071896934
-0.06971746
0.061462444
0.0086892421
0.06141431
0.011450977
0.061585464
0.014245855
0.061945873
0.01717581
0.062424494
0.020119615
0.063100006
0.022988458
0.063869707
0.026176804
0.064878977
0.029146379
0.065850576
0.03247611
0.067006557
0.0356197
0.068117452
0.038932716
0.069377292
0.042188914
0.070660102
0.045518864
0.072028075
0.048870369
0.073435695
0.052330534
0.07500821
0.055807142
0.076654993
0.059466442
0.078464419
0.063152772
0.066718193
0.080593144
0.065962017
0.0089677486
0.06586515
0.011547844
0.066040148
0.014070857
0.066406697
0.01680926
0.066969314
0.019556999
0.067650536
0.022307236
0.068536653
0.025290688
0.069599088
0.028083944
0.070747171
0.031328027
0.072126146
0.034240725
0.073559998
0.037498864
0.075138291
0.040610621
0.076823594
0.043833562
0.078554485
0.047139478
0.080549237
0.050335782
0.082586343
0.053770037
0.085081748
0.056971036
0.087960591
0.060273929
0.063311577
0.091367206
0.070877379
0.0091850516
0.070816612
0.011608611
0.071050619
0.01383685
0.071440532
0.016419348
0.072109947
0.018887583
0.072852923
0.02156426
0.073928546
0.024215065
0.07501375
0.02699874
0.076412914
0.029928863
0.077905831
0.032747809
0.079642796
0.035761899
0.081394942
0.038858475
0.083581977
0.041646527
0.085799404
0.044922051
0.088627235
0.047507951
0.091533342
0.050863929
0.095228531
0.053275848
0.099289442
0.056213018
0.058089416
0.1045116
0.076207999
0.009376875
0.076164711
0.011651899
0.076453025
0.013548536
0.076846195
0.016026178
0.077606885
0.018126893
0.078424822
0.020746323
0.079628821
0.023011066
0.080788462
0.0258391
0.0823944
0.028322924
0.083978128
0.031164081
0.085958549
0.033781478
0.088110088
0.036706936
0.090683777
0.039072838
0.093559872
0.042045956
0.09701321
0.044054613
0.10097064
0.046906495
0.10583066
0.048415829
0.11121682
0.050826867
0.051203164
0.11810307
0.081662375
0.0095846641
0.081743808
0.011570467
0.082055546
0.013236798
0.082610191
0.015471532
0.083427215
0.017309869
0.084431669
0.019741868
0.085722496
0.02172024
0.087123704
0.024437892
0.088920345
0.026526283
0.090786482
0.029297945
0.093147011
0.031420949
0.09570104
0.034152907
0.098744919
0.036028959
0.10229048
0.038500391
0.10636978
0.039975321
0.11124485
0.042031426
0.1168132
0.042847478
0.12327929
0.044360776
0.043825476
0.13065698
0.08777617
0.0098571639
0.087957028
0.011389609
0.088189283
0.013004543
0.088908086
0.01475273
0.089723494
0.016494461
0.09098915
0.018476213
0.092303064
0.020406326
0.094010737
0.022730219
0.095924371
0.02461265
0.098201709
0.027020608
0.10084982
0.028772839
0.10395832
0.031044407
0.10750887
0.032478411
0.11164641
0.034362852
0.11640043
0.035221297
0.1218487
0.036583159
0.12793563
0.036760548
0.1347173
0.037579104
0.036486588
0.14205619
0.093940925
0.010050289
0.094231148
0.011099386
0.094599495
0.012636196
0.095521858
0.013830367
0.096456399
0.01555992
0.097928772
0.017003841
0.099310958
0.01902414
0.10138755
0.02065363
0.10346536
0.022534843
0.10624084
0.02424512
0.109197
0.025816685
0.11284487
0.027396534
0.11676546
0.028557819
0.12145993
0.02966838
0.12651433
0.030166901
0.13224261
0.03085488
0.13835331
0.03064985
0.14485267
0.031079736
0.029935271
0.15140399
0.10115196
0.010176009
0.10141691
0.010834443
0.10181019
0.012242916
0.10277442
0.012866134
0.10380946
0.014524883
0.1054152
0.015398095
0.10706117
0.01737817
0.10939185
0.018322953
0.11169796
0.020228734
0.11484341
0.021099668
0.11798364
0.02267646
0.12206085
0.023319326
0.1261925
0.024426165
0.13127335
0.024587528
0.13633765
0.025102599
0.14203342
0.025159113
0.14748151
0.025201766
0.15328215
0.025279092
0.024915615
0.15830181
0.10836169
0.010092002
0.10862624
0.010569897
0.10929219
0.011576964
0.11028755
0.011870775
0.1115232
0.013289236
0.1132483
0.01367299
0.11522269
0.01540378
0.11776054
0.015785106
0.12047064
0.017518631
0.12384071
0.017729602
0.12725414
0.019263032
0.13162154
0.018951925
0.13587257
0.020175138
0.14095189
0.019508205
0.14563305
0.020421441
0.15083844
0.019953716
0.15533693
0.020703279
0.15992743
0.020688595
0.021199263
0.16364378
0.11661145
0.009858798
0.11680155
0.010379798
0.11777085
0.010607668
0.11871504
0.010926585
0.12026677
0.011737501
0.12202611
0.011913655
0.12433168
0.013098206
0.12689865
0.013218135
0.12987999
0.014537297
0.13327611
0.014333475
0.13702762
0.015511522
0.14124587
0.014733683
0.14536555
0.016055452
0.14996388
0.014909873
0.15379157
0.016593759
0.15805715
0.015688136
0.16108744
0.017672989
0.16418641
0.017589626
0.019413713
0.16597196
0.12481841
0.0096535205
0.12507437
0.010123832
0.12622175
0.0094602952
0.1272055
0.0099428354
0.1291009
0.0098420979
0.13096938
0.010045172
0.13355754
0.010510053
0.1361802
0.010595476
0.13941043
0.011307066
0.14280759
0.010936318
0.14665312
0.011665991
0.15050853
0.010878268
0.1544252
0.012138787
0.15807581
0.011259262
0.16113443
0.01353514
0.16411555
0.012707015
0.16564539
0.016143143
0.16710336
0.016131663
0.020174416
0.16634265
0.13418299
0.0095499404
0.13475477
0.0095520475
0.13581245
0.0084026167
0.13697394
0.008781349
0.13899765
0.007818389
0.14078822
0.0082546047
0.14358676
0.0077115045
0.14618256
0.0079996798
0.1495272
0.0079624315
0.15281153
0.0076519843
0.15643406
0.0080434637
0.15964432
0.0076680115
0.16279527
0.008987829
0.16524046
0.0088140772
0.16721217
0.011563433
0.1682311
0.011688082
0.1683041
0.016070141
0.16755399
0.016881775
0.022947871
0.16478053
0.14378613
0.0095163382
0.14468306
0.0086551214
0.14556589
0.0075197847
0.14711513
0.0072321031
0.14900078
0.0059327472
0.15104657
0.0062088072
0.15392538
0.0048327001
0.15643509
0.0054899712
0.15984976
0.0045477582
0.16261581
0.0048859372
0.1657835
0.0048757697
0.1682546
0.0051969167
0.1706631
0.0065793243
0.17185601
0.0076211728
0.17243426
0.010985178
0.17152869
0.012593659
0.169875
0.017723829
0.16706309
0.019693687
0.027119476
0.16289148
0.1543043
0.0093173343
0.1552557
0.0077037168
0.15612605
0.0066494349
0.15799511
0.0053630428
0.15966258
0.0042652828
0.16211934
0.0037520462
0.16459709
0.0023549503
0.1672604
0.0028266542
0.17026494
0.0015432205
0.17242531
0.0027255723
0.17515368
0.0021473932
0.17656237
0.00378823
0.17778928
0.0053524201
0.17741572
0.007994723
0.17672645
0.011674449
0.17426144
0.015058675
0.17127909
0.02070618
0.1667176
0.024255172
0.032695239
0.16114184
0.16590726
0.008857629
0.16684527
0.0067657021
0.1679376
0.0055571081
0.16976803
0.0035326134
0.17137716
0.0026561483
0.17394627
0.0011829366
0.17602347
0.00027774939
0.17880753
4.2591817e-05
0.18097397
-0.00062321974
0.18301865
0.00068090257
0.18466605
0.00049998414
0.18469658
0.003757701
0.18459815
0.0054508537
0.18271491
0.0098779583
0.18069966
0.013689707
0.17683647
0.018921863
0.17283963
0.024703024
0.16687943
0.030215366
0.039409541
0.16016513
0.17777815
0.0082590526
0.17858817
0.0059556819
0.17988536
0.0042599199
0.18162575
0.0017922157
0.18347003
0.00081187419
0.18583211
-0.0011791448
0.18761362
-0.0015037593
0.19004309
-0.0023868789
0.19141518
-0.0019953078
0.19306353
-0.00096744893
0.19310778
0.00045573202
0.19264628
0.0042192019
0.19138737
0.0067097684
0.1884408
0.01282452
0.18527831
0.016852198
0.18006969
0.02413049
0.1749471
0.02982561
0.16786949
0.037292972
0.046177477
0.16110156
0.19124539
0.0075354406
0.19208848
0.0051125944
0.19355966
0.002788734
0.19514761
0.00020427292
0.19705531
-0.0010958347
0.19889753
-0.0030213576
0.20047441
-0.003080638
0.20218308
-0.0040955523
0.20276429
-0.0025765158
0.20331014
-0.0015133061
0.2021349
0.0016309794
0.20115578
0.0051983182
0.19827866
0.0095868921
0.19491473
0.016188447
0.19063167
0.021135254
0.18520418
0.02955799
0.1803955
0.034634284
0.17447847
0.043210004
0.048800301
0.17185565
0.20481466
0.0068913762
0.20574228
0.0041849746
0.2071448
0.0013862135
0.20845855
-0.0011094745
0.21026379
-0.0029010714
0.21171568
-0.0044732503
0.21319204
-0.0045569987
0.21396112
-0.0048646314
0.21399611
-0.0026115102
0.21371477
-0.0012319623
0.21205595
0.0032898003
0.21007061
0.0071836547
0.20607741
0.013580092
0.20261789
0.019647962
0.19790018
0.025852972
0.19432484
0.033133321
0.19163734
0.037321788
0.19079635
0.04405099
0.044120912
0.19547574
0.22038829
0.0060904258
0.22141002
0.0031632451
0.22253828
0.00025794824
0.22379752
-0.002368715
0.2252741
-0.0043776482
0.22625845
-0.0054575995
0.22735286
-0.0056514069
0.227272
-0.0047837783
0.2269816
-0.0023211064
0.22560565
0.00014398401
0.22340556
0.0054898905
0.22049419
0.010095024
0.21687447
0.017199818
0.21424735
0.022275076
0.21137323
0.028727094
0.21154358
0.032962974
0.21307369
0.035791682
0.21955543
0.037569247
0.033920998
0.22975534
0.2361541
0.0052645288
0.23718479
0.0021325492
0.23831491
-0.00087216835
0.23943429
-0.0034880942
0.2403117
-0.0052550555
0.24086445
-0.0060103517
0.24099021
-0.0057771679
0.2402322
-0.0040257709
0.23960448
-0.0016933815
0.237292
0.0024564597
0.23497094
0.0078109528
0.23198968
0.013076277
0.22989685
0.019292654
0.2290798
0.023092121
0.23001551
0.02779139
0.23417896
0.028799523
0.24037376
0.029596877
0.25101443
0.026928584
0.023905568
0.26102986
0.25414793
0.0043588963
0.25500994
0.0012705392
0.25594147
-0.0018037025
0.25672176
-0.0042683823
0.25724076
-0.0057740589
0.25743606
-0.0062056499
0.25702568
-0.0053667892
0.25640631
-0.003406397
0.25494854
-0.00023561025
0.25264715
0.004757848
0.2508528
0.0096053057
0.249056
0.014873076
0.24941314
0.018935505
0.25108461
0.021420655
0.25540181
0.023474191
0.26178093
0.022420403
0.27014988
0.021227928
0.27937732
0.017701144
0.018105051
0.28517784
0.27293688
0.0035043888
0.27372508
0.00048233629
0.27425249
-0.0023311166
0.2744312
-0.0044470952
0.27434304
-0.0056858934
0.27365755
-0.0055201653
0.27254624
-0.0042554777
0.27124926
-0.0021094187
0.26935763
0.0016560246
0.26798336
0.0061321126
0.26713577
0.010452893
0.26792074
0.014088109
0.27083902
0.016017227
0.2749642
0.017295478
0.28139413
0.017044252
0.28846715
0.015347386
0.29544141
0.01425367
0.30008251
0.01306004
0.016921409
0.30126616
0.29348801
0.002692518
0.2941238
-0.00015345029
0.29445702
-0.0026643425
0.29445633
-0.0044464013
0.29419762
-0.00542718
0.29363017
-0.0049527168
0.29276815
-0.0033934627
0.29139612
-0.00073738754
0.29017358
0.0028785615
0.28978766
0.0065180303
0.29045189
0.0097886649
0.29282098
0.011719018
0.29624184
0.012596373
0.30097883
0.012558481
0.30682855
0.011194534
0.31176725
0.010408689
0.31519419
0.010826733
0.31579482
0.012459411
0.018256926
0.3144593
0.31587863
0.0017588016
0.31617075
-0.00044557107
0.31568273
-0.0021763214
0.31480295
-0.0035666209
0.31334588
-0.0039701122
0.31168653
-0.0032933672
0.31011946
-0.0018263883
0.30906138
0.00032068916
0.30886564
0.0030743063
0.31000934
0.0053743283
0.3128793
0.0069187
0.31708822
0.0075100955
0.32204821
0.0076363839
0.32746736
0.0071393332
0.33186489
0.0067970024
0.33439258
0.0078809974
0.33553253
0.0096867895
0.33520104
0.012790898
0.017223052
0.33623491
0.34026886
0.00075264368
0.34034505
-0.00052176911
0.3395603
-0.0013915652
0.3383343
-0.0023406264
0.33711352
-0.0027493289
0.33610915
-0.0022890024
0.33544948
-0.0011667136
0.33554831
0.0002218527
0.33676047
0.0018621471
0.33898154
0.0031532578
0.34178431
0.0041159319
0.34506589
0.0042285139
0.34805199
0.0046502852
0.35067769
0.0045136334
0.35187072
0.0056039701
0.3534793
0.0062724223
0.3555059
0.0076601833
0.3595847
0.0087120966
0.0094328232
0.36737493
0.36649494
0.36597317
0.36458161
0.36224098
0.35949165
0.35720265
0.35603594
0.35625779
0.35811994
0.36127319
0.36538912
0.36961764
0.37426792
0.37878156
0.38438553
0.39065795
0.39831813
0.40703023
0.41646305
0.067388163
0.077999496
-0.073490724
0.062586725
0.082390953
-0.077589515
0.057485854
0.086835082
-0.081734211
0.051622782
0.092083242
-0.08622017
0.04559437
0.097462831
-0.091434419
0.038265429
0.10363566
-0.09630672
0.028907126
0.1104479
-0.10108959
0.014639552
0.11524856
-0.10098099
-0.006109557
0.11444958
-0.09370047
-0.028887918
0.11117581
-0.088397448
-0.052146352
0.10799295
-0.084734512
-0.076784547
0.098918744
-0.07428055
-0.099458639
0.084187844
-0.061513752
-0.1179583
0.069557009
-0.051057348
-0.13090343
0.055081431
-0.042136306
-0.13828898
0.041519068
-0.034133516
-0.14103519
0.027767227
-0.025021012
-0.14026244
0.01497514
-0.015747889
0.0052998674
-0.13638068
-0.0091816366
0.076911678
0.081680962
0.073075034
0.086227597
0.069172079
0.090738036
0.064997242
0.096258079
0.061243602
0.10121647
0.057165034
0.10771423
0.053444952
0.11416798
0.0479281
0.12076542
0.038046946
0.12433073
0.024558751
0.124664
0.01011479
0.12243691
-0.0074965495
0.11653008
-0.028553786
0.10524508
-0.049314132
0.090317355
-0.067015233
0.072782533
-0.080554119
0.055057954
-0.091657284
0.038870392
-0.10136324
0.024681097
0.012953758
-0.10901713
0.088422382
0.084625787
0.085926184
0.088723795
0.083500085
0.093164135
0.08182659
0.097931574
0.080270854
0.10277221
0.080104939
0.10788014
0.080764778
0.11350814
0.082484443
0.11904575
0.083007144
0.12380803
0.08178136
0.12588979
0.078554484
0.12566378
0.072971641
0.12211293
0.063673003
0.11454372
0.05091974
0.10307062
0.035445364
0.088256909
0.01818083
0.072322488
0.00062804513
0.056423178
-0.016744229
0.042053371
0.029980994
-0.033771466
0.10240667
0.086730722
0.10090209
0.090228373
0.099601448
0.094464778
0.099600742
0.097932281
0.10002964
0.1023433
0.10189644
0.10601335
0.10478032
0.11062425
0.10928613
0.11453994
0.11466945
0.11842471
0.12029376
0.12026548
0.12450501
0.12145253
0.12658989
0.12002805
0.12596899
0.11516462
0.12125631
0.10778329
0.11248684
0.09702638
0.099739149
0.085070182
0.083695185
0.072467141
0.065504505
0.060244051
0.049429753
0.046055746
0.11656142
0.088272369
0.11572168
0.091068109
0.11545223
0.094734228
0.11561133
0.09777318
0.11721144
0.1007432
0.11938093
0.10384386
0.12289885
0.10710633
0.12774416
0.10969463
0.13393389
0.11223498
0.14065789
0.11354148
0.14744327
0.11466716
0.15346185
0.11400947
0.15739036
0.11123611
0.15796457
0.10720907
0.15445436
0.1005366
0.14746699
0.092057547
0.13618644
0.083747697
0.12168842
0.074742061
0.066623445
0.10449473
0.12936142
0.089567929
0.12877284
0.091656688
0.12877742
0.094729646
0.12908695
0.097463646
0.13064073
0.09918942
0.13264487
0.10183973
0.13575338
0.10399781
0.13971615
0.10573186
0.14511381
0.10683732
0.15086209
0.1077932
0.1569205
0.10860875
0.1628456
0.10808437
0.16735278
0.10672893
0.17062454
0.10393731
0.17046967
0.10069146
0.16690228
0.095624943
0.16034336
0.090306611
0.15076963
0.084315798
0.079039909
0.13835316
0.14067236
0.090951754
0.13960128
0.092727767
0.13911462
0.095216312
0.13946779
0.097110472
0.14032028
0.098336929
0.14201097
0.10014905
0.1441526
0.10185618
0.14711692
0.10276753
0.15125714
0.10269711
0.1552703
0.10378005
0.15974542
0.10413362
0.16461961
0.10321019
0.16954342
0.10180512
0.17346957
0.10001116
0.17530456
0.098856471
0.17427971
0.0966498
0.17080225
0.093784067
0.16494545
0.090172596
0.086720083
0.15726528
0.14970038
0.092655363
0.14821889
0.094209263
0.14717104
0.09626416
0.14704253
0.097238986
0.14688424
0.098495214
0.14781138
0.099221904
0.14924021
0.10042735
0.15153875
0.100469
0.15395412
0.10028174
0.15681364
0.10092053
0.16036352
0.10058374
0.16420013
0.099373575
0.16736129
0.098643961
0.16941791
0.097954542
0.17145277
0.096821606
0.17308473
0.095017841
0.17324904
0.093619758
0.17051466
0.092906975
0.092151998
0.16508275
0.15593654
0.095020627
0.15363881
0.096506993
0.1523556
0.097547373
0.15140621
0.098188375
0.15064514
0.099256282
0.15075042
0.099116625
0.15133238
0.099845397
0.15258553
0.099215849
0.1539476
0.098919662
0.15622728
0.098640845
0.15821756
0.098593459
0.16088021
0.096710928
0.16339889
0.096125285
0.1668704
0.094483025
0.169753
0.093939015
0.17124492
0.093525915
0.17139023
0.093474452
0.17066254
0.093634666
0.094243714
0.16857082
0.1603096
0.098354804
0.15742049
0.099396102
0.15513026
0.099837604
0.15310557
0.10021307
0.15194677
0.10041508
0.15086138
0.10020202
0.15080964
0.099897132
0.15112377
0.098901719
0.15170366
0.098339771
0.15332192
0.097022587
0.15621344
0.095701938