/*--------------------------------*- C++ -*----------------------------------*\
  =========                 |
  \\      /  F ield         | OpenFOAM: The Open Source CFD Toolbox
   \\    /   O peration     | Website:  https://openfoam.org
    \\  /    A nd           | Version:  11
     \\/     M anipulation  |
\*---------------------------------------------------------------------------*/
FoamFile
{
    format      ascii;
    class       surfaceScalarField;
    location    "15.1";
    object      phi;
}
// * * * * * * * * * * * * * * * * * * * * * * * * * * * * * * * * * * * * * //

dimensions      [0 3 -1 0 0 0 0];

internalField   nonuniform List<scalar> 
10792
(
0.071660332
-0.043982945
-0.072271823
0.044594436
0.071008512
-0.041919498
0.042571318
0.070271948
-0.039911309
0.040647873
0.069498049
-0.037678178
0.038452076
0.068700518
-0.035635507
0.036433039
0.067757726
-0.033167138
0.03410993
0.066913222
-0.030895876
0.03174038
0.066066527
-0.028599695
0.02944639
0.065187623
-0.026123182
0.027002086
0.064441338
-0.023841754
0.024588039
0.063724847
-0.021390277
0.022106767
0.063005947
-0.018908754
0.019627654
0.06242376
-0.01634298
0.016925167
0.061905873
-0.013932307
0.014450193
0.0614092
-0.011240637
0.01173731
0.061067088
-0.0088210362
0.0091631488
0.060808945
-0.0061889365
0.0064470796
0.060607428
-0.0037923394
0.0039938559
-0.0010643788
0.060770599
0.00090120785
0.075663309
-0.0434016
-0.076244654
0.075019949
-0.041276138
0.074249187
-0.039140547
0.07353551
-0.036964501
0.072629538
-0.034729535
0.071772965
-0.032310565
0.071010052
-0.030132963
0.070124679
-0.027714322
0.069380689
-0.025379192
0.068656771
-0.023117837
0.067852714
-0.02058622
0.067187869
-0.018243909
0.066592295
-0.015747406
0.066004654
-0.013344666
0.065608733
-0.010844716
0.065278254
-0.0084905575
0.065067674
-0.0059783561
0.064972816
-0.0036974811
-0.0011351484
0.065043585
0.080383315
-0.042757105
-0.08102781
0.079718138
-0.040610961
0.0790174
-0.038439809
0.078219364
-0.036166465
0.077349412
-0.033859582
0.076603925
-0.031565078
0.075762341
-0.02929138
0.074926643
-0.026878624
0.074154163
-0.024606712
0.073297961
-0.022261635
0.072536525
-0.019824784
0.071871161
-0.017578544
0.071205026
-0.015081271
0.070662351
-0.012801992
0.070264838
-0.010447203
0.069842245
-0.0080679641
0.069670505
-0.0058066158
0.069449056
-0.0034760321
-0.0011250602
0.069438968
0.084807406
-0.042114873
-0.085449638
0.084177997
-0.039981552
0.083379885
-0.037641697
0.082590594
-0.035377175
0.081854072
-0.03312306
0.081073225
-0.030784232
0.080235319
-0.028453474
0.079413389
-0.026056694
0.078595871
-0.023789194
0.07779758
-0.021463344
0.077137963
-0.019165168
0.076448995
-0.016889576
0.075870414
-0.01450269
0.075348824
-0.012280401
0.074875315
-0.0099736942
0.074546173
-0.0077388222
0.07433451
-0.0055949527
0.074154579
-0.003296101
-0.0011895526
0.074219071
0.090144407
-0.041495203
-0.090764076
0.089468074
-0.039305219
0.088758518
-0.036932142
0.088119421
-0.034738078
0.087341773
-0.032345412
0.086563608
-0.030006066
0.085695734
-0.0275856
0.084860469
-0.025221429
0.084026776
-0.022955501
0.0832454
-0.020681967
0.082523928
-0.018443696
0.081795796
-0.016161444
0.081169572
-0.013876465
0.080554764
-0.011665594
0.080074242
-0.0094931713
0.079695504
-0.007360085
0.079435509
-0.0053349569
0.079326703
-0.0031872958
-0.0012104335
0.079347584
0.095435877
-0.040918733
-0.096012347
0.094722127
-0.038591469
0.094070408
-0.036280423
0.093289335
-0.033957005
0.092412043
-0.03146812
0.091576407
-0.02917043
0.090690285
-0.026699479
0.089920985
-0.024452129
0.089098849
-0.022133365
0.088332537
-0.019915655
0.087598207
-0.017709366
0.086915419
-0.015478656
0.086343119
-0.013304165
0.08581524
-0.011137715
0.085385393
-0.0090633238
0.08507404
-0.0070487323
0.084837515
-0.0050984319
0.084750783
-0.0031005639
-0.0012048532
0.084745203
0.10164951
-0.040310305
-0.10225794
0.10076915
-0.037711107
0.10003429
-0.035545561
0.099149978
-0.033072695
0.098383824
-0.030701966
0.0976252
-0.028411806
0.096882935
-0.025957214
0.096133967
-0.023703161
0.095289186
-0.021288584
0.094519907
-0.019146377
0.09373712
-0.016926579
0.093088998
-0.014830534
0.092484718
-0.012699885
0.091950175
-0.010603172
0.09149781
-0.0086109589
0.09112825
-0.0066791723
0.09082557
-0.0047957518
0.090699001
-0.0029739946
-0.0012009606
0.090695108
0.1077166
-0.039473804
-0.1085531
0.10682701
-0.036821519
0.10607725
-0.034795792
0.10518223
-0.032177679
0.10442508
-0.029944815
0.10353113
-0.027517856
0.10270579
-0.025131875
0.10186187
-0.022859247
0.10104814
-0.020474849
0.10029077
-0.018389006
0.09956796
-0.01620377
0.098968945
-0.014231518
0.098373993
-0.012104933
0.097865113
-0.010094292
0.097370739
-0.008116585
0.09701793
-0.0063263638
0.096732198
-0.0045100199
0.096632976
-0.0028747724
-0.0011774334
0.096609449
0.11464432
-0.03839555
-0.11572258
0.11379083
-0.035968027
0.11296761
-0.033972576
0.11210775
-0.031317813
0.1113237
-0.029160763
0.11036902
-0.026563176
0.10958891
-0.024351766
0.10877391
-0.022044249
0.10805102
-0.01975196
0.10724698
-0.017584968
0.1064533
-0.015410085
0.10574557
-0.013523788
0.10512137
-0.011480734
0.10464528
-0.0096182082
0.10421227
-0.0076835737
0.10390349
-0.0060175866
0.10368943
-0.004295955
0.10361308
-0.0027984257
-0.0011837907
0.10361944
0.121864
-0.037283303
-0.12297625
0.1210101
-0.035114126
0.11992147
-0.032883948
0.11900512
-0.030401463
0.11808507
-0.028240712
0.11718099
-0.025659096
0.11644735
-0.02361812
0.11562069
-0.021217591
0.11495529
-0.019086556
0.11420282
-0.016832503
0.11352754
-0.014734809
0.11282959
-0.012825829
0.11224299
-0.010894135
0.11173994
-0.0091151659
0.11130176
-0.0072453951
0.11093987
-0.0056556892
0.11065674
-0.0040128299
0.11051163
-0.0026533113
-0.0011758799
0.11050372
0.13001321
-0.036257976
-0.13103853
0.12913827
-0.034239192
0.1280303
-0.031775974
0.12723012
-0.029601288
0.12619022
-0.027200809
0.12529381
-0.024762687
0.12434725
-0.022671564
0.12346638
-0.020336713
0.12269865
-0.018318831
0.1219127
-0.016046556
0.12128356
-0.014105668
0.12053666
-0.012078927
0.1199489
-0.010306375
0.11936162
-0.0085278832
0.11894597
-0.006829748
0.11857242
-0.0052821398
0.11833096
-0.0037713659
0.11817846
-0.0025008113
-0.001162548
0.11816513
0.13857974
-0.035002174
-0.13983555
0.13738051
-0.033039962
0.13618477
-0.030580232
0.13519927
-0.028615783
0.13415319
-0.026154728
0.13342333
-0.024032833
0.13244173
-0.021689965
0.13161647
-0.01951145
0.13075252
-0.017454876
0.13000933
-0.015303367
0.12932006
-0.013416403
0.12863171
-0.011390573
0.12807863
-0.0097532985
0.12747778
-0.0079270289
0.12705919
-0.0064111579
0.12668214
-0.0049050948
0.12648939
-0.0035786167
0.12634452
-0.0023559343
-0.0011803451
0.12636231
0.1479625
-0.033884211
-0.14908046
0.14667199
-0.031749452
0.1455078
-0.029416037
0.14434464
-0.027452624
0.14325631
-0.0250664
0.14232542
-0.023101947
0.14129799
-0.020662533
0.14050938
-0.018722835
0.1395183
-0.016463798
0.13877223
-0.014557303
0.13796045
-0.01260462
0.13734913
-0.010779251
0.13672494
-0.0091291126
0.13618515
-0.0073872411
0.13575998
-0.0059859818
0.13540586
-0.0045509799
0.13517596
-0.0033487144
0.13504402
-0.0022239956
-0.001181233
0.13504491
0.158191
-0.032644647
-0.15943057
0.15675659
-0.030315041
0.15560993
-0.028269372
0.15430217
-0.026144865
0.15313922
-0.023903446
0.15196786
-0.021930589
0.15094751
-0.019642182
0.150056
-0.017831326
0.1491197
-0.015527505
0.14835284
-0.013790443
0.14749953
-0.011751304
0.14686594
-0.010145659
0.14617652
-0.0084396958
0.14568972
-0.0069004417
0.14518534
-0.0054816014
0.14486554
-0.0042311793
0.14461047
-0.0030936487
0.14450324
-0.0021167603
-0.0011790359
0.14450104
0.16882022
-0.031069074
-0.17039579
0.16734931
-0.02884413
0.16606566
-0.026985725
0.16458946
-0.024668659
0.16338976
-0.022703744
0.16204423
-0.020585066
0.16102689
-0.018624838
0.15990841
-0.016712845
0.15899917
-0.014618268
0.15811579
-0.012907059
0.15735704
-0.010992554
0.15670672
-0.0094953428
0.15606298
-0.0077959546
0.15560917
-0.0064466319
0.15509334
-0.0049657674
0.15475247
-0.0038903119
0.15444492
-0.0027860978
0.15429514
-0.0019669841
-0.0011295965
0.1542457
0.18058755
-0.029262202
-0.18239442
0.17903885
-0.027295431
0.1775451
-0.02549198
0.17617086
-0.023294417
0.17494966
-0.021482541
0.17365053
-0.01928594
0.17259978
-0.017574088
0.17138969
-0.015502757
0.17053839
-0.013766969
0.16951645
-0.011885118
0.16873592
-0.010212018
0.16790785
-0.0086672769
0.16731664
-0.0072047488
0.16677456
-0.0059045519
0.16634279
-0.0045339925
0.16601375
-0.0035612771
0.1657292
-0.0025015431
0.16558315
-0.0018209305
-0.0010361417
0.16548969
0.1930174
-0.027384035
-0.19489557
0.19133034
-0.02560837
0.18960255
-0.023764187
0.18808779
-0.021779661
0.18657279
-0.01996754
0.18521969
-0.017932842
0.18397777
-0.016332167
0.1828234
-0.014348384
0.18185991
-0.012803482
0.18084019
-0.010865401
0.18004957
-0.009421395
0.17918011
-0.0077978144
0.17860587
-0.006630505
0.17797756
-0.0052762457
0.17765473
-0.0042111609
0.1772499
-0.0031564534
0.17703562
-0.002287262
0.17679146
-0.0015767703
-0.00093331026
0.17668863
0.20685771
-0.025383772
-0.20885797
0.20497524
-0.023725898
0.20318937
-0.021978318
0.20159648
-0.020186773
0.20002188
-0.018392944
0.19868791
-0.016598873
0.19731539
-0.014959646
0.19617351
-0.013206496
0.19505044
-0.011680416
0.19410089
-0.0099158514
0.1932149
-0.0085354052
0.19241679
-0.0069996996
0.191752
-0.0059657166
0.19117113
-0.0046953734
0.19079708
-0.0038371174
0.19036177
-0.0027211435
0.19017062
-0.002096112
0.18986535
-0.0012715012
-0.00079055669
0.1897226
0.22137918
-0.02321654
-0.22354641
0.2192984
-0.021645119
0.21736521
-0.020045121
0.21555994
-0.018381511
0.21386204
-0.01669504
0.21232325
-0.015060089
0.21081463
-0.013451018
0.20952518
-0.011917052
0.20829372
-0.010448951
0.20728978
-0.0089119181
0.20633069
-0.0075763158
0.20553216
-0.0062011663
0.20474055
-0.0051741061
0.20418537
-0.0041401937
0.20368813
-0.0033398768
0.20340207
-0.0024350814
0.20318631
-0.0018803533
0.20305096
-0.0011361504
-0.00075160221
0.203012
0.23696521
-0.021019428
-0.23916232
0.23488557
-0.019565479
0.23295885
-0.018118403
0.23111689
-0.016539551
0.22939435
-0.014972497
0.22775983
-0.013425575
0.22625056
-0.011941747
0.22487103
-0.010537523
0.22360449
-0.0091824127
0.22250778
-0.0078152048
0.22155545
-0.0066239854
0.22074928
-0.0053949986
0.21994749
-0.0043723151
0.21929428
-0.0034869863
0.21866249
-0.0027080777
0.21830489
-0.0020774882
0.21798497
-0.0015604357
0.21785808
-0.0010092524
-0.00064955369
0.21775603
0.25361172
-0.018566522
-0.25606463
0.25131843
-0.017272186
0.24912837
-0.015928344
0.24709428
-0.01450546
0.24523194
-0.013110159
0.24352807
-0.011721707
0.24193568
-0.01034936
0.24046607
-0.009067914
0.23913599
-0.00785233
0.23797698
-0.0066561918
0.23702084
-0.0056678448
0.23622875
-0.0046029128
0.2355582
-0.003701764
0.23494268
-0.0028714652
0.23439547
-0.0021608649
0.23398581
-0.0016678306
0.23363698
-0.001211609
0.2334808
-0.00085306494
-0.00057010093
0.23340134
0.27154456
-0.016180984
-0.2739301
0.26927451
-0.015002135
0.2670368
-0.013690634
0.26499393
-0.012462588
0.26306254
-0.011178774
0.2613022
-0.0099613609
0.25964704
-0.0086942084
0.25813757
-0.0075584422
0.25671328
-0.0064280408
0.25545644
-0.0053993464
0.2543437
-0.0045551107
0.25343025
-0.0036894602
0.25274124
-0.0030127556
0.25215794
-0.0022881671
0.25169286
-0.0016957811
0.25130365
-0.0012786222
0.25101015
-0.0009181097
0.25078885
-0.00063175929
-0.00044839043
0.25066714
0.29036992
-0.013590918
-0.29295999
0.28791681
-0.012549025
0.28558921
-0.011363035
0.28343772
-0.010311093
0.28145688
-0.0091979322
0.27970543
-0.0082099188
0.27812488
-0.0071136532
0.27666842
-0.006101987
0.27534783
-0.0051074454
0.2741423
-0.0041938174
0.27304698
-0.0034597881
0.27209609
-0.0027385729
0.27128714
-0.0022038088
0.27068101
-0.0016820322
0.27018639
-0.0012011637
0.26981717
-0.00090940583
0.2694927
-0.00059364009
0.2693022
-0.00044125224
-0.00035038388
0.26920419
0.31123616
-0.010902109
-0.31392497
0.30860261
-0.0099154742
0.3061497
-0.008910129
0.30379405
-0.0079554409
0.30161017
-0.0070140582
0.29961062
-0.0062103613
0.2978582
-0.0053612366
0.29635164
-0.0045954316
0.29503385
-0.0037896532
0.29388496
-0.003044921
0.29285258
-0.0024274072
0.29194322
-0.0018292144
0.29119821
-0.0014588035
0.29056323
-0.00104705
0.29014245
-0.00078037986
0.2898197
-0.00058665853
0.28963302
-0.0004069574
0.28953692
-0.00034515739
-0.00025599793
0.28944254
0.3329557
-0.0079235427
-0.33593426
0.33018175
-0.0071415281
0.32763674
-0.0063651185
0.32529497
-0.0056136677
0.32315941
-0.0048785004
0.32118819
-0.0042391452
0.31941612
-0.0035891678
0.31788591
-0.0030652146
0.31655899
-0.002462734
0.31547747
-0.0019634013
0.31456346
-0.0015133958
0.31380506
-0.0010708166
0.31318193
-0.00083567672
0.31264575
-0.00051087091
0.31224076
-0.00037538336
0.31186197
-0.0002078677
0.31160843
-0.00015341746
0.31144001
-0.00017674157
-0.00012897856
0.31131299
0.35717473
-0.0042451928
-0.36085308
0.35390471
-0.0038715069
0.35098786
-0.0034482653
0.34836759
-0.0029933968
0.34606341
-0.0025743227
0.34399239
-0.0021681245
0.34221824
-0.0018150204
0.34065082
-0.0014977909
0.33936638
-0.0011783029
0.33831835
-0.00091536193
0.33746665
-0.000661697
0.33684958
-0.00045374844
0.3363374
-0.00032349789
0.33600249
-0.00017596064
0.3357423
-0.00011519519
0.33552328
1.1156313e-05
0.33542631
-5.6447632e-05
0.33527952
-2.9956716e-05
-0.00015608886
0.33530663
0.38437362
-0.38861882
0.38050212
0.37705385
0.37406045
0.37148613
0.36931801
0.36750299
0.3660052
0.36482689
0.36391153
0.36324983
0.36279608
0.36247259
0.36229663
0.36218143
0.36219259
0.36213614
0.36210618
0.36195009
0.061035441
0.0010555573
-0.001320399
0.061456578
0.0039115694
-0.0043327067
0.062204986
0.005984067
-0.0067324742
0.063249127
0.0086312696
-0.009675411
0.064445034
0.010889178
-0.012085084
0.065975684
0.013478794
-0.015009444
0.067679986
0.015589353
-0.017293655
0.069544258
0.018342865
-0.020207136
0.071859064
0.020197045
-0.022511851
0.074115142
0.022830419
-0.025086496
0.076948125
0.024815535
-0.027648518
0.079627208
0.027210138
-0.029889221
0.082892477
0.029123933
-0.032389202
0.086015517
0.031255104
-0.034378143
0.089740217
0.032804581
-0.036529282
0.093512054
0.034735241
-0.038507078
0.097932431
0.036052626
-0.040473003
0.10240779
0.037589094
-0.042064449
0.038661575
0.10748656
-0.043740351
0.065109028
0.00099011499
0.065729401
0.0032911955
0.066479697
0.005233772
0.067611588
0.007499378
0.068926616
0.0095741497
0.07066841
0.011737
0.072377134
0.01388063
0.074580362
0.016139637
0.076795885
0.017981522
0.079300524
0.02032578
0.082031212
0.022084848
0.084890731
0.02435062
0.088089418
0.025925246
0.091277851
0.028066671
0.0948211
0.029261332
0.098337052
0.031219289
0.10235672
0.032032961
0.10620171
0.033744099
0.034157191
0.1107061
0.069575319
0.00085376404
0.070095196
0.0027713185
0.070894341
0.004434627
0.07198539
0.0064083295
0.073381125
0.008178414
0.075034495
0.01008363
0.076886163
0.012028962
0.079100467
0.013925333
0.08136185
0.015720139
0.083975076
0.017712554
0.08661099
0.019448933
0.08954183
0.021419781
0.092500582
0.022966494
0.095747049
0.024820204
0.09888818
0.026120201
0.10235582
0.027751646
0.10564531
0.028743478
0.10922066
0.030168745
0.030770066
0.11260779
0.074398062
0.00067477361
0.075019492
0.0021498881
0.075847568
0.0036065508
0.077051617
0.0052042805
0.078501257
0.0067287748
0.080117833
0.0084670538
0.082116355
0.01003044
0.084186787
0.011854902
0.086501429
0.013405497
0.088911592
0.01530239
0.091485942
0.016874583
0.094208134
0.018697589
0.09702742
0.020147208
0.099981588
0.021866037
0.10280696
0.023294824
0.1057296
0.02482901
0.10850493
0.025968146
0.111189
0.027484673
0.028275577
0.11368349
0.07952731
0.00049504736
0.080167907
0.0015092917
0.080965545
0.0028089129
0.082207301
0.0039625249
0.083593897
0.0053421788
0.085273899
0.0067870524
0.087206913
0.0080974256
0.089215182
0.0098466334
0.091527174
0.011093505
0.093824488
0.013005077
0.096286863
0.014412208
0.098699886
0.016284567
0.10107148
0.017775615
0.10346682
0.019470699
0.10563231
0.021129336
0.10785226
0.02260906
0.1097305
0.024089906
0.11138481
0.025830364
0.026910761
0.11274962
0.085040497
0.00019975282
0.085595299
0.00095448983
0.086434107
0.0019701052
0.087684724
0.0027119076
0.089045762
0.0039811416
0.090841887
0.0049909277
0.092613503
0.0063258095
0.094751785
0.0077083512
0.096778912
0.0090663791
0.099026728
0.010757261
0.10119762
0.012241313
0.10334299
0.014139201
0.10532247
0.015796133
0.10714201
0.01765116
0.10860499
0.019666355
0.10990837
0.021305685
0.11040656
0.023591714
0.11077486
0.025462058
0.027457006
0.11022862
0.090931169
-3.6308125e-05
0.09149524
0.0003904192
0.092428293
0.001037052
0.093614532
0.0015256684
0.095015852
0.0025798217
0.096695298
0.0033114818
0.098389797
0.0046313107
0.10039537
0.0057027753
0.10212709
0.0073346669
0.10420836
0.0086759909
0.10579807
0.010651602
0.10756151
0.012375762
0.10879516
0.014562477
0.10994401
0.016502316
0.11053427
0.019076094
0.11077764
0.021062315
0.11015367
0.024215683
0.10919335
0.02642238
0.029856471
0.10679388
0.096972638
-0.00039949721
0.097516819
-0.00015376164
0.098465674
8.8196339e-05
0.099594128
0.00039721483
0.10103173
0.0011422216
0.10264429
0.0016989207
0.10434765
0.002927955
0.10615059
0.0038998327
0.10778523
0.0057000249
0.10943626
0.0070249638
0.1107134
0.0093744573
0.11194489
0.011144278
0.1124955
0.014011862
0.11281381
0.016184014
0.11219083
0.019699071
0.11114403
0.022109117
0.10908207
0.026277645
0.10639731
0.029107136
0.033971629
0.10228215
0.10391959
-0.00069964942
0.10437741
-0.00061157528
0.1053837
-0.00091809771
0.1063257
-0.00054478936
0.10777199
-0.0003040676
0.10910208
0.00036883515
0.1106711
0.0013589338
0.11208289
0.0024880483
0.11343242
0.0043504912
0.11453581
0.0059215721
0.11530091
0.0086093599
0.11574475
0.010700433
0.11566549
0.014091131
0.1150565
0.016793002
0.11362533
0.021130235
0.11148647
0.024247978
0.10817062
0.029593496
0.10419547
0.033082288
0.039208786
0.098958313
0.11078578
-0.00098171017
0.11138562
-0.001211419
0.11228397
-0.0018164467
0.11332094
-0.0015817639
0.11476231
-0.0017454315
0.11592836
-0.00079721706
0.11747796
-0.00019066724
0.11844068
0.0015253324
0.11963073
0.0031604374
0.1200978
0.005454507
0.12048029
0.0082268714
0.1200608
0.011119925
0.11912609
0.015025835
0.11729353
0.018625565
0.11489635
0.023527412
0.11150986
0.027634474
0.10752448
0.033578874
0.10278859
0.037818173
0.044898806
0.097098574
0.11837339
-0.0011899783
0.11887371
-0.0017117397
0.1196243
-0.0025670326
0.1206508
-0.0026082621
0.1217122
-0.0028068323
0.12282925
-0.0019142717
0.12398356
-0.0013449709
0.12463623
0.00087266591
0.12536552
0.0024311464
0.12522595
0.0055940797
0.12520524
0.0082475764
0.12391682
0.012408341
0.12248082
0.016461835
0.11977836
0.021328029
0.11681782
0.026487956
0.11266706
0.031785226
0.10838767
0.037858272
0.10310183
0.04310401
0.050365552
0.097635083
0.12652339
-0.001351058
0.12712244
-0.0023107852
0.12787466
-0.003319256
0.1288381
-0.0035716954
0.12971408
-0.003682813
0.13075132
-0.0029515195
0.13145772
-0.0020513648
0.13196843
0.00036195499
0.13201203
0.0023875503
0.13137418
0.0062319289
0.13038372
0.0092380348
0.12832017
0.014471887
0.12624679
0.018535222
0.12287406
0.024700755
0.1195302
0.029831819
0.11495886
0.036356564
0.11065145
0.042165685
0.10532068
0.048434783
0.055656729
0.1000295
0.13512891
-0.0014350578
0.1356408
-0.0028226737
0.13617506
-0.0038535168
0.13701859
-0.0044152277
0.13768025
-0.0043444727
0.13840428
-0.0036755466
0.13867149
-0.0023185733
0.13896796
6.5486544e-05
0.13846334
0.0028921657
0.13761863
0.0070766459
0.13596689
0.010889768
0.13375639
0.016682388
0.13097145
0.021320162
0.12721145
0.028460755
0.12358789
0.033455386
0.11893791
0.041006541
0.11499012
0.046113472
0.10986948
0.053555429
0.059836626
0.10568958
0.14463401
-0.0015680293
0.14500644
-0.0031950986
0.14555526
-0.0044023412
0.14630447
-0.0051644335
0.14680966
-0.0048496642
0.14725997
-0.004125857
0.14704172
-0.0021003193
0.14672151
0.00038569542
0.14555919
0.0040544884
0.14436866
0.0082671767
0.1422123
0.013046123
0.13982988
0.019064812
0.13648981
0.024660233
0.13309687
0.031853693
0.12961159
0.036940668
0.12583227
0.044785859
0.12304733
0.048898415
0.11993931
0.056663443
0.059852526
0.11992341
0.15443961
-0.001761939
0.15471497
-0.0034704522
0.15515796
-0.0048453319
0.15569679
-0.0057032633
0.15612397
-0.0052768443
0.15631631
-0.0043181995
0.15590358
-0.0016875888
0.15529539
0.00099388613
0.15388163
0.0054682449
0.15237122
0.0097775953
0.14971659
0.015700753
0.14707595
0.021705453
0.14373973
0.027996452
0.14123447
0.034358955
0.13854381
0.039631327
0.13708243
0.046247236
0.13682968
0.049151167
0.13873009
0.054763032
0.053539759
0.14504286
0.16566159
-0.0019338336
0.16579249
-0.0036013593
0.16604424
-0.0050970778
0.16618637
-0.0058453921
0.16623114
-0.0053216159
0.16592664
-0.0040137012
0.16533862
-0.0010995614
0.16437302
0.0019594862
0.16278205
0.0070592144
0.16092774
0.011631907
0.15828668
0.018341806
0.15614716
0.023844976
0.15386705
0.030276561
0.15289566
0.035330348
0.15222354
0.04030345
0.1542517
0.044219071
0.15786666
0.045536209
0.16549735
0.047132343
0.042366407
0.1766707
0.17684444
-0.0020896394
0.17708323
-0.0038401505
0.17740021
-0.0054140595
0.17744101
-0.0058861927
0.17728446
-0.0051650671
0.17673891
-0.0034681516
0.17603841
-0.00039905389
0.17470146
0.003296434
0.17298457
0.0087761057
0.17092255
0.013693927
0.16885406
0.020410293
0.1675889
0.025110138
0.16680945
0.031056016
0.16774205
0.034397741
0.16997848
0.038067019
0.17563871
0.038558842
0.18290826
0.038266662
0.19393125
0.036109346
0.030703975
0.20559369
0.18944372
-0.0018107622
0.18948377
-0.0038801951
0.18950585
-0.0054361466
0.18934789
-0.0057282239
0.18901411
-0.0048312883
0.18830998
-0.0027640226
0.18741616
0.00049476322
0.18594759
0.0047650014
0.18450846
0.010215245
0.18286956
0.015332824
0.18204707
0.021232784
0.18210616
0.025051047
0.18344394
0.029718239
0.18682189
0.031019792
0.19222243
0.032666478
0.20031593
0.030465345
0.20913338
0.029449206
0.21987247
0.025370262
0.022356757
0.22821968
0.20290995
-0.0017087059
0.20302734
-0.003997585
0.20278336
-0.0051921685
0.20246573
-0.0054105913
0.20199017
-0.0043557322
0.20123648
-0.0020103263
0.20018607
0.0015451713
0.19866291
0.0062881571
0.19757966
0.011298494
0.19666137
0.016251118
0.19720506
0.020689092
0.19867862
0.023577483
0.20210607
0.026290798
0.2072639
0.025861955
0.21433601
0.025594376
0.22246965
0.022331701
0.23037546
0.021543397
0.23808864
0.017657084
0.018498394
0.241947
0.21773252
-0.0016852008
0.21757673
-0.0038417909
0.21725457
-0.0048700041
0.21691481
-0.0050708397
0.21626911
-0.0037100306
0.21537675
-0.00111796
0.21434245
0.0025794639
0.21342672
0.0072038933
0.21306102
0.011664189
0.21350168
0.015810463
0.21553577
0.018654997
0.21843536
0.020677901
0.22363708
0.021089074
0.2295279
0.019971132
0.23655441
0.018567865
0.24296736
0.015918752
0.2483575
0.016153266
0.25167259
0.014341985
0.019088024
0.25108296
0.23346838
-0.0017522376
0.23308181
-0.0034552223
0.23280893
-0.0045971205
0.23215752
-0.004419428
0.23130971
-0.0028622252
0.23050643
-0.00031467418
0.2295944
0.0034914853
0.22914248
0.0076558141
0.22949528
0.011311389
0.23120555
0.0141002
0.23402987
0.015830672
0.23808912
0.016618654
0.24366204
0.015516154
0.24880611
0.014827055
0.25449752
0.012876464
0.25804891
0.012367358
0.26003211
0.014170061
0.2585947
0.015779399
0.023666867
0.25401586
0.25043795
-0.0015230502
0.25021672
-0.0032339975
0.24995782
-0.0043382129
0.24936992
-0.0038315282
0.24890844
-0.0024007445
0.24810405
0.00048971745
0.24769364
0.0039018915
0.24805365
0.0072957998
0.24951157
0.0098534731
0.25213266
0.011479114
0.2555278
0.012435532
0.26008099
0.012065463
0.26447286
0.01112428
0.26865428
0.010645635
0.27176924
0.0097615053
0.27156252
0.012574077
0.26996403
0.015768553
0.26508991
0.020653515
0.028967137
0.25978964
0.26893799
-0.0012568525
0.26861216
-0.0029081694
0.26777206
-0.0034981118
0.26692227
-0.0029817374
0.26622579
-0.0017042657
0.26583644
0.00087907032
0.26608348
0.0036548487
0.26703554
0.0063437437
0.26900605
0.0078829655
0.27177371
0.0087114456
0.27525627
0.008952973
0.27923196
0.0080897719
0.28232097
0.008035277
0.28495975
0.0080068527
0.28451018
0.010211078
0.28270601
0.014378245
0.2803661
0.018108458
0.27665805
0.024361568
0.029261475
0.27636371
0.28941471
-0.001229025
0.28912339
-0.0026168474
0.28865228
-0.0030270089
0.28823562
-0.0025650758
0.28769425
-0.0011628913
0.28769865
0.00087467099
0.28838538
0.0029681174
0.28990268
0.0048264352
0.29212775
0.0056579022
0.29480109
0.0060381056
0.29795417
0.0057998919
0.30051474
0.0055291983
0.30214792
0.0064021016
0.30201949
0.0081352804
0.30025545
0.011975119
0.29954453
0.01508916
0.29869922
0.018953777
0.30079353
0.022267257
0.022480501
0.3075745
0.31107573
-0.00099176254
0.31031986
-0.0018609781
0.30921754
-0.0019246908
0.3082799
-0.0016274365
0.30793083
-0.00081382548
0.30820015
0.00060535675
0.30902298
0.0021452844
0.31074591
0.0031035059
0.31281091
0.0035929055
0.31511777
0.0037312438
0.31737515
0.0035425099
0.31901122
0.0038931241
0.32008595
0.0053273748
0.32046319
0.0077580401
0.32196793
0.010470384
0.32466566
0.012391422
0.32900645
0.014612988
0.33706305
0.014210661
0.013543368
0.34600018
0.33530962
-0.00099475301
0.33487397
-0.0014253232
0.3343713
-0.0014220244
0.33409688
-0.0013530141
0.33419706
-0.00091400765
0.33477721
2.5208343e-05
0.33608967
0.0008328201
0.33770701
0.0014861731
0.33943653
0.0018633798
0.34118519
0.0019825858
0.34232893
0.0023987688
0.34311431
0.0031077431
0.3439873
0.0044543809
0.34618127
0.0055640776
0.34972127
0.0069303858
0.35462121
0.0074914788
0.36158494
0.0076492581
0.36957437
0.006221229
0.0060451786
0.37707256
0.36095534
0.35953002
0.35810799
0.35675498
0.35584097
0.35586618
0.356699
0.35818517
0.36004855
0.36203114
0.36442991
0.36753765
0.37199203
0.37755611
0.3844865
0.39197797
0.39962723
0.40584846
0.41189364
0.10589832
0.046827869
-0.045239631
0.10463334
0.047836773
-0.046571786
0.10373462
0.048481117
-0.047582403
0.10294816
0.049682533
-0.048896075
0.10283166
0.049546492
-0.049429992
0.1027519
0.049771408
-0.049691645
0.10302032
0.05037021
-0.050638629
0.10420349
0.049020762
-0.050203931
0.10533935
0.048076848
-0.049212707
0.1070431
0.048125275
-0.04982903
0.1095726
0.046573996
-0.049103496
0.11232228
0.04404351
-0.046793185
0.11492179
0.042950316
-0.045549827
0.11806134
0.042193242
-0.045332792
0.12171959
0.040965605
-0.044623855
0.1254763
0.039263328
-0.043020037
0.12864325
0.038037446
-0.041204401
0.13051657
0.0388752
-0.040748518
0.039778528
0.13086348
-0.040125439
0.10854939
0.048984574
0.10697925
0.04940692
0.10525569
0.050204676
0.10441601
0.050522208
0.10365632
0.050306184
0.10309668
0.050331048
0.10348324
0.04998365
0.10397797
0.048526037
0.10474736
0.047307454
0.10669124
0.046181392
0.10915347
0.044111766
0.11130544
0.041891539
0.11436725
0.039888508
0.11839763
0.038162862
0.12275105
0.036612188
0.12673776
0.03527662
0.12959064
0.035184565
0.13237408
0.036091755
0.036577596
0.13557501
0.11026846
0.051323903
0.10778161
0.051893765
0.10587721
0.052109081
0.10430121
0.052098203
0.10287088
0.051736514
0.10220021
0.051001724
0.10172534
0.050458515
0.10173707
0.048514309
0.10247344
0.046571088
0.1035884
0.045066429
0.10593665
0.041763517
0.10894291
0.03888528
0.11252336
0.03630806
0.1162932
0.034393014
0.12098562
0.031919776
0.12676323
0.029499004
0.13402968
0.02791812
0.14242636
0.027695076
0.029082337
0.14992162
0.11044846
0.054558933
0.10735812
0.054984106
0.10475162
0.054715588
0.10216419
0.054685629
0.10040868
0.053492019
0.09851784
0.052892569
0.097729622
0.051246733
0.097157549
0.049086382
0.096697144
0.047031493
0.098398784
0.043364789
0.10074897
0.03941333
0.1031185
0.036515755
0.10719402
0.032232535
0.11398723
0.027599802
0.12306695
0.022840055
0.13298372
0.019582235
0.14287374
0.018028098
0.15208961
0.018479211
0.0216248
0.15954715
0.10872551
0.058583042
0.10519186
0.058517754
0.10136882
0.058538636
0.098388936
0.057665509
0.095100664
0.056780291
0.09274701
0.055246223
0.090691291
0.053302452
0.088763015
0.051014657
0.088970614
0.046823894
0.089536353
0.04279905
0.090068378
0.038881306
0.094683746
0.031900386
0.10191707
0.024999215
0.10908895
0.020427923
0.11462588
0.017303122
0.11809472
0.016113396
0.11969137
0.016431446
0.1204791
0.01769148
0.020848061
0.12125584
0.10551856
0.0632931
0.10071254
0.063323776
0.09595949
0.063291685
0.091655766
0.061969233
0.087198444
0.061237613
0.08340571
0.059038956
0.079263198
0.057444964
0.077200063
0.053077792
0.074593477
0.04943048
0.071885226
0.045507301
0.073211689
0.037554844
0.076877666
0.028234409
0.077180641
0.02469624
0.072645593
0.024962971
0.064318712
0.025630003
0.053482296
0.026949812
0.041412908
0.028500835
0.028993688
0.030110699
0.033297175
0.016544574
0.1009668
0.069120181
0.094701559
0.069589018
0.088713655
0.06927959
0.082284938
0.068397951
0.076135145
0.067387405
0.069480366
0.065693735
0.063604755
0.063320576
0.057330301
0.059352246
0.049878386
0.056882396
0.045841555
0.049544132
0.042011212
0.041385186
0.035214984
0.035030637
0.024315768
0.035595457
0.0099537347
0.039325004
-0.0061566132
0.041740351
-0.02307166
0.043864859
-0.040784877
0.046214052
-0.060026247
0.049352069
0.053228067
-0.079957139
0.095109791
0.076292543
0.087625121
0.077073688
0.080085096
0.076819615
0.071788512
0.076694534
0.063324011
0.075851907
0.053706868
0.075310878
0.043790694
0.07323675
0.031892703
0.071250237
0.023134828
0.06564027
0.016112659
0.056566301
0.0034347264
0.05406312
-0.012915664
0.051381027
-0.030608856
0.05328865
-0.048002727
0.056718874
-0.066165762
0.059903386
-0.084799286
0.062498383
-0.10339257
0.064807332
-0.12205831
0.068017815
0.071859394
-0.14068964
0.090427416
0.084823439
0.081802378
0.085698726
0.072727594
0.085894399
0.063126323
0.086295805
0.052881032
0.086097198
0.041666188
0.086525722
0.028882018
0.08602092
0.01546029
0.084671964
0.0066633727
0.074437188
-0.004453654
0.067683328
-0.021615003
0.071224468
-0.042983385
0.072749409
-0.065483454
0.075788719
-0.086161387
0.077396807
-0.10536261
0.079104609
-0.12345618
0.080591953
-0.14105272
0.08240387