/*--------------------------------*- C++ -*----------------------------------*\
  =========                 |
  \\      /  F ield         | OpenFOAM: The Open Source CFD Toolbox
   \\    /   O peration     | Website:  https://openfoam.org
    \\  /    A nd           | Version:  11
     \\/     M anipulation  |
\*---------------------------------------------------------------------------*/
FoamFile
{
    format      ascii;
    class       surfaceScalarField;
    location    "14.4";
    object      phi;
}
// * * * * * * * * * * * * * * * * * * * * * * * * * * * * * * * * * * * * * //

dimensions      [0 3 -1 0 0 0 0];

internalField   nonuniform List<scalar> 
10792
(
0.06897825
-0.043079447
-0.069446851
0.043548048
0.068466868
-0.041114145
0.041625527
0.067837651
-0.038865676
0.039494894
0.067165056
-0.036648746
0.037321341
0.066348539
-0.034322792
0.035139309
0.065581645
-0.03190495
0.032671845
0.064775928
-0.02966711
0.030472827
0.063950013
-0.027132963
0.027958878
0.063144295
-0.024798814
0.025604532
0.062380532
-0.022215364
0.022979127
0.061606742
-0.019790706
0.020564497
0.060963227
-0.017144842
0.017788357
0.060267242
-0.014754205
0.01545019
0.05975846
-0.011951642
0.012460424
0.05921086
-0.0096008723
0.010148472
0.05876905
-0.0067383552
0.007180166
0.058452394
-0.0044476144
0.0047642702
0.058280557
-0.0016486572
0.0018204948
0.00077195595
0.058289807
-0.00078120582
0.072926496
-0.042635334
-0.073370609
0.072361224
-0.040548872
0.071699499
-0.038203951
0.071003335
-0.035952581
0.070232169
-0.033551626
0.069555682
-0.031228463
0.06878111
-0.028892538
0.067987237
-0.02633909
0.067202438
-0.024014014
0.066441379
-0.021454305
0.06568879
-0.019038117
0.065027907
-0.016483959
0.064336309
-0.014062606
0.063820584
-0.011435918
0.063278481
-0.0090587686
0.062913628
-0.0063735022
0.062615191
-0.0041491774
0.062331362
-0.0013648277
0.00087046094
0.062232857
0.077532323
-0.042215211
-0.077952446
0.076948178
-0.039964728
0.076302329
-0.037558102
0.075665059
-0.035315311
0.074965495
-0.032852062
0.074297995
-0.030560963
0.073460111
-0.028054653
0.072670161
-0.02554914
0.071849772
-0.023193625
0.071054702
-0.020659235
0.070309048
-0.018292463
0.069593067
-0.015767978
0.068931974
-0.013401512
0.068358531
-0.010862475
0.067822784
-0.0085230212
0.067422085
-0.0059728034
0.067035326
-0.0037624183
0.066812173
-0.0011416739
0.0010528472
0.066629786
0.08205199
-0.041818653
-0.082448548
0.081336883
-0.03924962
0.080791108
-0.037012327
0.080188676
-0.034712879
0.079483018
-0.032146404
0.078676812
-0.029754757
0.077809202
-0.027187043
0.077095121
-0.024835059
0.076278039
-0.022376543
0.075547211
-0.019928407
0.074804865
-0.017550117
0.074102944
-0.015066056
0.073465227
-0.012763795
0.072899069
-0.010296317
0.072405615
-0.008029567
0.07201867
-0.0055858587
0.071669851
-0.0034135994
0.071469344
-0.00094116656
0.0012341673
0.071288024
0.087197194
-0.041253842
-0.087762005
0.086589171
-0.038641597
0.086139835
-0.03656299
0.085348826
-0.03392187
0.084611555
-0.031409133
0.083825313
-0.028968515
0.083145905
-0.026507634
0.08246162
-0.024150774
0.081642912
-0.021557835
0.080930042
-0.019215536
0.080118408
-0.016738483
0.079434649
-0.014382297
0.07874239
-0.012071537
0.078178519
-0.0097324454
0.077674446
-0.0075254939
0.077259081
-0.0051704938
0.076867822
-0.0030223398
0.076607252
-0.00068059626
0.0014343608
0.076407058
0.092451055
-0.040628715
-0.093076181
0.091843854
-0.038034396
0.09114357
-0.035862707
0.090321404
-0.033099704
0.089713658
-0.030801387
0.088962734
-0.028217592
0.088280833
-0.025825733
0.08745464
-0.023324581
0.086693449
-0.020796644
0.085969778
-0.018491865
0.085203389
-0.015972094
0.084583796
-0.013762705
0.083898704
-0.011386445
0.083366439
-0.0092001797
0.082794739
-0.0069537935
0.082391976
-0.0047677311
0.082027053
-0.0026574162
0.081838589
-0.00049213286
0.0015813001
0.08169165
0.098187124
-0.039975172
-0.098840668
0.097661406
-0.037508677
0.096962396
-0.035163697
0.096334254
-0.032471562
0.095757599
-0.030224732
0.094953705
-0.027413697
0.09425652
-0.025128548
0.093407703
-0.022475764
0.092755767
-0.020144707
0.091971236
-0.017707334
0.091289582
-0.01529044
0.090601146
-0.013074269
0.089896021
-0.01068132
0.089318289
-0.0086224475
0.088730634
-0.006366138
0.088326318
-0.0043634152
0.087898307
-0.0022294046
0.087674489
-0.00026831474
0.0017874599
0.087468329
0.10446814
-0.039243211
-0.1052001
0.10383424
-0.03687478
0.10301361
-0.034343062
0.10238342
-0.031841372
0.10160227
-0.029443578
0.10082966
-0.026641093
0.10014945
-0.024448333
0.099328599
-0.021654917
0.098700331
-0.019516439
0.097877421
-0.016884423
0.097233762
-0.014646781
0.096481786
-0.012322293
0.095915249
-0.010114782
0.095332363
-0.008039562
0.09482867
-0.0058624451
0.094406345
-0.0039410891
0.094029319
-0.0018523785
0.09382914
-6.8136243e-05
0.0019961957
0.093620404
0.11109512
-0.038565921
-0.11177241
0.11051339
-0.036293047
0.10971101
-0.033540677
0.108959
-0.031089367
0.10808776
-0.028572332
0.10753115
-0.026084489
0.10684373
-0.023760912
0.10614799
-0.020959179
0.10542981
-0.018798256
0.10458832
-0.016042935
0.1039536
-0.014012053
0.1031857
-0.011554394
0.10264182
-0.009570902
0.10195841
-0.0073561536
0.10150398
-0.0054080174
0.10098909
-0.0034261955
0.10064902
-0.0015123058
0.1003355
0.00024537904
0.0021813735
0.10015032
0.11830197
-0.037793254
-0.11907464
0.11756848
-0.035559551
0.11686162
-0.032833823
0.11624776
-0.030475498
0.11536283
-0.027687408
0.11462866
-0.025350322
0.11376816
-0.022900409
0.11322304
-0.020414061
0.11249729
-0.018072499
0.11182947
-0.015375122
0.11113517
-0.013317749
0.1104071
-0.010826322
0.10982991
-0.008993711
0.10916593
-0.006692171
0.10877569
-0.0050177818
0.10827248
-0.0029229828
0.10800001
-0.0012398393
0.10763981
0.00060558428
0.0023220053
0.10749917
0.12605169
-0.037053071
-0.12679188
0.12523076
-0.034738621
0.1244076
-0.03201066
0.12366742
-0.029735316
0.12295551
-0.026975499
0.12225119
-0.024645999
0.12129975
-0.021948971
0.12060366
-0.019717976
0.11976614
-0.017234976
0.11919977
-0.014808754
0.11841626
-0.012534238
0.11775983
-0.010169889
0.11706609
-0.0082999734
0.11649493
-0.0061210028
0.11602068
-0.0045435361
0.11553475
-0.0024370516
0.11524541
-0.00095049773
0.1149084
0.00094258971
0.0024242677
0.11480614
0.13478889
-0.036295047
-0.13554691
0.13378456
-0.033734291
0.13299907
-0.031225166
0.13205565
-0.0287919
0.13123461
-0.02615446
0.13042489
-0.023836279
0.12961431
-0.021138391
0.12888823
-0.018991897
0.12807883
-0.016425571
0.12751268
-0.014242603
0.12676088
-0.011782445
0.12625123
-0.0096602353
0.12551864
-0.0075673836
0.12505843
-0.0056607879
0.12448099
-0.0039661001
0.12412722
-0.0020832789
0.12377878
-0.00060206473
0.12349609
0.0012252796
0.0025995141
0.12332085
0.14344065
-0.035295185
-0.14444051
0.14244126
-0.032734899
0.14163402
-0.030417934
0.14069303
-0.027850905
0.13995643
-0.025417857
0.13903433
-0.022914184
0.13828789
-0.020391948
0.13746035
-0.018164358
0.13666563
-0.015630848
0.13596259
-0.013539565
0.13520779
-0.011027647
0.13461068
-0.0090631226
0.13388558
-0.0068422826
0.13342782
-0.0052030327
0.1328098
-0.0033480825
0.13251401
-0.0017874793
0.13206349
-0.00015154916
0.13188977
0.0013989963
0.0028598002
0.13162949
0.15364285
-0.034045786
-0.15489225
0.15255183
-0.031643875
0.15154897
-0.029415081
0.15051054
-0.026812474
0.14962827
-0.024535586
0.14866301
-0.021948922
0.14796
-0.019688942
0.14703755
-0.017241905
0.14637291
-0.014966202
0.14560827
-0.012774928
0.14499193
-0.010411305
0.14431958
-0.0083907748
0.14368771
-0.0062104183
0.14312439
-0.0046397041
0.14256729
-0.0027909874
0.14227173
-0.0014919235
0.14188399
0.00023619227
0.14173529
0.0015477015
0.0031721195
0.14142297
0.16368768
-0.032713622
-0.16501985
0.16250904
-0.030465228
0.16133051
-0.028236556
0.16034987
-0.025831834
0.15940484
-0.023590558
0.1585209
-0.021064981
0.15769369
-0.018861731
0.15672615
-0.016274365
0.15601475
-0.014254796
0.15515536
-0.011915535
0.15460078
-0.0098567322
0.15393069
-0.007720685
0.15348178
-0.0057615064
0.15284398
-0.0040019013
0.15240676
-0.0023537643
0.15196793
-0.0010530963
0.15171972
0.00048440379
0.15161292
0.0016545031
0.0032199131
0.15156512
0.17582909
-0.031239366
-0.17730334
0.17450119
-0.02913733
0.17321864
-0.02695401
0.17210184
-0.024715032
0.17098296
-0.02247168
0.17007447
-0.020156491
0.16911887
-0.017906135
0.16830127
-0.015456759
0.16747446
-0.01342799
0.16664883
-0.0110899
0.1660075
-0.0092154064
0.1653417
-0.0070548839
0.16485188
-0.0052716831
0.16416861
-0.0033186293
0.16371667
-0.0019018247
0.16308325
-0.00041968224
0.16279164
0.00077601712
0.1624437
0.002002441
0.00323082
0.1624328
0.18777681
-0.029604304
-0.18941187
0.18622464
-0.027585164
0.18480381
-0.025533177
0.18349556
-0.023406776
0.18226332
-0.021239443
0.18124859
-0.019141758
0.18026769
-0.016925241
0.17948396
-0.014673027
0.17860021
-0.01254424
0.17782161
-0.010311305
0.1770736
-0.0084673952
0.1764862
-0.0064674844
0.17602283
-0.0048083117
0.17565134
-0.002947134
0.17535982
-0.0016103045
0.17495464
-1.4501188e-05
0.17474257
0.00098808385
0.17444523
0.0022997786
0.0032382202
0.17443783
0.20186282
-0.027747322
-0.2037198
0.20014096
-0.025863299
0.19860721
-0.023999431
0.19716009
-0.021959652
0.1958914
-0.019970753
0.19471029
-0.017960644
0.19365735
-0.01587231
0.19275728
-0.013772955
0.19184951
-0.011636465
0.19104255
-0.0095043506
0.19016776
-0.0075926015
0.18942931
-0.0057290291
0.18872384
-0.0041028422
0.18822523
-0.0024485295
0.18774459
-0.0011296626
0.18743611
0.00029398385
0.18717021
0.0012539839
0.18698763
0.0024823574
0.0033090337
0.18691681
0.21604515
-0.025624557
-0.21816792
0.21409888
-0.023917031
0.2122905
-0.022191051
0.21066234
-0.02033149
0.20922468
-0.01853309
0.20785143
-0.016587395
0.20667535
-0.014696228
0.20566469
-0.012762296
0.20482811
-0.010799885
0.20413043
-0.0088066674
0.20347263
-0.006934804
0.20288317
-0.0051395714
0.2022921
-0.0035117713
0.20185911
-0.0020155364
0.20141988
-0.0006904347
0.20117327
0.00054059103
0.20092383
0.0015034275
0.20084104
0.0025651474
0.0033654073
0.20078467
0.23238306
-0.023207325
-0.23480029
0.23021036
-0.021744337
0.22820128
-0.020181967
0.22640516
-0.018535376
0.22477236
-0.016900285
0.22330071
-0.01511575
0.22196774
-0.01336325
0.22074001
-0.011534572
0.21967854
-0.0097384104
0.21881957
-0.0079477022
0.21813032
-0.0062455489
0.21755066
-0.0045599118
0.21703271
-0.002993825
0.21660136
-0.00158419
0.21623053
-0.00031960323
0.21594884
0.00082228184
0.21572178
0.0017304898
0.21563856
0.0026483685
0.0033935445
0.21561042
0.24908052
-0.020644176
-0.25164367
0.24668612
-0.019349936
0.24442689
-0.017922735
0.24246543
-0.016573916
0.24064341
-0.01507827
0.23912476
-0.013597094
0.23773987
-0.011978362
0.23651375
-0.010308454
0.23542734
-0.0086519958
0.23447852
-0.0069988838
0.23368112
-0.0054481447
0.23309741
-0.0039762108
0.23264358
-0.0025399882
0.23228507
-0.0012256778
0.23206192
-9.6461327e-05
0.23186833
0.0010158744
0.23178155
0.0018172688
0.2317752
0.0026547195
0.0032898802
0.23187887
0.26791799
-0.0178722
-0.27068997
0.26529555
-0.016727493
0.26284944
-0.015476627
0.26051159
-0.01423607
0.25842075
-0.012987428
0.25659454
-0.011770887
0.25500611
-0.010389924
0.25370809
-0.0090104334
0.2525856
-0.0075295076
0.25166217
-0.0060754517
0.25082947
-0.0046154461
0.25017464
-0.0033213883
0.24964129
-0.002006634
0.24928422
-0.00086860561
0.24898456
0.00020319264
0.24887762
0.0011228152
0.24886897
0.0018259268
0.24897259
0.0025510927
0.0030490179
0.24921345
0.28754543
-0.014981335
-0.29043629
0.28480911
-0.013991177
0.28233098
-0.012998494
0.27994264
-0.011847734
0.27774664
-0.01079142
0.27568789
-0.0097121379
0.27388175
-0.0085837839
0.27235329
-0.0074819789
0.27106358
-0.0062397895
0.27002886
-0.0050407363
0.26917792
-0.0037645057
0.26848667
-0.0026301407
0.26796975
-0.0014897163
0.26765895
-0.00055779716
0.26753484
0.00032729767
0.26748376
0.0011739007
0.26755039
0.0017592907
0.26771868
0.0023828025
0.0028011679
0.26796653
0.308914
-0.011705236
-0.3121901
0.30581783
-0.010895006
0.30291558
-0.010096251
0.3003146
-0.0092467474
0.29792745
-0.0084042709
0.29576413
-0.0075488174
0.29384679
-0.0066664494
0.29215742
-0.0057926049
0.29076056
-0.0048429345
0.28965031
-0.0039304852
0.28883668
-0.0029508729
0.28825194
-0.0020453956
0.28786387
-0.0011016519
0.28759985
-0.00029377226
0.28752776
0.00039938123
0.28763708
0.0010645858
0.28789513
0.0015012411
0.28826465
0.0020132768
0.0022941214
0.2887717
0.33209153
-0.0082561505
-0.33554061
0.32882552
-0.0076289988
0.32575003
-0.0070207572
0.3229161
-0.0064128225
0.32031446
-0.0058026278
0.31796381
-0.0051981673
0.31587645
-0.0045790914
0.31402542
-0.0039415713
0.31246758
-0.0032850978
0.3111884
-0.0026513081
0.31019612
-0.0019585849
0.30950605
-0.0013553241
0.30907929
-0.00067489211
0.30896959
-0.000184075
0.30902484
0.00034413124
0.30926425
0.00082517759
0.30964741
0.0011180729
0.31006637
0.001594322
0.00170767
0.31065282
0.35672902
-0.0043480835
-0.36063709
0.35313756
-0.004037536
0.34981019
-0.0036933839
0.3467517
-0.0033543371
0.34395903
-0.0030099623
0.34145298
-0.0026921173
0.33922675
-0.0023528594
0.33727955
-0.0019943689
0.33565133
-0.0016568799
0.334303
-0.001302977
0.33331752
-0.00097310711
0.33262534
-0.00066314314
0.33229295
-0.00034250348
0.33220158
-9.2704679e-05
0.33238908
0.000156631
0.33290345
0.00031081563
0.33353951
0.00048200589
0.33428485
0.0008489872
0.00079020912
0.33520231
0.38431512
-0.38866321
0.38027759
0.3765842
0.37322987
0.3702199
0.36752779
0.36517493
0.36318056
0.36152368
0.3602207
0.3592476
0.35858445
0.35824195
0.35814924
0.35830588
0.35861669
0.3590987
0.35994768
0.36073789
0.058137006
0.0036327852
-0.0034799844
0.058360698
0.0059958915
-0.0062195828
0.058716915
0.0084849782
-0.008841195
0.05935342
0.011115077
-0.011751583
0.060126713
0.013285441
-0.014058734
0.061165111
0.016046139
-0.017084536
0.06241069
0.018042305
-0.019287885
0.063689333
0.020905883
-0.022184526
0.06538089
0.022819315
-0.024510871
0.066834277
0.025401631
-0.026855019
0.06882099
0.027460894
-0.029447606
0.070584898
0.029381426
-0.031145334
0.072592003
0.031770562
-0.033777667
0.074743915
0.033233111
-0.035385023
0.076632318
0.03559536
-0.037483764
0.079126756
0.036890335
-0.039384772
0.081105117
0.038474495
-0.040452856
0.083421499
0.039799678
-0.04211606
0.040707265
0.085592876
-0.042878642
0.062148885
0.0037167576
0.062407217
0.0057375599
0.06280824
0.0080839549
0.063595603
0.010327714
0.064421292
0.012459752
0.065607768
0.014859663
0.066842089
0.016807984
0.068307986
0.019439986
0.069913615
0.021213686
0.071428209
0.023887037
0.07326574
0.025623363
0.074731861
0.027915305
0.076588941
0.029913482
0.078062549
0.031759503
0.079643382
0.034014528
0.081073603
0.035460113
0.082191328
0.037356771
0.08340941
0.038581596
0.039997755
0.084118919
0.066583186
0.0037633577
0.066796042
0.0055247044
0.067181222
0.0076987743
0.067918872
0.0095900638
0.068716157
0.011662467
0.06986017
0.013715651
0.070957179
0.015710975
0.072402848
0.017994317
0.073731805
0.019884729
0.075326598
0.022292244
0.076753599
0.024196362
0.078188025
0.026480879
0.079620493
0.028481015
0.080732671
0.030647325
0.081882554
0.032864644
0.082393037
0.03494963
0.082777261
0.036972547
0.082573369
0.038785488
0.040584364
0.08198676
0.071262094
0.0037892876
0.071457314
0.0053294848
0.071912475
0.0072436137
0.072610568
0.0088919711
0.073484506
0.010788529
0.074571478
0.012628678
0.075716799
0.014565654
0.077037291
0.016673826
0.078250351
0.018671669
0.079663535
0.020879061
0.080737088
0.023122809
0.081965945
0.025252022
0.082694362
0.027752597
0.083383069
0.029958618
0.083593331
0.032654383
0.083373293
0.035169667
0.082622656
0.037723185
0.081133901
0.040274243
0.042736325
0.078981941
0.076274893
0.0039214528
0.07637941
0.0052249673
0.076749854
0.00687317
0.077389104
0.0082527209
0.07822441
0.009953223
0.079210574
0.011642514
0.080286413
0.013489815
0.081426241
0.015533998
0.082516858
0.017581052
0.083550654
0.019845264
0.084470385
0.022203078
0.085169118
0.024553289
0.085479064
0.027442651
0.085552168
0.029885514
0.084907869
0.033298682
0.084084454
0.035993083
0.082077715
0.039729923
0.079710779
0.042641179
0.046444807
0.076002297
0.081695551
0.0039175525
0.081872713
0.0050478047
0.082357336
0.0063885469
0.082996178
0.0076138796
0.083779047
0.0091703538
0.084661188
0.010760373
0.085551964
0.012599039
0.086533511
0.014552451
0.087302388
0.016812175
0.088026959
0.019120695
0.088454324
0.021775712
0.088569987
0.024437626
0.08832849
0.027684148
0.087514613
0.030699391
0.086235644
0.034577651
0.08448141
0.037747316
0.08174462
0.042466713
0.078700787
0.045685012
0.050807878
0.074337715
0.087346289
0.0040395927
0.087416856
0.0049772371
0.087792231
0.0060131714
0.088301017
0.007105094
0.089055335
0.0084160356
0.089845967
0.0099697403
0.090738193
0.011706813
0.091506316
0.013784328
0.092130192
0.0161883
0.092542604
0.018708282
0.09256071
0.021757607
0.09226128
0.024737056
0.091348663
0.028596765
0.090013389
0.032034665
0.08809734
0.0364937
0.085576919
0.040267737
0.082650465
0.045393166
0.078920854
0.049414623
0.055393107
0.074335625
0.093564366
0.0040956318
0.093671207
0.0048703961
0.094088009
0.0055963692
0.094659838
0.0065332647
0.0953351
0.0077407741
0.095958688
0.0093461525
0.096590594
0.011074908
0.096951773
0.01342315
0.097327459
0.015812613
0.097200071
0.018835671
0.096936118
0.02202156
0.095980698
0.025692476
0.094805799
0.029771664
0.09298144
0.033859024
0.090679444
0.038795696
0.087796361
0.04315082
0.084465741
0.048723786
0.080318079
0.053562285
0.059975596
0.075735591
0.10003881
0.0042071446
0.10006401
0.0048452004
0.10039829
0.0052620863
0.10084325
0.0060883076
0.10143956
0.0071444621
0.10204556
0.008740147
0.10259429
0.010526186
0.10290891
0.013108522
0.10302722
0.015694309
0.10259921
0.019263677
0.10203553
0.022585246
0.10065667
0.027071329
0.099287445
0.031140893
0.096884623
0.036261845
0.094646978
0.041033341
0.091334342
0.046463456
0.088146553
0.051911576
0.084274415
0.057434422
0.063808091
0.08044192
0.10727276
0.0044335567
0.10735724
0.00476072
0.10767905
0.0049402804
0.10800814
0.0057592201
0.10842097
0.0067316314
0.10877408
0.0083870358
0.10896855
0.010331714
0.1089503
0.013126777
0.10867609
0.015968519
0.10806595
0.019873813
0.10714221
0.023508984
0.10565908
0.028554466
0.10401524
0.032784731
0.10171726
0.038559821
0.09969143
0.043059173
0.096713031
0.049441854
0.094778023
0.053846584
0.092062074
0.060150371
0.064910782
0.090959383
0.11449459
0.0047451072
0.1146629
0.0045924045
0.11483252
0.0047706634
0.11514269
0.005449047
0.11557547
0.0062988589
0.11594823
0.0080142704
0.11603317
0.010246774
0.11591734
0.013242609
0.11549414
0.016391719
0.11473447
0.020633488
0.11351317
0.024730285
0.11210576
0.029961873
0.11045798
0.034432512
0.10882114
0.040196652
0.10729885
0.044581466
0.10598541
0.050755295
0.10594924
0.053882758
0.10644551
0.059654098
0.06090224
0.11045405
0.12307095
0.0049950085
0.1231985
0.0044648567
0.12313117
0.0048379909
0.12333311
0.0052471022
0.12344267
0.0061892988
0.12356377
0.0078931696
0.12348718
0.010323365
0.12329145
0.013438345
0.12261776
0.017065412
0.12176486
0.021486384
0.12061089
0.025884259
0.11966811
0.03090465
0.11858028
0.03552034
0.11811942
0.040657512
0.1180034
0.044697491
0.11951612
0.049242571
0.12243171
0.050967169
0.12786501
0.054220792
0.051829904
0.13693735
0.13156367
0.0050608226
0.13161569
0.0044128381
0.13173157
0.0047221117
0.13206051
0.0049181606
0.13213945
0.0061103609
0.13217561
0.0078570114
0.13199329
0.01050568
0.13165868
0.013772958
0.13088777
0.017836327
0.13025467
0.022119477
0.12948154
0.026657395
0.12929536
0.031090832
0.1292715
0.03554419
0.13048202
0.039446998
0.13266261
0.042516897
0.13737348
0.044531707
0.14351132
0.044829323
0.15286762
0.044864494
0.040664754
0.16403277
0.14123606
0.005247729
0.14087485
0.0047740467
0.14100011
0.004596857
0.1411698
0.0047484744
0.14122241
0.0060577445
0.14128363
0.007795792
0.14110553
0.010683779
0.1407075
0.014170994
0.14021864
0.018325178
0.14010138
0.022236743
0.14010999
0.026648782
0.14097266
0.030228162
0.14240772
0.034109138
0.14563629
0.036218429
0.15025687
0.037896308
0.15739179
0.037396788
0.16553151
0.036689611
0.17613259
0.034263411
0.030107047
0.1866903
0.15153164
0.0052812171
0.15126152
0.0050441639
0.15144272
0.0044156537
0.15143987
0.0047513206
0.15149759
0.0060000294
0.15146017
0.00783321
0.15119537
0.010948583
0.15091604
0.014450318
0.15094553
0.018295693
0.15142776
0.021754508
0.15241187
0.025664675
0.15442923
0.028210803
0.15756679
0.030971573
0.16266295
0.031122268
0.16900227
0.031556988
0.17734614
0.02905292
0.18583983
0.028195917
0.19550893
0.024594312
0.022057439
0.20355854
0.16218333
0.0055306861
0.16216508
0.0050624079
0.16232533
0.0042554067
0.16225205
0.0048245968
0.16243066
0.0058214182
0.16235944
0.0079044345
0.16234909
0.010958931
0.16260114
0.014198272
0.16334296
0.017553866
0.16457162
0.020525854
0.166641
0.023595288
0.16982866
0.025023142
0.17450383
0.026296409
0.18076682
0.024859271
0.18782424
0.024499569
0.19592636
0.020950805
0.20326284
0.02085944
0.21048509
0.017372056
0.01779612
0.21474641
0.17406852
0.0059000009
0.17436782
0.004763102
0.1742319
0.0043913312
0.17430386
0.0047526323
0.17447359
0.00565169
0.17435282
0.008025209
0.17467123
0.010640514
0.17539405
0.01347545
0.17669913
0.016248785
0.17861059
0.018614395
0.18172531
0.020480567
0.18591873
0.020829724
0.1916271
0.020588044
0.19805441
0.018431959
0.20468382
0.017870152
0.21100792
0.01462671
0.21591537
0.015951992
0.21979399
0.013493432
0.017222544
0.22036757
0.18680154
0.0060152788
0.18704998
0.0045146575
0.18689259
0.0045487255
0.1873585
0.0042867185
0.18746401
0.0055461803
0.18777724
0.0077119779
0.18859278
0.0098249691
0.18986528
0.012202951
0.19183932
0.014274745
0.19454832
0.015905392
0.19884199
0.0161869
0.20353131
0.016140405
0.20940607
0.014713282
0.21471357
0.013124458
0.21969207
0.012891648
0.22311445
0.011204336
0.22511846
0.013947981
0.2252622
0.013349691
0.020096101
0.22238864
0.20090968
0.0058902605
0.20093109
0.0044932473
0.20109601
0.0043838091
0.20140909
0.0039736395
0.20145102
0.0055042483
0.20222021
0.0069427819
0.20330108
0.0087441032
0.20497146
0.010532573
0.20728843
0.011957771
0.21057777
0.012616053
0.21507924
0.011685427
0.21946437
0.011755271
0.22454608
0.0096315722
0.22785861
0.0098119358
0.23093083
0.0098194185
0.23147857
0.010656598
0.23094247
0.014484078
0.22741388
0.016878289
0.026024054
0.22148592
0.21583056
0.0056701193
0.21586842
0.0044553925
0.21636984
0.0038823858
0.21668002
0.0036634609
0.21732269
0.0048615718
0.21852683
0.0057386466
0.21992824
0.0073426879
0.22210119
0.0083596258
0.22480178
0.0092571824
0.22877046
0.0086473705
0.23249268
0.0079632058
0.23652237
0.0077255848
0.23961381
0.0065401301
0.24099501
0.0084307347
0.24186371
0.008950714
0.23932598
0.013194333
0.23607844
0.017731615
0.22939126
0.023565469
0.03326279
0.22215252
0.23207223
0.0054767505
0.23222405
0.0043035724
0.23256465
0.0035417899
0.23273299
0.0034951208
0.23375459
0.0038399679
0.23475755
0.0047356865
0.23647136
0.0056288761
0.23891693
0.0059140527
0.24182033
0.0063537845
0.24526475
0.0052029473
0.24774794
0.0054800244
0.25074657
0.0047269501
0.25152454
0.0057621563
0.25170221
0.008253067
0.24956775
0.011085173
0.24518283
0.017579253
0.24071255
0.022201896
0.23438622
0.029891793
0.036670925
0.23097809
0.24969085
0.0049993519
0.2502227
0.0037717291
0.25070368
0.00306081
0.25150716
0.002691632
0.25256442
0.0027827126
0.25383022
0.0034698804
0.25600326
0.0034558362
0.25819575
0.0037215669
0.26095538
0.0035941517
0.26321628
0.0029420435
0.26519894
0.0034973687
0.26637922
0.0035466695
0.26554576
0.0065956145
0.26393942
0.00985941
0.25980079
0.015223802
0.25659179
0.020788251
0.25352668
0.025267004
0.25212774
0.031290733
0.032656003
0.25614266
0.2685006
0.0044652799
0.26886051
0.0034118272
0.26942716
0.0024941541
0.27038568
0.0017331127
0.27126046
0.0019079302
0.27270209
0.0020282495
0.27429663
0.0018612922
0.27607946
0.0019387429
0.27812748
0.0015461272
0.27925798
0.0018115428
0.28025309
0.0025022606
0.279685
0.0041147628
0.27823532
0.0080452909
0.27614887
0.011945853
0.27426732
0.017105353
0.27456765
0.020487926
0.27564535
0.024189305
0.28155152
0.025384562
0.023467816
0.2907397
0.28955664
0.0036803386
0.29027799
0.0026904755
0.29116471
0.0016074342
0.29206489
0.00083293535
0.29321446
0.00075835421
0.29452542
0.00071729285
0.29568033
0.00070638609
0.2971646
0.00045447019
0.29830645
0.00040427155
0.29909308
0.0010249113
0.29904607
0.00254927
0.29762901
0.0055318235
0.2963564
0.0093179019
0.29552478
0.012777473
0.29670521
0.01592492
0.29960673
0.01758641
0.30545694
0.018339093
0.31483146
0.016010039
0.015101112
0.32319817
0.31148957
0.002843591
0.31212309
0.0020569528
0.31291693
0.00081358951
0.31369582
5.4053394e-05
0.31432764
0.00012652401
0.31492846
0.00011647428
0.31556304
7.1810816e-05
0.31602817
-1.0658913e-05
0.31626163
0.00017080986
0.31632379
0.00096275237
0.31607344
0.0027996101
0.31618569
0.0054195741
0.31762947
0.0078741283
0.32054929
0.0098576504
0.32540576
0.011068445
0.33165604
0.011336132
0.33937389
0.010621242
0.34573335
0.0096505818
0.011321019
0.34951344
0.33649212
0.001553778
0.33778353
0.00076554628
0.33870019
-0.00010307014
0.33932056
-0.0005663171
0.33977325
-0.00032617098
0.33998897
-9.9244588e-05
0.34003044
3.0337732e-05
0.34009828
-7.8495273e-05
0.34025306
1.6029163e-05
0.3404877
0.00072810918
0.34108801
0.0021992979
0.34281366
0.003693924
0.3453596
0.0053281894
0.34936869
0.005848564
0.35396303
0.0064741045
0.35927024
0.0060289125
0.36394873
0.0059427552
0.36782602
0.0057732913
0.0062749574
0.37287208
0.36229167
0.36305722
0.36295415
0.36238783
0.36206166
0.36196241
0.36199275
0.36191426
0.36193028
0.36265839
0.36485769
0.36855162
0.3738798
0.37972837
0.38620247
0.39223138
0.39817414
0.40394743
0.41022239
0.082054155
0.047158349
-0.043619628
0.078728617
0.047177285
-0.043851746
0.075200332
0.047248738
-0.043720453
0.072128392
0.046129816
-0.043057877
0.068306831
0.045803471
-0.041981909
0.06568993
0.04361623
-0.040999329
0.061654206
0.041529691
-0.037493967
0.058634945
0.038578191
-0.035558929
0.056036045
0.033295381
-0.030696481
0.051151823
0.029851843
-0.024967621
0.050280523
0.021304037
-0.020432737
0.052093287
0.0086518866
-0.010464651
0.049862828
0.0010357004
0.0011947592
0.041909351
-0.00082077301
0.0087742492
0.029721772
-0.00048808981
0.012675669
0.011898942
0.003227264
0.014595566
-0.0085320745
0.0086392716
0.011791745
-0.02908957
0.017382683
0.003174812
0.029056331
-0.048337905
-0.0098079958
0.07991368
0.051363588
0.075212019
0.051878945
0.070830276
0.051630482
0.065932804
0.051027288
0.061436004
0.050300271
0.056780178
0.048272055
0.050971586
0.047338283
0.046459407
0.043090371
0.03961384
0.040140948
0.036311414
0.033154268
0.036814581
0.020800871
0.031392532
0.014073936
0.017477605
0.014950628
-0.00019913456
0.016855966
-0.018296176
0.017608952
-0.036932656
0.021863744
-0.055712895
0.027419511
-0.074258438
0.035928226
0.045944447
-0.091146554
0.076815337
0.056535011
0.071188419
0.057505864
0.065340601
0.057478299
0.058931001
0.057436887
0.052769677
0.056461596
0.045209027
0.055832705
0.03867255
0.05387476
0.030519708
0.051243213
0.021996881
0.048663776
0.018096184
0.037054965
0.0095587427
0.029338312
-0.0039462386
0.027578917
-0.019592989
0.030597378
-0.036694637
0.033957615
-0.054831615
0.03574593
-0.072978089
0.040010218
-0.090461979
0.0449034
-0.10633496
0.051801206
0.05869362
-0.11908413
0.072601443
0.062915508
0.066113896
0.063993411
0.058891835
0.06470036
0.051505958
0.064822764
0.043423071
0.064544483
0.03449193
0.064763846
0.025297495
0.063069195
0.013860229
0.062680478
0.0063021414
0.056221864
-0.0020035873
0.045360693
-0.018038991
0.045373715
-0.035462491
0.045002418
-0.051844496
0.046979383
-0.067736659
0.049849778
-0.084197633
0.052206904
-0.099827742
0.055640326
-0.11414368
0.059219343
-0.12624162
0.063899138
0.067757348
-0.13530534
0.068733715
0.070184091
0.061432037
0.071295089
0.053475264
0.072657133
0.045194586
0.073103442
0.036000788
0.073738281
0.026442645
0.07432199
0.015279666
0.074232174
0.0044887274
0.073471417
-0.0017907421
0.062501333
-0.014287437
0.057857388
-0.032779566
0.063865844
-0.052517703
0.064740555
-0.071487113
0.065948793
-0.088524071
0.066886736
-0.10398468
0.06766751
-0.11747493
0.069130577
-0.12949482
0.071239233
-0.1387683
0.073172623
0.074516047
-0.145527
0.06648802
0.078033786
0.058362784
0.079420324
0.049999103
0.081020814
0.041374329
0.081728216
0.032201948
0.082910662
0.023261033
0.083262904
0.01304394
0.084449267
0.0041032664
0.082412091
-0.0049504588
0.071555058
-0.022591006
0.075497936
-0.041366743
0.082641581
-0.060627241
0.084001053
-0.08034403
0.085665581
-0.098656594
0.085199301
-0.11474552
0.083756433
-0.12779284
0.082177896
-0.13782313
0.081269527
-0.14493075
0.080280239
0.079526466
-0.14994116
0.065700768
0.086668643
0.056831225
0.088289867
0.047783759
0.09006828
0.038585826
0.09092615
0.029576342
0.091920146
0.021457399
0.091381847
0.012716248
0.093190418
0.0030568404
0.092071499
-0.015167731
0.089779629
-0.039450904
0.099781109
-0.061243344
0.10443402
-0.081989717
0.10474743
-0.10102455
0.10470042
-0.11746068
0.10163543
-0.13138354
0.097679286
-0.14251968
0.093314042
-0.15023334
0.088983186
-0.15483019
0.084877092
0.081223587
-0.15652731
0.06616221
0.096242024
0.056021857
0.098430221
0.04547064
0.1006195
0.034215572
0.10218122
0.022657128
0.10347859
0.011641806
0.10239717
0.0016914241
0.1031408
-0.014514769
0.10827769
-0.042455761
0.11772062
-0.069115952
0.1264413
-0.094254333
0.1295724
-0.11784761
0.12834071
-0.13789716
0.12474997
-0.15376562
0.11750389
-0.16557277
0.10948644
-0.17240651
0.10014778
-0.17555557
0.092132248
-0.17641905
0.085740569
0.079670063
-0.17486552
0.069744076
0.10693987
0.057740325
0.11043397
0.044721327
0.1136385
0.029948039
0.11695451
0.013255926
0.1201707
-0.0061170142
0.12177011
-0.024344092
0.12136788
-0.046869274
0.13080287
-0.074624922
0.14547627
-0.099818982
0.15163536
-0.12438738
0.1541408
-0.14695394
0.15090727
-0.16627935
0.14407537
-0.18235939
0.13358393
-0.1940006
0.12112765
-0.20139784
0.10754501
-0.20402789
0.094762297
-0.20274915
0.084461834