/*--------------------------------*- C++ -*----------------------------------*\
  =========                 |
  \\      /  F ield         | OpenFOAM: The Open Source CFD Toolbox
   \\    /   O peration     | Website:  https://openfoam.org
    \\  /    A nd           | Version:  11
     \\/     M anipulation  |
\*---------------------------------------------------------------------------*/
FoamFile
{
    format      ascii;
    class       volVectorField;
    location    "12.4";
    object      U;
}
// * * * * * * * * * * * * * * * * * * * * * * * * * * * * * * * * * * * * * //

dimensions      [0 1 -1 0 0 0 0];

internalField   nonuniform List<vector> 
5472
(
(10.167202 2.5685139 1.755882e-18)
(10.365507 2.5883902 -1.828382e-18)
(10.548934 2.577522 -1.8547681e-18)
(10.749063 2.5382497 -1.8934898e-18)
(10.91748 2.5153913 5.8818824e-18)
(11.126026 2.4561224 -3.097857e-20)
(11.27835 2.3945145 -3.1194093e-18)
(11.461746 2.3003382 1.0853043e-18)
(11.599223 2.2214608 0)
(11.813749 2.1009612 0)
(11.893276 1.9907595 0)
(12.093249 1.8700252 -3.4596289e-18)
(12.182355 1.7167832 1.7766603e-18)
(12.301399 1.5886453 -1.9248519e-20)
(12.423048 1.4148969 1.2130146e-18)
(12.473466 1.266983 -6.2273803e-19)
(12.576501 1.0974706 -9.3732387e-19)
(12.6155 0.9420382 3.2014835e-19)
(12.689445 0.78958792 0)
(10.188984 2.3840942 -1.6037293e-18)
(10.353155 2.3796207 3.3139877e-18)
(10.530694 2.370577 -1.7125595e-18)
(10.705834 2.3530378 -1.7314282e-18)
(10.867737 2.3370688 2.0666448e-20)
(11.049433 2.2626569 0)
(11.18466 2.2395161 1.8722679e-18)
(11.369431 2.1441615 -3.8303228e-18)
(11.551263 2.0776377 4.9514912e-18)
(11.683733 1.9767265 1.0135351e-18)
(11.833105 1.8765579 0)
(11.989165 1.7504392 2.1185528e-18)
(12.063244 1.633738 0)
(12.22363 1.4841272 5.410277e-19)
(12.289515 1.3539812 -5.5739497e-19)
(12.389341 1.1985574 0)
(12.466189 1.0650669 0)
(12.521776 0.90422931 -2.8281325e-19)
(12.581789 0.76618234 0)
(10.146218 2.2067788 0)
(10.321621 2.2224276 1.5063579e-18)
(10.491822 2.229786 1.546764e-18)
(10.631583 2.2239652 0)
(10.82917 2.2027516 -1.6700183e-20)
(10.957923 2.1791486 -2.2910197e-20)
(11.140431 2.1458702 -1.7187324e-18)
(11.34684 2.052533 0)
(11.463545 2.0237604 -1.7788624e-18)
(11.627487 1.905965 -4.5644817e-18)
(11.758991 1.83341 1.0663558e-20)
(11.876251 1.7128003 -9.3505732e-19)
(12.004606 1.6022409 -9.6413996e-19)
(12.116521 1.4707353 1.9757095e-18)
(12.201233 1.344521 1.496053e-18)
(12.307049 1.2038316 5.0528247e-19)
(12.359858 1.0624381 2.5360886e-19)
(12.447107 0.91602067 -3.834552e-19)
(12.480415 0.7718555 1.2798744e-19)
(10.172772 2.0253922 0)
(10.357182 2.0415079 -1.3596164e-18)
(10.450388 2.0652571 -1.3940674e-18)
(10.639864 2.0636034 2.8500127e-18)
(10.749921 2.0580871 -1.495192e-18)
(10.908005 2.0189398 0)
(11.109809 1.9779527 -1.5512271e-18)
(11.207607 1.9397638 1.5712902e-18)
(11.365612 1.8816668 -1.6270162e-18)
(11.50447 1.7889153 -1.6370796e-20)
(11.632611 1.7293527 -1.6912516e-18)
(11.781784 1.5976305 0)
(11.889539 1.5174962 0)
(12.016199 1.3737761 -8.7941768e-19)
(12.114554 1.2780576 -8.9070066e-19)
(12.209852 1.1180333 0)
(12.287729 1.0047462 -2.2752122e-19)
(12.35822 0.8472972 1.1503532e-19)
(12.40878 0.71071905 2.2977465e-19)
(10.151299 1.8620905 0)
(10.293545 1.9136986 0)
(10.422001 1.928671 0)
(10.56161 1.9359306 -2.5790044e-18)
(10.690678 1.9239999 1.3417769e-18)
(10.880161 1.8970358 -4.0769591e-18)
(10.980986 1.8952993 5.5851718e-18)
(11.120377 1.8455621 -2.8548928e-18)
(11.29529 1.8014193 2.9066763e-21)
(11.415563 1.7379739 1.4807215e-18)
(11.582108 1.6634374 1.5085802e-18)
(11.692101 1.5708026 -3.08492e-18)
(11.816432 1.4820294 2.3551611e-18)
(11.945928 1.3521866 -7.9784624e-19)
(12.039546 1.2601593 0)
(12.145495 1.104544 8.1472213e-19)
(12.211435 1.0052446 -4.1013465e-19)
(12.291931 0.83714799 2.0477805e-19)
(12.339767 0.72765136 -2.0419384e-19)
(10.165783 1.7306766 0)
(10.318947 1.7510729 -4.4328111e-18)
(10.401146 1.7891789 2.2898535e-18)
(10.564531 1.7841678 2.3431742e-18)
(10.657756 1.7821578 1.1964315e-18)
(10.804838 1.7871493 -1.219145e-18)
(10.904241 1.7544486 2.5297788e-18)
(11.098125 1.7259916 1.2781636e-18)
(11.205132 1.6851781 2.6093585e-18)
(11.348764 1.6210624 -2.6770899e-18)
(11.471557 1.5609166 1.4419689e-20)
(11.594278 1.4683304 2.770052e-18)
(11.732411 1.3799567 0)
(11.829445 1.2723397 -7.1499422e-19)
(11.942006 1.1734297 7.1697073e-19)
(12.026153 1.0483313 -1.8113286e-18)
(12.109612 0.93444848 7.2904528e-19)
(12.172084 0.78707533 -1.8294699e-19)
(12.241274 0.67321668 2.8331669e-22)
(10.160108 1.5858828 3.9124165e-18)
(10.274754 1.6251174 3.9986658e-18)
(10.370344 1.6349702 0)
(10.499477 1.655211 -5.9568419e-21)
(10.582664 1.6806897 -4.3130981e-18)
(10.750864 1.6583019 4.4340755e-18)
(10.865599 1.6513832 0)
(11.025478 1.6385996 -1.1591341e-18)
(11.12 1.5954956 -4.701804e-18)
(11.285995 1.56069 2.4150115e-18)
(11.394854 1.4909223 1.2158142e-18)
(11.53803 1.4233034 -1.2472375e-18)
(11.647259 1.3370131 0)
(11.763991 1.2330113 6.3348406e-19)
(11.873793 1.1457414 0)
(11.955068 1.0192078 -6.4599321e-19)
(12.051373 0.90986856 9.7804862e-19)
(12.1035 0.77719808 7.6218225e-22)
(12.181583 0.64597841 -7.200751e-22)
(10.192309 1.4499637 1.7512839e-18)
(10.282974 1.4788587 -3.5939153e-18)
(10.37134 1.5268938 -3.6739287e-18)
(10.486867 1.5299346 3.7881405e-18)
(10.588124 1.543633 -1.9470263e-18)
(10.721787 1.5417488 -1.9801563e-18)
(10.798553 1.5465059 0)
(10.948277 1.5076245 3.0913005e-18)
(11.041398 1.5012874 -1.1721476e-20)
(11.211138 1.4534849 -3.2197395e-18)
(11.287743 1.4008864 3.2951972e-18)
(11.448565 1.3348606 0)
(11.529339 1.2437078 0)
(11.661583 1.1735478 1.1321756e-18)
(11.730511 1.0656778 -5.7955849e-19)
(11.845224 0.9731364 -1.1551621e-18)
(11.90579 0.85503939 2.9227984e-19)
(11.986228 0.72860369 2.9408256e-19)
(12.047516 0.60808281 7.2240297e-20)
(10.143527 1.3312209 -1.5715963e-18)
(10.248284 1.3484607 4.8252008e-18)
(10.341784 1.3838993 -4.9735559e-18)
(10.435855 1.4012102 3.3911677e-18)
(10.528222 1.4337751 0)
(10.652129 1.4314953 1.770127e-18)
(10.760262 1.4326854 -1.8250329e-18)
(10.906949 1.4255505 0)
(10.994635 1.4060956 9.3885612e-19)
(11.153128 1.36115 -1.9380883e-18)
(11.229969 1.3243563 -9.7215601e-19)
(11.392419 1.2599743 -7.9634117e-21)
(11.456499 1.1956915 -3.009375e-18)
(11.605848 1.1105979 5.1603884e-19)
(11.663575 1.0185976 -5.0516454e-19)
(11.795532 0.92638032 1.0305995e-18)
(11.84518 0.80800957 -5.1484473e-19)
(11.956021 0.70245122 2.6213247e-19)
(11.985719 0.57159388 2.5824804e-19)
(10.207453 1.193171 -2.8237778e-18)
(10.2768 1.2445869 0)
(10.357314 1.279339 1.4794055e-18)
(10.436902 1.2926376 -4.5399015e-18)
(10.52809 1.3096523 1.5624903e-18)
(10.621908 1.3105854 -1.5916069e-18)
(10.711332 1.3370404 1.6163347e-18)
(10.82403 1.3140735 -1.6626895e-18)
(10.913607 1.3164436 0)
(11.040293 1.2792855 8.5431636e-19)
(11.121538 1.2564448 0)
(11.268469 1.188729 8.7828061e-19)
(11.341202 1.1348769 -3.4938461e-23)
(11.492057 1.0506935 -4.4773533e-19)
(11.547694 0.97088978 4.5159266e-19)
(11.683159 0.86899116 4.549341e-19)
(11.71806 0.76646694 -2.2096268e-21)
(11.834503 0.65392637 -6.8811097e-19)
(11.851158 0.53671268 0)
(10.15082 1.0767088 0)
(10.227211 1.1275005 1.2903213e-18)
(10.308269 1.1604046 0)
(10.377432 1.1795648 1.3458932e-18)
(10.470424 1.2045042 -4.160865e-18)
(10.54689 1.2129077 4.2602184e-18)
(10.656888 1.2212818 -1.4335929e-18)
(10.759946 1.2233043 4.439717e-18)
(10.872586 1.2150169 0)
(10.997517 1.1804817 7.6465094e-19)
(11.104016 1.1509312 0)
(11.239592 1.0920838 -1.5604172e-18)
(11.319922 1.0569491 3.167959e-18)
(11.45278 0.97509187 -6.6523854e-21)
(11.509176 0.92013367 -4.0352539e-19)
(11.62832 0.81642613 0)
(11.667303 0.7343702 0)
(11.775188 0.60628059 0)
(11.790866 0.51200209 -5.0789065e-20)
(10.189333 0.97899118 4.4861331e-18)
(10.257165 1.0308243 -5.7681912e-18)
(10.312919 1.0501334 2.3535821e-18)
(10.378242 1.0828946 -6.2268045e-21)
(10.459768 1.1013194 0)
(10.528685 1.1197251 -2.515759e-18)
(10.626934 1.1330638 1.2982409e-18)
(10.703168 1.1295288 -1.30908e-18)
(10.803074 1.1309402 0)
(10.891972 1.1105157 -6.756151e-19)
(11.005131 1.0856012 1.3681783e-18)
(11.099662 1.0427188 -1.1007001e-20)
(11.210725 0.9957699 -1.409427e-18)
(11.322379 0.92846781 -2.8252946e-18)
(11.403879 0.86313015 2.4940522e-18)
(11.512638 0.76721486 -1.4313802e-18)
(11.566529 0.68805815 8.9956614e-19)
(11.657141 0.56622266 1.802309e-19)
(11.685038 0.4819076 4.4576801e-20)
(10.153581 0.87598632 -7.0038491e-18)
(10.217239 0.91327463 4.1119054e-18)
(10.273647 0.94806183 0)
(10.345117 0.97620039 -5.3619859e-18)
(10.418796 0.9919383 4.4041331e-18)
(10.494251 1.0161923 1.1223923e-18)
(10.593287 1.0244077 3.4237552e-18)
(10.67594 1.0433249 -2.3354377e-18)
(10.778851 1.0338662 -2.9506317e-18)
(10.868499 1.014697 1.8087111e-18)
(10.976082 0.98886963 2.4243431e-18)
(11.055137 0.95013223 -3.6960757e-18)
(11.171138 0.90976645 2.4843757e-18)
(11.252446 0.86106104 -6.3236975e-19)
(11.354881 0.79993654 3.1192482e-19)
(11.43992 0.72376893 -3.5517723e-21)
(11.522276 0.63850265 -7.9321902e-19)
(11.590445 0.53462323 -1.5801819e-19)
(11.648933 0.4378086 -3.9600906e-20)
(10.172246 0.78197936 2.6764841e-18)
(10.222384 0.81738357 3.6436711e-18)
(10.270718 0.86387847 -3.7406182e-18)
(10.329197 0.89018076 9.5457911e-19)
(10.380197 0.91353704 -2.9153321e-18)
(10.446578 0.92825791 2.9948315e-18)
(10.519328 0.93774588 1.0088372e-18)
(10.602882 0.95619272 -5.1567466e-18)
(10.698784 0.95595087 3.6636238e-18)
(10.790815 0.95420693 -1.6018781e-18)
(10.897318 0.9321203 0)
(10.983536 0.89716931 -5.4476203e-19)
(11.099372 0.84682284 -1.6425536e-18)
(11.175895 0.80222516 5.6087976e-19)
(11.278446 0.73508224 1.6691787e-18)
(11.351363 0.66929462 5.5594758e-19)
(11.436805 0.58741799 -1.1174199e-18)
(11.489984 0.49882159 2.811725e-19)
(11.563969 0.39925483 3.1347252e-19)
(10.135737 0.68143631 -3.95275e-18)
(10.206866 0.70916516 3.2460898e-18)
(10.255222 0.75278275 0)
(10.317887 0.78167781 -8.4615233e-19)
(10.376726 0.82101497 3.4482684e-18)
(10.448696 0.8398281 -7.0440143e-18)
(10.517481 0.85036206 9.1552937e-19)
(10.590646 0.85543987 3.6612004e-18)
(10.662135 0.856949 2.780756e-18)
(10.748167 0.85346728 -4.6981615e-19)
(10.83806 0.83911382 0)
(10.929745 0.8159516 2.3898316e-18)
(11.025886 0.78020557 -9.7363579e-19)
(11.100938 0.74346922 9.7263319e-19)
(11.195465 0.67848162 -1.469897e-18)
(11.268105 0.62154167 -2.4592111e-19)
(11.347721 0.53682413 0)
(11.406969 0.45470415 0)
(11.477244 0.35653841 -3.0679146e-20)
(10.148223 0.6031552 6.890264e-19)
(10.18753 0.64211833 -6.4741967e-18)
(10.218008 0.67002811 2.9321071e-18)
(10.27154 0.69358361 -3.7512852e-18)
(10.324321 0.7279407 -7.6393014e-19)
(10.394322 0.75673579 0)
(10.464136 0.78518684 -3.9515412e-18)
(10.541834 0.79411199 2.4226101e-18)
(10.620386 0.79416306 -8.1728655e-19)
(10.700319 0.78327694 -1.1890829e-21)
(10.778973 0.7733674 0)
(10.868229 0.74970122 0)
(10.954612 0.72059765 -4.2443324e-19)
(11.041333 0.68309718 -4.2695326e-19)
(11.124712 0.62487795 2.1440981e-19)
(11.20402 0.5711608 1.2914971e-18)
(11.276676 0.49301566 -8.6589852e-19)
(11.34269 0.41685658 1.0823408e-19)
(11.404126 0.32844674 2.6802368e-20)
(10.147502 0.49385172 4.3489028e-18)
(10.178122 0.54854436 -4.4576395e-18)
(10.235059 0.57668697 0)
(10.271667 0.60669262 6.6233824e-19)
(10.319926 0.62704771 0)
(10.374242 0.65333755 6.872374e-19)
(10.431129 0.68329548 6.9879784e-19)
(10.502012 0.70059616 0)
(10.572711 0.71235694 3.5868332e-18)
(10.646152 0.70823896 -2.5555534e-18)
(10.728638 0.69937622 1.8352046e-18)
(10.812065 0.67665208 -1.4885611e-18)
(10.893217 0.65199569 1.4905723e-18)
(10.973745 0.61760527 -8.538509e-21)
(11.045317 0.57005278 -1.5138618e-18)
(11.122189 0.51480803 -1.8873643e-19)
(11.184126 0.4455969 -1.8983842e-19)
(11.250535 0.3687643 -9.4462993e-20)
(11.296764 0.28809203 0)
(10.119658 0.4264101 4.9587097e-18)
(10.138744 0.47346742 0)
(10.190838 0.49637597 0)
(10.219173 0.53968388 5.8461485e-19)
(10.285289 0.55615979 0)
(10.3249 0.59368073 -6.0515261e-19)
(10.394897 0.60449442 -6.1461243e-19)
(10.451851 0.63044463 -2.4903072e-18)
(10.523469 0.63779765 2.5340407e-18)
(10.59592 0.64055478 0)
(10.67543 0.63778672 -2.8995311e-18)
(10.754139 0.62158436 2.2864821e-18)
(10.837146 0.60047121 1.3077078e-18)
(10.917934 0.56744527 -2.6363999e-18)
(10.994141 0.52319953 2.6463594e-18)
(11.068519 0.46923727 -1.9910825e-18)
(11.134737 0.40564976 6.6457696e-19)
(11.200188 0.33381197 0)
(11.244294 0.25873456 0)
(10.109213 0.3429157 7.7877578e-18)
(10.140739 0.38183194 -3.9757721e-18)
(10.171176 0.40782869 4.0445717e-18)
(10.205097 0.4413453 -4.6416843e-18)
(10.25037 0.46880059 -4.1878082e-18)
(10.294554 0.49983984 4.2675986e-18)
(10.365414 0.52072006 2.1586385e-18)
(10.414376 0.54288544 -8.2145173e-21)
(10.491924 0.54685481 -2.2240812e-18)
(10.552181 0.55883833 0)
(10.629853 0.55231416 0)
(10.703389 0.54891341 2.8499283e-19)
(10.780142 0.52706397 0)
(10.853451 0.50473893 1.1513604e-18)
(10.92393 0.46692065 -1.1611255e-18)
(10.992052 0.41759789 -5.7889595e-19)
(11.053372 0.36007659 7.2674576e-19)
(11.10755 0.29495835 -3.6229397e-19)
(11.153347 0.22562935 2.8937074e-19)
(10.0847 0.28006548 0)
(10.124021 0.31706686 0)
(10.146663 0.34813464 3.5633652e-18)
(10.191182 0.37954253 -3.6313698e-18)
(10.223319 0.40271585 4.1443421e-18)
(10.275013 0.43264428 -4.2174099e-18)
(10.322169 0.4572106 0)
(10.372398 0.4814744 4.8111608e-19)
(10.439522 0.49047284 1.9423176e-18)
(10.499648 0.49974958 -1.9702145e-18)
(10.579374 0.49492694 1.9787713e-18)
(10.650461 0.49029223 -9.7545131e-21)
(10.731392 0.47109749 -4.0182389e-18)
(10.801965 0.45182551 2.0228089e-18)
(10.878653 0.41503341 0)
(10.942419 0.37394646 -1.0115289e-18)
(11.007419 0.31957378 1.5859883e-18)
(11.059146 0.25743351 -6.9744762e-19)
(11.104507 0.19176358 2.5270037e-19)
(10.072243 0.19895819 1.1736415e-17)
(10.094614 0.2321621 -6.1755243e-18)
(10.122402 0.26003883 0)
(10.161839 0.29296521 -3.9877137e-19)
(10.19607 0.32367653 -4.0485545e-19)
(10.251675 0.35100388 4.1064036e-19)
(10.29395 0.3770931 0)
(10.355158 0.39409814 -4.2112096e-19)
(10.404371 0.41034163 3.4018011e-18)
(10.469732 0.4190899 -3.4473363e-18)
(10.530005 0.42304538 0)
(10.602702 0.4203228 0)
(10.66809 0.40790394 2.1962864e-19)
(10.73812 0.391806 1.102531e-19)
(10.807417 0.3642538 -1.1055048e-19)
(10.865087 0.32800488 0)
(10.928034 0.28341694 -4.9675347e-19)
(10.973119 0.22891318 4.4286706e-19)
(11.017651 0.1690377 0)
(10.056145 0.15127174 -1.0662604e-17)
(10.076021 0.17806583 1.1195849e-17)
(10.101206 0.20260205 -6.7443115e-21)
(10.125653 0.23037064 -5.2557766e-18)
(10.161203 0.25619764 0)
(10.202791 0.28767017 2.8767748e-18)
(10.249585 0.31129941 -6.0146142e-18)
(10.305015 0.33475338 2.9537579e-18)
(10.361455 0.34774538 0)
(10.425405 0.35587944 -3.0008448e-18)
(10.490584 0.36057633 3.0351688e-18)
(10.564316 0.35798058 1.5203732e-18)
(10.628937 0.35038051 -1.533972e-18)
(10.70727 0.33109218 1.3408841e-18)
(10.766576 0.3108562 -1.4471738e-18)
(10.836845 0.27486178 0)
(10.88748 0.23436614 -4.8231749e-20)
(10.939601 0.1820297 -1.439736e-19)
(10.973867 0.12601757 2.0396602e-19)
(10.046296 0.087301935 2.9330711e-19)
(10.065551 0.1137257 -5.9624512e-19)
(10.084083 0.13761993 4.8394892e-18)
(10.108854 0.16399517 3.0021837e-19)
(10.139117 0.18699772 -3.2010851e-19)
(10.176819 0.21344502 -5.0486148e-18)
(10.219619 0.2375161 1.5940044e-19)
(10.266 0.2566129 2.7362858e-18)
(10.322652 0.27626577 -2.6070764e-18)
(10.375009 0.28789249 -1.641416e-19)
(10.442783 0.29319189 0)
(10.503279 0.29664708 2.819334e-18)
(10.573307 0.29005417 -2.8423511e-18)
(10.643311 0.28302947 -1.2523969e-18)
(10.705254 0.26669207 8.9758749e-20)
(10.774829 0.2454947 2.0148937e-18)
(10.826107 0.2153787 -6.3040946e-19)
(10.882074 0.17358366 -6.2775224e-20)
(10.913945 0.12983948 -1.0409541e-20)
(10.019857 0.056167526 0)
(10.035882 0.072688481 2.6161905e-19)
(10.0501 0.090544396 4.2440381e-18)
(10.076999 0.11099858 -4.7104309e-18)
(10.106989 0.13194095 4.4918216e-18)
(10.146729 0.15359352 -4.4153143e-18)
(10.189825 0.17371979 1.3942984e-19)
(10.239657 0.19181451 -1.4066434e-19)
(10.291917 0.20749507 2.1256249e-18)
(10.35168 0.21837933 -2.1489895e-18)
(10.416408 0.22395033 2.1538127e-18)
(10.480775 0.22390447 -2.3903659e-18)
(10.549783 0.21704804 0)
(10.61087 0.20515796 1.1617711e-18)
(10.67711 0.18844282 -1.3142148e-18)
(10.734499 0.16628851 5.8204635e-19)
(10.789564 0.13828657 -5.476101e-19)
(10.836436 0.10517643 -2.5417525e-19)
(10.870877 0.066483414 2.9480214e-19)
(10.021817 0.028314011 -4.3233305e-21)
(10.034555 0.03565927 -7.3420475e-18)
(10.046557 0.04782699 1.1625516e-19)
(10.062324 0.061494709 -5.3990867e-23)
(10.083866 0.076539189 1.1910452e-19)
(10.111463 0.097824146 0)
(10.147586 0.11336526 3.8901987e-18)
(10.19261 0.13342665 -4.0572873e-18)
(10.23777 0.14717842 1.2371286e-19)
(10.296727 0.16179238 -1.9297528e-18)
(10.35453 0.17208469 4.0759532e-18)
(10.421437 0.17925052 -4.0313531e-18)
(10.492083 0.18199197 2.0263478e-18)
(10.559217 0.17961523 0)
(10.628786 0.1738951 -9.8001576e-19)
(10.68896 0.16206277 1.0158933e-18)
(10.746403 0.14429876 -1.578202e-20)
(10.794782 0.1192569 2.3510133e-23)
(10.831706 0.090832096 -3.9276478e-21)
(10.006978 0.012797604 6.3949747e-18)
(10.013756 0.018976687 -6.4254073e-18)
(10.024964 0.025199095 6.4096929e-18)
(10.04076 0.030116993 1.0289281e-19)
(10.060572 0.037430982 0)
(10.087984 0.045789675 0)
(10.124483 0.053585249 -5.2968732e-20)
(10.167672 0.061620391 -3.3660589e-18)
(10.219916 0.067438825 3.5070394e-18)
(10.278119 0.072548237 3.4368383e-18)
(10.340241 0.076029635 -1.6705988e-18)
(10.40883 0.075269919 -1.8354119e-18)
(10.475786 0.072263737 0)
(10.545456 0.066920899 2.750114e-20)
(10.612344 0.060438848 2.7466793e-20)
(10.672343 0.051575204 8.6330766e-19)
(10.727506 0.04026395 -8.9332393e-19)
(10.770377 0.02527654 1.9815253e-19)
(10.805029 0.0081154683 -2.1848677e-19)
(10.00556 0.0024466969 -4.3031443e-20)
(10.009952 0.0043837513 5.5602308e-18)
(10.017758 0.0078097478 -3.0722305e-21)
(10.029536 0.012532289 -4.3441631e-21)
(10.046257 0.017872968 -5.7542566e-18)
(10.069417 0.02367878 0)
(10.100094 0.029708107 2.8813002e-18)
(10.138735 0.035643455 -2.9092194e-18)
(10.185168 0.041219336 -4.6372758e-20)
(10.238745 0.045984869 -2.3312989e-20)
(10.299154 0.049946499 -2.3414583e-20)
(10.363441 0.053814536 2.3500831e-20)
(10.428209 0.058439796 0)
(10.49446 0.063610245 1.4909098e-18)
(10.560363 0.06581396 -1.5265337e-18)
(10.622667 0.070201758 -7.4844103e-19)
(10.692513 0.067881143 7.6266889e-19)
(10.733512 0.059231375 3.8491472e-19)
(10.787964 0.057423414 -3.7864105e-19)
(12.713586 0.64076107 -1.5462557e-19)
(12.76462 0.50260477 -6.1636834e-19)
(12.783057 0.37176425 6.0515252e-19)
(12.78009 0.23556938 0)
(12.7894 0.1076069 -1.1347001e-18)
(12.784565 0.0093868272 -2.1873781e-18)
(12.797609 -0.099388303 0)
(12.757826 -0.19739559 -1.5503612e-20)
(12.774019 -0.29046598 3.7114075e-18)
(12.731909 -0.38423572 1.7657074e-18)
(12.735497 -0.46781241 -1.6453597e-18)
(12.715218 -0.54118916 3.1284236e-18)
(12.712567 -0.61821016 -2.9096596e-18)
(12.715535 -0.66917002 0)
(12.733061 -0.72655427 1.2923875e-18)
(12.782308 -0.76305837 -1.2148683e-18)
(12.844598 -0.80037263 -2.3192102e-18)
(12.910556 -0.8348379 2.1853561e-18)
(13.011597 -0.86095448 -1.0384641e-18)
(12.602054 0.60857062 -1.3322414e-19)
(12.659498 0.45336184 7.9685058e-19)
(12.651872 0.31326957 -5.2179345e-19)
(12.705836 0.17431342 0)
(12.662663 0.04131629 -9.9030804e-19)
(12.701422 -0.080951282 2.8467709e-18)
(12.679077 -0.18424672 0)
(12.677587 -0.29135857 0)
(12.699831 -0.36622471 0)
(12.661644 -0.46619676 0)
(12.688021 -0.52881052 2.9245918e-18)
(12.657174 -0.60988528 -4.1478501e-18)
(12.682897 -0.66668963 -3.9223964e-18)
(12.674779 -0.72989071 2.4522067e-18)
(12.710733 -0.78485036 -2.3208651e-18)
(12.732916 -0.84288639 2.1878748e-18)
(12.83036 -0.89519519 1.7018191e-21)
(12.879814 -0.97102933 -1.9555351e-18)
(13.020556 -1.0632038 1.8392591e-18)
(12.541056 0.62058193 0)
(12.559981 0.46554734 -4.6131442e-19)
(12.589078 0.31429807 -9.0623735e-19)
(12.604947 0.17928282 -4.3507708e-21)
(12.588168 0.033841138 -6.1024213e-21)
(12.603201 -0.083660829 1.6724425e-18)
(12.570925 -0.20628566 -3.1881092e-18)
(12.580196 -0.31493432 1.5187244e-18)
(12.570852 -0.40030566 1.1955458e-20)
(12.560157 -0.52082801 0)
(12.584926 -0.57934862 3.9270222e-18)
(12.559008 -0.68415387 7.2501325e-21)
(12.601146 -0.74592558 2.345291e-18)
(12.617759 -0.83083974 2.2213352e-18)
(12.649832 -0.90518944 3.1392109e-18)
(12.698801 -0.97355106 -3.9422984e-18)
(12.737781 -1.0910334 1.1154342e-21)
(12.822242 -1.1737735 3.506475e-18)
(12.930394 -1.3176321 1.6357403e-18)
(12.459074 0.56462469 3.9934509e-19)
(12.486613 0.40143301 -7.9629348e-19)
(12.514458 0.25725549 1.1739751e-18)
(12.522506 0.1157466 0)
(12.526653 -0.029835618 2.2405345e-18)
(12.516908 -0.15300159 -3.6123189e-18)
(12.508127 -0.27702798 2.7886589e-18)
(12.494919 -0.37811751 -1.1963529e-21)
(12.476528 -0.4921762 1.0600735e-20)
(12.465028 -0.57899619 -1.2248731e-18)
(12.471233 -0.67454301 0)
(12.442176 -0.75776392 -1.0984837e-18)
(12.480736 -0.86450121 1.0507799e-18)
(12.503087 -0.93404257 -1.9714165e-18)
(12.531288 -1.0577609 0)
(12.613837 -1.1422048 0)
(12.596527 -1.2990754 -1.6616534e-18)
(12.717504 -1.4180227 0)
(12.734806 -1.6201012 1.4647367e-18)
(12.397112 0.55607449 3.4467615e-19)
(12.43563 0.41761258 -3.4235167e-19)
(12.454086 0.25390228 2.9385539e-21)
(12.467598 0.11801723 -6.6476344e-19)
(12.46253 -0.042454063 6.4214157e-19)
(12.458917 -0.15109502 -4.7490141e-22)
(12.433765 -0.29605004 -1.2137019e-18)
(12.431565 -0.38473421 0)
(12.391686 -0.51136908 -2.2499331e-18)
(12.409348 -0.59334884 1.0712537e-18)
(12.378171 -0.70638491 0)
(12.400186 -0.80349719 0)
(12.375542 -0.91654288 -1.8483776e-18)
(12.431902 -1.0149448 -1.7571176e-18)
(12.402 -1.153806 1.6619222e-18)
(12.497493 -1.2788746 3.1338476e-18)
(12.439745 -1.4523637 1.4729044e-18)
(12.547767 -1.6197384 -1.400186e-18)
(12.451966 -1.8766897 -3.8127688e-22)
(12.278369 0.50366638 0)
(12.336629 0.37261869 2.9700447e-19)
(12.332555 0.18685951 -1.4630544e-18)
(12.371941 0.05834619 5.7511309e-19)
(12.339988 -0.10471669 1.6894162e-18)
(12.353622 -0.21589268 -1.1006817e-18)
(12.317262 -0.35715756 -2.1328057e-18)
(12.322389 -0.44890788 2.0451195e-18)
(12.276217 -0.58593418 -9.960914e-19)
(12.298471 -0.66345291 1.8849027e-18)
(12.261348 -0.79881977 0)
(12.275962 -0.88044516 0)
(12.23726 -1.0269317 -1.6417858e-18)
(12.277039 -1.1304199 4.6679283e-18)
(12.21789 -1.2843693 -5.8976461e-18)
(12.289474 -1.4441291 2.7949538e-18)
(12.183224 -1.6040481 -5.2861322e-18)
(12.252567 -1.8160309 1.2551535e-18)
(12.086383 -2.0516338 2.3689103e-18)
(12.2066 0.5075733 6.4412574e-20)
(12.280456 0.34768297 2.5730017e-19)
(12.25993 0.1874362 -5.050638e-19)
(12.32742 0.038724369 0)
(12.268186 -0.11195949 -9.7967071e-19)
(12.310181 -0.23989537 2.8595497e-18)
(12.241343 -0.367253 -1.846212e-18)
(12.262204 -0.48424813 8.9917185e-19)
(12.201526 -0.60706987 -1.73312e-18)
(12.228468 -0.71005102 4.9859806e-18)
(12.164402 -0.84321487 -3.17563e-18)
(12.193864 -0.95143855 0)
(12.11912 -1.1006827 1.4463988e-18)
(12.145649 -1.2225976 2.7574731e-18)
(12.058497 -1.3987113 -3.929184e-18)
(12.067788 -1.5448935 3.7348098e-18)
(11.938855 -1.7431225 -3.5469121e-18)
(11.923625 -1.9254061 -2.2354778e-18)
(11.693933 -2.1582311 -1.0524535e-18)
(12.102658 0.46775336 1.6638026e-19)
(12.155345 0.29477095 2.2108859e-19)
(12.172367 0.14113449 -4.3641952e-19)
(12.211348 -0.024572582 0)
(12.164699 -0.15535593 1.6917182e-18)
(12.201819 -0.29908209 -8.2993003e-19)
(12.112682 -0.41739294 0)
(12.160281 -0.55453331 -1.5630012e-18)
(12.064131 -0.6654122 7.5740528e-19)
(12.104828 -0.79621403 0)
(12.010724 -0.91450739 -1.4011768e-18)
(12.037709 -1.0493923 1.3418867e-18)
(11.929351 -1.1850528 1.2825091e-18)
(11.939537 -1.3353083 -2.4425788e-18)
(11.797665 -1.4915548 2.3274832e-18)
(11.775223 -1.651784 -1.106558e-18)
(11.590438 -1.8250194 -1.0611923e-18)
(11.523845 -1.9776692 -1.0115792e-18)
(11.268664 -2.1725588 -9.6613697e-19)
(12.075201 0.4493522 3.8198428e-19)
(12.071526 0.26952153 -1.8977287e-19)
(12.1327 0.12498982 0)
(12.10934 -0.048155909 0)
(12.129063 -0.17352864 -1.4646766e-18)
(12.095725 -0.33308893 1.436047e-18)
(12.081632 -0.44073986 0)
(12.04776 -0.60181601 6.7950114e-19)
(11.995893 -0.69434859 -6.5839871e-19)
(11.973768 -0.85653018 0)
(11.890685 -0.9540645 1.2244531e-18)
(11.885364 -1.1191676 5.0889608e-21)
(11.748145 -1.2367986 4.9543412e-21)
(11.735452 -1.4094951 0)
(11.561752 -1.5258638 -4.1382195e-18)
(11.487709 -1.6979001 3.9531421e-18)
(11.253509 -1.8126705 4.72946e-18)
(11.14563 -1.9546109 -6.3395062e-18)
(10.851567 -2.0590347 4.3253009e-18)
(11.966734 0.41554256 0)
(11.957543 0.22466681 1.1610019e-21)
(12.036943 0.085110497 0)
(11.989848 -0.095066051 0)
(12.026667 -0.21282321 6.3191086e-19)
(11.967726 -0.38448135 3.7725851e-21)
(11.980281 -0.48711246 -6.1023465e-19)
(11.912465 -0.65430882 -1.7836524e-18)
(11.889748 -0.74506347 2.2985061e-18)
(11.812737 -0.91547559 0)
(11.759868 -1.0025737 -1.0777226e-18)
(11.668726 -1.1928362 -6.2179104e-18)
(11.567932 -1.2733096 2.986138e-18)
(11.461709 -1.458023 0)
(11.282688 -1.5319719 -3.6754405e-18)
(11.179509 -1.6879373 4.402168e-18)
(10.922136 -1.7373772 -3.3861977e-18)
(10.781027 -1.8532077 4.0564158e-18)
(10.473349 -1.8719306 0)
(11.909709 0.36640911 -2.8425552e-19)
(11.899174 0.21308123 1.4233855e-19)
(11.986871 0.053796645 0)
(11.928575 -0.1168398 -1.1150144e-18)
(11.965476 -0.25281668 1.6455062e-18)
(11.889611 -0.4184417 -5.3789532e-19)
(11.897642 -0.53079246 -1.5919682e-18)
(11.804392 -0.6899029 3.6126292e-18)
(11.773768 -0.78454026 -2.003105e-18)
(11.669131 -0.95552787 0)
(11.603893 -1.0419796 9.3969221e-19)
(11.468076 -1.2225228 5.4628245e-18)
(11.351137 -1.2741376 -3.5036357e-18)
(11.182285 -1.4574645 0)
(11.007743 -1.4651577 0)
(10.835581 -1.6135912 -1.5667217e-18)
(10.570874 -1.5879252 7.569619e-19)
(10.399873 -1.67646 -2.1793137e-18)
(10.077111 -1.6179842 0)
(11.786599 0.32042737 -2.4502991e-19)
(11.784329 0.19252082 7.3351164e-19)
(11.8631 -0.00097617274 -7.2811805e-19)
(11.813369 -0.134559 0)
(11.851622 -0.29833682 1.4291784e-18)
(11.766242 -0.44304642 -1.8643791e-18)
(11.777217 -0.5697973 0)
(11.661641 -0.70765761 8.9859715e-19)
(11.633798 -0.82233396 8.7603906e-19)
(11.490573 -0.97195592 0)
(11.421847 -1.0617357 0)
(11.249186 -1.2066454 -7.9652647e-19)
(11.136794 -1.2520631 -2.3186526e-18)
(10.921506 -1.3866085 -9.363183e-21)
(10.766768 -1.3611039 2.1549097e-18)
(10.533181 -1.4771217 1.3907571e-18)
(10.342449 -1.3674069 -6.6906325e-19)
(10.120371 -1.4419116 1.290087e-18)
(9.8313579 -1.2724827 0)
(11.718505 0.29405401 0)
(11.738743 0.1567514 -8.4303881e-19)
(11.788825 -0.044782588 1.6731802e-18)
(11.748082 -0.15956505 -1.2439478e-18)
(11.76337 -0.35148104 0)
(11.663501 -0.4608351 0)
(11.665761 -0.60935697 0)
(11.530189 -0.72813241 -7.7665914e-19)
(11.490091 -0.85173267 -7.5883e-19)
(11.318953 -0.97440392 0)
(11.233961 -1.06359 -7.2259426e-19)
(11.021212 -1.1643631 -7.0173685e-19)
(10.899575 -1.1968176 -6.7681808e-19)
(10.642415 -1.2723937 2.6349397e-18)
(10.499325 -1.2313035 -2.5463265e-18)
(10.217652 -1.2702182 -6.1434306e-19)
(10.086591 -1.1306663 3.5814053e-18)
(9.8375625 -1.1411832 -5.7548996e-18)
(9.6689421 -0.90303787 3.3403816e-18)
(11.601316 0.2780554 -4.5641216e-20)
(11.662526 0.11638204 9.1017408e-20)
(11.673424 -0.05308634 9.0209572e-19)
(11.666412 -0.18384418 -2.1500534e-18)
(11.642383 -0.36803139 1.0589636e-18)
(11.569095 -0.46554482 0)
(11.5287 -0.63992617 0)
(11.402287 -0.71570282 6.7677675e-19)
(11.334092 -0.85920113 -2.6503282e-18)
(11.143142 -0.93903837 -6.5638962e-19)
(11.045501 -1.0184421 6.1969383e-19)
(10.824601 -1.0758815 3.0601909e-18)
(10.70324 -1.0930526 5.9713564e-19)
(10.447308 -1.1073934 0)
(10.312823 -1.0331929 1.6859543e-18)
(10.028051 -1.0131795 0)
(9.8983632 -0.85321092 -3.1737825e-18)
(9.6825807 -0.80200266 9.184745e-18)
(9.5823553 -0.53729987 -7.9003103e-18)
(11.510706 0.24366594 7.8402712e-20)
(11.577088 0.069432305 -7.7979507e-20)
(11.561428 -0.077409299 0)
(11.576893 -0.23214422 -9.2830046e-19)
(11.512177 -0.38296417 3.0075559e-19)
(11.463882 -0.49935256 1.2058096e-18)
(11.373807 -0.64875075 0)
(11.2644 -0.71521605 -2.9310557e-18)
(11.151552 -0.85806204 1.7181783e-18)
(10.963805 -0.8829576 -2.2564793e-21)
(10.83627 -0.97818594 0)
(10.605088 -0.97575626 0)
(10.481809 -0.96950661 -5.2116082e-19)
(10.238783 -0.91180861 0)
(10.13265 -0.82987869 3.5286277e-21)
(9.8831399 -0.73740559 9.6133158e-19)
(9.8178983 -0.57549915 -2.7980493e-18)
(9.611506 -0.46997674 7.2196322e-18)
(9.5895239 -0.18385527 -3.4967392e-18)
(11.453932 0.22160212 2.3622565e-19)
(11.509328 0.046976052 -2.0210777e-19)
(11.499641 -0.087845021 0)
(11.502088 -0.25435109 0)
(11.422437 -0.37611893 0)
(11.379463 -0.51164177 0)
(11.2507 -0.6223454 -2.064115e-18)
(11.162686 -0.70168709 2.0254661e-18)
(11.009192 -0.79733983 2.49551e-18)
(10.855829 -0.81404407 -9.747435e-19)
(10.680692 -0.88418633 0)
(10.47375 -0.81085004 3.7521256e-18)
(10.32503 -0.80319474 -6.8563956e-18)
(10.092661 -0.69219793 3.5607644e-18)
(10.006192 -0.60468184 -4.3427788e-18)
(9.8030502 -0.45494685 2.530491e-18)
(9.7964277 -0.30191693 -8.1990963e-19)
(9.6359131 -0.13442336 -7.9680073e-19)
(9.711156 0.12986498 7.7221781e-19)
(11.359503 0.18088413 2.3231894e-19)
(11.387229 0.019877206 -7.5361998e-19)
(11.391247 -0.11307485 4.612098e-19)
(11.37459 -0.27381853 -9.1770785e-19)
(11.307599 -0.38328953 9.0812118e-19)
(11.234467 -0.52546713 0)
(11.093836 -0.6025812 -4.4587347e-19)
(10.997129 -0.68954454 1.7599166e-18)
(10.818085 -0.73361854 -1.7263493e-18)
(10.686973 -0.74722177 -4.2406779e-19)
(10.492948 -0.74702734 -3.3399141e-18)
(10.349342 -0.65979097 3.2605905e-18)
(10.183132 -0.62940034 -3.9870233e-19)
(10.031251 -0.46705991 2.3427673e-18)
(9.9449771 -0.38208757 -2.2780147e-18)
(9.8042412 -0.17794918 0)
(9.8343349 -0.039288424 -5.7743658e-18)
(9.7407741 0.17355065 6.3069185e-18)
(9.9091728 0.41009438 0)
(11.309779 0.15366857 -3.9976934e-19)
(11.327757 0.0038421737 3.9946073e-19)
(11.338879 -0.13587107 -7.9446492e-19)
(11.30267 -0.27980171 7.8872147e-19)
(11.244088 -0.37825492 1.7663959e-18)