/*--------------------------------*- C++ -*----------------------------------*\
  =========                 |
  \\      /  F ield         | OpenFOAM: The Open Source CFD Toolbox
   \\    /   O peration     | Website:  https://openfoam.org
    \\  /    A nd           | Version:  11
     \\/     M anipulation  |
\*---------------------------------------------------------------------------*/
FoamFile
{
    format      ascii;
    class       surfaceScalarField;
    location    "2.9";
    object      phi;
}
// * * * * * * * * * * * * * * * * * * * * * * * * * * * * * * * * * * * * * //

dimensions      [0 3 -1 0 0 0 0];

internalField   nonuniform List<scalar> 
10792
(
0.070878686
-0.043907461
-0.071434546
0.044463321
0.070270964
-0.041874453
0.042482176
0.069543738
-0.039769509
0.040496735
0.068778274
-0.037552101
0.038317567
0.067959315
-0.035394042
0.036213001
0.067160467
-0.033073155
0.033872004
0.066330855
-0.030880302
0.031709914
0.065453006
-0.02836876
0.029246608
0.064683681
-0.026142986
0.026912311
0.063796976
-0.023605411
0.024492116
0.063149212
-0.021208497
0.021856261
0.062422139
-0.018851861
0.019578934
0.061820563
-0.016176039
0.016777614
0.061322553
-0.013836248
0.014334258
0.060785764
-0.011195846
0.011732634
0.060481429
-0.0086326752
0.0089370093
0.060103169
-0.0062260323
0.0066042921
0.059970437
-0.0035493158
0.0036820475
-0.001219302
0.060074496
0.0011152418
0.074845492
-0.043329198
-0.075423755
0.074235015
-0.041263976
0.073469962
-0.039004456
0.072751408
-0.036833547
0.072015965
-0.034658598
0.071234921
-0.032292111
0.070377514
-0.030022895
0.069573033
-0.027564279
0.068741572
-0.025311524
0.067968575
-0.022832415
0.067332939
-0.020572861
0.066554667
-0.018073589
0.066007129
-0.015628501
0.065422067
-0.013251187
0.0649328
-0.010706579
0.06465353
-0.0083534055
0.064305877
-0.0058783804
0.06427038
-0.0035138189
-0.0010946386
0.064145716
0.079455229
-0.042781498
-0.080002929
0.078823909
-0.040632656
0.078124364
-0.03830491
0.077514321
-0.036223504
0.076751102
-0.033895378
0.075948813
-0.031489822
0.075081388
-0.02915547
0.074246807
-0.026729697
0.073406923
-0.02447164
0.072650715
-0.022076207
0.071880142
-0.019802288
0.071112027
-0.017305474
0.070508098
-0.015024572
0.069858712
-0.012601801
0.069408942
-0.010256809
0.069041775
-0.0079862397
0.068751431
-0.0055880363
0.068654102
-0.0034164903
-0.00099406446
0.068553528
0.083790396
-0.042257305
-0.08431459
0.083163401
-0.040005661
0.082567557
-0.037709067
0.081905545
-0.035561491
0.081066206
-0.033056039
0.080293217
-0.030716833
0.079483725
-0.028345979
0.07873072
-0.025976692
0.077951064
-0.023691984
0.077162296
-0.021287438
0.076396979
-0.019036972
0.075727957
-0.016636452
0.075102515
-0.01439913
0.074556958
-0.012056245
0.074151214
-0.0098510651
0.073777377
-0.0076124026
0.073571534
-0.0053821937
0.073391215
-0.0032361721
-0.00099105897
0.073388209
0.089150266
-0.041886628
-0.089520943
0.088543782
-0.039399177
0.087997348
-0.037162632
0.087208677
-0.034772821
0.086401123
-0.032248485
0.085666412
-0.029982122
0.084861119
-0.027540685
0.084079182
-0.025194755
0.083209197
-0.022821999
0.082432672
-0.020510914
0.081668318
-0.018272617
0.080996932
-0.015965067
0.08037455
-0.013776749
0.079824942
-0.011506637
0.079374121
-0.0094002447
0.07897687
-0.0072151518
0.078720071
-0.0051253948
0.078541958
-0.0030580593
-0.000932564
0.078483462
0.094407574
-0.04132932
-0.094964882
0.09361315
-0.038604753
0.092939739
-0.036489221
0.092109103
-0.033942185
0.091479429
-0.031618811
0.09074303
-0.029245723
0.089907845
-0.026705501
0.089110392
-0.024397302
0.088291214
-0.022002821
0.087611494
-0.019831194
0.086876065
-0.017537188
0.086255879
-0.015344881
0.085623066
-0.013143936
0.08506349
-0.010947062
0.084550996
-0.0088877508
0.084144415
-0.0068085716
0.083878224
-0.0048592046
0.083694483
-0.0028743183
-0.00093411377
0.083696032
0.10032005
-0.04056523
-0.10108414
0.099601296
-0.037886001
0.09895769
-0.035845614
0.098146135
-0.033130631
0.097497227
-0.030969902
0.096677933
-0.028426429
0.095968905
-0.025996473
0.095213157
-0.023641554
0.094469689
-0.021259352
0.093728502
-0.019090007
0.092946907
-0.016755593
0.092262883
-0.014660858
0.091587631
-0.012468684
0.091046269
-0.010405701
0.090538431
-0.0083799133
0.090186592
-0.0064567334
0.089896068
-0.0045686808
0.089761579
-0.0027398292
-0.00088021119
0.089707676
0.10624657
-0.039678144
-0.10713366
0.1056041
-0.037243528
0.10486587
-0.035107382
0.10406458
-0.032329344
0.10331316
-0.030218482
0.10244863
-0.027561901
0.10181726
-0.025365098
0.10101048
-0.022834774
0.10025352
-0.020502391
0.099420414
-0.018256905
0.098692709
-0.016027889
0.098051954
-0.014020103
0.097425557
-0.011842287
0.096938534
-0.0099186784
0.096488738
-0.0079301176
0.096158316
-0.0061263116
0.09585069
-0.0042610552
0.095676925
-0.0025660654
-0.00080981264
0.095606527
0.11334438
-0.038775454
-0.11424707
0.11267757
-0.036576722
0.11168182
-0.034111628
0.11087545
-0.031522978
0.11005326
-0.029396284
0.10921267
-0.026721315
0.10850113
-0.024653554
0.10768219
-0.022015841
0.10705819
-0.019878385
0.10628339
-0.017482114
0.10564955
-0.015394045
0.10499565
-0.013366202
0.10441608
-0.011262713
0.10389469
-0.0093972935
0.10341683
-0.0074522597
0.10301072
-0.0057201953
0.10267461
-0.0039249528
0.10247127
-0.0023627229
-0.00068189534
0.10234335
0.12032589
-0.037859927
-0.12124142
0.11949302
-0.035743847
0.1185717
-0.033190314
0.11796202
-0.030913295
0.11700547
-0.028439734
0.11623969
-0.025955534
0.11544341
-0.023857275
0.11471935
-0.021291779
0.11407519
-0.019234225
0.11329936
-0.016706289
0.11265761
-0.014752291
0.11185416
-0.012562755
0.11128826
-0.010696816
0.11071514
-0.0088241739
0.11029766
-0.0070347782
0.10992604
-0.0053485766
0.10967741
-0.003676325
0.109518
-0.002203313
-0.00058712513
0.10942323
0.1285435
-0.036915667
-0.12948776
0.12756585
-0.03476619
0.126554
-0.032178464
0.12574661
-0.030105909
0.12482426
-0.027517387
0.12412007
-0.025251338
0.12312808
-0.02286529
0.12235905
-0.020522745
0.12154435
-0.018419528
0.1208262
-0.01598814
0.12014565
-0.01407174
0.11944643
-0.01186354
0.11890435
-0.010154732
0.11828599
-0.0082058174
0.11785199
-0.0066007707
0.1173964
-0.0048929873
0.1171321
-0.0034120338
0.11687592
-0.0019471258
-0.00051583564
0.11680463
0.1368137
-0.035889121
-0.13784024
0.13579903
-0.033751528
0.13490138
-0.031280813
0.1339102
-0.029114722
0.13297852
-0.026585708
0.13223617
-0.024508992
0.13132436
-0.021953475
0.13060985
-0.019808242
0.12968102
-0.017490692
0.12903393
-0.015341052
0.12829462
-0.013332429
0.12772318
-0.011292103
0.12710948
-0.0095410355
0.12655449
-0.0076508283
0.12613387
-0.0061801475
0.12573845
-0.0044975634
0.12553369
-0.0032072781
0.12530425
-0.001717692
-0.0004939844
0.1252824
0.14622065
-0.034853357
-0.14725642
0.14498608
-0.03251696
0.14404671
-0.030341442
0.142936
-0.028004008
0.14190678
-0.025556496
0.1408951
-0.023497307
0.14000994
-0.021068317
0.13923372
-0.01903202
0.13837263
-0.016629598
0.13771268
-0.01468111
0.13685972
-0.012479461
0.13630451
-0.010736898
0.13560926
-0.0088457869
0.13513261
-0.0071741746
0.13458512
-0.0056326576
0.13419289
-0.004105333
0.13385241
-0.0028668004
0.13366158
-0.001526863
-0.00042703367
0.13359463
0.15621297
-0.033552388
-0.15751394
0.15487332
-0.031177304
0.15376107
-0.029229195
0.15255924
-0.026802179
0.15169813
-0.024695383
0.15060515
-0.022404325
0.14973194
-0.020195113
0.14875958
-0.018059657
0.14790559
-0.015775613
0.14708794
-0.013863456
0.14631416
-0.01170568
0.1457238
-0.010146539
0.14508687
-0.0082088575
0.14468851
-0.00677582
0.14416034
-0.0051044816
0.14384709
-0.0037920866
0.143438
-0.0024577062
0.14327493
-0.001363799
-0.0003069147
0.14315481
0.16679665
-0.032051545
-0.16829749
0.16541653
-0.029797186
0.16404253
-0.027855193
0.16273072
-0.025490365
0.16159935
-0.023564019
0.16043639
-0.021241363
0.15961054
-0.019369264
0.15863479
-0.017083902
0.15794339
-0.015084215
0.15703686
-0.012956928
0.15634645
-0.011015264
0.15554357
-0.0093436607
0.1549388
-0.0076040846
0.15438329
-0.0062203166
0.15390391
-0.0046250945
0.15354725
-0.0034354308
0.15319245
-0.0021029097
0.15303621
-0.001207553
-0.00015763913
0.15288693
0.17853585
-0.030354433
-0.18023296
0.17717119
-0.02843253
0.1757757
-0.026459703
0.1745208
-0.024235459
0.17317936
-0.022222579
0.17196236
-0.020024367
0.17087885
-0.018285759
0.16985566
-0.016060706
0.16904658
-0.014275139
0.16817221
-0.01208256
0.16754832
-0.010391369
0.16671106
-0.0085064072
0.16618914
-0.0070821598
0.16551101
-0.0055421875
0.16515021
-0.0042642947
0.16474293
-0.0030281504
0.16452372
-0.0018837047
0.16429362
-0.00097745147
-2.4201228e-05
0.16416018
0.19093823
-0.028248315
-0.19304435
0.18915187
-0.026646177
0.18754698
-0.024854806
0.18616315
-0.022851636
0.18480294
-0.020862362
0.18359403
-0.01881546
0.18234139
-0.017033119
0.18125551
-0.014974824
0.18027446
-0.013294089
0.17944254
-0.011250642
0.17871591
-0.0096647413
0.17801667
-0.0078071646
0.17743918
-0.0065046752
0.17678254
-0.0048855462
0.17638758
-0.0038693345
0.17590949
-0.0025500586
0.17575595
-0.0017301626
0.17552529
-0.00074679838
-5.2142513e-05
0.17555324
0.2050997
-0.02628919
-0.20705882
0.20310265
-0.024649134
0.20125353
-0.023005686
0.19963465
-0.021232749
0.19820111
-0.01942883
0.19696157
-0.017575916
0.19567801
-0.015749555
0.19459282
-0.013889635
0.19350148
-0.01220275
0.1926212
-0.010370365
0.19181036
-0.0088538962
0.19116275
-0.0071595618
0.19049675
-0.0058386776
0.1899441
-0.0043328886
0.1894353
-0.003360534
0.18901154
-0.0021263065
0.1887228
-0.0014414152
0.18844358
-0.00046758312
4.634155e-05
0.1883451
0.21963046
-0.024174659
-0.22174499
0.21748402
-0.022502699
0.21548628
-0.021007946
0.21358736
-0.019333825
0.21191149
-0.017752968
0.21043829
-0.01610271
0.20906199
-0.014373254
0.2078944
-0.012722046
0.20673029
-0.011038646
0.20576404
-0.0094041137
0.20486659
-0.0079564419
0.20412761
-0.0064205838
0.20344757
-0.0051586378
0.20298639
-0.0038717089
0.20249913
-0.0028732717
0.20219274
-0.001819922
0.20188002
-0.0011286973
0.20167254
-0.00026009476
0.00021507467
0.2015038
0.23531704
-0.021987981
-0.23750371
0.23322345
-0.020409111
0.23120519
-0.018989686
0.22931226
-0.017440894
0.22756793
-0.016008637
0.22588477
-0.014419552
0.22442498
-0.012913464
0.22314343
-0.011440498
0.22199627
-0.009891487
0.2210075
-0.0084153448
0.22007131
-0.0070202533
0.21923661
-0.0055858827
0.21852308
-0.0044451039
0.21798629
-0.0033349216
0.2174809
-0.0023678806
0.2172074
-0.0015464229
0.21688059
-0.00080188366
0.21669157
-7.1082461e-05
0.00032875598
0.21657789
0.25239543
-0.019424511
-0.2549589
0.24999614
-0.018009828
0.24772879
-0.016722328
0.24556987
-0.015281976
0.24361002
-0.01404879
0.2417773
-0.012586827
0.24018137
-0.011317536
0.23869819
-0.0099573215
0.23742264
-0.0086159407
0.23633621
-0.0073289114
0.2353745
-0.0060585396
0.23455219
-0.0047635728
0.23388268
-0.0037755994
0.23329438
-0.0027466185
0.23283325
-0.0019067562
0.232477
-0.0011901666
0.23217614
-0.00050102986
0.23207018
3.4883819e-05
0.00044162728
0.2319573
0.27041681
-0.016887193
-0.27295413
0.26801464
-0.015607659
0.26573875
-0.014446433
0.26357537
-0.013118598
0.26151538
-0.0119888
0.25964244
-0.010713891
0.25789415
-0.0095692422
0.25631487
-0.0083780413
0.25500596
-0.0073070368
0.2538637
-0.0061866513
0.25290434
-0.0050991806
0.25215387
-0.004013094
0.2514816
-0.0031033358
0.25090976
-0.002174773
0.25052296
-0.0015199579
0.25016526
-0.00083246838
0.24991489
-0.00025066381
0.24980916
0.0001406135
0.0004429635
0.24980783
0.28968923
-0.013963733
-0.29261269
0.28707399
-0.012992419
0.28458365
-0.011956087
0.28235029
-0.010885238
0.28024741
-0.0098859279
0.27829966
-0.0087661426
0.27650209
-0.0077716648
0.27486513
-0.0067410841
0.27344256
-0.0058844668
0.27213418
-0.0048782763
0.27106237
-0.0040273645
0.27018032
-0.0031310431
0.26944266
-0.0023656743
0.2688386
-0.0015707183
0.26837354
-0.0010548993
0.26804588
-0.0005048107
0.26790381
-0.00010858596
0.26785622
0.00018820157
0.00054049133
0.26775869
0.31076534
-0.011052777
-0.31367629
0.30794029
-0.010167372
0.30525324
-0.0092690393
0.30276886
-0.0084008575
0.30050772
-0.0076247843
0.29852059
-0.0067790172
0.2966951
-0.0059461668
0.29507791
-0.0051239019
0.2936076
-0.0044141491
0.29238963
-0.0036603102
0.29131384
-0.0029515715
0.29046234
-0.0022795426
0.28985142
-0.0017547624
0.2893326
-0.0010518954
0.28897927
-0.00070157321
0.28870959
-0.00023512216
0.28857685
2.4150328e-05
0.28850738
0.00025767494
0.00045578864
0.28859208
0.33291613
-0.0079210006
-0.33604791
0.32998658
-0.0072378217
0.32720246
-0.0064849162
0.32460901
-0.0058074145
0.32217637
-0.0051921446
0.32001872
-0.0046213598
0.31807814
-0.0040055931
0.31639546
-0.0034412168
0.31488482
-0.0029035073
0.31365143
-0.0024269243
0.31255181
-0.0018519559
0.3116933
-0.0014210259
0.31099095
-0.0010524175
0.31051683
-0.00057777527
0.31019287
-0.00037761718
0.31000526
-4.750754e-05
0.31003238
-2.9666357e-06
0.31001283
0.0002772183
0.00038630185
0.31008232
0.35726251
-0.0042093199
-0.36097419
0.35391474
-0.0038900437
0.35090831
-0.0034784904
0.34816578
-0.003064887
0.34566012
-0.0026864813
0.34336654
-0.0023277849
0.34136748
-0.0020065318
0.33962027
-0.0016940048
0.33810674
-0.0013899742
0.3368112
-0.0011313885
0.33581683
-0.00085758192
0.33504595
-0.00065015023
0.33445385
-0.00046031844
0.33414761
-0.00027153747
0.33394823
-0.00017823656
0.33387473
2.5990948e-05
0.33393387
-6.2107237e-05
0.33410508
0.00010601476
1.6954245e-05
0.33447443
0.38431343
-0.38852275
0.38042339
0.3769449
0.37388001
0.37119353
0.36886575
0.36685922
0.36516521
0.36377524
0.36264385
0.36178627
0.36113611
0.3606758
0.36040426
0.36022602
0.36025201
0.36018991
0.36029592
0.36031287
0.060192656
0.0012855057
-0.0014036661
0.060683064
0.0037153683
-0.0042057762
0.061254266
0.0059273237
-0.0064985257
0.062278915
0.008459377
-0.0094840273
0.063480811
0.01049467
-0.011696566
0.064898242
0.013199572
-0.014617003
0.066630394
0.015021946
-0.016754098
0.068438542
0.017653162
-0.01946131
0.070576139
0.019594347
-0.021731944
0.072845038
0.021821338
-0.024090237
0.075289808
0.023852769
-0.02629754
0.07805231
0.025699811
-0.028462313
0.080703904
0.027653594
-0.030305188
0.08382132
0.029379471
-0.032496888
0.086854286
0.031067255
-0.03410022
0.090365949
0.032612337
-0.036124001
0.093964785
0.033910371
-0.037509207
0.097784642
0.035256774
-0.03907663
0.036034678
0.10190123
-0.040151267
0.064300939
0.0011302823
0.064826772
0.0031895345
0.065448779
0.0053053163
0.066589425
0.0073187306
0.067800593
0.0092835025
0.069413714
0.011586451
0.071172599
0.013263061
0.073139492
0.015686267
0.075417284
0.017316555
0.077639715
0.019598907
0.080181916
0.021310567
0.082671631
0.023210095
0.085344036
0.02498119
0.088062231
0.026661276
0.090871893
0.028257592
0.093718691
0.02976554
0.096642085
0.030986977
0.099712964
0.032185895
0.033110446
0.1026372
0.068765888
0.00091792151
0.069205343
0.0027500797
0.069954493
0.0045561663
0.071026261
0.0062469624
0.072246127
0.0080636364
0.073895737
0.0099368407
0.075536688
0.01162211
0.077568971
0.013653985
0.079673755
0.01521177
0.081904313
0.017368348
0.08432224
0.01889264
0.086598411
0.020933925
0.089154299
0.022425301
0.091446312
0.024369263
0.093939826
0.025764078
0.096159762
0.027545604
0.098482381
0.028664357
0.10055245
0.03011583
0.031104493
0.1025584
0.0735321
0.0007740303
0.073978757
0.0023034221
0.074755305
0.0037796185
0.075809819
0.0051924478
0.077076007
0.0067974481
0.078707046
0.0083058018
0.080403774
0.0099253813
0.082420972
0.011636787
0.084425953
0.013206789
0.086559629
0.015234671
0.088720699
0.01673157
0.09078427
0.018870353
0.092924873
0.020284698
0.094836024
0.022458112
0.096671112
0.02392899
0.098254471
0.025962245
0.099594442
0.027324387
0.10062717
0.029083105
0.030670169
0.10106149
0.078616306
0.0006411866
0.079079823
0.0018399055
0.079839184
0.003020257
0.080913831
0.0041178009
0.082183489
0.0055277903
0.083749935
0.0067393563
0.085307532
0.0083677835
0.087147259
0.00979706
0.08882295
0.011531097
0.090757422
0.013300199
0.092510086
0.014978905
0.094308914
0.017071526
0.095907466
0.018686145
0.097305673
0.021059905
0.098354369
0.022880294
0.099104099
0.025212515
0.099248533
0.027179953
0.098986904
0.029344734
0.031887577
0.097769497
0.083854513
0.00048270553
0.084345223
0.0013491954
0.085159732
0.0022057475
0.086206619
0.0030709134
0.087521884
0.0042125254
0.089000388
0.0052608515
0.090621908
0.0067462631
0.092344795
0.0080741726
0.093908239
0.0099676514
0.095621599
0.011586838
0.096924741
0.013675763
0.09838615
0.015610117
0.099170107
0.017902187
0.099971263
0.020258749
0.10004106
0.022810496
0.099750594
0.025502983
0.09860678
0.028323767
0.096952486
0.030999028
0.034704884
0.094135179
0.089847424
0.00034295687
0.09027913
0.00091748983
0.091037334
0.001447544
0.092045579
0.0020626679
0.093261115
0.00299699
0.094582843
0.0039391232
0.096000978
0.0053281271
0.097451388
0.0066237623
0.098819363
0.0085996755
0.10012518
0.010281024
0.10113037
0.012670568
0.1019764
0.01476409
0.1021186
0.017759984
0.10215016
0.020227188
0.10117186
0.023788796
0.099960418
0.026714429
0.097577427
0.030706758
0.09458053
0.033995925
0.038782316
0.090503098
0.095816529
0.00013295399
0.096301202
0.00043281612
0.097162978
0.00058576798
0.098079135
0.0011465105
0.099344434
0.0017316902
0.10056284
0.0027207208
0.10188777
0.0040031945
0.10308599
0.0054255382
0.10417811
0.0075075573
0.10505654
0.0094025923
0.10551028
0.012216828
0.10562466
0.014649713
0.10515365
0.018230986
0.10410656
0.021274284
0.10228385
0.025611507
0.09993961
0.029058667
0.096553865
0.034092503
0.092769405
0.037780386
0.043524126
0.088027594
0.10246308
1.3225329e-05
0.10286018
3.5720323e-05
0.10355426
-0.0001083176
0.10440815
0.00029261862
0.1055663
0.0005735463
0.10652615
0.0017608637
0.10773215
0.0027972014
0.10850976
0.00464792
0.109457
0.0065603231
0.10977233
0.0090872623
0.10988943
0.012099724
0.10931747
0.015221679
0.10829691
0.019251545
0.10652193
0.023049262
0.10417352
0.027959917
0.10096277
0.032269416
0.097260169
0.037795108
0.092828403
0.042212152
0.048681384
0.087671146
0.10958911
-0.00015265279
0.11000768
-0.00038284924
0.11069993
-0.00080056631
0.11159094
-0.00059839385
0.11255266
-0.00038817954
0.11343936
0.00087416586
0.11435154
0.0018850176
0.11482695
0.0041725122
0.11533941
0.0060478627
0.11503883
0.0093878471
0.11473117
0.012407375
0.11328128
0.016671568
0.11174875
0.020784077
0.10912251
0.025675506
0.10635862
0.030723809
0.10263563
0.035992403
0.098803969
0.04162677
0.093995083
0.047021037
0.053703356
0.088973111
0.11688729
-0.00023531939
0.11727161
-0.0007671642
0.11784805
-0.0013770071
0.11856439
-0.0013147385
0.11932438
-0.001148166
0.1200759
0.00012264574
0.12060964
0.0013512755
0.12092818
0.0038539783
0.12091651
0.0060595217
0.12031763
0.0099867297
0.11941764
0.013307366
0.11759693
0.018492274
0.115667
0.022714012
0.11259362
0.028748886
0.10968152
0.033635911
0.1056177
0.040056218
0.10189188
0.045352593
0.097070327
0.051842592
0.058229751
0.092543932
0.12526534
-0.00021825872
0.12566886
-0.0011706808
0.12612157
-0.0018297155
0.12675915
-0.0019523186
0.12732416
-0.00171318
0.12789719
-0.00045038931
0.12814577
0.0011026991
0.12814302
0.0038567278
0.12753537
0.0066671746
0.12656474
0.010957351
0.12500091
0.014871198
0.12300585
0.020487334
0.12057004
0.025149823
0.11751859
0.031800335
0.11454987
0.036604634
0.11071495
0.043891137
0.10757415
0.048493397
0.10354751
0.05586923
0.060713852
0.10106341
0.13359504
-0.00021866802
0.13393053
-0.0015061751
0.13425115
-0.0021503375
0.13475207
-0.0024532317
0.13511999
-0.0020811015
0.13555701
-0.00088740875
0.1355219
0.0011378108
0.13527469
0.0041039323
0.13438518
0.0075566863
0.13326806
0.012074474
0.13134835
0.016790906
0.12922776
0.022607919
0.12650996
0.02786763
0.12396637
0.034343918
0.12129664
0.039274371
0.1187975
0.046390273
0.11735402
0.049936877
0.11648217
0.056741081
0.058214556
0.11898147
0.14324974
-0.00031359942
0.14343679
-0.0016932225
0.14372766
-0.0024412102
0.14413058
-0.0028561524
0.14436645
-0.0023169745
0.14444965
-0.00097060767
0.14400812
0.0015793433
0.14347225
0.0046398049
0.14225855
0.0087703904
0.14091862
0.013414399
0.13881253
0.018896994
0.13686699
0.024553468
0.13462792
0.030106693
0.13310242
0.035869427
0.13170814
0.040668651
0.13197711
0.046121298
0.13367244
0.048241552
0.13800867
0.052404856
0.049761826
0.1464614
0.15299733
-0.00042400466
0.15304504
-0.0017409237
0.15329567
-0.0026918458
0.15355155
-0.0031120336
0.15358711
-0.002352528
0.15339552
-0.00077901952
0.15292861
0.0020462497
0.15221439
0.0053540249
0.15084523
0.010139552
0.14942195
0.014837683
0.14753666
0.020782291
0.14631441
0.025775712
0.14520386
0.031217241
0.14536827
0.035705022
0.14633778
0.039699138
0.1500836
0.042375485
0.15538243
0.042942716
0.16455768
0.043229607
0.038302951
0.17601656
0.16406052
-0.00032434586
0.16394894
-0.001629346
0.16415992
-0.0029028266
0.16416065
-0.0031127611
0.16405313
-0.0022450065
0.16376198
-0.00048787065
0.16326563
0.0025426048
0.16228474
0.0063349156
0.16096871
0.011455584
0.15970946
0.016096936
0.15864374
0.021848006
0.15850817
0.025911286
0.15897278
0.030752632
0.16126377
0.033414031
0.16506308
0.035899828
0.17186778
0.035570786
0.1799177
0.034892796
0.19105204
0.032095266
0.027233279
0.20212172
0.17535923
-0.00013033624
0.17555346
-0.0018235843
0.17563343
-0.0029827952
0.17540214
-0.0028814697
0.17523855
-0.0020814135
0.17478515
-3.4466019e-05
0.17403869
0.0032890642
0.17295485
0.0074187572
0.17206159
0.012348846
0.17140605
0.016752471
0.17156135
0.02169271
0.17261984
0.024852802
0.17493849
0.028433982
0.17931174
0.029040774
0.18539738
0.029814192
0.19381377
0.027154395
0.20269073
0.026015841
0.21281351
0.021972488
0.019108497
0.22093829
0.18806472
0.000150043
0.18825492
-0.0020137923
0.18798637
-0.0027142399
0.18791902
-0.0028141181
0.1876922
-0.0018545902
0.18704893
0.00060880074
0.18634549
0.003992508
0.18556696
0.0081972834
0.18532936
0.012586449
0.18552129
0.016560542
0.18698853
0.020225471
0.18944845
0.022392889
0.19371286
0.024169573
0.19963801
0.02311562
0.20688273
0.022569473
0.21508086
0.018956272
0.22250502
0.018591679
0.22976181
0.014715696
0.015304217
0.23356609
0.2014199
0.00023394249
0.20133325
-0.0019271385
0.20106398
-0.0024449684
0.20098967
-0.0027398088
0.20052682
-0.0013917419
0.19999496
0.0011406663
0.19950916
0.0044783085
0.19923212
0.0084743231
0.19966557
0.012153003
0.20088407
0.015342045
0.20350859
0.017600948
0.20700278
0.018898708
0.21251692
0.018655429
0.21861512
0.017017422
0.22549535
0.015689239
0.23165268
0.012798949
0.23661359
0.013630768
0.24016469
0.011164596
0.015800855
0.23966805
0.21659085
0.0002209886
0.21640628
-0.0017425742
0.2162914
-0.0023300876
0.21607068
-0.0025190897
0.21549206
-0.00081311786
0.2152184
0.0014143241
0.21505273
0.004643986
0.21540968
0.0081173711
0.21664026
0.010922426
0.21893612
0.013046187
0.22224122
0.01429585
0.2265885
0.014551431
0.23243598
0.012807949
0.23738263
0.012070771
0.24276521
0.010306659
0.24576991
0.0097942461
0.2474377
0.011962981
0.24590474
0.012697559
0.020696781
0.24100881
0.23194804
0.00023025108
0.2316484
-0.0014429355
0.23155974
-0.0022414245
0.23111554
-0.0020748868
0.23086216
-0.00055974123
0.23073093
0.0015455575
0.23076714
0.0046077748
0.23171718
0.0071673345
0.23352835
0.0091112554
0.23628742
0.010287124
0.23973016
0.010853112
0.24452021
0.0097613761
0.24901293
0.0083152349
0.25292589
0.0081578137
0.25607803
0.0071545166
0.25583508
0.010037193
0.25469834
0.013099726
0.24941688
0.017979016
0.026906766
0.2432069
0.24974528
0.00029279567
0.24959304
-0.0012906903
0.24947222
-0.0021206103
0.24923739
-0.0018400505
0.24912772
-0.0004500722
0.2491553
0.0015179819
0.24986497
0.0038981024
0.25145824
0.0055740656
0.25386395
0.0067055494
0.25686401
0.0072870596
0.26060103
0.007116093
0.26447187
0.0058905425
0.2668119
0.0059752025
0.26849737
0.0064723451
0.26709959
0.0085522986
0.26390618
0.0132306
0.25996658
0.017039324
0.25413453
0.023811067
0.029513615
0.25152769
0.26775479
0.00029670024
0.26756139
-0.0010972986
0.26713974
-0.0016989598
0.26675061
-0.0014509114
0.26677116
-0.00047062703
0.26699079
0.0012983596
0.26791684
0.0029720459
0.26952738
0.0039635253
0.27175471
0.0044782226
0.27440281
0.0046389589
0.27737769
0.0041412176
0.27947986
0.0037883757
0.28073939
0.0047156741
0.28069006
0.0065216746
0.27873133
0.010511025
0.27727733
0.014684604
0.2750192
0.019297455
0.27510402
0.023726248
0.025353721
0.27926391
0.28876748
0.00012130036
0.28868267
-0.0010124907
0.2885718
-0.0015880912
0.28861114
-0.0014902438
0.28881604
-0.00067552563
0.28946319
0.00065121127
0.29067081
0.0017644253
0.29223261
0.0024017254
0.29404549
0.00266534
0.29623639
0.002448064
0.29818752
0.0021900831
0.29902106
0.0029548356
0.29881153
0.0049252126
0.29698731
0.0083458901
0.29529591
0.012202427
0.29454712
0.015433394
0.29582224
0.018022333
0.3016654
0.017883091
0.017425668
0.30959345
0.31009129
0.00011232961
0.30969468
-0.00061588214
0.30915861
-0.001052016
0.30892607
-0.0012576989
0.30900514
-0.00075460228
0.30949333
0.00016302682
0.31026493
0.00099282911
0.31128169
0.0013849629
0.31249918
0.0014478523
0.31370028
0.0012469581
0.31431288
0.0015774913
0.31421905
0.0030486642
0.31416852
0.0049757424
0.31475564
0.0077587744
0.31746528
0.0094927786
0.32239018
0.010508503
0.33007041
0.010342099
0.33818659
0.0097669101
0.012226645
0.34338561
0.33481956
-0.00023280757
0.33491177
-0.00070808323
0.33485864
-0.00099888812
0.3348119
-0.0012109642
0.33497251
-0.0009152076
0.33538182
-0.00024628493
0.33603637
0.00033828264
0.3368792
0.00054213221
0.33780789
0.00051916781
0.33855158
0.00050326245
0.3391255
0.0010035777
0.3399967
0.002177464
0.34191667
0.0030557761
0.34443854
0.0052369014
0.3491364
0.0047949197
0.35308786
0.0065570428
0.35811458
0.0053153768
0.35975709
0.0081244068
0.0077277647
0.36425597
0.36008007
0.35937198
0.3583731
0.35716213
0.35624693
0.35600064
0.35633892
0.35688106
0.35740022
0.35790349
0.35890706
0.36108453
0.36414031
0.36937721
0.37417213
0.38072917
0.38604455
0.39416895
0.40189672
0.099748584
0.043372482
-0.041219836
0.097795774
0.043856831
-0.041904021
0.095889175
0.044153349
-0.04224675
0.094587452
0.043725378
-0.042423656
0.092884448
0.043570796
-0.041867792
0.092060988
0.04223375
-0.04141029
0.091443956
0.041185052
-0.04056802
0.090988664
0.039416479
-0.038961186
0.091283249
0.036696179
-0.036990764
0.092071411
0.034631174
-0.035419336
0.093694433
0.031282172
-0.032905195
0.096231251
0.027107693
-0.029644511
0.099498696
0.023471856
-0.0267393
0.10285902
0.020457993
-0.023818316
0.10677293
0.016858292
-0.020772207
0.11293047
0.013006901
-0.019164438
0.12223418
0.0089208478
-0.018224554
0.1316843
0.0053687747
-0.014818895
0.0048497439
0.13839501
-0.011560457
0.10000171
0.04600797
0.097170295
0.046688245
0.094933452
0.046390192
0.092338079
0.046320751
0.090489681
0.045419194
0.088472234
0.044251197
0.086974821
0.042682465
0.08642974
0.039961561
0.085416974
0.037708944
0.085741411
0.034306738
0.087253968
0.029769615
0.088502145
0.025859516
0.090896471
0.02107753
0.096168793
0.015185671
0.10471999
0.0083070945
0.11477156
0.0029553325
0.12415907
-0.00046665978
0.12960028
-7.2434338e-05
0.0042542252
0.1301958
0.098805129
0.04976124
0.095490296
0.050003078
0.092052508
0.04982798
0.08889703
0.049476229
0.085933168
0.048383056
0.082788637
0.047395729
0.080778931
0.044692171
0.078032878
0.042707614
0.076919888
0.038821935
0.076984701
0.034241925
0.076279484
0.030474832
0.078386957
0.023752043
0.083672597
0.01579189
0.089117013
0.009741255
0.091942974
0.0054811332
0.090552306
0.0043460006
0.085076872
0.0050087747
0.076617617
0.0083868203
0.015033723
0.06583812
0.096320132
0.054502598
0.092044716
0.054278494
0.087515007
0.054357689
0.083451914
0.053539323
0.078805743
0.053029226
0.07522522
0.050976252
0.070902046
0.049015344
0.067833352
0.045776309
0.065467808
0.041187478
0.061922427
0.037787306
0.062042501
0.030354757
0.065225246
0.020569299
0.06466091
0.016356226
0.058636844
0.015765321
0.04813648
0.015981496
0.034075675
0.018406806
0.017358547
0.021725903
-0.00068451662
0.026429884
0.033642507
-0.0192933
0.092323085
0.05994901
0.086697074
0.059904505
0.081337001
0.059717762
0.075648688
0.059227636
0.069900801
0.058777113
0.064068705
0.056808348
0.058100533
0.054983516
0.053064273
0.050812569
0.045554117
0.048697634
0.040867617
0.042473806
0.038952901
0.032269473
0.033330127
0.026192073
0.022590726
0.027095627
0.0077083533
0.030647694
-0.0092279885
0.032917838
-0.027600156
0.036778973
-0.047337429
0.041463176
-0.067833532
0.046925987
0.053506664
-0.08769769
0.087614467
0.066469722
0.080699144
0.066819828
0.073896816
0.066520089
0.066360467
0.066763985
0.058992556
0.066145024
0.050555909
0.065244995
0.042201734
0.063337691
0.03195753
0.061056773
0.022003147
0.058652017
0.015932107
0.048544847
0.0049829086
0.043218671
-0.0093131648
0.040488147
-0.024620387
0.04240285
-0.041188593
0.047215899
-0.059130667
0.050859912
-0.077526621
0.055174928
-0.095640521
0.059577076
-0.11340485
0.064690313
0.070059571
-0.12995775
0.082994089
0.073978732
0.075241978
0.074571939
0.066901485
0.074860582
0.058135832
0.075529638
0.048900286
0.07538057
0.038432583
0.075712699
0.027004203
0.074766071
0.014077644
0.073983333
0.004873013
0.067856648
-0.0046462486
0.058064108
-0.021461069
0.060033492
-0.040742052
0.059769129
-0.060190726
0.061851524
-0.078214846
0.06524002
-0.095673967
0.068319034
-0.11228662
0.071787585
-0.12779995
0.075090398
-0.14189834
0.078788712
0.081750423
-0.1535892
0.07964821
0.082358116
0.071056583
0.083163566
0.061896327
0.084020839
0.052756771
0.084669194
0.042790338
0.085347003
0.03246548
0.086037557
0.020640017
0.086591535
0.0087807478
0.085842602
-0.00031136698
0.076948763
-0.014508349
0.07226109
-0.032915843
0.078440986
-0.0540245
0.080877787
-0.076174886
0.08400191
-0.096584881
0.085650014
-0.11507338
0.086807529
-0.13081139
0.087525596
-0.14424916
0.08852817
-0.15571984
0.090259393
0.090997897
-0.16496731
0.078545778
0.091483485
0.069312442
0.092396901
0.059784267
0.093549014
0.050198584
0.094254877
0.040589132
0.094956456
0.032006988
0.0946197
0.022340073
0.09625845
0.011809272
0.096373403
-0.0013484724
0.090106508
-0.023567729
0.094480347