/*--------------------------------*- C++ -*----------------------------------*\
  =========                 |
  \\      /  F ield         | OpenFOAM: The Open Source CFD Toolbox
   \\    /   O peration     | Website:  https://openfoam.org
    \\  /    A nd           | Version:  11
     \\/     M anipulation  |
\*---------------------------------------------------------------------------*/
FoamFile
{
    format      ascii;
    class       surfaceScalarField;
    location    "13.6";
    object      phi;
}
// * * * * * * * * * * * * * * * * * * * * * * * * * * * * * * * * * * * * * //

dimensions      [0 3 -1 0 0 0 0];

internalField   nonuniform List<scalar> 
10792
(
0.071076857
-0.043068738
-0.071595648
0.043587528
0.070403442
-0.040940847
0.041614262
0.069652546
-0.038784257
0.039535153
0.068839576
-0.036517009
0.037329978
0.068101125
-0.034409804
0.035148255
0.067232578
-0.03208631
0.032954857
0.06639085
-0.029710113
0.030551841
0.065530665
-0.027315709
0.028175893
0.064706945
-0.02487784
0.02570156
0.063932902
-0.022452852
0.023226895
0.063109031
-0.019781543
0.020605414
0.062517708
-0.017437878
0.018029202
0.061799271
-0.014665009
0.015383445
0.061362457
-0.012257521
0.012694335
0.060843519
-0.0094358436
0.0099547811
0.060460253
-0.0069467423
0.0073300079
0.060192928
-0.004036085
0.0043034097
0.060005329
-0.0015509252
0.0017385241
0.0013378314
0.060230312
-0.0015628141
0.075171582
-0.042416626
-0.075823694
0.074435749
-0.040205014
0.073657488
-0.038005996
0.072955685
-0.035815205
0.072182955
-0.033637074
0.07132814
-0.031231495
0.07051455
-0.028896523
0.069680614
-0.026481773
0.068881446
-0.024078671
0.068006971
-0.021578377
0.067353061
-0.019127634
0.06664545
-0.016730267
0.06600664
-0.014026199
0.065541271
-0.011792152
0.06499257
-0.0088871423
0.064735344
-0.0066895171
0.064515674
-0.0038164148
0.064433393
-0.0014686446
0.0014092964
0.064361928
0.079838574
-0.041831458
-0.080423741
0.079198264
-0.039564704
0.078573651
-0.037381384
0.077881793
-0.035123347
0.076991816
-0.032747097
0.07614535
-0.030385029
0.075302451
-0.028053624
0.074432385
-0.025611707
0.073530683
-0.023176969
0.072751089
-0.020798783
0.072061321
-0.018437866
0.071276637
-0.015945583
0.070752431
-0.013501994
0.070137381
-0.011177102
0.069748446
-0.0084982071
0.06941749
-0.0063585619
0.069145997
-0.0035449216
0.069016431
-0.0013390793
0.0014758095
0.068949918
0.084523652
-0.041153343
-0.085201767
0.08392912
-0.038970173
0.083164479
-0.036616742
0.082266793
-0.034225661
0.081406029
-0.031886333
0.080605848
-0.029584848
0.079744612
-0.027192389
0.078900663
-0.024767758
0.078158079
-0.022434385
0.077431736
-0.02007244
0.076670718
-0.017676848
0.076054811
-0.015329676
0.075471916
-0.012919099
0.074927245
-0.010632431
0.074578584
-0.0081495456
0.074158757
-0.0059387351
0.073984359
-0.0033705244
0.073787716
-0.0011424365
0.0014519155
0.07381161
0.090027418
-0.040480932
-0.090699829
0.089252947
-0.038195701
0.088431974
-0.03579577
0.087671766
-0.033465452
0.086886848
-0.031101416
0.086091003
-0.028789002
0.085214063
-0.026315449
0.084462129
-0.024015824
0.083679285
-0.021651542
0.082882
-0.019275155
0.082177642
-0.01697249
0.081489609
-0.014641643
0.080858004
-0.012287494
0.080243047
-0.010017474
0.079787524
-0.007694022
0.079393752
-0.0055449636
0.07915579
-0.0031325626
0.079021114
-0.0010077606
0.001467291
0.079005739
0.095353578
-0.039627654
-0.096206856
0.094618307
-0.03746043
0.093825839
-0.035003302
0.093077531
-0.032717145
0.092222953
-0.030246838
0.091356316
-0.027922364
0.090553549
-0.025512682
0.089749565
-0.02321184
0.088859118
-0.020761094
0.08812579
-0.018541827
0.087361372
-0.016208072
0.086668903
-0.013949175
0.086038347
-0.011656937
0.085468002
-0.0094471292
0.085081489
-0.0073075092
0.084710573
-0.0051740484
0.084546471
-0.0029684598
0.084402844
-0.00086413366
0.0014003377
0.084469797
0.10161288
-0.03897879
-0.10226175
0.10085068
-0.036698223
0.10002395
-0.034176576
0.099194602
-0.031887796
0.098396694
-0.02944893
0.097658256
-0.027183927
0.096817065
-0.024671491
0.095950399
-0.022345174
0.095109446
-0.019920141
0.094318859
-0.01775124
0.093507817
-0.01539703
0.092844705
-0.013286063
0.092184028
-0.010996259
0.091663092
-0.0089261938
0.091227689
-0.0068721058
0.090891892
-0.0048382518
0.090707816
-0.0027843837
0.090542911
-0.00069922912
0.0013347968
0.090608452
0.10792829
-0.038190112
-0.10871697
0.10700253
-0.035772462
0.10616331
-0.033337357
0.1053426
-0.031067087
0.10447985
-0.028586179
0.10360143
-0.026305512
0.10271128
-0.023781337
0.10183583
-0.021469727
0.10099797
-0.019082275
0.10017925
-0.016932522
0.099457959
-0.014675743
0.098836999
-0.012665103
0.098220925
-0.010380185
0.097732823
-0.0084380928
0.097234359
-0.0063736413
0.096927741
-0.0045316338
0.096673785
-0.0025304277
0.096601661
-0.00062710569
0.0013062796
0.096630179
0.11499386
-0.037386368
-0.11579761
0.11413378
-0.03491238
0.11335554
-0.032559122
0.11244642
-0.030157958
0.11158549
-0.027725251
0.1106608
-0.025380821
0.10975155
-0.022872092
0.10889016
-0.020608334
0.10805975
-0.018251865
0.10730078
-0.016173555
0.10655987
-0.013934829
0.10583935
-0.011944583
0.10517628
-0.0097171142
0.10463103
-0.007892848
0.10414641
-0.0058890212
0.10385331
-0.004238533
0.10366439
-0.0023415069
0.10367616
-0.0006388697
0.0012855007
0.10369693
0.12254225
-0.036276524
-0.1236521
0.12142758
-0.033797709
0.12041628
-0.03154782
0.11933543
-0.02907711
0.11841055
-0.026800368
0.11744136
-0.024411631
0.11661677
-0.0220475
0.11578474
-0.019776304
0.11499453
-0.017461656
0.11418686
-0.015365881
0.11344875
-0.013196721
0.1127486
-0.011244433
0.11216672
-0.0091352315
0.11165166
-0.0073777914
0.11120068
-0.0054380418
0.11087889
-0.0039167425
0.11063621
-0.0020988311
0.11061058
-0.00061324077
0.0012204406
0.11067564
0.13055678
-0.035141833
-0.13169147
0.12956242
-0.032803346
0.12857687
-0.030562271
0.12758451
-0.028084748
0.12666362
-0.025879479
0.12566851
-0.023416522
0.12477954
-0.021158528
0.12382801
-0.018824776
0.12296633
-0.016599978
0.122124
-0.014523545
0.12141038
-0.012483103
0.12072918
-0.010563238
0.12019362
-0.008599674
0.11967685
-0.0068610197
0.11927998
-0.0050411703
0.1189052
-0.0035419614
0.11871504
-0.0019086702
0.11861115
-0.00050935261
0.0010983557
0.11873324
0.13909906
-0.033808601
-0.14043229
0.13803456
-0.031738847
0.13680739
-0.029335102
0.13582193
-0.027099293
0.13481616
-0.024873709
0.13386515
-0.022465509
0.13294197
-0.020235344
0.13198134
-0.01786415
0.13108709
-0.015705722
0.13017643
-0.013612887
0.12939696
-0.011703635
0.12862937
-0.0097956432
0.12806726
-0.0080375643
0.12755199
-0.0063457517
0.12719572
-0.004684907
0.12688905
-0.0032352895
0.12673793
-0.0017575502
0.12666515
-0.00043656882
0.00089161053
0.12687189
0.14878108
-0.032573523
-0.15001616
0.14761738
-0.030575144
0.14626669
-0.027984414
0.14510587
-0.025938472
0.14385636
-0.023624197
0.14286105
-0.021470202
0.14189068
-0.019264976
0.14105854
-0.017032006
0.14022371
-0.014870891
0.13942504
-0.012814219
0.13864436
-0.010922954
0.13789684
-0.0090481258
0.13732393
-0.0074646551
0.13673154
-0.0057533553
0.13632975
-0.0042831212
0.13598564
-0.0028911829
0.13579877
-0.0015706769
0.13572167
-0.00035946768
0.00073029677
0.13588298
0.15856576
-0.031216952
-0.15992233
0.15723564
-0.029245026
0.15613114
-0.026879913
0.15505545
-0.024862777
0.1538416
-0.022410351
0.15273076
-0.020359361
0.15158664
-0.018120857
0.15066468
-0.016110045
0.14974888
-0.013955095
0.14893908
-0.012004417
0.14809935
-0.010083224
0.14735043
-0.0082992107
0.14668628
-0.0068005053
0.1461358
-0.0052028731
0.14571274
-0.0038600559
0.14541299
-0.002591433
0.14524687
-0.0014045627
0.14522073
-0.0003333274
0.00057087818
0.14538015
0.16987325
-0.029682717
-0.17140749
0.16807822
-0.027449988
0.16669394
-0.02549564
0.1653348
-0.023503632
0.16419015
-0.021265707
0.16306759
-0.019236799
0.1619465
-0.016999763
0.16090869
-0.015072238
0.15989643
-0.012942835
0.15903009
-0.011138077
0.15820495
-0.0092580852
0.1575104
-0.0076046584
0.15682121
-0.0061113159
0.15627124
-0.0046528984
0.15580491
-0.0033937268
0.15549284
-0.0022793667
0.15529453
-0.0012062557
0.15530362
-0.0003424137
0.00043375774
0.15544074
0.18149975
-0.028319805
-0.18286266
0.17997153
-0.025921771
0.17855694
-0.024081054
0.17691339
-0.021860078
0.17561677
-0.019969089
0.17427497
-0.017894999
0.17315928
-0.015884069
0.17202959
-0.013942552
0.17109214
-0.012005383
0.17021842
-0.010264354
0.16939952
-0.0084391874
0.16871061
-0.0069157499
0.16807108
-0.0054717837
0.16758211
-0.0041639258
0.16715414
-0.0029657586
0.16685613
-0.0019813571
0.1666574
-0.0010075301
0.16662609
-0.00031110248
0.00036901783
0.16669083
0.19373737
-0.026502094
-0.19555508
0.19217545
-0.02435985
0.19065976
-0.022565364
0.18914872
-0.020349037
0.18775564
-0.018576014
0.18629671
-0.016436068
0.18511194
-0.0146993
0.18386354
-0.012694149
0.18287401
-0.011015852
0.18178748
-0.0091778294
0.18095025
-0.0076019521
0.18014555
-0.0061110537
0.17949236
-0.0048185925
0.17896493
-0.0036364977
0.17853936
-0.002540181
0.17823714
-0.0016791401
0.17805815
-0.0008285451
0.17800874
-0.00026168801
0.00029028908
0.17808747
0.20716013
-0.024620458
-0.20904177
0.20551776
-0.022717482
0.20380465
-0.02085225
0.20232641
-0.018870801
0.20085007
-0.017099666
0.19947369
-0.015059687
0.19817636
-0.013401972
0.1969706
-0.01148839
0.19592712
-0.0099723684
0.19490937
-0.0081600862
0.19411407
-0.0068066466
0.19328724
-0.0052842272
0.1926823
-0.0042136531
0.19211854
-0.0030727341
0.19174405
-0.002165692
0.19140352
-0.0013386098
0.19127174
-0.00069677121
0.19123274
-0.00022268163
0.00019688774
0.19132614
0.22106875
-0.022795571
-0.22289363
0.21937451
-0.021023245
0.21771149
-0.019189237
0.21620153
-0.017360835
0.21465359
-0.015551727
0.21326864
-0.013674733
0.21189815
-0.012031482
0.21071949
-0.010309735
0.20951574
-0.0087686208
0.2085193
-0.0071636457
0.20753734
-0.0058246867
0.20668698
-0.0044338631
0.20598576
-0.0035124305
0.20538107
-0.0024680478
0.20498747
-0.0017720939
0.204638
-0.00098913875
0.20447657
-0.00053533555
0.20435991
-0.00010602931
9.1102972e-05
0.2044657
0.23674672
-0.020719086
-0.23882321
0.2347682
-0.019044725
0.2329497
-0.017370735
0.2312583
-0.015669432
0.22966796
-0.013961393
0.22822543
-0.012232202
0.22688155
-0.010687597
0.22568382
-0.0091120114
0.22454283
-0.0076276256
0.22358885
-0.0062096718
0.22264105
-0.0048768875
0.221892
-0.0036848121
0.22114243
-0.0027628547
0.22059172
-0.0019173441
0.22016326
-0.0013436314
0.21991507
-0.00074094609
0.21976766
-0.00038792433
0.21965922
2.4050334e-06
0.00012010281
0.21963022
0.25293134
-0.018866187
-0.25478424
0.25105202
-0.017165397
0.24919991
-0.015518629
0.24742126
-0.013890782
0.24574084
-0.012280978
0.24416284
-0.010654195
0.24269869
-0.0092234515
0.2413681
-0.0077814158
0.24018413
-0.0064436585
0.23912625
-0.0051517962
0.23819572
-0.0039463505
0.23740881
-0.0028979039
0.23665043
-0.0020044798
0.23608683
-0.0013537363
0.23562183
-0.00087863307
0.23537925
-0.00049837235
0.23521782
-0.00022649355
0.23529431
-7.4081987e-05
6.6859644e-05
0.23534755
0.27019083
-0.016615565
-0.27244145
0.26820072
-0.015175283
0.26632602
-0.01364393
0.26459225
-0.012157016
0.26292791
-0.010616631
0.26140357
-0.0091298638
0.2599882
-0.0078080743
0.25868583
-0.006479052
0.25755868
-0.0053165085
0.25653357
-0.0041266785
0.25568554
-0.0030983226
0.2549504
-0.0021627685
0.25429524
-0.0013493194
0.25369094
-0.0007494303
0.2532193
-0.00040699709
0.25287518
-0.00015425203
0.25268303
-3.4344945e-05
0.25260993
-9.8087037e-07
2.8058749e-05
0.25264873
0.28911201
-0.01416725
-0.29156032
0.28684396
-0.01290724
0.28476573
-0.011565698
0.28285026
-0.010241547
0.28113145
-0.0088978218
0.27956341
-0.0075618261
0.27810807
-0.0063527288
0.27679168
-0.0051626624
0.2756347
-0.0041595265
0.27470127
-0.0031932522
0.27386143
-0.0022584796
0.27319703
-0.0014983669
0.27265448
-0.00080677637
0.2722244
-0.00031934837
0.27187368
-5.6276602e-05
0.27156841
0.0001510205
0.27143
0.00010406184
0.27133532
9.3703967e-05
-3.9394076e-05
0.27140277
0.30944087
-0.011591975
-0.31201614
0.30705782
-0.010524188
0.3048468
-0.0093546839
0.30283658
-0.0082313235
0.30099481
-0.007056049
0.29939435
-0.0059613735
0.29794821
-0.0049065823
0.29666814
-0.0038826008
0.29555127
-0.0030426541
0.29454489
-0.0021868668
0.29377769
-0.0014912783
0.2931322
-0.0008528778
0.29264349
-0.00031807301
0.29224469
7.9449515e-05
0.29190183
0.00028658727
0.29169134
0.00036150986
0.29148537
0.00031002821
0.29140451
0.00017456551
-2.1628283e-05
0.29138675
0.33184495
-0.0083009262
-0.335136
0.32888974
-0.0075689701
0.32626118
-0.006726127
0.32395364
-0.0059237825
0.32191748
-0.005019892
0.3201667
-0.0042105959
0.31867556
-0.0034154425
0.31744483
-0.0026518641
0.31643519
-0.0020330138
0.31560103
-0.0013527069
0.31498562
-0.00087587244
0.3145371
-0.00040436028
0.31429906
-8.0025741e-05
0.31416688
0.0002116213
0.31404383
0.00040963703
0.31396169
0.00044365527
0.31385432
0.00041739605
0.31379489
0.00023399124
1.7150774e-05
0.31375612
0.35649252
-0.004440557
-0.36035289
0.3529937
-0.004070144
0.34994104
-0.0036734719
0.34723227
-0.0032150076
0.34493968
-0.0027273087
0.34299499
-0.0022658984
0.3413862
-0.0018066525
0.34012623
-0.0013919
0.33910766
-0.0010144432
0.33840934
-0.00065438453
0.33790908
-0.00037561422
0.33761802
-0.00011330228
0.33746351
7.4486967e-05
0.33745981
0.0002153248
0.33754702
0.00032242204
0.33758243
0.00040824941
0.33765188
0.00034794444
0.33762687
0.00025900075
8.3571493e-05
0.33756045
0.38407578
-0.38851634
0.38000564
0.37633217
0.37311716
0.37038985
0.36812395
0.3663173
0.3649254
0.36391095
0.36325657
0.36288096
0.36276765
0.36284214
0.36305747
0.36337989
0.36378814
0.36413608
0.36439508
0.36447865
0.060154137
0.0040822837
-0.0040061085
0.060531944
0.0068917709
-0.0072695788
0.060973915
0.0095078897
-0.0099498606
0.0617761
0.01240712
-0.013209305
0.062686784
0.015014088
-0.015924772
0.063931558
0.017974434
-0.019219209
0.065323102
0.020585164
-0.021976708
0.066980028
0.023646401
-0.025303327
0.068810778
0.026335466
-0.028166217
0.070805012
0.029225162
-0.031219396
0.073135847
0.031871982
-0.034202817
0.075620655
0.034675849
-0.037160657
0.078371354
0.0374302
-0.040180899
0.081359233
0.040271949
-0.043259828
0.084638204
0.042751271
-0.046030242
0.088268876
0.045586049
-0.049216721
0.09242975
0.047886893
-0.052047767
0.096964199
0.050465113
-0.054999562
0.052778102
0.10218188
-0.057995784
0.064416828
0.0040273831
0.064796083
0.0065125167
0.06536572
0.008938252
0.066307432
0.011465409
0.067386379
0.013935141
0.068803378
0.016557435
0.070355858
0.019032683
0.072261082
0.021741177
0.07425251
0.024344038
0.07653927
0.026938401
0.078978802
0.02943245
0.081715859
0.031938791
0.08460438
0.03454168
0.08783813
0.037038198
0.091385398
0.039204003
0.095144932
0.041826515
0.099578966
0.043452859
0.10419756
0.045846516
0.047304894
0.10967077
0.069056385
0.0039209164
0.069301102
0.0062678001
0.070029628
0.0082097257
0.070844246
0.010650791
0.072095293
0.012684094
0.073450749
0.015201979
0.075190048
0.017293384
0.077045681
0.019885544
0.079301365
0.022088354
0.081695421
0.024544346
0.084432383
0.026695487
0.087303
0.029068174
0.090585497
0.031259183
0.094149327
0.033474367
0.098021278
0.035332053
0.10218812
0.037659669
0.10677967
0.038861313
0.11169792
0.040928268
0.041790651
0.11721216
0.073910093
0.0038224331
0.074305629
0.0058722641
0.075051969
0.0074633859
0.076013222
0.0096895379
0.077390481
0.011306835
0.078856278
0.013736182
0.080761848
0.015387814
0.082731672
0.01791572
0.085201849
0.019618176
0.087648088
0.022098106
0.090564347
0.023779228
0.093496152
0.026136369
0.097000912
0.027754422
0.10058343
0.029891851
0.10465801
0.031257475
0.10895172
0.033365951
0.11363573
0.034177307
0.11860488
0.035959117
0.036342584
0.12405295
0.079117509
0.0037106626
0.079609785
0.0053799882
0.080344021
0.0067291498
0.081444804
0.0085887548
0.082717444
0.010034195
0.084352278
0.012101348
0.0861652
0.013574892
0.088304197
0.015776724
0.090731431
0.017190941
0.093352774
0.019476763
0.096299523
0.020832478
0.099541699
0.022894193
0.10297001
0.024326113
0.10674945
0.026112407
0.11069326
0.027313663
0.11504109
0.029018127
0.1194866
0.029731799
0.12426279
0.031182919
0.031220822
0.12938456
0.084624389
0.0035560705
0.085175657
0.0048287199
0.085985059
0.0059197478
0.087159116
0.0074146981
0.088525117
0.0086681933
0.090339883
0.010286582
0.092228985
0.011685789
0.094649997
0.013355712
0.097066463
0.014774475
0.099907841
0.016635383
0.10286776
0.017872563
0.10609462
0.019667332
0.10948763
0.020933096
0.11314856
0.022451485
0.11684136
0.023620857
0.12094392
0.024915569
0.12488266
0.025793054
0.12923516
0.026830425
0.027203882
0.1332521
0.090689534
0.0034749882
0.091322798
0.0041954568
0.092115632
0.0051269129
0.093400602
0.0061297283
0.094835533
0.0072332624
0.096712258
0.0084098563
0.098678724
0.0097193223
0.10112715
0.010907282
0.10351084
0.012390793
0.10649601
0.013650212
0.10932698
0.015041591
0.11261868
0.016375628
0.11580679
0.017744987
0.11924677
0.019011507
0.12263758
0.020230043
0.12611398
0.021439175
0.1295204
0.022386634
0.13277203
0.023578793
0.024475514
0.1355004
0.096889428
0.0032157389
0.097573346
0.0035115384
0.098415844
0.0042844144
0.099792437
0.0047531349
0.10123874
0.0057869552
0.10321717
0.0064314338
0.105251
0.0076854879
0.10776137
0.0083969082
0.11022865
0.0099235132
0.11315265
0.010726215
0.11585624
0.012338006
0.11902741
0.013204456
0.12187072
0.014901677
0.1251021
0.015780122
0.12775929
0.017572858
0.13077467
0.018423794
0.13305164
0.020109668
0.13517069
0.021459742
0.023016439
0.13662976
0.10405049
0.0028621864
0.10452321
0.0030388144
0.10550982
0.0032978053
0.1067939
0.0034690504
0.10837043
0.0042104294
0.11038662
0.0044152424
0.11252016
0.0055519461
0.11498926
0.0059278085
0.11743632
0.007476453
0.12018191
0.0079806258
0.12268671
0.0098332072
0.12547079
0.01042037
0.12783939
0.012533083
0.13042395
0.013195555
0.13220041
0.015796398
0.13417303
0.016451173
0.13489514
0.019387562
0.13588011
0.020474769
0.023473838
0.13542271
0.11116763
0.0023702042
0.11170919
0.0024972465
0.11295238
0.0020546231
0.11412159
0.002299831
0.11592985
0.0024021703
0.11776042
0.0025846791
0.11998902
0.0033233403
0.12224875
0.0036680821
0.1246781
0.0050471018
0.12710246
0.0055562666
0.12947681
0.0074588547
0.13180136
0.0080958151
0.133665
0.01066945
0.13534957
0.01151098
0.1363342
0.014811772
0.13699733
0.015788041
0.13633913
0.02004576
0.13546338
0.021350514
0.026259419
0.1326778
0.11907592
0.0020275163
0.11970457
0.001868604
0.12087073
0.00088845489
0.12202306
0.0011475001
0.12393844
0.00048679719
0.12557427
0.00094884677
0.12789549
0.0010021188
0.12976454
0.0017990319
0.13202926
0.0027823836
0.13393632
0.0036492053
0.13599299
0.0054021833
0.13741984
0.0066689618
0.13860188
0.0094874137
0.13906278
0.011050078
0.13907239
0.014802163
0.13818154
0.016678885
0.13639573
0.021831575
0.1336369
0.024109347
0.030769645
0.12912667
0.12716025
0.0017391621
0.12801682
0.0010120338
0.12902616
-0.00012088514
0.1304315
-0.00025784594
0.13215292
-0.0012346203
0.13382441
-0.00072264541
0.13603976
-0.0012132267
0.13770304
0.00013574885
0.13985937
0.00062605023
0.1412732
0.0022353767
0.14279976
0.0038756182
0.14344337
0.0060253582
0.14389677
0.0090340094
0.14315828
0.01178857
0.14186497
0.016095469
0.13925726
0.019286594
0.13614699
0.024941854
0.13182222
0.028434109
0.035919892
0.12667198
0.136163
0.0014591475
0.13702119
0.00015384714
0.13792514
-0.0010248442
0.13950213
-0.0018348326
0.14092615
-0.0026586386
0.14266421
-0.0024607078
0.14437139
-0.0029204104
0.14587029
-0.0013631463
0.14748077
-0.00098443352
0.14818093
0.0015352149
0.14905894
0.0029976095
0.14874342
0.0063408788
0.14823065
0.0095467733
0.14643847
0.013580751
0.1442344
0.018299539
0.14062686
0.02289414
0.13653976
0.029028951
0.13140008
0.033573786
0.041600329
0.12571965
0.14568441
0.0011548882
0.14653257
-0.00069431728
0.14749869
-0.001990961
0.14898798
-0.0033241186
0.15019853
-0.0038691919
0.15190502
-0.0041671974
0.15313809
-0.0041534834
0.15459008
-0.0028151362
0.15554792
-0.0019422773
0.15593621
0.0011469276
0.15584011
0.0030937062
0.15435234
0.0078286495
0.15292598
0.010973129
0.15005043
0.016456309
0.14707718
0.021272786
0.14257101
0.027400307
0.13813866
0.033461308
0.1322727
0.039439747
0.04762458
0.12624844
0.15585054
0.0007450838
0.15660276
-0.0014465329
0.15755032
-0.002938518
0.15886868
-0.0046424808
0.16001184
-0.005012358
0.16149588
-0.00565123
0.16231639
-0.0049739993
0.16344468
-0.0039434283
0.16360921
-0.002106806
0.16356559
0.0011905444
0.1623715
0.0042878032
0.16066001
0.0095401402
0.15842311
0.01321002
0.15472261
0.020156817
0.15096782
0.025027568
0.14572908
0.032639049
0.14102723
0.038163161
0.13479471
0.045672267
0.053175134
0.12924416
0.16714662
0.00028929592
0.16778793
-0.0020878418
0.16876511
-0.0039156965
0.16987044
-0.0057478176
0.17093553
-0.0060774502
0.17202939
-0.0067450831
0.1724947
-0.0054393176
0.17295646
-0.0044051862
0.17222651
-0.0013768511
0.17145083
0.0019662159
0.16946224
0.0062763953
0.16751788
0.011484498
0.16415156
0.016576341
0.16032814
0.02398024
0.15618409
0.029171616
0.15134176
0.037481379
0.14729104
0.04221388
0.14241098
0.050552335
0.055470226
0.14011588
0.1785927
-0.00021593346
0.17920989
-0.0027050329
0.18009214
-0.0047979459
0.18089332
-0.0065490037
0.1818861
-0.0070702221
0.18259174
-0.0074507269
0.18283218
-0.0056797592
0.18267166
-0.0042446667
0.18157863
-0.00028382473
0.1803824
0.003162451
0.17788653
0.0087722673
0.17529698
0.01407404
0.17122138
0.02065195
0.16785987
0.027341742
0.16386577
0.033165723
0.16083479
0.040512359
0.15874221
0.044306453
0.15823594
0.051058612
0.050998255
0.16270791
0.19177538
-0.0006651771
0.19236984
-0.0032994913
0.19299655
-0.0054246601
0.19341109
-0.0069635371
0.19399436
-0.0076534981
0.19407114
-0.0075274999
0.19392301
-0.0055316343
0.1930734
-0.0033950531
0.1916923
0.0010972766
0.18991077
0.0049439754
0.18715664
0.011526399
0.18438986
0.016840822
0.18094572
0.024096086
0.17880396
0.029483504
0.17656447
0.035405212
0.17707992
0.039996911
0.17904846
0.042337907
0.18537388
0.044733196
0.040475102
0.19589703
0.20481037
-0.0010098452
0.20531905
-0.0038081728
0.2059156
-0.0060212142
0.20643929
-0.0074872283
0.20673151
-0.0079457168
0.20631509
-0.0071110779
0.20585842
-0.0050749638
0.20457324
-0.0021098784
0.20310912
0.0025614055
0.20072897
0.0073241264
0.19804281
0.014212557
0.19559854
0.019285093
0.19367374
0.026020882
0.19332355
0.029833698
0.19419561
0.034533146
0.19865473
0.035537793
0.20499755
0.035995086
0.21575701
0.03397374
0.029166175
0.22706593
0.21983841
-0.00121803
0.22020544
-0.0041752022
0.22054292
-0.0063586957
0.22075697
-0.0077012831
0.22065206
-0.0078408047
0.22013714
-0.0065961536
0.21929323
-0.0042310572
0.21761771
-0.00043435867
0.21598901
0.0041901056
0.21347399
0.0098391422
0.21188399
0.015802559
0.21065821
0.020510877
0.21111675
0.025562343
0.21323389
0.027716558
0.21771091
0.030056125
0.22497273
0.028275971
0.23353198
0.027435837
0.24418252
0.023323201
0.021260765
0.25208793
0.23556265
-0.0014331302
0.23572916
-0.0043417118
0.23580839
-0.0064379189
0.23566748
-0.0075603755
0.2351242
-0.0072975229
0.23423962
-0.0057115739
0.23292855
-0.002919994
0.23137476
0.0011194384
0.22954448
0.0060203833
0.22774147
0.011642151
0.22746929
0.016074742
0.22779528
0.020184884
0.23074412
0.022613504
0.23506482
0.02339586
0.24176282
0.023358125
0.24942391
0.020614879
0.25746865
0.019391099
0.26458573
0.016206124
0.018188963
0.26765753
0.25287277
-0.0016571657
0.25278413
-0.0042530762
0.25271523
-0.0063690147
0.25230997
-0.0071551189
0.25172001
-0.0067075626
0.25084886
-0.0048404251
0.24959084
-0.0016619737
0.24815744
0.002552841
0.24673443
0.0074433975
0.24653979
0.011836783
0.24754719
0.015067344
0.25006139
0.017670682
0.25458165
0.018093253
0.2597941
0.01818341
0.26662554
0.01652668
0.27272636
0.014514059
0.27781684
0.014300625
0.27988444
0.014138519
0.019782779
0.27829063
0.27129056
-0.0015449549
0.27103219
-0.003994708
0.27053873
-0.0058755572
0.26960737
-0.0062237536
0.26836609
-0.0054662828
0.2668794
-0.0033537391
0.26568345
-0.00046602148
0.26466536
0.0035709327
0.26444755
0.0076612077
0.26559185
0.01069248
0.2678588
0.012800396
0.27200123
0.013528258
0.27678857
0.013305913
0.28229527
0.012676702
0.28772359
0.011098369
0.29078401
0.011453633
0.29213605
0.012948587
0.29026584
0.016008729
0.023293711
0.28675491
0.2913697
-0.0015279041
0.29117612
-0.003801129
0.29057732
-0.0052767548
0.28989372
-0.0055401596
0.28897579
-0.0045483539
0.28793397
-0.0023119151
0.28697243
0.00049551531
0.28671623
0.0038271325
0.28761201
0.0067654326
0.2896745
0.0086299885
0.29283446
0.0096404402
0.29663004
0.0097326791
0.30061466
0.0093212908
0.30486786
0.0084234978
0.30710815
0.0088580844
0.3073548
0.011206978
0.3064581
0.013845286
0.30405558
0.018411253
0.023599143
0.30375015
0.31335918
-0.0011309672
0.3124691
-0.0029110479
0.3111335
-0.0039411594
0.3093836
-0.003790256
0.30762342
-0.002788175
0.30652794
-0.0012164328
0.3061334
0.00089005536
0.30674449
0.0032160445
0.30856606
0.0049438606
0.31137852
0.0058175315
0.3149695
0.0060494569
0.31893439
0.0057677952
0.32270638
0.0055492994
0.32530981
0.0058200685
0.32621586
0.007952028
0.32727971
0.010143127
0.32804448
0.013080525
0.33064592
0.015809805
0.017264955
0.33698011
0.33727872
-0.00084924231
0.33633598
-0.0019683038
0.33510125
-0.0027064252
0.33394484
-0.0026338457
0.33308439
-0.0019277259
0.33279974
-0.00093178483
0.33332301
0.00036678516
0.33496611
0.0015729473
0.33727972
0.0026302495
0.34000549
0.0030917581
0.34264998
0.0034049767
0.3449218
0.0034959749
0.34627474
0.0041963558
0.34719975
0.0048950599
0.34883258
0.0063191975
0.35190106
0.007074644
0.35630984
0.008671748
0.36394639
0.0081732563
0.0076422785
0.37356906
0.36362941
0.36166111
0.35895468
0.35632084
0.35439311
0.35346133
0.35382811
0.35540106
0.35803131
0.36112307
0.36452804
0.36802402
0.37222037
0.37711543
0.38343463
0.39050928
0.39918102
0.40735428
0.41499656
0.10089777
0.061953109
-0.060668995
0.10011908
0.064411922
-0.063633232
0.099366427
0.067260272
-0.066507623
0.099161206
0.069070919
-0.068865698
0.099125482
0.072224316
-0.072188592
0.099683357
0.074147372
-0.074705248
0.10055222
0.07670978
-0.077578645
0.10231241
0.078273285
-0.080033476
0.10427573
0.08133121
-0.083294531
0.10709367
0.082248117
-0.085066054
0.11052071
0.08358571
-0.087012748
0.11322122
0.085230008
-0.087930519
0.11626933
0.084422337
-0.087470446
0.11856774
0.083661309
-0.085959725
0.12006376
0.080837017
-0.082333035
0.11954194
0.076836787
-0.076314965
0.11680127
0.070042361
-0.067301689
0.1102611
0.062477465
-0.055937298
0.052937859
0.10011963
-0.04279639
0.1083855
0.06323838
0.10749659
0.065300836
0.10693798
0.067818877
0.10685608
0.069152817
0.10727512
0.071805277
0.10788428
0.073538212
0.1091931
0.075400966
0.11098444
0.076481941
0.11355276
0.078762892
0.11629514
0.079505732
0.11964952
0.080231338
0.12389612
0.080983407
0.12736616
0.080952292
0.13082337
0.080204099
0.13317993
0.078480463
0.13381196
0.076204751
0.13245944
0.071394881
0.12865325
0.066283657
0.060302795
0.12128831
0.1158324
0.064618139
0.11460901
0.066524228
0.11371921
0.068708672
0.11332573
0.069546297
0.11356328
0.071567725
0.11405458
0.073046914
0.11552916
0.07392639
0.11722837
0.074782727
0.11973182
0.07625945
0.12240625
0.076831297
0.12543942
0.077198163
0.12967361
0.076749223
0.13301429
0.077611614
0.13665393
0.07656446
0.13941623
0.075718155
0.14167086
0.073950125
0.14144329
0.071622453
0.13902697
0.068699979
0.06570995
0.13361981
0.1225092
0.066161882
0.12097635
0.068057084
0.12004195
0.069643069
0.11929113
0.070297113
0.11895455
0.071904306
0.11928286
0.072718611
0.12037119
0.072838061
0.12174101
0.073412905
0.12379795
0.074202504
0.12623495
0.074394301
0.12917194
0.074261174
0.13270781
0.073213348
0.13572987
0.074589561
0.13844573
0.073848601
0.14124563
0.072918251
0.14350597
0.071689787
0.14456693
0.070561491
0.14356683
0.069700073
0.069045771
0.14023101
0.12718798
0.068358456
0.12553479
0.069710279
0.12439747
0.070780386
0.12342223
0.071272354
0.1230132
0.072313338
0.1229704
0.072761404
0.12357168
0.072236779
0.12430174
0.072682855
0.12568695
0.072817292
0.12804882
0.072032424
0.13090498
0.071405015
0.13334746
0.070770867
0.13620966
0.071727364
0.13959701
0.07046125
0.14302439
0.069490867
0.14559136
0.069122817
0.14677384
0.069379011
0.14645439
0.070019525
0.070953894
0.14454627
0.13081619
0.070794361
0.12855936
0.071967113
0.12696475
0.072374994
0.12538646
0.072850645
0.12442521
0.073274586
0.1242425
0.072944117
0.12411875
0.072360523
0.12450175
0.072299856
0.12615841
0.071160634
0.12805351
0.070137326
0.13007766
0.069380861
0.1327624
0.06808613
0.13687624
0.067613528
0.1409807
0.066356789
0.1442523
0.066219267
0.14692228
0.06645284
0.14913895
0.067162343
0.15172575
0.067432717
0.069650871
0.15302878
0.13250142
0.073793335
0.12993173
0.07453681
0.12766055
0.074646166
0.12545613
0.075055071
0.12419874
0.074531975
0.12296783
0.074175029
0.12230752
0.073020826
0.12275774
0.071849636
0.12338799
0.070530384
0.12473433
0.068790988
0.12785622
0.066258973
0.13133378
0.064608571
0.13519468
0.063752626
0.13967365
0.061877818
0.14557674
0.060316178
0.15316864
0.058860937
0.16107043
0.05926055
0.16821977
0.060283379
0.064685034
0.17318561
0.13255008
0.077873013
0.12917361
0.077913282
0.12568912
0.078130659
0.12323168
0.077512514
0.12062089
0.077142759
0.1188487
0.075947221
0.11763396
0.074235568
0.11688103
0.072602566
0.11767833
0.069733078
0.11999822
0.066471101
0.12224879
0.064008404
0.12533465
0.061522716
0.13234171
0.056745565
0.14240494
0.051814585
0.15360331
0.049117811
0.1645439
0.047920348
0.17479118
0.049013262
0.18334794
0.051726626
0.05732277
0.1907102
0.13057244
0.082723288
0.12591237
0.082573354
0.12152338
0.082519642
0.1174845
0.081551393
0.11361288
0.081014385
0.11068805
0.078872049
0.10757763
0.077345984
0.10640286
0.073777342
0.10594697
0.070188963
0.10529915
0.067118919
0.10619704
0.06311052
0.11189131
0.055828447
0.12132484
0.047312033
0.13026402
0.042875401
0.13750406
0.04187777
0.1442286
0.041195816
0.15204794
0.041193917
0.16053097
0.043243592
0.047214515
0.17063923
0.12656983
0.088831266
0.12041448