/*--------------------------------*- C++ -*----------------------------------*\
  =========                 |
  \\      /  F ield         | OpenFOAM: The Open Source CFD Toolbox
   \\    /   O peration     | Website:  https://openfoam.org
    \\  /    A nd           | Version:  11
     \\/     M anipulation  |
\*---------------------------------------------------------------------------*/
FoamFile
{
    format      ascii;
    class       volVectorField;
    location    "13.6";
    object      U;
}
// * * * * * * * * * * * * * * * * * * * * * * * * * * * * * * * * * * * * * //

dimensions      [0 1 -1 0 0 0 0];

internalField   nonuniform List<vector> 
5472
(
(10.496084 2.6692451 1.6602921e-18)
(10.679484 2.6746946 -1.7288265e-18)
(10.888775 2.6351499 -1.7434408e-18)
(11.076629 2.6078956 -1.7735853e-18)
(11.272267 2.5444692 5.502527e-18)
(11.502177 2.4687197 -3.5107678e-20)
(11.647559 2.3807769 -2.9037167e-18)
(11.869803 2.2793417 1.0129132e-18)
(12.004974 2.1576645 0)
(12.21332 2.0241548 0)
(12.327539 1.8857546 0)
(12.485236 1.7225725 -3.1533164e-18)
(12.627874 1.5608525 1.6202558e-18)
(12.706835 1.3792358 -2.3361334e-20)
(12.869236 1.2011359 1.0943835e-18)
(12.891222 0.98839595 -5.6244918e-19)
(13.030498 0.82060416 -8.4296501e-19)
(13.039633 0.57877131 2.8954966e-19)
(13.113771 0.43227493 0)
(10.44911 2.4547843 -1.519683e-18)
(10.637264 2.4394556 3.1357434e-18)
(10.797192 2.4271439 -1.6180535e-18)
(10.995525 2.3958832 -1.6263292e-18)
(11.215486 2.3323871 2.4330759e-20)
(11.374148 2.2813187 0)
(11.574037 2.1925937 1.7415478e-18)
(11.736504 2.1166696 -3.5531953e-18)
(11.919746 1.9964011 4.5918089e-18)
(12.074617 1.8804521 9.3755117e-19)
(12.198229 1.7616938 0)
(12.388321 1.5901786 1.9461252e-18)
(12.462458 1.4740166 0)
(12.625875 1.2651426 4.9147556e-19)
(12.705422 1.1378998 -5.0832243e-19)
(12.798768 0.91909422 0)
(12.899851 0.76129565 0)
(12.942504 0.57282418 -2.5514093e-19)
(13.007251 0.37640296 0)
(10.437697 2.2676618 0)
(10.597913 2.2928574 1.4294405e-18)
(10.787366 2.2755846 1.4639699e-18)
(10.985114 2.266609 0)
(11.144416 2.2252984 -1.9785401e-20)
(11.320136 2.1732681 -2.6204262e-20)
(11.479467 2.1141169 -1.6079726e-18)
(11.67485 2.0265991 0)
(11.805662 1.9344574 -1.6490531e-18)
(11.957662 1.8406185 -4.222742e-18)
(12.12949 1.6909935 1.2375699e-20)
(12.255263 1.5821779 -8.5615401e-19)
(12.374497 1.4295475 -8.8393681e-19)
(12.525894 1.2630599 1.8118772e-18)
(12.585041 1.1249953 1.3666903e-18)
(12.740829 0.91232387 4.6108016e-19)
(12.763775 0.78642398 2.3033219e-19)
(12.867372 0.5568082 -3.4819376e-19)
(12.886586 0.42443099 1.1612404e-19)
(10.402174 2.0790456 0)
(10.587407 2.0960093 -1.2901862e-18)
(10.737604 2.1019776 -1.319932e-18)
(10.8905 2.0790887 2.6913683e-18)
(11.023139 2.0456381 -1.4151578e-18)
(11.202432 2.0126869 0)
(11.370489 1.9375148 -1.4546683e-18)
(11.520475 1.8970832 1.4654107e-18)
(11.670344 1.8074235 -1.5175934e-18)
(11.863777 1.694327 -2.0208851e-20)
(11.989259 1.596137 -1.570433e-18)
(12.13482 1.4683863 0)
(12.277796 1.3297446 0)
(12.386439 1.1700168 -8.0665924e-19)
(12.511814 1.0283115 -8.1499481e-19)
(12.598085 0.84618708 0)
(12.6639 0.69279852 -2.0750641e-19)
(12.74709 0.5036496 1.0509207e-19)
(12.763545 0.34853654 2.0944794e-19)
(10.426332 1.9407163 0)
(10.566052 1.9616553 0)
(10.682689 1.9484562 0)
(10.834212 1.955119 -2.4397581e-18)
(10.987067 1.920365 1.2697692e-18)
(11.170155 1.8900327 -3.8389673e-18)
(11.291469 1.8619012 5.2475422e-18)
(11.472764 1.7945496 -2.6752582e-18)
(11.632631 1.7100543 2.7081196e-21)
(11.776888 1.6469674 1.3779837e-18)
(11.916345 1.5388149 1.3999331e-18)
(12.065216 1.4188 -2.8609767e-18)
(12.183291 1.3047103 2.1784267e-18)
(12.291214 1.1641545 -7.3640117e-19)
(12.395515 1.0261679 0)
(12.47254 0.8530192 7.4918111e-19)
(12.564791 0.70952398 -3.7658745e-19)
(12.605067 0.52734939 1.8727802e-19)
(12.67289 0.36726335 -1.8638387e-19)
(10.381236 1.7862852 0)
(10.504269 1.7890183 -4.2266387e-18)
(10.624247 1.8009007 2.182133e-18)
(10.781535 1.7937232 2.2270817e-18)
(10.902283 1.7889228 1.1314473e-18)
(11.057952 1.7687392 -1.149858e-18)
(11.194914 1.7162249 2.3860836e-18)
(11.371754 1.6743707 1.1994466e-18)
(11.48411 1.6145063 2.4420916e-18)
(11.652634 1.5313043 -2.5026425e-18)
(11.776037 1.421517 1.6821582e-20)
(11.922744 1.3344362 2.57629e-18)
(12.024928 1.2088549 0)
(12.151379 1.07871 -6.6233213e-19)
(12.245719 0.93878117 6.6140926e-19)
(12.346297 0.78033338 -1.6679119e-18)
(12.419854 0.63653538 6.7035057e-19)
(12.485325 0.45422164 -1.6796258e-19)
(12.537411 0.31684386 3.7951439e-22)
(10.386147 1.6362747 3.7454593e-18)
(10.511111 1.6380243 3.8191443e-18)
(10.62609 1.6642117 0)
(10.746389 1.665285 -6.0240441e-21)
(10.872413 1.6586131 -4.096913e-18)
(11.031779 1.6410041 4.2064261e-18)
(11.156007 1.6209744 0)
(11.319019 1.578179 -1.0928854e-18)
(11.429587 1.521494 -4.4154716e-18)
(11.597994 1.4444675 2.2663311e-18)
(11.688166 1.3744322 1.1347663e-18)
(11.849725 1.2730764 -1.1648229e-18)
(11.935845 1.1657083 0)
(12.078047 1.0538605 5.8708864e-19)
(12.156859 0.90581062 0)
(12.27429 0.77341722 -5.9696693e-19)
(12.330091 0.61548936 9.0334788e-19)
(12.411492 0.47451335 9.7812388e-22)
(12.437184 0.30913693 -9.4352732e-22)
(10.361879 1.4864476 1.6791157e-18)
(10.449664 1.5104345 -3.4378672e-18)
(10.554657 1.5379517 -3.5041456e-18)
(10.678513 1.5288868 3.6097129e-18)
(10.795955 1.5368603 -1.8531568e-18)
(10.925302 1.5116115 -1.8761045e-18)
(11.046312 1.4990849 0)
(11.180155 1.4671856 2.9180159e-18)
(11.295058 1.4210521 -1.3231026e-20)
(11.441622 1.3615081 -3.02452e-18)
(11.546889 1.2777806 3.0919112e-18)
(11.710363 1.186935 0)
(11.796553 1.0941163 0)
(11.951401 0.97190599 1.053298e-18)
(12.010646 0.84559193 -5.4023577e-19)
(12.137382 0.70337078 -1.0717952e-18)
(12.16884 0.56833002 2.7133736e-19)
(12.270999 0.4201317 2.7317573e-19)
(12.275521 0.26879507 6.6651512e-20)
(10.355632 1.3395233 -1.5068658e-18)
(10.459641 1.3722388 4.6185148e-18)
(10.571013 1.3966334 -4.7599602e-18)
(10.66919 1.4029752 3.2364665e-18)
(10.781127 1.4087297 0)
(10.898087 1.3963637 1.6789836e-18)
(11.008273 1.3941678 -1.7322703e-18)
(11.132867 1.3618674 0)
(11.249623 1.3297221 8.8565319e-19)
(11.389482 1.2617323 -1.8302227e-18)
(11.504243 1.2040124 -9.1315567e-19)
(11.638025 1.1143586 -9.5199779e-21)
(11.727301 1.0360197 -2.8187282e-18)
(11.852643 0.92867736 4.8447289e-19)
(11.921294 0.8155326 -4.7001915e-19)
(12.039139 0.68246682 9.601513e-19)
(12.08149 0.54422289 -4.7818528e-19)
(12.191473 0.40487542 2.4456537e-19)
(12.195017 0.26187864 2.3961397e-19)
(10.348267 1.2205095 -2.7140997e-18)
(10.421871 1.2672306 0)
(10.499394 1.2798911 1.4157145e-18)
(10.582299 1.2920717 -4.3360107e-18)
(10.675411 1.3020492 1.4927282e-18)
(10.776414 1.2991936 -1.515527e-18)
(10.892135 1.2939694 1.5341723e-18)
(11.017669 1.2644523 -1.5782056e-18)
(11.140902 1.2330198 0)
(11.263443 1.1820896 8.0585631e-19)
(11.375016 1.1236379 0)
(11.500864 1.0455958 8.248452e-19)
(11.601667 0.97232038 -2.9036553e-22)
(11.726923 0.8580772 -4.1908581e-19)
(11.806162 0.75865732 4.216486e-19)
(11.908671 0.61620635 4.2443423e-19)
(11.95557 0.5036356 -2.5526467e-21)
(12.039663 0.35670532 -6.4088841e-19)
(12.057096 0.23514113 0)
(10.326542 1.112081 0)
(10.407487 1.1481272 1.2400464e-18)
(10.488995 1.1512825 0)
(10.580332 1.1808716 1.2850055e-18)
(10.682804 1.1715639 -3.9766439e-18)
(10.782255 1.1792186 4.0641124e-18)
(10.884915 1.1750415 -1.3609459e-18)
(10.983559 1.1630695 4.2217796e-18)
(11.090638 1.1445244 0)
(11.19624 1.09354 7.2449706e-19)
(11.314768 1.046333 0)
(11.425857 0.97543377 -1.4696817e-18)
(11.540333 0.90622346 2.9805402e-18)
(11.645844 0.81417936 -7.8003425e-21)
(11.738662 0.71837133 -3.7887966e-19)
(11.82588 0.59368234 0)
(11.886254 0.47346835 0)
(11.955496 0.33220324 0)
(11.979006 0.21246121 -4.7478456e-20)
(10.297356 1.0125271 4.31632e-18)
(10.370513 1.0360811 -5.5485762e-18)
(10.432152 1.0553102 2.2583925e-18)
(10.510166 1.0821333 -8.1269729e-21)
(10.591463 1.08631 0)
(10.691634 1.1042444 -2.4008266e-18)
(10.792452 1.0885674 1.241178e-18)
(10.898796 1.0812781 -1.2446904e-18)
(10.999055 1.0510943 0)
(11.096371 1.0137865 -6.4013446e-19)
(11.210636 0.9648982 1.2937502e-18)
(11.302019 0.90310355 -1.2857864e-20)
(11.413658 0.83780712 -1.3302616e-18)
(11.508265 0.74903042 -2.6587417e-18)
(11.606495 0.6629425 2.3448269e-18)
(11.683075 0.54891793 -1.3439275e-18)
(11.762152 0.43935491 8.4414258e-19)
(11.80869 0.31304896 1.690496e-19)
(11.862831 0.18709329 4.1671098e-20)
(10.300002 0.91544265 -6.7583155e-18)
(10.384393 0.92124591 3.9599265e-18)
(10.432152 0.95744317 0)
(10.513042 0.96247202 -5.1429885e-18)
(10.576185 0.96848631 4.2241052e-18)
(10.662121 0.98195011 1.0744529e-18)
(10.740559 0.98341169 3.2694572e-18)
(10.841913 0.98979181 -2.2291674e-18)
(10.936993 0.9727127 -2.8074505e-18)
(11.042469 0.9465465 1.720408e-18)
(11.153182 0.89647751 2.2972296e-18)
(11.247838 0.84217621 -3.5000749e-18)
(11.361163 0.76824152 2.3476843e-18)
(11.445429 0.69348347 -5.9817388e-19)
(11.535555 0.60409913 2.9322368e-19)
(11.603635 0.50306662 -4.0327892e-21)
(11.679777 0.39589981 -7.4580587e-19)
(11.715892 0.27567006 -1.4821417e-19)
(11.773551 0.15166888 -3.7227562e-20)
(10.262319 0.81623874 2.5868065e-18)
(10.327408 0.8337351 3.5094401e-18)
(10.369835 0.87951429 -3.6019115e-18)
(10.461663 0.88449018 9.1793115e-19)
(10.529413 0.90620143 -2.7929772e-18)
(10.620643 0.90070118 2.8719938e-18)
(10.697433 0.89800162 9.6390611e-19)
(10.790254 0.8895127 -4.9249976e-18)
(10.877824 0.87949222 3.4920152e-18)
(10.973444 0.85846499 -1.5270108e-18)
(11.063657 0.82691208 0)
(11.158081 0.78625152 -5.1726222e-19)
(11.252634 0.71692055 -1.555525e-18)
(11.33946 0.65400735 5.3249971e-19)
(11.424255 0.56798739 1.5770983e-18)
(11.492739 0.4750152 5.2417407e-19)
(11.567613 0.37376555 -1.0530845e-18)
(11.607076 0.26414484 2.6499952e-19)
(11.664847 0.13948682 2.9508402e-19)
(10.278902 0.72921673 -3.8188607e-18)
(10.331467 0.74553357 3.132206e-18)
(10.37116 0.76000921 0)
(10.436943 0.77325335 -8.1375897e-19)
(10.484179 0.80577952 3.3121456e-18)
(10.568853 0.81177021 -6.7585911e-18)
(10.639012 0.82365564 8.830205e-19)
(10.728054 0.81063014 3.5058947e-18)
(10.803133 0.80696169 2.6560387e-18)
(10.891256 0.78124072 -4.4830837e-19)
(10.97995 0.7531324 0)
(11.077694 0.71072114 2.2694707e-18)
(11.164701 0.65185239 -9.2532178e-19)
(11.251209 0.59102496 9.2205651e-19)
(11.324173 0.51151472 -1.3917829e-18)
(11.393935 0.42359198 -2.3274966e-19)
(11.455094 0.32894802 0)
(11.501367 0.22334075 0)
(11.547477 0.10754797 -2.8985405e-20)
(10.248706 0.64500944 6.5999338e-19)
(10.285733 0.69045255 -6.2525966e-18)
(10.353022 0.69835195 2.8249785e-18)
(10.406304 0.70928038 -3.6142683e-18)
(10.46118 0.71652117 -7.343701e-19)
(10.536758 0.72532802 0)
(10.593631 0.73996135 -3.7878476e-18)
(10.674068 0.73596037 2.3234026e-18)
(10.743886 0.73315199 -7.8226733e-19)
(10.836867 0.71048022 -1.7415125e-21)
(10.919372 0.6910355 0)
(11.010641 0.65391732 0)
(11.096596 0.60559014 -4.0313803e-19)
(11.18247 0.54847412 -4.0495412e-19)
(11.257513 0.47931935 2.0312931e-19)
(11.327013 0.39623744 1.2231431e-18)
(11.384376 0.30995358 -8.1994792e-19)
(11.43251 0.20573797 1.0250959e-19)
(11.464706 0.09915058 2.532262e-20)
(10.245106 0.54954268 4.2086692e-18)
(10.270382 0.59255471 -4.3105149e-18)
(10.323292 0.60337601 0)
(10.357857 0.63982059 6.3816217e-19)
(10.429523 0.64173199 0)
(10.480858 0.65869863 6.6111491e-19)
(10.555903 0.65501783 6.7136407e-19)
(10.618419 0.6574512 0)
(10.689421 0.65058329 3.432794e-18)
(10.764574 0.636176 -2.4462338e-18)
(10.836645 0.62133648 1.7517672e-18)
(10.922063 0.58325271 -1.4205202e-18)
(10.99887 0.54323562 1.4187504e-18)
(11.077014 0.4884142 -9.8144253e-21)
(11.148701 0.42841917 -1.4392045e-18)
(11.21088 0.35292363 -1.7897874e-19)
(11.268658 0.27448737 -1.8022471e-19)
(11.312321 0.17962836 -8.9466494e-20)
(11.340282 0.081765293 0)
(10.204617 0.49338095 4.8070061e-18)
(10.247177 0.51616814 0)
(10.290516 0.53329777 0)
(10.327748 0.56062114 5.6432673e-19)
(10.39194 0.57290156 0)
(10.436516 0.59513262 -5.8214958e-19)
(10.515298 0.59335333 -5.9048274e-19)
(10.564486 0.60363204 -2.3896586e-18)
(10.649303 0.5866067 2.4316288e-18)
(10.708652 0.58815564 0)
(10.799767 0.55756025 -2.7705408e-18)
(10.872206 0.53633688 2.1847502e-18)
(10.953717 0.49103536 1.2466376e-18)
(11.025658 0.44307622 -2.5119291e-18)
(11.097763 0.38728795 2.5188276e-18)
(11.155814 0.31738471 -1.8936901e-18)
(11.211721 0.24571309 6.3145348e-19)
(11.254084 0.15772681 0)
(11.282871 0.069376736 0)
(10.170408 0.40703755 7.5411116e-18)
(10.216452 0.43313695 -3.8493166e-18)
(10.248362 0.45489694 3.9078164e-18)
(10.304518 0.47439065 -4.4842838e-18)
(10.35541 0.48592281 -4.0367344e-18)
(10.410693 0.50667633 4.1136507e-18)
(10.469976 0.5123655 2.0762867e-18)
(10.526177 0.52101404 -1.0336749e-20)
(10.593773 0.5166017 -2.1367626e-18)
(10.650383 0.51433308 0)
(10.731491 0.49634529 0)
(10.788275 0.47888577 2.7232875e-19)
(10.870376 0.43621404 0)
(10.927865 0.39861272 1.0979563e-18)
(10.998134 0.34192726 -1.1072689e-18)
(11.050887 0.28782124 -5.5116985e-19)
(11.1034 0.21545297 6.9177862e-19)
(11.139845 0.14058306 -3.4481285e-19)
(11.165432 0.056946719 2.7538798e-19)
(10.157229 0.34684525 0)
(10.193161 0.36925658 0)
(10.217634 0.39099479 3.4462534e-18)
(10.264029 0.41316977 -3.5120258e-18)
(10.300734 0.43433748 3.9991573e-18)
(10.36472 0.45128627 -4.0691818e-18)
(10.415677 0.45560457 0)
(10.487122 0.46070985 4.6314122e-19)
(10.543486 0.45799893 1.865371e-18)
(10.61492 0.45460781 -1.8921648e-18)
(10.684544 0.44053004 1.8958308e-18)
(10.750615 0.42478766 -1.1315064e-20)
(10.825499 0.38892894 -3.8439901e-18)
(10.882994 0.35416247 1.9341629e-18)
(10.949918 0.3026335 0)
(11.001761 0.25219763 -9.6445606e-19)
(11.055432 0.18667316 1.5118827e-18)
(11.085668 0.12091973 -6.6454934e-19)
(11.112483 0.04147925 2.4076114e-19)
(10.131081 0.26913286 1.1385544e-17)
(10.166035 0.29442703 -5.9841163e-18)
(10.200828 0.31450867 0)
(10.240196 0.33567231 -3.85779e-19)
(10.284062 0.35290819 -3.9099849e-19)
(10.33244 0.37328525 3.9615948e-19)
(10.37751 0.38258761 0)
(10.435739 0.3917733 -4.0538714e-19)
(10.485023 0.39442111 3.2706194e-18)
(10.554283 0.39000363 -3.3144014e-18)
(10.610367 0.384959 0)
(10.682464 0.36681862 0)
(10.739972 0.34333547 2.1040981e-19)
(10.80598 0.3086861 1.0552119e-19)
(10.856868 0.26734524 -1.0570994e-19)
(10.91479 0.22240694 0)
(10.956722 0.16778998 -4.7463136e-19)
(10.99422 0.11137926 4.2321252e-19)
(11.02208 0.048119463 0)
(10.097518 0.20380113 -1.0355852e-17)
(10.120796 0.23020667 1.0853938e-17)
(10.153955 0.25538695 -1.1386641e-20)
(10.190953 0.27600652 -5.0890391e-18)
(10.238525 0.29678834 0)
(10.287732 0.3125404 2.776864e-18)
(10.344509 0.32126524 -5.8030745e-18)
(10.397762 0.3294132 2.8484977e-18)
(10.454572 0.33150073 0)
(10.515849 0.33575794 -2.8848352e-18)
(10.57736 0.32883485 2.9178345e-18)
(10.643795 0.31700354 1.4584387e-18)
(10.706484 0.29523967 -1.4712479e-18)
(10.766354 0.26335271 1.2830955e-18)
(10.817829 0.2214117 -1.3850414e-18)
(10.871085 0.17436086 0)
(10.90335 0.12679345 -4.6130014e-20)
(10.941456 0.070134715 -1.3749544e-19)
(10.953117 0.01877844 1.948736e-19)
(10.076315 0.14220042 2.8477664e-19)
(10.102224 0.16109385 -5.7824893e-19)
(10.12543 0.18445069 4.6888483e-18)
(10.160055 0.20504268 2.8660127e-19)
(10.197383 0.22697732 -3.1446272e-19)
(10.243018 0.24651973 -4.8824149e-18)
(10.291706 0.25712446 1.5385247e-19)
(10.345638 0.26682483 2.6380653e-18)
(10.401736 0.26853504 -2.513349e-18)
(10.462122 0.2698805 -1.5803855e-19)
(10.524187 0.27114102 0)
(10.582616 0.26494355 2.707175e-18)
(10.648703 0.25643254 -2.7290258e-18)
(10.701199 0.2383301 -1.2013282e-18)
(10.760682 0.20847104 8.6831239e-20)
(10.805455 0.17444032 1.9311722e-18)
(10.844925 0.12884592 -6.0410227e-19)
(10.877642 0.085899541 -6.0064961e-20)
(10.893758 0.036585604 -9.9594712e-21)
(10.044244 0.090407439 0)
(10.070187 0.10884135 2.537724e-19)
(10.096338 0.12680351 4.1134537e-18)
(10.133459 0.14666513 -4.5653345e-18)
(10.16892 0.16475771 4.3466925e-18)
(10.216078 0.18251334 -4.2727157e-18)
(10.26084 0.19585247 1.3478661e-19)
(10.313725 0.20595169 -1.3574205e-19)
(10.366906 0.20942371 2.048632e-18)
(10.425876 0.20856382 -2.0714389e-18)
(10.485811 0.20400346 2.0706748e-18)
(10.549167 0.19340133 -2.2981652e-18)
(10.609609 0.17970929 0)
(10.666748 0.1601671 1.1136255e-18)
(10.719694 0.13572038 -1.2597943e-18)
(10.760833 0.10719437 5.5752666e-19)
(10.799417 0.072366075 -5.2452058e-19)
(10.820293 0.036042348 -2.434318e-19)
(10.83527 -0.0025374762 2.8237394e-19)
(10.034463 0.043041972 -6.1757785e-21)
(10.047775 0.055773846 -7.1270175e-18)
(10.064809 0.074816374 1.1278755e-19)
(10.091429 0.089044066 -1.0870747e-22)
(10.123145 0.10798943 1.1533609e-19)
(10.165216 0.12278673 0)
(10.212138 0.13657341 3.7602165e-18)
(10.261963 0.15052499 -3.9216045e-18)
(10.316652 0.15709971 1.1936014e-19)
(10.373837 0.16779244 -1.859872e-18)
(10.430033 0.16927137 3.9264316e-18)
(10.494406 0.17120716 -3.8798874e-18)
(10.552012 0.16663094 1.9493712e-18)
(10.614885 0.15764782 0)
(10.67016 0.14308407 -9.4054019e-19)
(10.717808 0.12114402 9.7493279e-19)
(10.75923 0.095996808 -1.5114178e-20)
(10.785066 0.065494872 3.4517177e-23)
(10.803789 0.032536952 -3.7650456e-21)
(10.013954 0.019879756 6.2088343e-18)
(10.025391 0.027141893 -6.2357682e-18)
(10.043752 0.033696386 6.2203933e-18)
(10.065284 0.042158853 9.976655e-20)
(10.096068 0.051354079 0)
(10.135285 0.058259672 0)
(10.181038 0.064527406 -5.1187567e-20)
(10.233912 0.067877086 -3.2513913e-18)
(10.291544 0.069216073 3.3875484e-18)
(10.351599 0.069846075 3.3121777e-18)
(10.415296 0.066600874 -1.6119641e-18)
(10.47762 0.06264803 -1.7667721e-18)
(10.538141 0.055954145 0)
(10.597956 0.04795741 2.6423945e-20)
(10.648384 0.039186078 2.6364612e-20)
(10.694182 0.028096591 8.2812863e-19)
(10.729064 0.016171787 -8.5693445e-19)
(10.751459 -3.318795e-05 1.9011706e-19)
(10.764224 -0.015564964 -2.0962533e-19)
(10.006654 0.0053862268 -4.1821589e-20)
(10.013154 0.0086078938 5.3977649e-18)
(10.02531 0.01338543 -4.3666651e-21)
(10.043655 0.019250199 -6.2297279e-21)
(10.06894 0.025728668 -5.5825293e-18)
(10.10173 0.032623948 0)
(10.142068 0.039513728 2.7896214e-18)
(10.189523 0.046250697 -2.8166681e-18)
(10.243159 0.052238023 -4.4796613e-20)
(10.302019 0.057088461 -2.2495304e-20)
(10.364934 0.060608439 -2.2566351e-20)
(10.429505 0.062705881 2.2621862e-20)
(10.492376 0.063993749 0)
(10.553422 0.064838014 1.4313834e-18)
(10.610603 0.063365192 -1.4648541e-18)
(10.661434 0.062549534 -7.1760767e-19)
(10.708455 0.052928623 7.3186392e-19)
(10.736005 0.045889508 3.6942367e-19)
(10.763786 0.032547922 -3.6309206e-19)
(13.149028 0.18701021 -1.3859201e-19)
(13.136507 0.045622518 -5.5449202e-19)
(13.212987 -0.17986417 5.4013848e-19)
(13.148587 -0.30853538 0)
(13.193501 -0.52887933 -1.0136983e-18)
(13.125071 -0.63831139 -1.9621641e-18)
(13.130891 -0.84658314 0)
(13.082998 -0.94181698 -2.0977765e-20)
(13.050143 -1.1297796 3.3521136e-18)
(12.981089 -1.2453638 1.5953179e-18)
(12.944422 -1.4129143 -1.4988273e-18)
(12.88077 -1.5418109 2.8306643e-18)
(12.848405 -1.6868576 -2.645416e-18)
(12.80056 -1.8169061 0)
(12.747059 -1.9645952 1.1834928e-18)
(12.72628 -2.1093141 -1.0997018e-18)
(12.67003 -2.2554028 -2.0832555e-18)
(12.664718 -2.4380923 1.9551104e-18)
(12.656774 -2.6003313 -9.1673614e-19)
(13.027328 0.20431885 -1.1987082e-19)
(13.05174 -0.014019302 7.1749711e-19)
(13.064091 -0.18995632 -4.7017272e-19)
(13.033914 -0.39138764 0)
(13.059097 -0.56735921 -8.9349865e-19)
(12.9706 -0.73249864 2.5693934e-18)
(12.992009 -0.91146549 0)
(12.89985 -1.0534206 0)
(12.898968 -1.2181079 0)
(12.803162 -1.3461777 0)
(12.773628 -1.5135937 2.6656498e-18)
(12.680365 -1.6284892 -3.7909544e-18)
(12.664078 -1.7850279 -3.5971238e-18)
(12.583044 -1.880637 2.2435381e-18)
(12.54572 -2.0678752 -2.1222841e-18)
(12.487664 -2.1613477 2.0156381e-18)
(12.419212 -2.3601814 -1.1736019e-20)
(12.378087 -2.4898125 -1.7768333e-18)
(12.334874 -2.7103746 1.6889828e-18)
(12.939994 0.19878327 0)
(12.939135 0.01844805 -4.1837781e-19)
(12.946516 -0.19435961 -8.2042184e-19)
(12.935922 -0.37183788 -4.2979803e-21)
(12.902562 -0.56404027 -7.6228368e-21)
(12.861847 -0.73131174 1.5215643e-18)
(12.812778 -0.90766874 -2.8952823e-18)
(12.763865 -1.0614682 1.3772247e-18)
(12.7008 -1.2074889 1.5219405e-20)
(12.648033 -1.3737186 0)
(12.564322 -1.5094181 3.5896166e-18)
(12.497102 -1.6776123 7.9949037e-21)
(12.435973 -1.7906118 2.1465217e-18)
(12.362661 -1.952976 2.0453916e-18)
(12.301629 -2.1062516 2.8777137e-18)
(12.245813 -2.2259785 -3.6118557e-18)
(12.140909 -2.4363607 -4.0309468e-21)
(12.073884 -2.550372 3.2370874e-18)
(11.988207 -2.7975521 1.5423684e-18)
(12.825694 0.13213565 3.6314514e-19)
(12.813099 -0.030463372 -7.2484032e-19)
(12.839988 -0.26872424 1.0680488e-18)
(12.795702 -0.41930448 0)
(12.790609 -0.64846657 2.0390604e-18)
(12.721964 -0.77851703 -3.291494e-18)
(12.680077 -0.99161303 2.5457463e-18)
(12.609659 -1.1079198 -3.4602184e-21)
(12.544667 -1.3005265 1.6599438e-20)
(12.473512 -1.4168445 -1.1273735e-18)
(12.366798 -1.5930938 0)
(12.315479 -1.7027473 -1.0073431e-18)
(12.182795 -1.8664778 9.8318968e-19)
(12.138476 -1.9902228 -1.8152883e-18)
(12.001562 -2.1506402 0)
(11.963646 -2.2790384 0)
(11.797167 -2.4585007 -1.5443214e-18)
(11.741103 -2.6055441 0)
(11.558678 -2.7971064 1.3881906e-18)
(12.693016 0.17871692 3.1469654e-19)
(12.729039 -0.030377558 -3.127655e-19)
(12.723699 -0.24128549 3.9401089e-21)
(12.710054 -0.41123181 -6.0693354e-19)
(12.672211 -0.63049099 5.8538791e-19)
(12.605734 -0.76991367 -2.165775e-21)
(12.547373 -0.97770134 -1.112741e-18)
(12.459459 -1.0934483 0)
(12.377948 -1.2905023 -2.0725222e-18)
(12.292948 -1.4002181 9.8653775e-19)
(12.182272 -1.5721059 0)
(12.106671 -1.6928893 0)
(11.982736 -1.848325 -1.7141024e-18)
(11.896523 -1.9701273 -1.6525895e-18)
(11.742548 -2.1326301 1.5718161e-18)
(11.672445 -2.2401338 2.9719663e-18)
(11.479101 -2.4277427 1.4327532e-18)
(11.378498 -2.5320886 -1.3248868e-18)
(11.163949 -2.7413932 -2.3037292e-20)
(12.5637 0.10317509 0)
(12.596074 -0.080041976 2.72878e-19)
(12.583152 -0.29460186 -1.3416368e-18)
(12.564183 -0.48553953 5.2861382e-19)
(12.508801 -0.67087018 1.5519069e-18)
(12.4633 -0.83593473 -1.0176275e-18)
(12.370303 -1.0120226 -1.9694734e-18)
(12.308633 -1.1556371 1.8886193e-18)
(12.184428 -1.3278106 -9.2913941e-19)
(12.132569 -1.4417524 1.7511504e-18)
(11.963269 -1.6024251 0)
(11.903197 -1.7264914 0)
(11.721137 -1.8524263 -1.5522447e-18)
(11.637957 -1.9873702 4.41694e-18)
(11.441778 -2.0985255 -5.5988148e-18)
(11.331975 -2.2282028 2.6713084e-18)
(11.132168 -2.3476679 -5.1192649e-18)
(10.977423 -2.4598762 1.2238327e-18)
(10.738059 -2.6197051 2.3288687e-18)
(12.492593 0.12940648 5.9386372e-20)
(12.493275 -0.073407162 2.3732289e-19)
(12.495684 -0.2929049 -4.6481628e-19)
(12.464665 -0.46555726 0)
(12.421912 -0.66471512 -9.0601995e-19)
(12.351199 -0.83195536 2.6459668e-18)
(12.265097 -0.99826593 -1.709571e-18)
(12.171873 -1.1597747 8.3837309e-19)
(12.051649 -1.2984013 -1.6196066e-18)
(11.962364 -1.440221 4.6719225e-18)
(11.790354 -1.574972 -2.9795517e-18)
(11.7155 -1.6952865 0)
(11.509241 -1.8134348 1.3677057e-18)
(11.407089 -1.9290598 2.646244e-18)
(11.17558 -2.0260141 -3.7676828e-18)
(11.05059 -2.1372133 3.6394121e-18)
(10.778431 -2.2163786 -3.4769577e-18)
(10.633868 -2.3287109 -2.2351535e-18)
(10.317365 -2.3757318 -1.0760522e-18)
(12.357028 0.093063244 1.537774e-19)
(12.328081 -0.13452652 2.0430965e-19)
(12.368722 -0.3195933 -4.0320965e-19)
(12.289125 -0.52182922 0)
(12.270748 -0.69407188 1.5680487e-18)
(12.157434 -0.86840042 -7.7328796e-19)
(12.095038 -1.0243274 0)
(11.954577 -1.1832722 -1.4622108e-18)
(11.875138 -1.3103128 7.1328248e-19)
(11.712105 -1.4543009 0)
(11.590514 -1.5585251 -1.3318852e-18)
(11.426986 -1.6863205 1.2829938e-18)
(11.25701 -1.7641243 1.2339365e-18)
(11.110635 -1.8740526 -2.3663037e-18)
(10.875968 -1.9325289 2.2547461e-18)
(10.724821 -2.0165193 -1.0784955e-18)
(10.444742 -2.059524 -1.0501428e-18)
(10.291568 -2.1060487 -1.0079994e-18)
(9.9722746 -2.1068558 -9.6829031e-19)
(12.292694 0.081049852 3.5425892e-19)
(12.238387 -0.12851285 -1.7565198e-19)
(12.282087 -0.31861853 0)
(12.17774 -0.52152164 0)
(12.168849 -0.6858564 -1.3641031e-18)
(12.028335 -0.87309064 1.3405738e-18)
(11.986209 -1.0097084 0)
(11.815315 -1.1768679 6.3707379e-19)
(11.740645 -1.2835334 -6.1968872e-19)
(11.543273 -1.4258471 0)
(11.433275 -1.5062904 1.1637903e-18)
(11.208708 -1.6241387 1.3118901e-20)
(11.061834 -1.6742255 1.2896832e-20)
(10.821898 -1.774988 0)
(10.647526 -1.7737037 -4.0674299e-18)
(10.384614 -1.8585505 3.885088e-18)
(10.135018 -1.8125406 4.7016001e-18)
(9.9403612 -1.8454918 -6.3325086e-18)
(9.6193669 -1.7656681 4.3316598e-18)
(12.144497 0.048054351 0)
(12.109386 -0.14405608 1.607125e-21)
(12.154756 -0.34801759 0)
(12.046 -0.53713704 0)
(12.037065 -0.70314888 5.8975304e-19)
(11.875878 -0.88418345 6.1664816e-21)
(11.822734 -1.0166264 -5.7605908e-19)
(11.634408 -1.1732175 -1.690095e-18)
(11.545418 -1.2640697 2.1780081e-18)
(11.334454 -1.3975625 0)
(11.216218 -1.4453676 -1.038566e-18)
(10.987215 -1.5570954 -6.0239751e-18)
(10.839688 -1.561849 2.8956809e-18)
(10.586466 -1.6408581 0)
(10.415501 -1.5884809 -3.6315106e-18)
(10.142697 -1.6397252 4.3542934e-18)
(9.9561136 -1.5205801 -3.380402e-18)
(9.6655108 -1.5346143 4.0530683e-18)
(9.427074 -1.3560771 0)
(12.049177 0.019912921 -2.6525461e-19)
(12.019556 -0.14816023 1.3305443e-19)
(12.03715 -0.3722063 0)
(11.935009 -0.52482036 -1.0454032e-18)
(11.908499 -0.71909309 1.5445284e-18)
(11.738131 -0.86440649 -5.0554724e-19)
(11.681234 -1.0091847 -1.5114547e-18)
(11.470884 -1.1338117 3.4342462e-18)
(11.368656 -1.2251909 -1.9087659e-18)
(11.127397 -1.3239465 0)
(11.001976 -1.3713844 9.055297e-19)
(10.741846 -1.4430433 5.3223275e-18)
(10.597884 -1.4212039 -3.4173253e-18)
(10.31168 -1.4601786 0)
(10.148863 -1.3727381 0)
(9.8692599 -1.380791 -1.5561894e-18)
(9.720314 -1.2032467 7.5509661e-19)
(9.4685291 -1.173497 -2.1815519e-18)
(9.3084038 -0.90853945 0)
(11.903084 0.018534221 -2.2940662e-19)
(11.903559 -0.16278966 6.8719743e-19)
(11.892829 -0.37768155 -6.8288675e-19)
(11.815173 -0.52266283 0)
(11.75799 -0.72463921 1.3512551e-18)
(11.601777 -0.83802966 -1.7605174e-18)
(11.517229 -1.0017249 0)
(11.317598 -1.0758626 8.598493e-19)
(11.208477 -1.1773895 8.4305426e-19)
(10.960634 -1.2371838 0)
(10.830311 -1.2776464 0)
(10.56872 -1.2896284 -7.7621974e-19)
(10.434804 -1.2605811 -2.2842983e-18)
(10.157165 -1.2336996 -2.3252598e-20)
(10.014502 -1.1310773 2.130143e-18)
(9.7145004 -1.0617875 1.3835486e-18)
(9.6073147 -0.87701998 -6.6740266e-19)
(9.3578024 -0.77848628 1.2907191e-18)
(9.30798 -0.48379695 0)
(11.791627 -0.0036210004 0)
(11.807872 -0.18922005 -7.9252916e-19)
(11.758675 -0.37434712 1.5738358e-18)
(11.709044 -0.53483879 -1.172845e-18)
(11.611914 -0.71304681 0)
(11.47824 -0.82211353 0)
(11.342582 -0.97697011 0)
(11.154223 -1.0194625 -7.4307609e-19)
(11.015719 -1.1253891 -7.3018434e-19)
(10.765935 -1.1281585 0)
(10.62165 -1.1644298 -7.059073e-19)
(10.351564 -1.1307575 -6.8889359e-19)
(10.225325 -1.0807418 -6.6589728e-19)
(9.9632552 -0.9936487 2.6116515e-18)
(9.8718935 -0.87061131 -2.5236116e-18)
(9.6224775 -0.74651344 -6.1131087e-19)
(9.5656032 -0.55162458 3.5723935e-18)
(9.3647705 -0.4079437 -5.7375232e-18)
(9.3858387 -0.12529887 3.335808e-18)
(11.680718 -0.00079514173 -4.3017053e-20)
(11.696882 -0.19172095 8.5857359e-20)
(11.641545 -0.36611425 8.5191283e-19)
(11.597584 -0.53535248 -2.0368212e-18)
(11.470798 -0.676594 1.0025905e-18)
(11.360947 -0.79309374 0)
(11.185802 -0.9094436 0)
(11.028719 -0.94972557 6.528394e-19)
(10.858709 -1.0275565 -2.5725285e-18)
(10.65846 -0.99456671 -6.5281865e-19)
(10.488671 -1.0256387 5.9306592e-19)
(10.236388 -0.92290953 3.0012881e-18)
(10.102362 -0.87228187 5.8989468e-19)
(9.8555495 -0.73464742 0)
(9.7901992 -0.6115885 1.6731765e-18)
(9.5915256 -0.43710646 0)
(9.6012276 -0.24801926 -3.1589912e-18)
(9.4595546 -0.076847515 9.1472362e-18)
(9.5396602 0.20870694 -7.8720809e-18)
(11.568951 -0.021006699 7.3989662e-20)
(11.574273 -0.2083586 -7.355801e-20)
(11.520161 -0.36539879 0)
(11.458804 -0.53290716 -8.8360076e-19)
(11.329052 -0.6498876 2.8120527e-19)
(11.216121 -0.77189995 1.1511549e-18)
(11.016984 -0.85136542 0)
(10.872278 -0.89794036 -2.8372923e-18)
(10.667532 -0.92867584 1.6625114e-18)
(10.507454 -0.88336523 -3.7142756e-21)
(10.323381 -0.86145305 0)
(10.1446 -0.7256036 0)
(10.006175 -0.67467304 -5.1471049e-19)
(9.8275946 -0.48527009 0)
(9.7788557 -0.3664902 2.9603304e-21)
(9.6339769 -0.14362452 9.5412636e-19)
(9.687365 0.010762307 -2.7826593e-18)
(9.5995931 0.2383724 7.1808795e-18)
(9.7831922 0.46944393 -3.4777623e-18)
(11.493656 -0.025549694 2.2366602e-19)
(11.48388 -0.2019935 -1.9120527e-19)
(11.438038 -0.3522761 0)
(11.36212 -0.5070895 0)
(11.242068 -0.6046048 0)
(11.113976 -0.71866534 0)
(10.926651 -0.75959931 -1.9957026e-18)
(10.774185 -0.80655358 1.9583277e-18)
(10.550296 -0.78893672 2.4342894e-18)
(10.404036 -0.74172043 -9.4953903e-19)
(10.203418 -0.67149512 0)
(10.077402 -0.55104964 3.7032856e-18)
(9.9350854 -0.45763923 -6.7744837e-18)
(9.8527793 -0.24560717 3.5220995e-18)
(9.812079 -0.13101616 -4.306736e-18)
(9.7655415 0.11470079 2.5087511e-18)
(9.8577222 0.22952632 -8.1425604e-19)
(9.8583828 0.47205408 -7.8987125e-19)
(10.126856 0.62892469 7.675811e-19)
(11.370768 -0.042326062 2.2043279e-19)
(11.356898 -0.20167952 -7.1577591e-19)
(11.31574 -0.34985417 4.3836579e-19)
(11.211332 -0.48993273 -8.7775189e-19)
(11.097607 -0.58128142 8.6858054e-19)
(10.955473 -0.67364006 0)
(10.796772 -0.68763498 -4.3173551e-19)
(10.634569 -0.71400459 1.7140595e-18)
(10.44574 -0.65305532 -1.6813494e-18)
(10.318944 -0.60585295 -4.1523495e-19)
(10.144056 -0.49648088 -3.2895572e-18)
(10.055202 -0.38236421 3.2114218e-18)
(9.9298248 -0.23533378 -3.940102e-19)
(9.9187543 -0.052680594 2.3199913e-18)
(9.8854531 0.076183057 -2.2557796e-18)
(9.9558619 0.29218571 0)
(10.052528 0.3682726 -5.7188742e-18)
(10.184215 0.58085786 6.2497173e-18)
(10.469603 0.57780677 0)
(11.305323 -0.048101815 -3.8013769e-19)
(11.294313 -0.19499596 3.7984594e-19)
(11.247985 -0.32630232 -7.5908964e-19)
(11.131326 -0.44374328 7.5360424e-19)