/*--------------------------------*- C++ -*----------------------------------*\
  =========                 |
  \\      /  F ield         | OpenFOAM: The Open Source CFD Toolbox
   \\    /   O peration     | Website:  https://openfoam.org
    \\  /    A nd           | Version:  11
     \\/     M anipulation  |
\*---------------------------------------------------------------------------*/
FoamFile
{
    format      ascii;
    class       surfaceScalarField;
    location    "0.1635";
    object      phi;
}
// * * * * * * * * * * * * * * * * * * * * * * * * * * * * * * * * * * * * * //

dimensions      [0 3 -1 0 0 0 0];

internalField   nonuniform List<scalar> 
1652
(
2.843686947071611
0.8895636090847481
0
1.954123337988149
0.8895636090834618
-2.220446049250313e-16
1.064559728980579
0.889563608328134
-1.605826582817826e-12
0.8895475815707004
-2.305200474950198e-11
0.1749977654907129
2.843686947076741
1.779127218162428
1.954123337998014
1.779127218162188
1.064559729275965
1.779127213761118
1.779033203505304
0.175029103131904
2.843686947090741
2.668690827246526
1.954123338008367
2.66869082724457
1.06455973149423
2.668690794000392
2.668333216774441
0.1751751972972226
2.843686947092868
3.558254436328659
1.954123338013007
3.558254436333818
1.064559760511403
3.55825396338831
3.556181802997469
0.1755412088189754
4.418652025448558
2.872852967045247
5.279049614570344
2.872852967043178
6.139447203812685
2.872852967042365
2.872852966870687
6.999844793543184
4.418652022385595
2.012455377979844
5.279049680722491
2.012455376649401
6.139446112402982
2.012455401641967
2.012455024224072
6.999853244530747
4.418652570621489
1.152060511144574
5.279049739527788
1.152051043617155
6.139824642038429
1.151892550063059
1.152800236694608
6.999275117354642
4.43730825204
0.2492101125268681
5.431986620448639
0.1079238439008179
6.475198565500867
0.04221218202145927
7.527778882752775
0.03233112967197249
6.941512607624055
0.0583319548092337
6.883170695901379
0.05833060810341673
6.824845166804162
0.05831394861719108
0.0583143631222387
6.766513512188363
6.941522341702882
0.11663908353671
6.883239371868985
0.1165731014058172
6.825030470737502
0.1164286700240775
0.1163423654908184
6.766863744127831
6.946566228441419
0.1649451440412879
6.898133101753503
0.1590370131673582
6.853392865693911
0.1538113531690735
0.1474916601826239
6.810733944933786
7.615519129450739
0.0181142682920683
7.69649979943636
0.01179543670984584
7.75767698549505
0.01370858246654222
7.813962873053785
0.005442034665894102
7.872147043930651
0.06128508206957783
-0.1723827255167938
7.767904263191351
0.1185049684390856
-0.05489591102249491
7.652768745325366
0.1029228420934293
-0.01186353052205619
0.08632838074048099
7.580362939543484
-0.009302597235810173
6.847528084734588
0.001014673388789911
6.925441917885777
0.003822320783673616
6.974757602015756
0.007876001305650138
0.01014137026391659
6.990801950136944
6.767353249349063
5.384146615572405e-05
6.769177229753941
0.0001880060119408
6.772408208332244
0.0004985188931947437
0.0007917093203508863
6.77499880439567
6.766516788547508
6.766532312880632
6.76653683131749
6.766525990161778
6.76646892942393
-0.0008168256378808803
6.766426373566091
-0.0007555055527315169
6.766412303793332
-0.000600971577731868
-0.0003863340383933878
6.766437570041563
6.775411225131125
-0.009522946199626126
6.774862004442308
-0.008171258534196202
6.773237267750689
-0.006423756019426796
-0.00443675793237186
6.770728176416697
6.98171493123097
-0.06953041478950722
6.958575677338768
-0.05278094353489032
6.923991854039121
-0.03929971416916267
-0.02909134564331145
6.881875080211277
7.517503096046883
-0.00746594193793193
7.430433972834509
-0.004030438685726834
7.328055084280195
-0.0005035344962759369
7.217714691191959
0.0003414468056123776
0.0212012511751869
7.103589560670577
-0.0007999104876896812
0.002496048209194024
6.836662274257753
0.0001785682736368255
6.768217204445152
6.766480714765881
0.01502181650307433
6.988958104330182
-0.001103722575234833
0.0009888670277530265
6.79611615728077
5.003554609339655e-05
6.76683520828455
6.766509487225203
0.003401388346323364
6.903561943932134
-0.003340114187592891
0.0001414137206657839
6.772344926683682
4.746618976314565e-06
6.766545330998714
6.766519211904923
0.004095085467144377
6.962172417109824
-0.1775817467440591
3.602094731092187e-05
6.770048833267101
2.261789155855176e-06
6.766518389024368
6.766511140629381
0.1555521435433007
6.610959267961278
0.3110496205929963
6.611004389408261
0.4510518432432539
6.621579120932893
7.014202882028297
0.1255429910714444
0.1555408972310531
6.455407701315454
0.3107427399940322
6.455584103953377
0.4192415409149998
6.484290767446473
6.907326017843827
0.1463340895883836
0.1554896379375392
6.299877232592276
0.3098992673532055
6.300450986594201
0.3749432223005886
6.35368364625802
6.799916943987606
0.1033739668317759
0.155389170456765
6.144344560945439
0.3083252215415609
6.145496194857936
0.3212425716531624
6.229927702412769
6.637281620452015
0.07944664254744838
-0.2564929574538996
6.394360020271619
0.04440740000784071
-0.3051194901234563
6.10510181699247
-0.15513300871868
5.991057058565932
5.988873608805976
-0.1759016361819233
6.125097931116643
0.01998311078197645
-0.3000782907158008
5.993229853104498
-0.1546663371166024
5.837819225087535
5.83342265250357
-0.09029541193363311
5.828150294236617
0.0005333400470227678
-0.292346979295
5.871406608593872
-0.1541236865768439
5.683795183231393
5.677976246730479
0.01132277181239116
5.528847186311159
-0.005111564507300215
-0.2807450938126781
5.742597030075208
-0.1529241421676921
5.531650716831921
5.522731865366962
0.1957317530856488
5.323582287617327
0.3530908678437987
5.334206150430327
-0.01829834517573259
5.561744089121865
5.285591800916838
0.01875354741727309
0.1931196885543127
5.125026027149512
0.3294756759525798
5.137584447425594
-0.03870410125151369
5.316601653602723
5.027664167870099
0.05847809107504731
0.1915973559560382
4.919253466873028
0.3312957744351458
4.936551342275568
0.1227731732021253
5.078369187824794
4.901813722305794
0.174646636642616
0.1944171464949682
4.728415262735549
0.3533266671060095
4.736099297680157
0.3057971723453825
4.822030939265867
4.790352261253493
0.3527911146140822
-0.3478023714948389
5.065365188633877
-0.7682349674585436
5.08642909202296
-1.306886039385874
5.189831969675397
4.868428424249569
-1.419775739405532
-0.3514942756722615
5.400060546766296
-0.763802468292604
5.444195193543867
-1.076076283503301
5.479619750876197
4.281948518188463
-0.4410087259428203
-0.3450291699842433
5.733781655873062
-0.7026709719519425
5.768857357974694
-0.9532975865877574
5.765968861896341
3.56921827528847
-0.04951284567721109
-0.3374921367683626
6.067899250557139
-0.6693637119531811
6.083076997389986
-0.7995370220420608
5.970830358802001
3.140254599278371
-0.03670420537076144
0.3398963900528953
3.069882687082495
-0.01771256050831038
0.3371271894213293
6.049910306533861
0.1747186731817216
6.240864540372769
6.242005366959392
0.2973504926059162
3.0265762973505
-0.01243885877798611
0.3307037383206137
6.103273620941192
0.1745274843082619
6.404868773474361
6.416689538130515
0.279292096852123
2.945147441199918
-0.005289289848087943
0.3292683246055945
6.150856582437634
0.174569151412573
6.576650769731994
6.59148680228525
0.2543499450326728
2.870088540346833
0.007922109947087599
0.3259051790871239
6.206535984720235
0.1745681555847112
6.748381406171411
6.766403303553003
-0.2177581224894614
3.26157778725454
0.08481110875378443
-0.02563554117238764
6.316767679614189
-0.0004115666575519317
6.757200476773972
6.766477211864036
-0.1589928236763449
3.574132796865622
0.1213617173000984
-0.012351353822176
6.472371240667623
-0.0001335147051284569
6.763094388042846
6.766506295655705
-0.1143019639834127
3.99835565744158
0.1175841960305245
-0.005837133751328105
6.623428200627639
-4.797153526836517e-05
6.765991788131808
6.766514919484923
-0.08846408570929887
0.1218842690085578
4.504821188730686
-0.00255001609201666
6.675475399893913
-1.682275665793043e-05
6.764707297212661
6.76651543838959
0.9932355044960692
-0.8869225501599014
-0.005709263378249618
1.003401806087822e-10
1.9694332865744
-0.8689093991254762
9.420109137181498e-11
2.857871294161009
-0.8742250085517469
8.125500272626596e-11
-0.8749669374041074
-7.417444436441656e-11
0.9903532145471893
-1.702078821028005
-0.007547453154933517
1.970392199819015
-1.733986230812287
2.857888172016232
-1.748381365385773
-1.749933610601574
0.9796835979950629
-2.401792228528832
-0.01568608877803797
1.970497480951676
-2.599977038633464
2.857911182914527
-2.62324014385727
-2.62490743501059
0.9776299259606004
-0.03148910206018831
-2.969908828823501
1.972105446006137
-3.462965032145563
2.857974702024908
-3.498807147040518
-3.499903206713913
-0.08846408571003961
-3.99835565745613
0.1218842690069145
4.504821188751341
-0.002550016105658193
-6.623428200649979
6.675475399909521
-1.682282070070151e-05
-6.765991788141243
6.764707297257195
-6.766514919527827
6.766515438507775
-0.1143019639917007
-3.574132796890936
0.1175841960328101
-0.005837133765387303
-6.472371240681104
-4.797149897983743e-05
-6.763094388074279
-6.766506295589866
-0.1589928236954042
-3.261577787251467
0.1213617172978255
-0.01235135385495689
-6.316767679588903
-0.0001335147196170894
-6.757200476777397
-6.766477211895492
-0.2177581224895013
-2.870088540332896
0.08481110875192384
-0.02563554115202504
-6.206535984712883
-0.0004115666488986314
-6.748381406159646
-6.766403303534019
-0.1747186731860039
6.242005367005055
-6.067899250616325
-0.3371271894175475
6.240864540403622
-6.083076997434489
-0.3398963900458529
6.049910306486063
-5.970830358750584
3.069882687056142
-3.140254599232533
-0.01771256050856296
-0.1745274842767822
6.416689538170893
-0.3307037383030494
6.404868773497549
-0.297350492601071
6.10327362090663
3.026576297325946
-0.01243885877722775
-0.1745691514080726
6.591486802242207
-0.3292683245862141
6.576650769746406
-0.2792920968462183
6.150856582422215
2.945147441182854
-0.005289289847341672
-0.1745681555768515
-0.3259051790634747
-0.2543499450234996
0.007922109945614944
0.799537022042441
-3.569218275240168
-0.03670420537075827
0.6693637119801332
-5.765968861867576
0.337492136783856
-5.768857358062832
-5.73378165588704
0.9532975865932102
-4.281948518160277
-0.04951284567607531
0.7026709719739873
-5.479619750859829
0.3450291699940842
-5.44419519362271
-5.400060546754439
1.076076283516997
-4.868428424243047
-0.4410087259408255
0.7638024683194233
-5.189831969675241
0.3514942756811538
-5.086429092062791
-5.065365188629228
1.306886039401068
-4.790352261253147
-1.41977573941051
0.7682349674733027
-4.822030939237274
0.3478023714718823
-4.736099297642875
-4.728415262904933
0.1957317531010293
5.323582287632604
-5.522731865386769
0.3530908678850602
5.33420615045207
-5.531650716789994
-0.01829834517525342
5.561744089043227
-5.742597029982618
5.285591800872918
-5.528847186284124
0.0187535474173679
0.193119688546985
5.125026027182374
0.329475675949241
5.137584447397482
-0.0387041012294187
5.316601653542772
5.027664167854658
0.05847809107778534
0.1915973559551696
4.919253467504022
0.3312957744508755
4.93655134225796
0.1227731732129095
5.078369187789744
4.901813722302173
0.1746466366461966
0.1944171465102615
0.3533266671312016
0.3057971723457663
0.3527911146157122
0.01132277183699337
-5.828150294275218
-0.005111564500623778
-0.2807450937488489
-5.871406608709622
-0.1529241421264779
-5.683795183295612
-5.677976246738107
-0.09029541196122692
-6.125097931101228
0.0005333400460508786
-0.2923469793349568
-5.993229853168301
-0.1541236865967966
-5.837819225276044
-5.833422652538638
-0.1759016361658238
-6.394360020202022
0.01998311078444559
-0.3000782906424366
-6.105101816863931
-0.1546663370717432
-5.991057058489902
-5.988873608825829
-0.2564929573966022
-6.637281620444549
0.04440740000929477
-0.3051194901259556
-6.229927702383232
-0.155133008720485
-6.145496194870285
-6.144344560962733
0.1555521435466047
6.610959268059013
-6.766511140727986
0.3110496205934131
6.611004389389994
-6.766518388999007
0.4510518432502298
6.621579120934862
-6.770048833274584
7.014202882005033
-6.962172417099401
0.1255429910646625
0.1555408972351441
6.455407701337864
0.310742739997063
6.455584103965298
0.4192415409131623
6.484290767437901
6.907326017860432
0.1463340895898709
0.1554896379467406
6.299877232594675
0.309899267368123
6.30045098660481
0.3749432222990152
6.353683646298267
6.79991694403954
0.1033739668362084
0.1553891704463078
0.30832522151966
0.3212425716636557
0.07944664255231715
-6.766519211877076
-2.261792855340339e-06
-6.766509487229214
-4.746618665896207e-06
-6.766480714766671
-5.00355449700729e-05
-0.0001785682708221881
-6.766437570046215
-6.76654533097742
-3.602094961618896e-05
-6.766835208306955
-0.0001414137203594734
-6.768217204446283
-0.0009888670199932337
-0.002496048210808399
-6.770728176422482
-6.772344926693209
-0.004095085468078352
-6.796116157270846
-0.003401388344164036
-6.83666227423026
-0.01502181651786777
-0.02120125117504346
-6.881875080205544
-6.903561943927439
-0.1775817467316536
-6.988958104320853
-0.003340114188478183
-7.103589560660956
-0.001103722581693944
-7.217714691202352
-0.0007999104831475923
-0.0003863340459093756
-6.76641230378323
-0.004436757940874503
-6.773237267743803
-0.02909134563949278
-6.923991854067753
-7.328055084298282
0.000341446807184953
-0.0006009715795920467
-6.766426373562793
-0.006423756022913452
-6.774862004447186
-0.03929971415510231
-6.958575677345039
-7.430433972846238
-0.0005035344928216445
-0.0007555055532552091
-6.766468929432651
-0.008171258538063886
-6.775411225143132
-0.05278094354038504
-6.981714931236232
-7.517503096060413
-0.004030438686996263
-0.0008168256406584362
-6.766525990149912
-0.009522946208397887
-6.774998804410496
-0.06953041478249894
-6.990801950135116
-7.580362939559375
-0.007465941936419918
-5.384148188047888e-05
6.766516788540723
-6.766513512211788
-0.001014673410479117
6.767353249329982
-6.766863744105072
-0.06128508208344413
6.847528084766307
-6.810733945116807
7.872147043951928
-7.813962873093354
-0.1723827255164938
-0.0001880060190883048
6.766532312886519
-0.003822320789149458
6.769177229760187
-0.1185049684533805
6.92544191783929
7.7679042632047
-0.05489591102844049
-0.0004985188928968709
6.766536831323301
-0.007876001301179936
6.772408208345775
-0.1029228421053265
6.974757601973229
7.652768745342923
-0.0118635305243075
-0.0007917093253734242
-0.01014137027028583
-0.0863283807458215
-0.009302597237526689
-0.1474916601981648
-7.75767698551921
0.005442034673547869
-0.1163423655034285
-6.853392865957547
-0.05831436312714755
-6.825030470723768
-6.824845166820626
-0.153811353204421
-7.696499799423107
0.0137085824706919
-0.116428670037468
-6.898133101931249
-0.0583139486221933
-6.883239371849208
-6.883170695031978
-0.1590370131990352
-7.615519129388542
0.01179543672080663
-0.1165731014315768
-6.946566228443553
-0.05833060808915103
-6.941522341746285
-6.94151260761744
-0.1649451440227828
-7.527778882673587
0.01811426828239715
-0.1166390835593981
-6.999275117028645
-0.05833195481457065
-6.999853244592497
-6.999844793544541
-1.152800236642955
-6.475198565485565
0.03233112968507867
-2.012455024205065
-6.139824641891057
-2.872852966876026
-6.139446112419551
-6.139447203802784
-1.151892550092871
-5.431986620408718
0.04221218205517663
-2.012455401629679
-5.279049739515526
-2.872852967042373
-5.279049680739009
-5.279049614567247
-1.152051043617452
-4.437308251972986
0.1079238439175724
-2.012455376641693
-4.418652570613008
-2.872852967044603
-4.418652022391873
-4.418652025446894
-1.152060511141749
-3.55618180289958
0.2492101123998935
-2.012455377975165
-3.558253963394269
-2.87285296704692
-3.558254436333817
-3.55825443632866
2.843686947076677
0.8895636090796828
1.954123337995112
0.8895636090815646
1.064559728986791
0.8895636083309975
0.8895475815966338
0.1749977655042074
2.843686947077599
1.7791272181565
1.954123337999196
1.779127218159969
1.064559729276688
1.779127213766308
1.779033203562944
0.1750291031088233
2.843686947089469
2.668690827241873
1.95412333800662
2.668690827242828
1.064559731491836
2.66869079401343
2.668333216782709
0.1751751971884911
2.843686947088214
1.954123338006611
1.064559760503925
0.1755412089817758
0.1749964761154184
0.1749964760940424
0.1749876213401517
0.1750313585510972
0.1749868802671344
0.1751588468324218
0.1755464195586067
0.1748676676047418
0.1750313586407214
0.1749876212655204
0.1750252447963919
0.1750252446431682
0.1750289024507441
0.1751234963256003
0.1746555670390844
0.1757143641846337
0.1751588469544603
0.1749868801719648
0.1751234964572368
0.1750289022886156
0.1750709435438975
0.175070943596877
0.1718836039198727
0.1773017012612671
0.1755464192804998
0.1748676675259412
0.1746555666700631
0.1757143640099979
0.1718836035984089
0.1773017014583343
0.1715262918986056
0.1715262918446048
-0.0731635115328278
0.2434244536742854
-0.1350194105357593
0.2375365170355764
-0.2011196185893695
0.2401306930650881
0.2214737329597419
-0.01227231383350058
0.254144594210802
-0.03205670968893504
0.2557926337947547
-0.0606369515356
0.2666298973848737
0.2665533236599811
-0.003781648681620675
0.25643774927202
-0.01611006818480121
0.266516031736993
-0.02730916501551772
0.2761938186873049
0.279261347305151
-0.006900899083029044
0.2610529525780164
-0.0176551688420804
0.2747105708822195
-0.025219525841638
0.281274453346425
0.2834504935254202
0.2853760098672439
0.0147205445383623
0.2868348486476556
0.00958119289060172
0.2889983362494178
0.01131849037611338
0.004908999738131525
0.2897483414275139
0.284318060897502
0.01035439331423355
0.2866308046271691
0.006638064330627025
0.2902530430399878
0.007635609991808068
-0.001704229622718267
0.2976400179065112
0.2801043345447649
0.004220741162597019
0.2848040850290036
0.001392417473028207
0.2898604609109596
0.002409099481656518
-0.02775735085519665
0.3165550095935611
0.2650812544785643
0.26600647979835
0.2680986958562745
0.2422157807559229
0.2676211523622804
-0.1488048750810985
0.2414550117673893
-0.02718804238346628
0.2352324009828097
-0.003355372245673893
-0.007133483486034931
0.236390865850659
0.2617177586820496
-0.1114889097256749
0.2437437604910435
-0.008012072393550729
0.2410941459285102
0.001673784536573741
-0.005022165369279741
0.2424681051532796
0.2680859351224232
-0.06169221956184545
0.2530329849045974
0.008074795828239834
0.2480552914871972
0.008586808032228055
0.0002977292095663331
0.2462855105590918
0.1811657123291065
0.1899295303878315
0.2003646801878017
0.2041698006962844
0.2405775920460278
-0.007920312436309029
0.2431182682593553
-0.003801811227438556
0.2434003735884704
0.0005335845383157012
0.001696175158341473
0.24305136444545
0.2430862123005903
-0.004660859424397312
0.2440026539049786
-0.001562064993192946
0.2438842789707004
0.002193935526893065
0.003284602156731709
0.2432460782674662
0.2454410468486611
0.0002261134470311621
0.2447987461405007
0.002399083597548479
0.2444073393665796
0.004693993669388385
0.004807024762711054
0.2439574946581651
0.2083684461319425
0.2139750730270275
0.2208596672248774
0.2264228391575038
0.2418638778118115
0.0007826108682452149
0.240784428277412
-6.215770151646316e-05
0.2408827487465302
-0.005309478358693887
-0.191725770856715
0.2456348118283755
0.2422175444224624
0.002275513932529616
0.2415873448547053
0.0008422073733098112
0.2427902433864146
-0.008855274878650954
-0.1716615044410456
0.2131255225355837
0.2431252190641201
0.00385318956942643
0.2426172402026326
0.002000742836992475
0.2430613001950293
-0.01149585885628862
-0.106820778851538
0.1680420063695245
0.2303901895453139
0.2333833226719157
0.2189522458667071
0.1009279466817692
0.2644634960086268
0.09568877143767984
0.266615813826609
0.1348496692821937
0.2690615617198833
0.09463914922847783
0.06711285950677459
0.2767187485440079
0.2402276260589802
0.0605278507245538
0.2611195492537765
0.1063783442337043
0.2685451072120082
0.08174352372583316
0.0545044374234035
0.2780138842827082
0.197647560208863
0.02278711978618875
0.2355204624031479
0.05994850742573021
0.2590518698692196
0.05254065544692521
0.03663754613735815
0.2750534439249369
0.1174061798672156
0.1698215189218744
0.2171246733076811
0.2519271626530985
0.2772550308846969
0.03496940762005696
0.2767191653144456
0.01478736034921213
0.2765923297974303
-0.001134734244748858
-0.004160927855990537
0.2779882235581252
0.2794530485046958
0.02672805910333609
0.2786548992376084
0.01100995861242837
0.2781586232117684
-0.001498784982242873
-0.003142145150176745
0.2804385825727155
0.2788713570877607
0.01807182817848874
0.2791356179520578
0.006762330207782941
0.279379606243687
-0.001422349972757586
-0.001964293223298941
0.2822453105686621
0.2655519408523024
0.2676559086010608
0.2666312959189199
0.2688990368906847
0.2910785030891695
0.01371883759437575
0.3154678952833275
0.04339482891762647
0.3511556170175542
0.1480516499648588
0.2853939975838696
0.4229381467218624
0.295198596643214
0.008145158644689454
0.3174469543978141
0.03231303017032194
0.3551638518731122
0.1197243735576297
0.1893117909682529
0.4561507346441819
0.2963065006794282
0.003815257351805657
0.3181534385277377
0.02358889171669321
0.3628546321143749
0.08635160088003668
0.04138289084060764
0.5193520738665083
0.2826375192082971
0.3198924982164614
0.4209988314545473
0.474626901675707
0.2148334495204885
-1.2059258820932
0.02146732263920765
-0.2463783692198559
0.003307464498985416
-0.02738324228457184
-0.02649348212333243
-0.001744843233020968
0.1509727437656291
-0.8968792027364316
0.009812405530366407
-0.1043312650500879
0.0009103183816779525
-0.01402427553748127
-0.01549102955362947
-0.00502901136563488
0.07655537856377539
-0.4509956249078467
0.003164499416321936
-0.02978550549325773
-0.002967902750782301
-0.004243390404764642
-0.007195463587075998
-0.005796620922548414
0.02621008201375958
-0.002037378726409554
-0.003078073094861687
-0.005163780794270391
-0.0003108076544878144
-0.01555836165950279
0.0004636402473971596
-0.01044003997616251
-4.457415398914644e-05
-0.003258225761176056
0.004517325560724587
0.003827394194503668
-0.00449277586203684
-0.01249724334446366
-0.003860351651940309
-0.008656329925450353
-0.00304032265547962
-0.002995723441717467
0.002480102026557587
-0.001182913188216995
-0.006445097067910268
-0.007321737515351291
-0.005484690006536811
-0.006031993425261742
-0.004776343030111112
-0.002182995963901237
0.002277205219789462
-0.005551064760312995
-0.007152705803495621
-0.007222920082043649
-0.007470385430034535
-0.006629648722215564
0.04297679157205052
0.04754976851867225
0.07814305641763548
0.09095770326899694
0.109552013882192
0.09483014436726191
0.1064025487417983
0.1388178707655758
0.02305469772041619
0.02152648632441335
0.05877788162127288
0.05637315649208686
0.09094553779448906
0.0670690991267089
0.07945427568112516
0.1271809170373381
0.006642239924090017
0.005290149833818869
0.03679893670946865
0.02326936179858258
0.06848123322771094
0.03622160797319707
0.04775607867793789
0.1061068594424082
-0.006396747641129467
0.01040769473362808
0.04382611740489453
0.09470872425621886
0.1109025516454581
-0.1179917088303679
0.1542599489935983
0.0825890206617767
-0.08822164988580575
0.1128145176788301
0.06225243358729214
-0.07889425667326393
0.09746524505575298
-0.05689738356402126
0.03633000576081674
0.08407476017836112
0.09739080937476671
-0.08380969588749
0.06929499154726598
-0.0658935233472394
0.04289583012489481
-0.05070031965876972
-0.02790479487443019
0.01759608559427192
0.07589074059806768
-0.05237935006399976
0.04668736627000285
-0.0358145143316201
0.02021545887139384
-0.01904434333501378
-0.00920221177389904
0.00297873174775725
0.04431527068157252
0.01356310651818077
-0.00125656894523745
-0.007942929015974744
-0.0103772706859207
0.002398748027675868
-0.009906640913602931
-0.0008129917091081115
-0.006296414955632691
-0.002944645916576226
-0.004170815469897914
-7.630007736736388e-14
-0.004722257816406859
0.008478256077782622
-0.006433897618324119
-0.0001303299396924595
-0.003792071761191864
-0.004392106819093675
-0.005776623044600719
1.903685542536948e-14
0.008093502370418813
0.01725613678117893
0.003195018468698064
0.004368337027961369
0.001015661355460062
-0.001357004374608782
-0.002474590187595528
1.235921087694436e-13
0.02274859039313425
0.01225038728126981
0.005034799689875559
3.653327640407156e-13
-0.004170815469981094
0.006296414955516007
-0.005776623044640732
0.003792071761240773
-0.002474590187772439
-0.001015661355071154
-0.005034799688424574
0.005709263377344124
-0.002944645916568579
0.009906640913592453
-0.004392106819133658
0.006433897618367681
-0.001357004374654365
-0.003195018468274274
-0.01225038728048946
0.007547453155483549
-0.0008129917091431529
0.01037727068597752
-0.0001303299397641677
0.004722257816501017
0.004368337027954234
-0.008093502370140514
-0.02274859039270821
0.015686088778347
0.002398748027623878
0.007942929016056255
0.008478256077676641
-0.002978731747583237
0.01725613678110827
-0.0175960855940028
-0.03633000576033912
0.03148910206016947
-0.06225243358673727
-0.05689738356390615
0.08407476017819496
-0.08258902066109411
-0.07889425667307262
0.09746524505547716
-0.1109025516447396
-0.08822164988560671
0.1128145176785781
-0.1179917088298487
-0.1388178707648973
0.1542599489929625
-0.04289583012468441
-0.02790479487431407
-0.06929499154695212
-0.05070031965865021
-0.09739080937426761
-0.06589352334704654
-0.08380969588710159
-0.1271809170368087
-0.02021545887119408
-0.009202211773857358
-0.04668736626972695
-0.01904434333495997
-0.07589074059768296
-0.0358145143314981
-0.05237935006370324
-0.106106859441906
0.001256568945319891
-0.01356310651800219
-0.04431527068122389
-0.09470872425556021
-0.04382611740434193
-0.04775607867778392
-0.0104076947331866
-0.03622160797305045
0.00639674764075665
-0.02326936179769372
-0.005290149834098645
0.006629648722009215
-0.06848123322731606
-0.07945427568079273
-0.03679893670844779
-0.06706909912715589
-0.006642239923939423
-0.05637315649025013
-0.02152648632443528
0.005551064760172787
-0.09094553779435294
-0.1064025487409086
-0.05877788162023245
-0.09483014436884649
-0.02305469771971687
-0.09095770326664795
-0.04754976851776771
0.001182913188088868
-0.1095520138819433
-0.07814305641679518
-0.04297679157096881
-0.003827394194210239
4.457415360705624e-05
0.004517325559964668
-0.0004636402473764626
-0.003258225760849873
0.0003108076546700592
-0.01044003997546997
-0.0155583616594762
0.001744843233105121
0.003040322655179914
0.002480102026089233
0.003860351651859571
-0.00299572344157991
0.004492775862219758
-0.008656329924897579
-0.01249724334436912
0.005029011365855697
0.004776343029877842
0.002277205219640449
0.005484690006459706
-0.002182995963871052
0.006445097068007796
-0.006031993424891746
-0.007321737515339641
0.005796620922898691
0.007470385429728322
0.007222920081801077
0.007152705803625634
0.005163780794505638
-0.00330746449871956
-0.02649348212356269
-0.0214673226383229
-0.02738324228443609
-0.2148334495189874
-0.2463783692183096
-1.205925882096395
-0.4229381467222167
-0.0009103183816480676
-0.01549102955380425
-0.009812405530104594
-0.01402427553767013
-0.1509727437645937
-0.1043312650493882
-0.8968792027386231
-0.456150734644599
0.002967902750958571
-0.007195463587181046
-0.003164499416200151
-0.004243390404970737
-0.07655537856320187
-0.02978550549299046
-0.450995624909051
-0.5193520738675818
0.003078073095040748
0.002037378726452928
-0.02621008201353188
-0.4746269016771171
-0.3511556170187397
0.2853939975859721
-0.3154678952842227
0.1480516499678939
-0.2910785030917324
0.04339482892131075
0.0137188375957944
-0.2779882235614317
-0.3551638518741208
0.189311790969701
-0.3174469543991343
0.1197243735603098
-0.2951985966454512
0.03231303017383613
0.008145158647380413
-0.2804385825757406
-0.362854632115762
0.04138289084077185
-0.3181534385289814
0.08635160088059668
-0.2963065006817051
0.02358889171979428
0.003815257353826373
-0.2822453105712372
-0.4209988314575804
-0.3198924982218656
-0.2826375192129574
-0.2688990368943515
-0.2765923297984865
-0.004160927851463603
-0.2767191653140687
-0.001134734245410107
-0.2772550308830021
0.01478736035105099
0.03496940762446488
-0.2767187485434028
-0.2781586232125427
-0.003142145147668418
-0.278654899237597
-0.001498784982124746
-0.2794530485034967
0.0110099586147353
0.02672805910920639
-0.2780138842822557
-0.2793796062449601
-0.001964293222230795
-0.2791356179522299
-0.001422349972395542
-0.2788713570868349
0.006762330210402845
0.01807182818383235
-0.2750534439243164
-0.266631295921937
-0.2676559086028695
-0.2655519408500824
-0.2519271626472122
-0.2690615617213509
0.06711285950992585
-0.266615813826978
0.09463914923137617
-0.2644634960090181
0.1348496692839808
0.09568877142852095
-0.2456348118284515
-0.2685451072131838
0.0545044374247895
-0.2611195492541124
0.08174352372811655
-0.2402276260583541
0.1063783442340919
0.06052785071454447
-0.213125522536501
-0.2590518698696013
0.03663754613630454
-0.2355204624020768
0.05254065544788888
-0.197647560205475
0.05994850742511904
0.0227871197770867
-0.1680420063681073
-0.2171246733061156
-0.1698215189197476
-0.117406179865781
-0.1009279466884537
-0.2408827487444257
-0.1917257708470486
-0.2407844282765964
-0.005309478357947928
-0.2418638778132661
-6.215770535489273e-05
0.0007826108713625546
-0.2430513644457545
-0.2427902433849024
-0.1716615044365441
-0.2415873448551698
-0.008855274875175179
-0.2422175444241247
0.0008422073712235356
0.002275513934418605
-0.243246078267995
-0.2430613001941469
-0.1068207788488718
-0.2426172402041325
-0.01149585885086252
-0.2431252190656244
0.002000742835957026
0.003853189569995641
-0.2439574946587497
-0.2189522458731832
-0.2333833226742341
-0.2303901895475397
-0.2264228391589149
-0.2434003735900928
0.001696175160833868
-0.2431182682598092
0.0005335845409423778
-0.2405775920463739
-0.003801811228239083
-0.007920312435296395
-0.2363908658500167
-0.2438842789713863
0.003284602159037975
-0.2440026539053298
0.002193935528806645
-0.2430862123006502
-0.001562064993622658
-0.004660859423837704
-0.2424681051525364
-0.2444073393668947
0.004807024763875289
-0.2447987461408307
0.004693993671233632
-0.2454410468482834
0.002399083596908547
0.0002261134474963455
-0.246285510558061
-0.220859667226305