/*--------------------------------*- C++ -*----------------------------------*\
  =========                 |
  \\      /  F ield         | OpenFOAM: The Open Source CFD Toolbox
   \\    /   O peration     | Website:  https://openfoam.org
    \\  /    A nd           | Version:  11
     \\/     M anipulation  |
\*---------------------------------------------------------------------------*/
FoamFile
{
    format      ascii;
    class       surfaceScalarField;
    location    "0.07";
    object      phi;
}
// * * * * * * * * * * * * * * * * * * * * * * * * * * * * * * * * * * * * * //

dimensions      [0 3 -1 0 0 0 0];

internalField   nonuniform List<scalar> 
1652
(
2.843686947071611
0.8895636090847481
0
1.954123337988149
0.8895636090834618
0
1.064559728903287
0.8895636090848389
0
0.8895628260072814
-1.713402753011906e-10
0.1749961702591226
2.843686947076741
1.779127218162428
1.954123337998014
1.779127218162189
1.064559728910189
1.779127218172261
1.779112967234561
0.1749973226816589
2.843686947090741
2.668690827246526
1.954123338008367
2.668690827244562
1.064559728914447
2.668690827254355
2.668609319902448
0.1750041824824597
2.843686947092868
3.558254436328659
1.954123338013008
3.558254436324421
1.064559728951464
3.558254436128355
3.558124773989098
0.1750009087022942
4.418652025448567
2.872852967045247
5.279049614570543
2.872852967043177
6.139447203693478
2.872852967042502
2.872852967042467
6.9998447927684
4.41865202543751
2.012455377932159
5.279049614550977
2.012455377929712
6.139447203664236
2.012455377929244
2.012455377926211
6.999844792778055
4.418652022838423
1.152057792565294
5.279049757277958
1.152057753260253
6.13842950592404
1.15209446572541
1.151974481663142
7.001411341821624
4.43332448116346
0.2595966194749935
5.378607723171656
0.1384323709201049
6.360067772071786
0.06131049625180163
7.343419478347125
0.02885205322957085
6.941512733951283
0.05833189605813327
6.883180681133955
0.05833177462883676
6.824848643460165
0.05833169762120705
0.05833189910529912
6.766516626263118
6.941516071860665
0.1166568469259009
6.883185309713797
0.1166547292256572
6.824853229438482
0.1166524486906094
0.1166556472446205
6.766523858403033
6.943942216114286
0.1718952586019604
6.886112200915886
0.1710868686252784
6.827790912270318
0.1703744207676179
0.1701618324393918
6.770418303909223
7.364986019716278
0.007071343894280657
7.363899063423397
0.0004857493224393883
7.312687464715927
0.0008645966733262789
7.260719970744055
-0.01813588699579993
7.273799760188512
0.008889224989484024
-0.1867936961737712
7.181599997193919
0.01640985900744824
-0.04808228432567246
7.047999387356177
0.01841540693099553
-0.005408135425319371
0.009435493050481136
6.913251067799439
-0.002612634257098512
6.77297961381908
3.10092931393724e-05
6.774454061829227
5.506372478614185e-05
6.774323279313765
6.97051913002289e-05
3.929430832239067e-05
6.77015604303074
6.766531127521024
9.106209371001484e-07
6.766534241471214
1.337835536907583e-06
6.766533936926995
1.396899622529979e-06
8.33849148285104e-07
6.766524615391484
6.766516583281995
6.766516565464924
6.766516562644134
6.766516592223704
6.76651662464258
-2.175542629379024e-07
6.766516632700168
-2.007162602790658e-08
6.766516633046024
-4.532846320515205e-10
4.852285240275478e-11
6.766516633049297
6.766517843524484
-9.751682417014074e-06
6.766516676340366
-9.892867376404268e-07
6.766516632964881
-2.796583997710655e-08
-2.845013113983441e-11
6.766516632750124
6.767210436434203
-0.002239751240005861
6.766552848286445
-0.0002849867830809205
6.766516932697497
-1.120648165359173e-05
-8.929320155504072e-08
6.766516618074551
6.810981618266083
-0.002486245171587964
6.771401652470788
-0.001285626108483984
6.766629801429366
-0.0001809049531853457
6.766516718769203
-5.088195654201488e-06
-1.615064526561127e-08
6.766516423639874
1.078377170893319e-08
-2.145196242864245e-10
6.766516617930093
-5.240252676230739e-13
6.766516632942631
6.766516633049346
-2.514743635551042e-09
6.766516146419042
7.599008478020863e-09
-1.661132786878738e-09
6.766516619775467
-1.658716497487944e-10
6.766516632180239
6.76651663301747
-4.448446744076406e-06
6.766606515925799
7.447380858671693e-07
1.873674585484153e-07
6.766517009636773
4.801177833080317e-08
6.766516769344516
6.766516638553764
0.0002374672507166053
6.78859836108311
-0.06783686836993608
-4.231396928899844e-05
6.766372818082953
-5.510487993687363e-07
6.76649928918414
6.766516507823117
0.1555535710038567
6.610964448062963
0.3111143294957436
6.610958034602458
0.464306958264799
6.611559819507965
6.768478890335448
0.1885889033246008
0.1555520601387131
6.455412521580312
0.3110856139457479
6.455418779767675
0.458417172987501
6.458170449230399
6.674807602257244
0.1209175074173575
0.1555503880989609
6.299860549896223
0.3110549845775447
6.299874641593998
0.4513242385618996
6.305421456892756
6.632873717293327
0.07972890721205372
0.1555494514616655
6.144308523306115
0.3110277113806474
6.144324343676149
0.4451167026695364
6.150528607757727
6.535253534784925
0.03585970599344745
-0.4412500918173743
6.376462761223061
0.01153724357548136
-0.3110095308057737
5.996323103076808
-0.1555488864261331
5.988777934023258
5.988756413365371
-0.4368814387562975
6.154669532322084
0.01255360648335724
-0.3109793750565211
5.840030814464217
-0.1555477071210181
5.83322418894782
5.833204308699332
-0.4328381877354213
5.939638569559343
0.01044899979923264
-0.3109547330997524
5.685920016483213
-0.1555468474445573
5.677683213849136
5.677652289712355
-0.4265443471614277
5.704570361176011
0.01401547220151256
-0.3108909082375147
5.529826808218757
-0.1555437259469442
5.522128249295228
5.522100320307207
0.1992930955866675
5.322799263951328
0.3983890088740184
5.322826183825948
0.5493586847798755
5.330418067744209
5.442561238432012
0.03724235177129764
0.1992906680635632
5.123498444088443
0.3983219066369555
5.1235295649549
0.5405465130447871
5.130839319710404
5.155436286395497
0.06711702338230641
0.1992876231389635
4.924197712485507
0.3982624594293556
4.924222794750643
0.5394854545540116
4.929744097321053
4.905415035294382
0.1722098094764271
0.1993011052764808
4.724896646356364
0.3983933461631529
4.725042793765023
0.5619853429212267
4.736820555058878
4.686690368556511
0.3966826397157066
-0.3354349110471253
5.060305524209636
-0.6718573795814178
5.060349027589345
-1.057819914484227
5.079952642082969
4.932087657241775
-1.439103423650337
-0.3354044929503782
5.395715121059976
-0.6706967648543481
5.395509378462443
-0.9909717118547205
5.388890086861416
4.628016464454166
-0.5023196386443768
-0.3354045230647401
5.731122432164642
-0.6698193696970012
5.730772997476165
-0.9294961004462279
5.683750433037736
4.074001784890211
-0.05807364312115441
-0.3354027053204648
6.066531429734164
-0.6686345533483302
6.066037684696512
-0.8514145194632939
5.952951382278394
3.611824350493114
0.001944140851402612
0.4232495908335984
3.580836065911992
0.01027874271709631
0.348592978682836
6.126448722780034
0.1749916137635162
6.241034038075285
6.24152758141275
0.4289346143962457
3.692312112474321
0.007398400009375791
0.3488422752163496
6.325584515442875
0.1749926401915939
6.416271750982339
6.416524133582265
0.4483542016955699
3.947173286457172
0.00227591136381132
0.3493258623464393
6.515594926687487
0.1749943682478716
6.591303694217622
6.591520263689072
0.443663195155145
4.23622283979061
0.01297828196313067
0.3492620519541362
6.705982545236063
0.1749941916448089
6.766355076052358
6.766516433751298
-0.04354538343975667
5.306409247047546
0.2021766004887614
-0.0004137283009382209
6.752495670861505
-1.316368803738754e-06
6.766492595407303
6.766516605233342
-0.01515480860964924
6.137980661820757
0.1690052603293787
-8.657933997335832e-05
6.764391105462312
-2.117427002623629e-07
6.766514352805672
6.766516631340563
-0.005286930503785814
6.629708754802207
0.153174244917922
-2.212195368422876e-05
6.766813708732245
-4.698990974105755e-08
6.766518426786946
6.766516632970505
-0.00335168866593627
0.1243764804463949
6.741059907996388
-1.715470442076317e-05
6.766123475405651
-4.762017313808542e-08
6.766513130812948
6.766516632794217
1.084013610586446
-0.8210403413195024
-0.03804611452254329
-1.159472517997528e-11
1.98290471140066
-0.8735211260718736
-1.20854437568596e-11
2.858267680503481
-0.8749697329872452
1.178346309416156e-11
-0.8749805632723153
-5.728750807065808e-12
1.08469729939211
-1.64866618755029
-0.03391369052258875
1.982906754792699
-1.747055713863216
2.85826768129289
-1.749939315089378
-1.749961124300911
1.08515602633633
-2.48766331876835
-0.04020539082794301
1.982907339688702
-2.620671434378557
2.85826767442539
-2.624909119998255
-2.624941687507285
1.0862024067367
-0.05043755944426444
-3.356044529711142
1.982913668039105
-3.494750719421762
2.858267697325195
-3.499884586591359
-3.499922281801266
-0.003351688667041275
-6.629708754803852
0.1243764804456245
6.741059907993661
-1.715470614072068e-05
-6.766813708739107
6.766123475407923
-4.762740446473401e-08
-6.766518426794178
6.76651313081629
-6.766516632969704
6.766516632811313
-0.00528693050375173
-6.137980661833646
0.1531742449183095
-2.212195696205121e-05
-6.76439110546464
-4.699035338617819e-08
-6.766514352818412
-6.76651663134066
-0.01515480861635976
-5.306409247045583
0.1690052603304937
-8.657934613376383e-05
-6.752495670868539
-2.117423569814036e-07
-6.766492595411063
-6.766516605234289
-0.04354538343897973
-4.236222839785385
0.2021766004863295
-0.0004137282990048785
-6.705982545235982
-1.316367896242454e-06
-6.766355076048085
-6.766516433750503
-0.1749916137564302
6.241527581463822
-6.066531429763746
-0.3485929786568487
6.241034038123592
-6.06603768475154
-0.4232495908254905
6.126448722736777
-5.952951382208897
3.580836065873895
-3.611824350441753
0.01027874271695094
-0.1749926401747419
6.416524133606668
-0.3488422751955453
6.416271751004357
-0.4289346143870049
6.325584515421874
3.692312112445205
0.007398400009600396
-0.1749943682355917
6.591520263701263
-0.3493258623246901
6.591303694224391
-0.4483542016858489
6.515594926680323
3.947173286449075
0.002275911364677786
-0.1749941916338392
-0.3492620519279082
-0.4436631951440248
0.01297828196222113
0.8514145194720402
-4.074001784858166
0.001944140850501916
0.6686345533820782
-5.683750433005582
0.3354027053377481
-5.730772997510162
-5.731122432193569
0.9294961004533762
-4.628016464431449
-0.05807364312048295
0.6698193697183686
-5.3888900868443
0.3354045230760226
-5.395509378489075
-5.395715121078101
0.9909717118666587
-4.932087657233577
-0.5023196386425176
0.6706967648773535
-5.079952642075069
0.3354044929546578
-5.06034902760253
-5.060305524215718
1.057819914496996
-4.686690368555382
-1.439103423654523
0.6718573795993935
-4.736820555059545
0.3354349110561796
-4.725042793768707
-4.724896646357163
0.1992930955918811
5.322799263971266
-5.522100320333873
0.3983890088873343
5.32282618383727
-5.522128249324018
0.5493586847884798
5.330418067717778
-5.529826808199879
5.442561238408612
-5.704570361146614
0.03724235177267077
0.1992906680690703
5.123498444101498
0.3983219066500505
5.123529564970168
0.5405465130526537
5.130839319695951
5.155436286379551
0.06711702338132008
0.1992876231456371
4.924197712490608
0.3982624594434973
4.924222794759725
0.5394854545601475
4.92974409731451
4.905415035286451
0.1722098094759755
0.1993011052803579
0.398393346177265
0.5619853429266174
0.3966826397176445
-0.4265443471536857
-5.939638569546002
0.01401547220723731
-0.3108909082237931
-5.685920016449789
-0.1555437259400648
-5.67768321387316
-5.677652289731593
-0.4328381877238288
-6.154669532326185
0.01044899980181313
-0.3109547330870861
-5.840030814415124
-0.155546847438734
-5.833224188977739
-5.833204308712275
-0.4368814387540703
-6.376462761180577
0.01255360648130155
-0.3109793750405011
-5.996323103114238
-0.1555477071136576
-5.988777934012065
-5.988756413370269
-0.4412500918148671
-6.535253534743235
0.01153724356490682
-0.3110095307927612
-6.150528607783851
-0.1555488864197304
-6.144324343701498
-6.144308523305276
0.1555535710038718
6.610964448065578
-6.766516507825839
0.3111143294967376
6.610958034605248
-6.766499289176152
0.4643069582668894
6.611559819494873
-6.766372818083578
6.768478890342161
-6.788598361083315
0.1885889033207682
0.1555520601383273
6.455412521573936
0.3110856139459982
6.455418779769702
0.4584171729848753
6.45817044925192
6.674807602242927
0.1209175074217315
0.1555503880986187
6.299860549895683
0.3110549845768069
6.299874641584139
0.4513242385654715
6.30542145685033
6.632873717320035
0.07972890720270753
0.1555494514609359
0.3110277113796638
0.4451167026607848
0.03585970601298483
-6.766516638555118
5.510494961447066e-07
-6.766516633017965
-4.801041508795123e-08
-6.766516633049332
1.632273205487422e-10
5.719869022868806e-13
-6.766516633049187
-6.766516769341838
4.231396327725179e-05
-6.766516632186325
-1.873693186160708e-07
-6.766516632941002
1.665514726134631e-09
2.144915356439014e-10
-6.76651663274966
-6.76651700964196
-0.0002374672511311626
-6.766516619772593
4.448448027161156e-06
-6.766516617928279
2.514399577435711e-09
1.614965494667331e-08
-6.766516618073254
-6.766606515928641
-0.06783686837095892
-6.76651614641874
7.447321163644993e-07
-6.766516423637943
7.598925599872075e-09
-6.766516718767316
1.078515693420101e-08
4.821243404506959e-11
-6.766516633043994
-2.849365188239972e-11
-6.766516632964437
-8.929419342829092e-08
-6.766516932696703
-6.766629801427454
-5.08819524103199e-06
-4.531881536706805e-10
-6.766516632700645
-2.796599785082066e-08
-6.766516676339775
-1.120648171260008e-05
-6.766552848289678
-6.771401652472297
-0.000180904955162875
-2.007164834338937e-08
-6.766516624643213
-9.892865260319184e-07
-6.766517843521834
-0.0002849867811374196
-6.767210436430688
-6.810981618267683
-0.001285626108393723
-2.17554792847352e-07
-6.766516592222907
-9.751683915149023e-06
-6.766524615399044
-0.002239751240686261
-6.770156043026404
-6.91325106780258
-0.002486245171513579
-9.106270209002787e-07
6.766516583267753
-6.766516626246896
-3.100930389288159e-05
6.766531127501929
-6.766523858377823
-0.008889224998661571
6.772979613843079
-6.770418303938863
7.273799760194293
-7.260719970761684
-0.1867936961734314
-1.337839589665712e-06
6.766516565454196
-5.50637326461878e-05
6.766534241467292
-0.01640985900959568
6.774454061841805
7.181599997200037
-0.04808228432732775
-1.396903276384975e-06
6.766516562638699
-6.970519932303354e-05
6.766533936928925
-0.01841540693566546
6.774323279319682
7.047999387364763
-0.005408135425315652
-8.338557512255207e-07
-3.929432070115535e-05
-0.009435493052138144
-0.002612634258656432
-0.1701618324410381
-7.312687464734426
-0.01813588699722291
-0.1166556472627552
-6.827790912274306
-0.05833189910798442
-6.824853229431438
-6.824848664906838
-0.1703744207748872
-7.363899063441656
0.0008645966707349073
-0.1166524487104669
-6.886112200879612
-0.05833169762637402
-6.883185309726437
-6.883180681117397
-0.1710868686415442
-7.364986019724598
0.0004857493259271539
-0.116654729243666
-6.943942215996628
-0.05833177463140571
-6.94151607190052
-6.941512733942542
-0.1718952586293342
-7.343419478334985
0.007071343894962889
-0.1166568469491804
-7.001411341826693
-0.0583318960639313
-6.99984479282123
-6.999844792765525
-1.151974481655853
-6.360067772054818
0.02885205322955064
-2.012455377910964
-6.13842950601054
-2.872852967042413
-6.139447203692224
-6.139447203690618
-1.152094465716839
-5.37860772315442
0.06131049625159068
-2.01245537791648
-5.279049757271463
-2.872852967042259
-5.279049614566445
-5.27904961456744
-1.15205775326031
-4.433324481143814
0.1384323709178018
-2.012455377921992
-4.418652022837603
-2.872852967044603
-4.418652025443835
-4.418652025446893
-1.152057792562954
-3.558124774016279
0.2595966194741043
-2.012455377927508
-3.558254436126512
-2.872852967046921
-3.558254436324423
-3.558254436328661
2.843686947076677
0.8895636090796828
1.954123337995112
0.8895636090815642
1.064559728908975
0.8895636090861136
0.8895628258746799
0.1749961703421074
2.843686947077599
1.7791272181565
1.954123337999196
1.779127218159969
1.064559728911153
1.779127218173753
1.77911296726976
0.1749973226591743
2.843686947089469
2.668690827241873
1.95412333800662
2.668690827242819
1.06455972891303
2.668690827256457
2.668609319959225
0.1750041826577739
2.843686947088214
1.954123338006611
1.064559728945906
0.1750009087124308
0.1749961076746979
0.1749961077321124
0.1749957581047749
0.174996994273882
0.1749945682324609
0.1750024254809429
0.1748534759471807
0.1750500485391462
0.174996994340194
0.1749957581309196
0.1749965036726238
0.1749965036550603
0.1750057105822387
0.1749914640373111
0.1744322793313882
0.1751333756261125
0.17500242536478
0.1749945682755735
0.1749914639966291
0.1750057105619048
0.1749356243840946
0.1749356244284674
0.1722564949589157
0.1760162265072595
0.1748534759668042
0.1750500485473386
0.1744322793496899
0.1751333756017628
0.1722564949777224
0.1760162265229701
0.1714283695337399
0.1714283695488633
-0.07979832962583927
0.2476850420200645
-0.1481613609668568
0.2395547334072712
-0.2160162644996781
0.238088758127376
0.2146927275880664
-0.0171459082783646
0.264684264989843
-0.04336427841383317
0.263651609768932
-0.0810979496755283
0.2711661489670245
0.2645514294812065
-0.009111808164510626
0.2711922310991169
-0.02630661967243708
0.2797320255306525
-0.04008827959306671
0.2849504694277581
0.2854830104784907
-0.005339840458986833
0.2769209080102789
-0.01640236584241506
0.2924309522757878
-0.02386747326434668
0.2957459785437687
0.2957570863402361
0.3001458025034361
0.008737087633071183
0.3022843678690721
0.003189272882821614
0.3029979841506721
0.003583926159856587
-0.01450397563284239
0.3040483207808083
0.3022922254885601
0.007780265730485791
0.3061875128188461
0.003996389798201327
0.3076474268597508
0.005108696978070815
-0.01656872128228881
0.3128740094713236
0.3002302374324993
0.002287621052770861
0.3039232565884238
0.000978815965948121
0.3060439570157734
0.001731749884417988
-0.03814376156404437
0.3286481603292515
0.284058895279128
0.2883465926097281
0.2907203914544568
0.2521589957249225
0.2801317531230416
-0.1618603833025588
0.2568060536621536
-0.01632953470837056
0.2471343420618623
0.008746847918157497
0.003830003262015269
0.2418074186155735
0.2700103468530229
-0.1270395926625809
0.2521733674489235
-0.01070148339206423
0.248512603028063
0.01255502161457417
0.007534068078869194
0.2437984221947922
0.2734688555167587
-0.07519931320927026
0.2539218856948866
0.0004417690064284496
0.2505505744252138
0.01494084135573553
0.01070473000887201
0.2469972569805366
0.1867659843824053
0.1998508639683043
0.2178117580200502
0.2295328087422037
0.2369738930530621
-0.0003745394350287423
0.2340335389059143
-0.0008513402576307283
0.2333673920482857
-0.0001684089712671866
-6.993619475537116e-06
0.2333285416852497
0.2385196977503632
0.002343409068620239
0.2345949302736067
0.000649125305592968
0.233419449624072
0.0001216132864557684
8.282851279850512e-06
0.2333292673221167
0.2413308914158781
0.005684927068997869
0.2355809214816534
0.003455118287048586
0.233512259988804
0.0009142298846962493
6.728144110923484e-05
0.2333306894743482
0.2320583777513079
0.2327329712710934
0.2332184336484754
0.2333252464425426
0.2333281575304058
-2.684935695995705e-08
0.2333281571944421
6.172957700556481e-10
0.2333286512365662
5.706546338246632e-07
-0.09105937233748662
0.244791140084675
0.2333281568273748
9.596334887840285e-08
0.2333281554486585
-2.895862161178542e-09
0.2333284260003887
2.907265432838813e-07
-0.0930189882835829
0.2189788433127791
0.2333281571534605
7.932905682905833e-07
0.2333281535674052
6.424165477358912e-09
0.2333285099647583
9.142552337415566e-08
-0.06469694188470182
0.1895738779501482
0.2333281414689989
0.2333281414259641
0.2333285099675469
0.1568918734692099
0.2755671615407196
0.1458795739798983
0.2870646841085563
0.1016313205024734
0.296025451301297
0.06537720412221026
0.02722207008244248
0.304853751978039
0.2599121124073641
0.09724831049803662
0.283772938926531
0.06976429899650238
0.3012966328006815
0.04695791022587215
0.02163698276853654
0.3143046477265893
0.2229084594221876
0.0608156819238107
0.2654257359819427
0.02461103231635187
0.2974055503541936
0.01562199352047067
0.01442565821816133
0.3139207062914901
0.2172744881368513
0.2396651014384435
0.2549113393204782
0.2763015859379832
0.3087928671239059
0.002700609285433142
0.3094807769354123
0.001872001405051615
0.3087320956512386
0.001666341054829767
0.003960125674527859
0.3084331335132207
0.3202394487329233
0.006039699793222941
0.3215747757835237
0.003946030063230577
0.3216845382940807
0.004323852169879183
0.006249562509061835
0.3216485796802165
0.3203898265398243
0.008192397228379389
0.3216691799240869
0.004686255743716172
0.3217117364106171
0.004106388465189292
0.005774820977236139
0.3219235821690936
0.2894943668656051
0.2926910403244303
0.2927198555108991
0.2935928222271171
0.3140837141160269
0.02012729316645601
0.3258108613062122
0.04686544060880893
0.3538675338267405
0.1445594121351599
0.3256748622428731
0.4306856638857647
0.3270845893736555
0.01757867365987753
0.3414309563729322
0.0343217351423295
0.3685834185710749
0.1255070544554382
0.2281777100547787
0.4765057108814101
0.328191227409706
0.01024308037822064
0.3413220916690629
0.02090301299345143
0.3809760689892439
0.08867511530118211
0.0719935510605092
0.5402885383146355
0.3032246041265436
0.3293062003955438
0.4269272145324081
0.5000282685512524
0.2369899107774286
-1.240801831994501
0.03306002425555325
-0.2796773643048761
0.004297457223560036
-0.01915588797849878
0.009464931521787484
-0.0005114835672074443
0.1617750596778794
-0.9164619799815704
0.01687794758218196
-0.1202588167305796
0.002822255748130123
-0.004719852266453467
0.004364670039477776
0.0002847807449685227
0.08649734690181694
-0.4672124351325211
0.009670321360044781
-0.03375396254294759
0.003701973745959953
0.00532471941778976
0.0001475957335096006
0.0008600734849704677
0.02998943246253972
-0.004674241720991512
0.002980856555569849
0.001515065877294034
0.0006960749095032692
0.008413869651025509
0.00037196432726571
0.005202969867642467
0.002239109450994901
-0.001399505859636933
-0.001214194287495571
0.01663525800907829
-0.002406639334194053
0.003681385154183134
-0.004859888637399541
-0.0006813658311254911
-0.002557230473717023
-0.007152711255245137
-0.003890005264326507
0.0006391348965374688
-0.002339941761801953
-0.0008020747234598335
-0.005260563843193422
-0.004249563508938792
-0.003220655152242647
-0.008300740665838892
-0.002286364002716167
-0.002726628585529189
-0.003052860782144881
-0.006605875488070869
-0.006692885934677413
-0.007828471865401391
0.1277341264281608
0.1158390185875042
0.188285023360482
0.1397279777352249
0.2196844060622776
0.155415184683192
0.1209985935426947
0.2423775278313312
0.08056328448429287
0.0418240440321892
0.1557364115204378
0.08924699527984217
0.19840503592293
0.1383690828239455
0.1049545257509249
0.2351891385137971
0.02820211578885737
0.01002722082247633
0.1052072023381922
0.02694344308781468
0.1704808126787734
0.08733306898276499
0.06517030592757622
0.2302556191904501
-0.003767834343550561
0.0199679094605406
0.1119460763334082
0.1913273768937622
0.1978274339340325
-0.2592236238322613
0.3222232437605063
0.1560218027938909
-0.1769370600316769
0.2446612938743051
0.1269552752341543
-0.1170837532591295
0.196754181642326
-0.07008920461527821
0.1002610558826341
0.1413604038005142
0.1885002290111535
-0.2009465736470906
0.1233206232214782
-0.113289054228251
0.06811178654573791
-0.05792017925055071
-0.03157623706780665
0.06101629102358896
0.1528324052027659
-0.1171303966354854
0.08189498775673086
-0.04604308280339493
0.04255571217801903
-0.01128053284060981
-0.01033641336385045
0.02673007661594896
0.08102250887186764
0.02740724813115308
0.01869411184923462
0.02281036199389869
0.02859834136329666
0.005988631462598602
0.02742706471353433
0.0001515892328635329
0.01214041807290016
-0.008196143861036365
-0.01912641162300255
-1.033895191682177e-15
0.03287386057536068
0.008960944322137544
0.04196920950252569
-5.708061891096863e-05
0.02514282702827242
-0.002689911552658047
-0.00486023975959235
9.688083668635272e-14
0.07541046640915282
0.02494025233902916
0.08295330330249237
0.01775030013861598
0.06202977375288099
0.01752181735821016
0.02814017947345732
1.315891839936967e-13
0.09168290403723865
0.0795364864880435
0.05271434822712382
2.143701882673099e-13
-0.01912641162300365
-0.01214041807294984
-0.004860239759585182
-0.02514282702816188
0.02814017947349816
-0.06202977375267556
-0.05271434822667674
0.03804611452256094
-0.008196143860999868
-0.02742706471352315
-0.00268991155267875
-0.04196920950248751
0.01752181735830549
-0.08295330330238024
-0.07953648648764747
0.03391369052262891
0.0001515892328898174
-0.02859834136327498
-5.708061883703819e-05
-0.03287386057533857
0.01775030013864371
-0.07541046640910083
-0.0916829040369283
0.04020539082800972
0.005988631462572813
-0.02281036199387733
0.008960944322144372
-0.02673007661588708
0.02494025233912003
-0.06101629102362182
-0.1002610558823027
0.05043755944421419
-0.1269552752334986
-0.07008920461523267
0.1413604038001882
-0.1560218027933428
-0.1170837532589155
0.1967541816420978
-0.1978274339339263
-0.1769370600317616
0.2446612938745432
-0.2592236238323358
-0.2423775278314239
0.3222232437604746
-0.0681117865456816
-0.03157623706778925
-0.123320623221181
-0.0579201792505042
-0.188500229010865
-0.1132890542281874
-0.200946573647181
-0.2351891385137706
-0.04255571217793798
-0.01033641336385696
-0.08189498775660912
-0.01128053284061088
-0.1528324052026435
-0.04604308280337833
-0.1171303966355564
-0.2302556191904123
-0.01869411184924456
-0.02740724813116915
-0.08102250887189497
-0.1913273768938888
-0.111946076333891
-0.0651703059273476
-0.01996790946088762
-0.08733306898294085
0.003767834343843098
-0.02694344308812521
-0.01002722082181617
0.007828471865436053
-0.1704808126791332
-0.1049545257504908
-0.1052072023386273
-0.1383690828242621
-0.02820211578839162
-0.08924699528086494
-0.04182404403072891
0.002726628585604445
-0.1984050359231911
-0.1209985935420052
-0.155736411520861
-0.1554151846839069
-0.08056328448372739
-0.1397279777370517
-0.1158390185852957
-0.0006391348967500661
-0.2196844060623329
-0.1882850233607768
-0.1277341264278662
-0.0166352580090678
-0.002239109451382108
-0.001214194287923777
-0.0003719643272124783
-0.00139950585919766
-0.0006960749094215169
0.005202969867779735
0.008413869650856408
0.0005114835673645807
0.002557230473591618
-0.003890005264678306
0.004859888637376563
-0.00715271125498966
0.002406639334236167
-0.0006813658310541662
0.003681385154039936
-0.0002847807449114451
0.003220655152244364
-0.002286364002813006
0.005260563843150563
-0.008300740665678513
0.002339941761808618
-0.004249563508912459
-0.0008020747235453277
-0.0008600734849312196
0.006692885934661462
0.006605875488076512
0.003052860782150823
-0.001515065877224685
-0.004297457223400141
0.009464931520466076
-0.03306002425473136
-0.01915588797807625
-0.2369899107758043
-0.2796773643032741
-1.240801831996071
-0.4306856638861929
-0.002822255748260628
0.004364670039110896
-0.01687794758190596
-0.004719852266566418
-0.1617750596765645
-0.1202588167300467
-0.916461979982427
-0.4765057108814098
-0.003701973745836159
0.0001475957331362396
-0.009670321359916039
0.00532471941750929
-0.08649734690117085
-0.03375396254286389
-0.4672124351330648
-0.5402885383146669
-0.002980856555598684
0.004674241720915458
-0.02998943246243671
-0.5000282685517353
-0.3538675338266981
0.3256748622444749
-0.325810861305182
0.1445594121322995
-0.3140837141145594
0.04686544060707187
0.0201272931683365
-0.3084331335117935
-0.3685834185705051
0.228177710055055
-0.3414309563721226
0.1255070544510204
-0.3270845893738764
0.034321735141839
0.0175786736625565
-0.3216485796808833
-0.3809760689898755
0.0719935510608487
-0.3413220916689102
0.08867511529746619
-0.3281912274102161
0.02090301299398001
0.01024308037968313
-0.3219235821692534
-0.4269272145329892
-0.3293062003982174
-0.3032246041292189
-0.2935928222297219
-0.3087320956516613
0.003960125681490068
-0.3094807769370327
0.001666341057992682
-0.3087928671221103
0.001872001402213441
0.002700609279038924
-0.3048537519774061
-0.3216845382947557
0.006249562514282436
-0.3215747757838777
0.004323852171214781
-0.3202394487311697
0.003946030062871642
0.006039699794987086
-0.3143046477272605
-0.3217117364108643
0.005774820980469664
-0.3216691799243063
0.004106388466190047
-0.3203898265390806
0.004686255743833412
0.008192397228670822
-0.3139207062927521
-0.2927198555122974
-0.2926910403253352
-0.2894943668658909
-0.2763015859398508
-0.2960254513012042
0.02722207009771405
-0.2870646841081301
0.06537720411486392
-0.2755671615416406
0.1016313205074616
0.1458795739765085
-0.2447911400852031
-0.3012966328005549
0.02163698277850101
-0.2837729389262397
0.04695791022087159
-0.2599121124075161
0.06976429899994208
0.09724831049613025
-0.2189788433134317
-0.2974055503541816
0.01442565822281239
-0.2654257359817153
0.01562199351768578
-0.2229084594217917
0.02461103231886153
0.06081568192264997
-0.1895738779497954
-0.2549113393199584
-0.2396651014384948
-0.2172744881361069
-0.156891873468429
-0.2333286512365854
-0.09105937233888667
-0.2333281571943756
5.706510488590055e-07
-0.2333281575303388
6.166785970762589e-10
-2.6848295031634e-08
-0.2333285416850875
-0.2333284260008598
-0.09301898828410532
-0.2333281554485102
2.90725577833939e-07
-0.2333281568272316
-2.896738793278786e-09
9.596428507396837e-08
-0.2333292673222139
-0.2333285099635893
-0.06469694188367142
-0.2333281535672862
9.143047402515592e-08
-0.2333281571533507
6.423245380027254e-09
7.932911109120866e-07
-0.2333306894745582
-0.233328509966384
-0.2333281414261254
-0.2333281414691712
-0.2333252464433885
-0.2333673920480567
-6.993619178163879e-06
-0.2340335389063073
-0.0001684089726074478
-0.2369738930533171
-0.0008513402574319984
-0.0003745394346451048
-0.2418074186159332
-0.2334194496233515
8.282851209184816e-06
-0.2345949302743385
0.0001216132861855956
-0.2385196977492706
0.0006491253049616397
0.002343409069926805
-0.2437984221947881
-0.2335122599878663
6.728144080692111e-05
-0.2355809214824604
0.0009142298850541852
-0.241330891414543
0.003455118285853487
0.005684927071412327
-0.246997256980482
-0.2332184336482267
-0.2327329712719159