/*--------------------------------*- C++ -*----------------------------------*\
  =========                 |
  \\      /  F ield         | OpenFOAM: The Open Source CFD Toolbox
   \\    /   O peration     | Website:  https://openfoam.org
    \\  /    A nd           | Version:  11
     \\/     M anipulation  |
\*---------------------------------------------------------------------------*/
FoamFile
{
    format      ascii;
    class       volScalarField;
    location    "0.2875";
    object      rho;
}
// * * * * * * * * * * * * * * * * * * * * * * * * * * * * * * * * * * * * * //

dimensions      [0 0 0 0 0 0 0];

internalField   nonuniform List<scalar> 
880
(
0.2239950333699092
0.22399503348785
0.2240031463849821
0.2262220849404887
0.2239950333699093
0.2239950334771036
0.2240081836405502
0.2275339823081035
0.2239950333699114
0.2239950337850622
0.2240231935295256
0.2292484810001503
0.2239950333729771
0.2239950356090555
0.2240612091475061
0.2319076409106569
0.2239950333064374
0.2239950333003554
0.2239950351753234
0.2239951945845433
0.2239950565555158
0.2239950756731572
0.2239962178088993
0.2239962793398371
0.2241561070561554
0.2242716578430387
0.2244738415036601
0.2245602316760528
0.2370215051409312
0.2420840355356004
0.2461724321420722
0.2478580714605615
0.2239952995739602
0.2239970766967289
0.2239991791568546
0.2240154699208634
0.2240117159057218
0.2240456658980588
0.2241007578502788
0.2242020295481903
0.225668108971529
0.2266079219922553
0.2276713207142199
0.2291556160346291
0.2498915788106258
0.2532160218144974
0.254154485765703
0.2539316689754711
0.2425452306516761
0.2366147073342821
0.2342240240526406
0.2320354653343934
0.2323296372202103
0.2333426020941361
0.2340828949217278
0.2342437241268466
0.2246853590602345
0.2252051873621687
0.2258143114354899
0.2263823415335317
0.224068359474293
0.2241893687843496
0.2243830228185998
0.224635830596616
0.2249027966224175
0.225153382269738
0.2252972422018198
0.2253191174568573
0.2267810641898465
0.2270630362367983
0.2272511650627946
0.2273471152912111
0.2340538919853616
0.2335491597872272
0.2328852528566635
0.2323573168383591
0.2305302548493751
0.229310081342663
0.2283290488139455
0.228710210112105
0.228283966385663
0.2317169767908874
0.2274902635321885
0.2252538571857271
0.2314327281474964
0.2311496337891438
0.2273703348437694
0.2250877643376821
0.2550352242792552
0.2320732546963236
0.2267427375934563
0.2247938987836104
0.3229264072104987
0.2387332552641458
0.2267597470577566
0.2245804862862694
0.2242375240090088
0.2268599219692482
0.2503314083903452
0.3706184034996247
0.2241921174111048
0.2272340856970734
0.2617941432502918
0.374199941348017
0.2243405995780649
0.2287561414166356
0.2786213880311642
0.3825152433104803
0.2247967199975658
0.2321026837916219
0.2959395786183913
0.3829872312261705
0.3794098697248637
0.315265126702551
0.2385470013147378
0.2257783781296627
0.3709481896032407
0.3300653200931497
0.2488047899758526
0.2277244063064485
0.3581146486236656
0.3339009703897283
0.2611376232351503
0.2308872546935053
0.3422144496546025
0.3318723333269008
0.2724109597232713
0.2357548570497017
0.242081102496854
0.2765778588114656
0.3137634442227522
0.3231826193569985
0.2434455074030863
0.2660067913417437
0.2901530280962394
0.2994003139899089
0.2423681364123919
0.2557867291216351
0.2671491463965323
0.2707581777218379
0.2400048159777884
0.2460411220421979
0.2448902648014737
0.2383681351685925
0.2385769580827523
0.2381331447696595
0.2271409968989876
0.193493386900889
0.2346067191520694
0.2306226555012669
0.2141144699155552
0.1354074326981602
0.2312060521792952
0.2268499150356648
0.2046052531956529
0.08932850871619898
0.2285365761528192
0.2252759057747404
0.1961915689065874
0.07437391209632449
0.08724415781473724
0.1934290293205133
0.2234139557092794
0.226309938650173
0.08638350234083715
0.1905553126591995
0.2221370109129772
0.224927301384736
0.08428992219766338
0.1870644415939042
0.2212500045793388
0.2241998353584018
0.07934685882973165
0.1833393530831906
0.22022572449456
0.2239384088432288
0.09381103573779317
0.1877650611744646
0.2194833584638625
0.2237374079378123
0.1133622724083715
0.1948215084487601
0.2197225650409042
0.2237634860014238
0.13176517270152
0.2017343282171221
0.2206934189080234
0.2238426604355846
0.1504589806413421
0.2065976298985551
0.2218517731045822
0.2239063023496747
0.1325097133352934
0.1924289892869851
0.2194761115928092
0.2237599105202437
0.1359822714212556
0.1934089789434601
0.2192628925670339
0.2237434503191414
0.1419038140880307
0.1946473287785654
0.21908228699209
0.2237235904536655
0.1502777363606625
0.1973544034721406
0.2190281438559611
0.2237130558731991
0.1504589806411374
0.206597629898295
0.2218517731045644
0.2239063023488114
0.1317651727014098
0.2017343282167046
0.2206934189077622
0.223842660434793
0.1133622724083211
0.1948215084484096
0.2197225650404493
0.2237634860007455
0.09381103573787873
0.1877650611740042
0.2194833584637104
0.2237374079377061
0.2263099386501152
0.2234139557093555
0.193429029320513
0.08724415781422443
0.2249273013846711
0.222137010912927
0.1905553126590042
0.0863835023404059
0.2241998353587041
0.2212500045793056
0.187064441593107
0.08428992219739911
0.2239384088433946
0.2202257244948539
0.183339353082727
0.07934685882978132
0.07437391209601006
0.1961915689064803
0.2252759057745481
0.2285365761525279
0.08932850871589053
0.2046052531956187
0.2268499150357694
0.231206052178821
0.1354074326979363
0.2141144699156878
0.2306226555015037
0.2346067191520567
0.1934933869010694
0.2271409968990444
0.238133144769209
0.2385769580830481
0.2420811024972325
0.2765778588128888
0.3137634442236494
0.3231826193567749
0.2434455074029223
0.2660067913422916
0.2901530280967394
0.2994003139900941
0.2423681364116765
0.2557867291224679
0.267149146396908
0.2707581777220396
0.2400048159778196
0.2460411220419976
0.2448902648017862
0.2383681351689682
0.3422144496543601
0.3318723333268598
0.2724109597234289
0.2357548570513023
0.3581146486234761
0.3339009703898422
0.2611376232353654
0.2308872546936797
0.3709481896027708
0.3300653200933145
0.2488047899756984
0.2277244063069383
0.3794098697242672
0.31526512670287
0.2385470013157968
0.2257783781299276
0.2242375240091457
0.2268599219692775
0.2503314083900367
0.370618403498982
0.2241921174120486
0.2272340856976755
0.2617941432504227
0.3741999413473144
0.2243405995793893
0.2287561414178517
0.2786213880315039
0.3825152433104053
0.2247967199981318
0.2321026837904926
0.2959395786178279
0.3829872312257892
0.2245804862861962
0.2247938987835758
0.2250877643381633
0.2252538571857862
0.2267597470567581
0.2267427375931433
0.2273703348436069
0.2274902635320522
0.2387332552636036
0.2320732546962946
0.2311496337886122
0.2317169767906391
0.3229264072098141
0.2550352242790799
0.2314327281475548
0.2282839663857003
0.2253191174571469
0.2273471152916129
0.2323573168389027
0.2287102101124464
0.2252972422015785
0.2272511650631124
0.2328852528570236
0.228329048813966
0.2251533822697005
0.2270630362368018
0.2335491597870418
0.2293100813417354
0.2249027966219451
0.2267810641893411
0.2340538919856054
0.2305302548492928
0.2240683594741283
0.2246853590596472
0.2323296372206261
0.2425452306519184
0.2241893687836913
0.2252051873617537
0.2333426020948503
0.2366147073343743
0.2243830228188815
0.2258143114349535
0.2340828949216339
0.2342240240516541
0.2246358305962502
0.226382341533066
0.234243724127345
0.2320354653336698
0.253931668975269
0.2291556160347886
0.2242020295477948
0.2240154699214032
0.2541544857655609
0.2276713207144201
0.2241007578495754
0.2239991791568304
0.2532160218148345
0.2266079219922607
0.224045665896875
0.2239970766962545
0.249891578810632
0.2256681089712572
0.2240117159053774
0.2239952995747617
0.2478580714603991
0.2245602316762251
0.2239962793399843
0.2239951945853853
0.2461724321418906
0.2244738415034431
0.2239962178081598
0.2239950351755261
0.2420840355354595
0.2242716578427904
0.2239950756726928
0.2239950333001563
0.2370215051409499
0.2241561070560012
0.2239950565555535
0.2239950333075253
0.2239950333699092
0.2239950334887304
0.2240031463850679
0.2262220849270296
0.2239950333699093
0.2239950334761869
0.2240081836404963
0.2275339823056281
0.223995033370267
0.2239950337846669
0.2240231935294267
0.229248480999984
0.223995033373459
0.2239950356086323
0.2240612091473286
0.2319076409109159
0.2283202666974249
0.2306708107484637
0.2346228528882118
0.243427010596549
0.2306708107480476
0.2336804946554359
0.2405132810048654
0.2538534934687023
0.2346228528894213
0.240513281002527
0.2518665593573036
0.2686249043118965
0.2434270105960283
0.2538534934682907
0.2686249043136261
0.2870478468840653
0.3054573517828272
0.2897364466521308
0.283117571603875
0.2683492273513464
0.3016882324348124
0.2972641930930565
0.2979116177240388
0.290531692945718
0.3023787212864751
0.30090214744792
0.3002528658133484
0.2974619487137088
0.2985496484780899
0.2978643059197215
0.2976530617187956
0.2957880368963972
0.2913406213801932
0.2897061899523456
0.2842468694558474
0.2773005801259723
0.2924035782992612
0.2899319797909278
0.2846781678701535
0.2779649650741692
0.292848294962638
0.2904366793086587
0.2850301071014477
0.2786764831294572
0.2933077493983399
0.2903148210595883
0.2851019857791711
0.2755297009213957
0.227632207008679
0.2065709953333905
0.2051916479961743
0.2067365977340024
0.2125749794298543
0.2001979564560986
0.2027678007343663
0.2049149306333364
0.2001843994033533
0.1998890108990655
0.2037218500498953
0.2057682961509233
0.1817233013241371
0.1951715063440749
0.2017543502600358
0.2041541322590346
0.2081989502790404
0.2098611082305873
0.2113732795988402
0.2138942871412292
0.2066624673170141
0.2087155842814326
0.2105599565118486
0.2133733726178682
0.2071655420669337
0.2089645337439597
0.2108998239398794
0.2131857772875464
0.205837692973457
0.2079272283004825
0.210436941014722
0.2132660021511432
0.2166703829666612
0.2476750131105596
0.3187250649424621
0.3754729475988878
0.2167980180819734
0.2581274971498531
0.3260667418755718
0.3572472774902989
0.2168537082520887
0.2611115757378525
0.3275551731089193
0.3510879901598707
0.2172165343826701
0.2668415369970113
0.3328247741289617
0.3473735650628226
0.4400785464359793
0.4240281209783909
0.4175315889781026
0.4184055036319274
0.4359614568853777
0.4246166014827504
0.4153394154811286
0.4182030216817342
0.4302748107654157
0.4236772911134065
0.4143994011506839
0.417002162207835
0.4223147042326844
0.4253957452428619
0.4141134102237392
0.4167989711244581
0.4078460188135573
0.3894513478571732
0.3709913756271231
0.3490840317675032
0.4084428176108807
0.3906069375593633
0.3731594784100662
0.3506626017049586
0.4086865923662519
0.3923974280376217
0.3743660979377952
0.3514529550447579
0.409825572377738
0.394417782758509
0.3783535258272565
0.3543187960585467
0.33051837122278
0.3121541757954402
0.2917245086912289
0.261841387779233
0.3311623795264101
0.3140631369444092
0.2931961226979352
0.2686738464051593
0.3325927021858958
0.3154994725748692
0.2921602375553384
0.2669751675961939
0.3353732412058135
0.3198607078257293
0.2925075657214553
0.3051987821512995
0.1729748781063798
0.0488141637666217
0.01326677120796394
0.00962842488594942
0.1351444605667211
0.03439466062343288
0.01567758594282636
0.01432044415445133
0.1017316778458833
0.02600222958102849
0.0178305376181572
0.01712582439171693
0.07250248235273471
0.01791775690446345
0.01834323527341708
0.01851978372432084
0.01629765750911387
0.02291308227080718
0.02848040145652676
0.03789153549474213
0.02091858887219235
0.02797034622738313
0.03435378150226678
0.04373634571932412
0.02433839650585002
0.03166789062936446
0.03938462352136354
0.04971500317705924
0.02633909075204518
0.03451159225985329
0.0442986648774242
0.05387189208291792
0.0489263179829207
0.06740669624535163
0.08545771526796503
0.105869990641226
0.05156472570971156
0.06711016588585911
0.08512850519375485
0.1039085767163821
0.05423375875558321
0.06832148494855911
0.0826145239073495
0.10215383332646
0.05252060877717168
0.06438199555413668
0.07511668419080007
0.1026677016464376
0.1117597646699943
0.1116682933525901
0.109185071984722
0.1042416045203833
0.09618629502587393
0.09939744928902235
0.09921541391874254
0.09726757507158403
0.08195485205606992
0.08917423585662752
0.0905707268232117
0.0905350118771923
0.06799764407492173
0.07615666972767453
0.08183004133609205
0.08800445998001968
0.09561198914859305
0.1015535406957955
0.1051680442161955
0.1064144290998599
0.09433888213268093
0.09927548646315626
0.1035978784083764
0.105926827196195
0.0977424010210538
0.1005272149994831
0.1046508516164997
0.1070711752937191
0.1020588031117974
0.1032828019674771
0.1063193586074999
0.1082868569586659
0.1064144290998624
0.1059268271962066
0.1070711752937153
0.1082868569586667
0.1051680442162188
0.1035978784084205
0.1046508516165008
0.1063193586074903
0.1015535406958619
0.09927548646322605
0.1005272149994865
0.1032828019674609
0.09561198914868478
0.09433888213274166
0.09774240102104284
0.1020588031117744
0.1042416045203599
0.1091850719847507
0.1116682933525764
0.1117597646698712
0.09726757507157885
0.09921541391872289
0.09939744928898471
0.09618629502578643
0.09053501187725069
0.09057072682320502
0.08917423585659379
0.08195485205602458
0.08800445998010138
0.08183004133613901
0.07615666972770931
0.0679976440749237
0.1026677016464256
0.0751166841909396
0.06438199555433412
0.05252060877742401
0.1021538333264143
0.0826145239074469
0.06832148494872724
0.05423375875580429
0.1039085767163012
0.08512850519381905
0.06711016588601798
0.05156472570994249
0.1058699906411051
0.08545771526796232
0.06740669624548876
0.04892631798315669
0.03789153549494271
0.02848040145664503
0.02291308227079376
0.01629765750906367
0.0437363457195447
0.03435378150240805
0.02797034622745228
0.02091858887220078
0.04971500317728135
0.03938462352152655
0.03166789062946312
0.02433839650586404
0.05387189208314967
0.04429866487762941
0.0345115922599934
0.02633909075207981
0.009628424885946322
0.01326677120785807
0.04881416376634514
0.1729748781063739
0.01432044415445731
0.01567758594281712
0.03439466062338022
0.1351444605666296
0.01712582439170607
0.01783053761812113
0.02600222958104313
0.10173167784585
0.01851978372431272
0.01834323527339291
0.01791775690448795
0.07250248235269485
0.2618413877794195
0.2917245086910834
0.3121541757953084
0.3305183712225441
0.2686738464053229
0.293196122697797
0.3140631369443638
0.3311623795264598
0.2669751675962732
0.2921602375552338
0.3154994725748739
0.3325927021860943
0.3051987821512115
0.2925075657213466
0.3198607078258042
0.3353732412062577
0.3490840317671609
0.3709913756265109
0.3894513478567776
0.4078460188134362
0.3506626017050105
0.373159478409796
0.3906069375590206
0.4084428176108441
0.3514529550451292
0.3743660979377134
0.3923974280374211
0.4086865923662172
0.3543187960592225
0.3783535258276845
0.394417782758241
0.4098255723776989
0.4184055036319951
0.4175315889781724
0.4240281209776837
0.4400785464352113
0.418203021681757
0.4153394154811084
0.4246166014820217
0.4359614568846424
0.4170021622080089
0.4143994011506345
0.4236772911127445
0.4302748107648198
0.4167989711245619
0.4141134102236019
0.4253957452422418
0.4223147042321717
0.3754729475983725
0.3187250649420956
0.2476750131105416
0.216670382967042
0.3572472774898983
0.3260667418752458
0.2581274971498785
0.2167980180823204
0.3510879901594683
0.3275551731086269
0.2611115757379308
0.2168537082524436
0.3473735650624972
0.3328247741286517
0.2668415369970744
0.2172165343830115
0.2138942871414982
0.211373279598465
0.2098611082296563
0.2081989502788842
0.2133733726181809
0.2105599565115849
0.2087155842806277
0.2066624673168592
0.213185777287904
0.21089982393974
0.2089645337432803
0.2071655420667643
0.2132660021514866
0.2104369410144638
0.2079272282998186
0.2058376929733413
0.2067365977332305
0.2051916479954216
0.2065709953335813
0.2276322070089659
0.2049149306324728
0.2027678007336355
0.2001979564563703
0.212574979430099
0.2057682961500684
0.203721850049212
0.1998890108993873
0.2001843994035664
0.2041541322581475
0.2017543502592392
0.1951715063443602
0.1817233013242237
0.277300580125922
0.2842468694559411
0.2897061899529936
0.2913406213804845
0.2779649650741443
0.2846781678704406
0.2899319797915914
0.2924035782995407
0.2786764831294476
0.2850301071018289
0.2904366793093045
0.2928482949628652
0.2755297009215613
0.2851019857796258
0.2903148210603209
0.2933077493985664
0.2957880368959522
0.2974619487133461
0.2905316929454816
0.2683492273518794
0.2976530617184217
0.3002528658130079
0.2979116177235486
0.283117571603839
0.2978643059193219
0.3009021474475647
0.2972641930925966
0.2897364466515222
0.2985496484776988
0.3023787212861461
0.3016882324343071
0.3054573517817126
0.1645259720986471
0.2065382484027132
0.2215830423024577
0.2238966922916178
0.1641086160561002
0.2043398885797182
0.2208328683262082
0.22384079263899
0.1638916380259693
0.202706889352462
0.2201580920758287
0.2237787063802093
0.1577049923714886
0.2000882662169173
0.2195069152310766
0.2237334730289063
0.2237599105204596
0.2194761115931378
0.1924289892869536
0.1325097133352203
0.2237434503191532
0.2192628925672973
0.1934089789433759
0.1359822714211792
0.2237235904537146
0.2190822869917864
0.1946473287784952
0.1419038140879285
0.2237130558732668
0.2190281438555326
0.1973544034721273
0.1502777363605642
0.2237334730286783
0.2237787063799217
0.2238407926388357
0.2238966922909716
0.2195069152305384
0.2201580920756328
0.2208328683259464
0.221583042302361
0.2000882662168864
0.2027068893524016
0.2043398885798667
0.2065382484027296
0.1577049923713652
0.1638916380259046
0.1641086160560765
0.1645259720985328
)
;

boundaryField
{
    back
    {
        type            empty;
    }
    inlet
    {
        type            calculated;
        value           nonuniform List<scalar> 
16
(
0.2239950333699092
0.2239950333699093
0.2239950333699114
0.2239950333729771
0.2239950333064374
0.2239950333003554
0.2239950351753234
0.2239951945845433
0.2239951945853853
0.2239950351755261
0.2239950333001563
0.2239950333075253
0.2239950333699092
0.2239950333699093
0.223995033370267
0.2239950333734591
)
;
    }
    front
    {
        type            empty;
    }
    top
    {
        type            calculated;
        value           nonuniform List<scalar> 
40
(
0.2239952995739602
0.2239970766967289
0.2239991791568546
0.2240154699208633
0.2240683594742929
0.2241893687843496
0.2243830228185998
0.224635830596616
0.2249027966224175
0.225153382269738
0.2252972422018198
0.2253191174568573
0.2252538571857271
0.2250877643376821
0.2247938987836104
0.2245804862862694
0.2242375240090088
0.2241921174111048
0.2243405995780649
0.2247967199975658
0.2257783781296627
0.2277244063064485
0.2308872546935053
0.2357548570497017
0.242081102496854
0.2434455074030863
0.2423681364123919
0.2400048159777884
0.2385769580827523
0.2346067191520694
0.2312060521792952
0.2285365761528192
0.2263099386501729
0.224927301384736
0.2241998353584018
0.2239384088432287
0.2237374079378123
0.2237634860014238
0.2238426604355846
0.2239063023496747
)
;
    }
    outlet
    {
        type            calculated;
        value           uniform 0.2239950333699093;
    }
    bottom
    {
        type            calculated;
        value           nonuniform List<scalar> 
40
(
0.2239063023488113
0.2238426604347929
0.2237634860007455
0.2237374079377061
0.2263099386501152
0.2249273013846711
0.2241998353587041
0.2239384088433946
0.2285365761525278
0.231206052178821
0.2346067191520567
0.2385769580830481
0.2420811024972325
0.2434455074029223
0.2423681364116766
0.2400048159778196
0.2357548570513023
0.2308872546936797
0.2277244063069382
0.2257783781299276
0.2242375240091457
0.2241921174120486
0.2243405995793893
0.2247967199981318
0.2245804862861962
0.2247938987835759
0.2250877643381633
0.2252538571857863
0.2253191174571469
0.2252972422015785
0.2251533822697005
0.2249027966219451
0.2240683594741283
0.2241893687836913
0.2243830228188815
0.2246358305962501
0.2240154699214032
0.2239991791568304
0.2239970766962545
0.2239952995747617
)
;
    }
    wall
    {
        type            calculated;
        value           nonuniform List<scalar> 
104
(
0.3054573517828272
0.3016882324348124
0.3023787212864751
0.2985496484780899
0.2933077493983399
0.2903148210595883
0.2851019857791711
0.2755297009213957
0.1817233013241371
0.1951715063440748
0.2017543502600358
0.2041541322590346
0.205837692973457
0.2079272283004825
0.210436941014722
0.2132660021511432
0.2172165343826701
0.2668415369970113
0.3328247741289617
0.3473735650628226
0.4223147042326844
0.4253957452428619
0.4141134102237392
0.4167989711244581
0.409825572377738
0.394417782758509
0.3783535258272565
0.3543187960585467
0.3353732412058135
0.3198607078257293
0.2925075657214553
0.3051987821512995
0.07250248235273471
0.01791775690446345
0.01834323527341708
0.01851978372432084
0.02633909075204518
0.03451159225985329
0.0442986648774242
0.05387189208291792
0.05252060877717168
0.06438199555413668
0.07511668419080007
0.1026677016464376
0.06799764407492173
0.07615666972767453
0.08183004133609205
0.08800445998001968
0.09561198914859305
0.1015535406957955
0.1051680442161955
0.1064144290998599
0.1064144290998624
0.1051680442162188
0.1015535406958619
0.09561198914868478
0.08800445998010138
0.08183004133613901
0.07615666972770931
0.0679976440749237
0.1026677016464256
0.0751166841909396
0.06438199555433412
0.05252060877742401
0.05387189208314968
0.04429866487762941
0.0345115922599934
0.02633909075207981
0.01851978372431272
0.01834323527339291
0.01791775690448795
0.07250248235269485
0.3051987821512115
0.2925075657213466
0.3198607078258042
0.3353732412062577
0.3543187960592225
0.3783535258276845
0.394417782758241
0.4098255723776989
0.4167989711245619
0.4141134102236019
0.4253957452422418
0.4223147042321717
0.3473735650624972
0.3328247741286517
0.2668415369970744
0.2172165343830115
0.2132660021514866
0.2104369410144638
0.2079272282998186
0.2058376929733413
0.2041541322581475
0.2017543502592392
0.1951715063443602
0.1817233013242237
0.2755297009215613
0.2851019857796258
0.2903148210603209
0.2933077493985664
0.2985496484776988
0.3023787212861461
0.3016882324343071
0.3054573517817126
)
;
    }
}


// ************************************************************************* //
