/*--------------------------------*- C++ -*----------------------------------*\
  =========                 |
  \\      /  F ield         | OpenFOAM: The Open Source CFD Toolbox
   \\    /   O peration     | Website:  https://openfoam.org
    \\  /    A nd           | Version:  11
     \\/     M anipulation  |
\*---------------------------------------------------------------------------*/
FoamFile
{
    format      ascii;
    class       volScalarField;
    location    "0.35923755";
    object      T;
}
// * * * * * * * * * * * * * * * * * * * * * * * * * * * * * * * * * * * * * //

dimensions      [0 0 0 1 0 0 0];

internalField   nonuniform List<scalar> 
880
(
500.0000000000027
500.000000292371
500.0240611526424
503.3408239336002
500.0000000004407
500.0000008570672
500.0298648000137
504.887160684634
500.0000000016358
500.0000033381324
500.0553421815738
506.7156851256309
500.0000000211684
500.0000146210885
500.1147629478714
509.4284405084863
499.9999999006574
500.000000075423
500.00001016679
500.0001636976427
500.0000671594138
500.0002570986662
500.0016144392081
500.002356634714
500.2633653037753
500.4347040082973
500.7186585945672
500.9607674340317
514.9178702244593
521.1126020197155
526.3743181557651
529.0292462993581
500.0004089496304
500.0033847209009
500.0128253410547
500.0397785504413
500.0227916575354
500.0985672591768
500.200510035923
500.4220251716399
502.4155907687363
503.6984077587049
505.2861741315517
507.2307501450737
531.2573573141797
533.8984456890138
534.3926268660629
533.1640420289323
522.8401978648197
517.6389030914889
515.4439743800423
513.9695349886927
511.0475462573996
512.66421604538
513.577979178731
513.7075937183623
501.1772469627829
502.0603242115951
503.0083383515008
503.7666058004253
500.1411480930812
500.3406020874091
500.6412604565934
501.0639273969277
501.5574559351233
502.0499101028134
502.5356244917794
502.8872692611678
504.3928627442799
504.7490413511669
504.9504986292928
504.9006060113589
513.0679237165364
512.1692520726023
510.9866235281044
509.749123242339
512.2219265154206
511.0323234091095
510.2808453862463
509.5129746712707
508.9400195274991
508.8784229422509
504.7598058382938
503.0953392943792
519.1989649042181
508.0402931517012
504.3860455260406
503.0561109536388
571.3192338754833
510.4334042354246
503.9292186942096
502.6034664606824
620.3442535244101
523.8958677002431
504.7805399229928
502.4449094928608
502.3965994481773
506.0674746288669
539.6775580898374
637.4094006863228
501.5158998884791
508.5904258943575
556.3031855787535
635.1892836530817
501.8918848495376
514.4423673784102
576.6108182390026
636.193808810833
503.3246935798799
524.8676842598297
594.7481275190446
633.437700627675
628.3166375184616
604.8054338655029
539.8160384543909
506.4865839177122
621.8128964623255
607.454411416533
554.9984206189008
512.1641761178068
614.4985107484287
605.2838619930153
566.9949945816302
521.1594015194971
606.642714995176
594.2586737185236
569.0869314354647
532.0899607167124
541.2924358770082
563.5993791765454
579.7591253900937
597.1535929767915
539.833123826518
552.0559969717564
562.8276703236755
582.2093865757245
535.8355046793437
540.3215128661498
544.5105048168347
560.5778229253477
530.6373796814787
529.8356100973668
525.3122038044253
530.4062279510863
526.7524768017934
520.4505160761468
508.495102893891
495.5316113447674
520.5912362170205
511.2780160078881
491.9680532032315
459.8349991545753
515.7630762505446
506.0172607917647
477.9299366962749
425.1205899471659
511.5883040647844
504.5831785360783
477.6776597424263
399.8654827444462
410.5395110553373
486.8257957532925
503.2609452118761
507.768446799002
477.9393885943812
493.0368325131706
502.4041457952052
505.1698607769549
517.2608866502612
495.7343592963356
500.8734599441786
503.3599356537659
530.1719207686288
500.4058637732602
500.2272402753829
502.2905470871956
539.0029023121959
504.3269070020502
498.9655178333358
500.3929651209692
533.7938790810852
504.2973548012857
497.6634735289788
499.2219102370378
525.7954066070104
503.4850314479771
497.2753634983358
499.1942333934929
517.7073500507005
499.1156604420022
497.0793856765912
499.4038903132638
479.7740017516788
469.4022071466971
488.9353274749741
498.6805241647598
474.2561718551077
471.2941998664054
489.4244829661955
498.6803663903098
465.2308569631077
473.418214791065
490.3268227147287
498.6945403869316
459.5027986213931
476.2500912737618
491.379002837994
498.7838875803363
517.7073500507463
499.1156604415688
497.0793856768299
499.4038903129867
525.7954066070276
503.485031447251
497.2753634981435
499.1942333923797
533.7938790810907
504.2973548006778
497.6634735278276
499.2219102362182
539.0029023123094
504.3269070009746
498.965517833086
500.3929651205505
507.7684467992212
503.2609452123469
486.8257957533787
410.5395110543548
505.1698607767678
502.4041457952649
493.0368325133545
477.9393885932362
503.359935653888
500.8734599446284
495.7343592954992
517.2608866501484
502.2905470872269
500.2272402758549
500.405863772657
530.1719207689675
399.8654827480219
477.677659742634
504.5831785364696
511.5883040650444
425.120589947083
477.9299366961041
506.0172607922319
515.7630762502678
459.8349991544287
491.9680532043336
511.2780160080741
520.5912362173198
495.5316113452591
508.4951028936316
520.4505160753548
526.7524768019786
541.2924358769839
563.5993791771529
579.7591253907245
597.1535929772962
539.8331238260439
552.0559969714204
562.8276703239309
582.2093865763466
535.8355046785576
540.3215128658765
544.5105048168475
560.5778229256953
530.6373796812838
529.8356100968766
525.3122038040259
530.406227951529
606.642714995575
594.2586737190602
569.086931435756
532.0899607176456
614.498510748992
605.283861993552
566.9949945817382
521.1594015193959
621.8128964628519
607.4544114170333
554.9984206185793
512.1641761179337
628.3166375189769
604.8054338658823
539.8160384548324
506.4865839175496
502.3965994479128
506.0674746287482
539.6775580897205
637.4094006865976
501.5158998891561
508.5904258946887
556.3031855788587
635.1892836533575
501.8918848504857
514.4423673796009
576.6108182395477
636.1938088109263
503.3246935798861
524.8676842598331
594.7481275197342
633.4377006278096
502.4449094926961
502.6034664604251
503.0561109542433
503.0953392945258
504.7805399222889
503.9292186938479
504.3860455263043
504.7598058380744
523.8958676994731
510.4334042352996
508.0402931510516
508.8784229421016
620.3442535245147
571.3192338750789
519.1989649044455
508.9400195273749
502.8872692616955
504.9006060117746
509.749123242707
509.5129746714936
502.5356244915818
504.9504986295693
510.9866235280822
510.2808453863377
502.0499101028063
504.749041351368
512.1692520728775
511.0323234084725
501.5574559347014
504.3928627439215
513.067923716608
512.2219265156278
500.1411480924572
501.1772469623961
511.0475462576601
522.8401978650812
500.3406020869069
502.0603242112502
512.6642160457891
517.638903091384
500.6412604572125
503.0083383508904
513.5779791791858
515.4439743791079
501.063927396526
503.7666058003964
513.7075937184012
513.9695349882373
533.1640420289677
507.2307501453871
500.4220251716092
500.0397785506533
534.3926268661658
505.2861741316983
500.2005100356
500.0128253409122
533.8984456892551
503.6984077585329
500.0985672579475
500.0033847206846
531.2573573144118
502.4155907682735
500.0227916571537
500.0004089499909
529.0292462990902
500.9607674344417
500.0023566348818
500.0001636983371
526.3743181552746
500.7186585946017
500.0016144390681
500.0000101672825
521.1126020190945
500.4347040082415
500.0002570985362
500.0000000750825
514.9178702240166
500.263365303551
500.0000671585474
499.999999901189
500.0000000001753
500.0000002925185
500.0240611525716
503.3408239333667
500.0000000005271
500.0000008567644
500.0298648002283
504.8871606844143
500.0000000018922
500.0000033379117
500.0553421815867
506.7156851261099
500.0000000219067
500.000014620887
500.1147629479608
509.4284405088148
506.2254675415103
508.9279034556852
513.2492499282833
521.8956154872662
508.9279034560981
512.3868041221784
518.7555912316182
531.3321472986271
513.2492499285704
518.7555912316489
528.8806551980772
544.0768964505455
521.8956154873752
531.3321472983872
544.0768964511255
560.2595824957505
577.2416745312631
564.2359979498066
557.3545290088568
544.9499312225265
575.4561863377215
571.5456944728787
570.3315008956165
564.6289236707713
575.3922154093761
574.32178936779
573.7614239698362
572.057406838258
571.9799965601642
571.5451036003844
571.6840176718152
570.9797348906783
567.8989019960301
565.553562101157
560.461301443228
553.2864546966529
567.5583737505613
565.1532702179983
560.2395135971993
553.9644340872528
567.5747711116512
564.9925165185832
559.9824203721952
554.5583668375065
567.6371017489737
564.7359161570314
560.1860001120317
550.9724926199815
512.3813522352813
492.8098728788863
489.9499084306416
490.4502794173307
501.8264545569592
488.7084145661718
489.970442246881
491.0967254089136
491.5797978681957
488.8777836529355
491.5593106913593
492.8373591214036
469.926691372415
484.1233253660012
489.9012635169448
491.5987090833815
490.7931358469295
491.8104445299158
493.3327056850672
494.8469673167305
491.0038467345135
491.4807430912155
492.8626666009131
494.8615588884023
492.316371078618
492.3385592892162
493.2672684842183
494.735669017815
491.248238964814
491.4194314142873
492.7257984352351
494.8403546900378
505.024653133105
567.6806652370334
639.3626551992221
664.5435798506024
510.945515165558
581.1668992452439
642.0085604230301
660.2513419420782
516.4248604272789
589.49790378897
641.9786235188933
660.9496561578853
520.2341221046584
597.7656241136807
642.1830799353418
661.3626980211822
694.3007947273718
681.4451317581178
670.1396065764003
656.874727136124
702.7509340661031
690.0066782331086
676.8979811575066
662.5489492792582
708.7285685083702
697.4716979770291
683.0148445246533
668.0403847241539
706.6523499771231
701.2937894587632
687.193940068152
671.8349548481738
643.6156360437515
633.0267019490788
623.2180540128636
618.9683052775883
648.7140389489151
637.1070972866877
625.9493918443352
621.0677432282469
653.8775239905364
640.6174178752414
629.5057415809968
623.1776519419682
658.2962609741379
643.6920503895109
632.9965491288742
625.5983732809274
615.0674084208537
607.6462351854617
590.9805389842385
565.0079479618721
616.8448732337303
609.2347824893803
593.7783642169679
592.6504302794635
617.8390362896471
610.154599527044
602.7703168221057
620.4155973770494
619.7335018115675
614.0058266729819
616.3505768376216
603.9811597282368
522.5289451633799
460.1972946657547
422.6693621398146
426.5797299776037
512.0670729227777
421.9835161807872
305.5296402887416
252.9725395652048
468.7317654212068
368.1013103311471
252.1786279032636
231.8539674908746
368.0076225816722
282.5858596965494
227.8297950907326
239.5910833937496
376.1330239079295
403.925474741965
471.0871300224708
522.9240284073952
306.493625204112
380.3603448626851
441.8186298450417
491.7073829184272
291.667090929546
350.9018445894571
404.4015126993215
445.1314892410623
298.9376276476189
351.4329526499528
402.1240246922034
431.1505540553642
487.0606322195093
510.3457850575386
509.2798851358166
509.6874265019035
435.7733528128934
473.9286568890674
492.6752157188853
510.5675922026093
407.3533466131986
432.9142340818163
470.5547558086419
514.174654762605
392.4923059100626
408.273808423955
445.0625610846583
512.9335098817998
491.826504285378
470.6135939408846
459.3928494836253
459.7036751658127
495.178709217106
486.0223287588051
482.017287561673
475.89541168166
504.237390525238
507.4085330472811
501.6103049530126
488.6176070485335
503.6020096336651
508.6045135588244
498.7249853030517
484.0919643406503
465.931001781859
450.6270577467197
442.2369546759442
439.8952133728917
471.5288704982568
455.6884105295908
444.4200802840866
441.0561999244283
469.7953555717148
461.2954495639062
452.6146076319964
448.9981438406924
462.8009584925678
460.2202212270588
455.4791037505664
452.3444738530145
439.8952133728557
441.0561999243949
448.9981438407165
452.3444738531077
442.2369546757971
444.4200802839431
452.6146076319985
455.4791037508138
450.6270577464281
455.6884105293252
461.2954495637783
460.2202212272542
465.9310017814046
471.5288704980677
469.7953555715642
462.8009584927389
459.7036751659124
459.3928494836145
470.6135939411794
491.8265042855748
475.895411681699
482.0172875617674
486.0223287591345
495.178709217303
488.6176070482945
501.6103049527822
507.4085330474166
504.237390525303
484.0919643403877
498.7249853029626
508.6045135587055
503.6020096336328
512.9335098819116
445.062561085072
408.2738084245661
392.4923059106709
514.174654762708
470.5547558091374
432.9142340824067
407.3533466139326
510.5675922027787
492.6752157192365
473.9286568896125
435.7733528137816
509.687426502039
509.2798851360085
510.3457850580924
487.0606322200791
522.9240284071825
471.0871300224248
403.9254747404639
376.1330239173171
491.707382918412
441.8186298452991
380.3603448620388
306.4936252046563
445.1314892413569
404.4015126999879
350.9018445890143
291.6670909293935
431.1505540557496
402.1240246926913
351.4329526503371
298.9376276479421
426.5797299995907
422.6693621417612
460.1972946655709
522.52894516344
252.9725395692282
305.5296402885205
421.9835161801105
512.0670729233487
231.853967491295
252.1786279028432
368.1013103320554
468.7317654220774
239.5910833938327
227.8297950900547
282.5858596971357
368.0076225824742
565.0079479622432
590.9805389846313
607.6462351860229
615.0674084210699
592.650430279782
593.7783642171538
609.2347824896219
616.844873234293
620.4155973775997
602.7703168221127
610.1545995267313
617.8390362898664
603.981159729278
616.3505768375543
614.0058266726803
619.7335018118265
618.9683052782459
623.2180540132106
633.026701948849
643.6156360438297
621.0677432287979
625.9493918443021
637.1070972865009
648.7140389487329
623.1776519420839
629.5057415812457
640.6174178747847
653.8775239900782
625.5983732813862
632.9965491290304
643.6920503892595
658.2962609740787
656.8747271360426
670.1396065758977
681.4451317577043
694.3007947269931
662.5489492791477
676.8979811574167
690.0066782328123
702.7509340654846
668.0403847236718
683.0148445242762
697.4716979762059
708.7285685086234
671.8349548477602
687.1939400679363
701.2937894588184
706.6523499763307
664.5435798505871
639.3626551989587
567.680665236992
505.0246531335564
660.2513419419345
642.0085604227482
581.1668992451487
510.9455151661196
660.9496561576539
641.9786235185547
589.4979037887651
516.4248604278479
661.3626980216717
642.183079935006
597.7656241134557
520.2341221052213
494.8469673173829
493.33270568495
491.8104445291804
490.7931358462674
494.8615588890503
492.8626666007972
491.4807430902504
491.0038467340996
494.7356690184542
493.2672684839488
492.3385592882262
492.3163710780889
494.8403546906773
492.7257984348722
491.4194314132341
491.2482389638869
490.4502794165392
489.949908430016
492.8098728793096
512.3813522356488
491.0967254081583
489.9704422460344
488.7084145666951
501.8264545572441
492.8373591206297
491.5593106903848
488.8777836533895
491.5797978684092
491.5987090825726
489.9012635157803
484.1233253663736
469.9266913726352
553.2864546967784
560.4613014433709
565.5535621019268
567.8989019958144
553.9644340875949
560.239513597208
565.1532702186873
567.5583737502702
554.5583668371321
559.9824203720933
564.9925165191936
567.5747711113623
550.9724926199136
560.1860001121414
564.7359161570736
567.6371017487485
570.9797348897783
572.0574068371986
564.6289236697652
544.9499312226495
571.6840176708833
573.761423968203
570.3315008938746
557.3545290083805
571.5451035992816
574.3217893660336
571.5456944699589
564.2359979480126
571.9799965591955
575.3922154075194
575.4561863342882
577.2416745275822
505.1317652417555
497.2539316775474
496.8135665346701
499.4842132083775
485.4159328728298
492.0362516020778
495.3926371393067
499.3453962480893
470.3696873163619
486.3990113459465
493.9791081304904
499.1480288467728
460.1373791813359
480.4284617170332
492.4954826385435
498.941062415791
498.6805241642846
488.9353274750556
469.4022071465796
479.774001751756
498.6803663899142
489.4244829663275
471.2941998661612
474.2561718554558
498.6945403868334
490.3268227151422
473.4182147906723
465.2308569634361
498.7838875802611
491.3790028383206
476.2500912734852
459.5027986215582
498.9410624153165
499.1480288467112
499.3453962480808
499.4842132083687
492.4954826382864
493.9791081302951
495.3926371386572
496.8135665343347
480.4284617173008
486.3990113462141
492.0362516026539
497.2539316779698
460.1373791811642
470.3696873161043
485.4159328728391
505.1317652418043
)
;

boundaryField
{
    back
    {
        type            empty;
    }
    inlet
    {
        type            zeroGradient;
    }
    front
    {
        type            empty;
    }
    top
    {
        type            zeroGradient;
    }
    outlet
    {
        type            fixedValue;
        value           uniform 500;
    }
    bottom
    {
        type            zeroGradient;
    }
    wall
    {
        type            zeroGradient;
    }
}


// ************************************************************************* //
