/*--------------------------------*- C++ -*----------------------------------*\
  =========                 |
  \\      /  F ield         | OpenFOAM: The Open Source CFD Toolbox
   \\    /   O peration     | Website:  https://openfoam.org
    \\  /    A nd           | Version:  11
     \\/     M anipulation  |
\*---------------------------------------------------------------------------*/
FoamFile
{
    format      ascii;
    class       volScalarField;
    location    "0.054";
    object      p;
}
// * * * * * * * * * * * * * * * * * * * * * * * * * * * * * * * * * * * * * //

dimensions      [0 2 -2 0 0 0 0];

internalField   nonuniform List<scalar> 
880
(
80
80
80
80.00000024958035
80
80
79.99999999999991
80.00001553928311
80
79.99999999999999
80
80.00040796383074
80
80
80.00000000001674
80.00085703572159
80
80.00000000000001
79.99999999999994
80.00000000000007
79.99999999999999
80
79.99999999999983
80
79.99999999879192
79.9999999941826
80.0006584738704
79.99725992612463
80.23071652743255
81.23572658633142
82.32327597226089
82.83424100759024
80.00000007692663
80.00000010500439
80.00000012026989
80.00000004634289
80.00000484447901
80.00000713436798
80.00000836364983
80.00000372957443
80.00760696028536
80.00847461216779
80.00943136798287
80.00717715186445
83.12748620199203
83.45509442330713
83.61240132748739
83.84167630027116
83.7691839626774
82.72745044701593
81.52022939225026
80.54747101946809
80.01974469525241
80.01891813025235
80.01278987468552
80.00446848503861
80.00002589693756
80.00002510807323
80.00001678394932
80.00000565103701
80.00000042568803
80.00000037401082
80.00000020006287
80.00000004719958
80.00000000310854
79.99999999996123
80
80.00000000000001
80.00000067916922
80.00000001885836
79.99999999917898
79.99999999997119
80.00059117644713
80.00001919635292
79.99999996899257
79.99999993907269
80.08808967014456
80.00393083973846
80.00002026860977
79.99999591742062
79.99999836126561
79.99999998006207
79.99999999999999
80
79.99999772127386
79.99999985705335
79.99999999455922
79.99999999999986
80.00044146233135
80.00004395089788
80.00000130867352
80.00000001507176
79.94873957393604
79.99199712482053
79.99995562383914
79.9999999809487
79.99999997592471
79.99999432183503
80.00118888261247
84.43515153888752
80.00000030343756
80.00001870768145
80.02637913207545
91.01602444778199
80.0000006804994
80.00004696857275
80.0508294287998
95.43910530531036
80.00000089254296
80.00006138520692
80.06317227587995
97.52029584843966
98.53498569286907
80.07334567341026
80.00007648021953
80.00000114437749
99.74915222981163
80.0877398175947
80.00009906321003
80.00000150880084
100.7963246626644
80.10129683539172
80.00012208728874
80.00000193266247
102.3689324256179
80.12945440657882
80.00017659179723
80.00000288334704
80.00000248176697
80.00015196498889
80.12993493973707
103.9868562732761
80.00000294222725
80.0001799826226
80.14593900728558
104.6630946965822
80.00000381575897
80.00021730684149
80.15683760548838
103.2994229496709
80.00000251124632
80.00014451005028
80.07371518985934
94.43449221824329
79.99988261342681
79.99935331238613
80.14355545086862
84.63868767103288
79.99998379652311
79.99636271409445
79.81816286137871
73.58955348967947
79.99999597979428
79.99712046343942
79.52836360441908
64.22196433482718
79.99999615170681
79.99632697374983
79.15350438185443
57.17819476967662
58.3652555407923
79.4836353894508
79.99830514691686
79.99999743161024
59.24316794120995
79.54932725886913
79.99858170564016
79.99999802237255
62.31505668894821
79.70857093018489
79.99919992160363
79.99999893254531
61.21115065245634
79.650574307505
79.99903871032909
79.99999876500017
69.09023424611233
79.90443651300028
79.99979354726798
79.99999972769339
76.01569892895543
79.98595478174835
79.99997839811665
79.99999997795804
78.95738140654969
79.99742685132576
79.99999631795035
79.99999999637289
79.30439485707653
79.99685776052669
79.99999380933144
79.999999989689
77.1973690842114
79.96298029601257
79.99982943065639
79.99999969527113
77.20386974611266
79.96295925718469
79.99982940307989
79.99999969361828
77.21833258569221
79.96270725012658
79.99982829481699
79.99999967823757
77.34409551969541
79.9630184066236
79.99982831525541
79.99999965791577
79.30439485697015
79.99685776030405
79.99999380900913
79.99999998990619
78.95738140614745
79.99742685104763
79.99999631726281
79.99999999643217
76.01569892899042
79.98595478184615
79.9999783981165
79.99999997799874
69.09023424629865
79.90443651361119
79.99979354731913
79.99999972752055
79.9999974320567
79.99830514779312
79.48363538953978
58.36525554089621
79.99999802268873
79.99858170577251
79.54932725919097
59.24316794125343
79.99999893214486
79.99919992202189
79.70857093021716
62.31505668951138
79.9999987650893
79.99903871045495
79.65057430815847
61.21115065200269
57.17819476899852
79.15350438150378
79.99632697327458
79.9999961515805
64.22196433428715
79.52836360400541
79.99712046275081
79.9999959790089
73.58955348955205
79.81816286083067
79.99636271409732
79.99998379596155
84.63868767117835
80.14355545072303
79.99935331219005
79.99988261429327
80.00000248157117
80.0001519654372
80.12993493998044
103.9868562738114
80.00000294233726
80.00017998281305
80.14593900728347
104.6630946965392
80.00000381619654
80.00021730684301
80.15683760510672
103.2994229496226
80.00000251202778
80.00014451003291
80.07371518957048
94.43449221816485
102.3689324266358
80.12945440612651
80.0001765924609
80.00000288324948
100.7963246635201
80.10129683628804
80.00012208743304
80.00000193279773
99.74915222994755
80.08773981845343
80.00009906380068
80.00000150869488
98.53498569285487
80.0733456727168
80.00007648022569
80.00000114424863
79.99999997626027
79.99999432230929
80.00118888256848
84.43515153826976
80.00000030307736
80.00001870724101
80.02637913226498
91.01602444768668
80.0000006803121
80.0000469685676
80.05082942917743
95.43910530563976
80.00000089231889
80.00006138534791
80.06317227533907
97.52029584878126
79.99999998087232
80.00000001518988
80
80
79.99995562320419
80.00000130857831
79.99999999494298
80.00000000000001
79.99199712496186
80.00004395119113
79.99999985678696
79.99999997994229
79.94873957394307
80.00044146238557
79.99999772129604
79.99999836127715
79.99999999999991
79.99999999998703
79.99999993921764
79.99999591754893
80
79.99999999910274
79.99999996970762
80.00002026863288
79.99999999996301
80.0000000188621
80.00001919595923
80.00393083980663
80.0000000031816
80.00000067906279
80.00059117692085
80.08808966995943
80.00000042518739
80.00002589644841
80.01974469492411
83.7691839625562
80.00000037358572
80.00002510818022
80.01891813025787
82.72745044659753
80.00000019994023
80.00001678457869
80.01278987455507
81.52022939216094
80.00000004708755
80.0000056513483
80.00446848501115
80.54747101913226
83.84167630033666
80.00717715277388
80.00000372924981
80.00000004610962
83.61240132734368
80.00943136907986
80.00000836351981
80.00000012040469
83.45509442410523
80.00847461231156
80.00000713452461
80.00000010486139
83.12748620179394
80.00760695805964
80.00000484430134
80.00000007704561
82.83424100784308
79.99725992735438
80
80.00000000000007
82.3232759720658
80.00065847274014
80
79.99999999999999
81.23572658653701
79.99999999406616
80
79.99999999999999
80.23071652713215
79.99999999875008
80
79.99999999999989
80
79.99999999999997
80
80.00000026316908
80.00000000000003
80.00000000000001
79.99999999999999
80.00001553843876
80
80
80
80.00040796410264
80
80
80.00000000002879
80.00085703554758
79.99995594599413
79.9998780209056
80.00027494625452
80.06633605977424
79.99987803649209
79.999377100339
79.99885923484239
80.22476987035874
80.00027494331937
79.99885922968369
80.08561300074325
82.76388479521904
80.06633606228654
80.2247698685444
82.76388479666241
98.37795460802288
128.0190371319396
105.8610026910973
95.04708609177753
85.5477978146734
125.9254854165217
119.6247482853239
115.3451643011705
104.4315262515805
123.4276570365768
122.4790090432252
122.0245650238046
117.6935948140534
124.8902343834541
125.4200761964393
126.3011378830907
123.9748881622843
126.6608746140386
127.1513636451865
127.3176107930554
130.4739247423733
129.111880378211
129.7187558533431
129.8084138106349
134.4017202020538
127.2414662210283
127.6140742608507
127.6802093811117
133.0794700618882
126.5090379719305
126.8007693122298
126.8912261482592
128.2805727144888
110.6357066078681
92.20278616121793
84.56103003160705
81.75651823457552
100.038095276634
80.17755430783684
80.62448527104416
80.95930836804044
85.31132369306053
76.05009717544984
80.42921830737565
81.60911833202212
73.10692021896827
77.19957000008668
80.70878459878185
80.9222376915131
80.37209089102733
80.02151645629995
80.00014528359526
79.99998826369675
80.3704493767534
80.02877909148603
80.00016137674463
79.99999138903074
80.6969597901688
80.06012290418352
80.00053143158546
79.99997753419899
80.0809265570358
79.96987864182179
79.9976702059413
79.99995431122258
79.99999761685247
79.99999826745311
80.00041766263219
87.90347655528589
79.9999991087948
79.99999900828175
80.00032177195028
95.66873991274498
79.99999824667205
79.99999947086734
80.0001377346196
101.5965428227701
79.99999903853958
79.99999972433908
80.00008023774639
102.9255376241899
172.5098893989032
189.3050881027465
202.9017436819498
209.1719749461374
201.7182979351803
200.4599680700144
208.6974444024704
216.6860403048701
205.4232703895407
198.2795959558235
204.9134454310631
213.4664631414399
219.895025946803
205.7201856075198
209.696385463852
218.4913693569003
210.4288697301008
211.0550550781217
211.3991301967574
211.8075028668956
218.3856672312673
218.6015652804888
218.5938305499841
218.3921200847437
215.8080913916604
216.0162907682569
216.00836852969
215.7091443940998
221.5768501371312
221.85436511625
221.8371490626703
221.5393382249691
213.2005261118967
212.0300523304248
199.9913180739587
165.1682261508199
219.424728595005
217.8740250587501
205.2933024635919
178.3791214284747
215.9916890940964
213.7221810843715
202.7904789370656
184.8198416402934
221.4023206184554
219.0307307477794
207.0449925786747
209.9246038053163
97.44462893510446
31.82544734814262
11.89145074152072
8.047115308001556
85.98502221569328
19.90754045919616
8.262590438236677
5.624377994216999
54.1521838966901
13.80532108129479
8.336156574194517
6.147258651246091
30.18249650292512
4.34975040281708
7.837651548582912
7.457964619211203
8.58635121445297
8.642621648775483
9.14170668341573
7.681829786376054
5.139255464291243
5.382759616459645
6.614091827462772
5.622781270024512
5.752601403901017
6.335326775758967
7.544195139085632
6.84028025808199
7.239475696712708
8.095917984126949
8.902762516590021
6.742789658401786
31.99616396398602
52.90461472302248
62.77349287904675
66.78175420575162
24.00990764653358
43.57491173110022
52.91221145069867
63.39596241189647
19.09425605750198
39.48096433138663
48.62062586734265
62.57761542526281
10.52463172289084
25.58657264635193
41.06726571603382
55.56232717442374
53.43817271960289
40.81193628396946
42.36047399382204
38.63114850859267
40.67660133992241
17.5468239554169
15.19128686773265
27.48184398043698
30.81955716240651
12.78212868850521
6.10314337257208
8.460253902922167
18.06437433417982
2.943778906861548
4.936500890653833
6.909927597982505
7.122446426415529
7.099516789412341
6.177866056796206
4.165990445085082
14.12624706469952
16.46275332120783
15.10092914177539
10.40148948996959
28.87339791273608
24.43127181662189
16.5428304967052
10.56194680135195
32.47670427531433
26.01410447689644
19.27740983305598
16.27163950396096
4.16599044508418
10.40148948996341
10.56194680134512
16.27163950389492
6.177866056802453
15.10092914175433
16.54283049668173
19.27740983303081
7.099516789416743
16.46275332120256
24.43127181656428
26.01410447680748
7.122446426426901
14.12624706471087
28.87339791268394
32.47670427519955
38.63114850844707
42.36047399359778
40.81193628381072
53.43817271920395
27.48184398037512
15.19128686778068
17.54682395540181
40.67660133974868
8.460253902928271
6.103143372569039
12.78212868845865
30.81955716233369
6.909927597994372
4.936500890657049
2.94377890686058
18.06437433413381
55.56232717433554
41.06726571608161
25.58657264649822
10.52463172294906
62.57761542511238
48.62062586728984
39.48096433149161
19.09425605755191
63.39596241177215
52.9122114505273
43.57491173120493
24.00990764654685
66.78175420563853
62.77349287884208
52.90461472312158
31.99616396400605
7.681829786288755
9.141706683539276
8.642621648784777
8.586351214425269
5.622781270015711
6.614091827501303
5.38275961648479
5.13925546430507
6.840280258098005
7.544195139106238
6.335326775784571
5.752601403915144
6.742789658419404
8.902762516595692
8.095917984157804
7.239475696733588
8.047115307821706
11.89145074132536
31.82544734813016
97.44462893506618
5.624377994195862
8.262590438151317
19.90754045914587
85.98502221525334
6.147258651233609
8.336156574118684
13.80532108129285
54.15218389641574
7.457964619208433
7.837651548562602
4.349750402833891
30.18249650284585
165.1682261505616
199.9913180739578
212.0300523304387
213.2005261124192
178.3791214281704
205.2933024635743
217.874025058963
219.4247285955423
184.819841640072
202.7904789371296
213.7221810848143
215.9916890946869
209.9246038051486
207.0449925788968
219.0307307482551
221.4023206188513
211.8075028674864
211.3991301972099
211.0550550783256
210.4288697300767
218.3921200849765
218.5938305504272
218.601565280857
218.3856672311229
215.7091443943665
216.0083685301247
216.0162907685401
215.8080913915746
221.5393382250488
221.8371490630419
221.8543651165866
221.5768501368698
209.1719749465294
202.9017436821403
189.3050881026496
172.5098893987096
216.6860403050771
208.6974444027095
200.459968069942
201.7182979350602
213.4664631415135
204.9134454313337
198.2795959556757
205.4232703893377
218.4913693570143
209.6963854640571
205.7201856073216
219.8950259465816
87.90347655527341
80.00041766229275
79.99999826731089
79.99999761691258
95.66873991270515
80.00032177168706
79.99999900820548
79.99999910885803
101.5965428227312
80.00013773447301
79.99999947083604
79.9999982467108
102.9255376241347
80.00008023763925
79.99999972432848
79.99999903858641
79.99998826376496
80.00014528370521
80.02151645643455
80.37209089081092
79.99999138906492
80.00016137675149
80.02877909176999
80.37044937626207
79.99997753422608
80.00053143148645
80.06012290464976
80.6969597896515
79.99995431127734
79.99767020583532
79.96987864225515
80.08092655645912
81.75651823435874
84.56103003152809
92.20278616089055
110.6357066077594
80.95930836787147
80.62448527103018
80.17755430762588
100.0380952768488
81.60911833181298
80.42921830738483
76.05009717528793
85.31132369317113
80.92223769123592
80.70878459880133
77.19956999997802
73.10692021905987
130.4739247422613
127.3176107927644
127.1513636449496
126.6608746144129
134.4017202018346
129.808413810419
129.7187558531095
129.1118803785371
133.0794700617494
127.6802093811197
127.6140742606849
127.2414662208888
128.2805727143789
126.8912261482544
126.8007693121803
126.5090379717886
123.9748881625045
117.6935948136966
104.4315262519678
85.54779781451229
126.3011378832478
122.0245650235
115.3451643013967
95.04708609247137
125.4200761969483
122.4790090429498
119.6247482855021
105.8610026910566
124.8902343839554
123.4276570362873
125.9254854165106
128.0190371323883
79.22998713933264
79.99460418007885
79.99998075746828
79.99999996822027
78.7347084681622
79.98748214196192
79.99994817424739
79.99999990907767
78.11410847155169
79.97623837974798
79.9998935553115
79.99999978855979
76.84360671743725
79.95914278535399
79.99982380384635
79.99999965201964
79.99999969555351
79.99982943053247
79.96298029591568
77.19736908389852
79.99999969382505
79.99982940342387
79.96295925680198
77.20386974600726
79.99999967796634
79.99982829514747
79.9627072500386
77.21833258557999
79.99999965707018
79.9998283156782
79.96301840524404
77.34409551953061
79.99999965192241
79.99999978839601
79.99999990819984
79.99999996723655
79.99982380390907
79.99989355531061
79.99994817409215
79.99998075701031
79.95914278570577
79.97623837927017
79.98748214242443
79.99460417971592
76.84360671699211
78.11410847110324
78.73470846815667
79.22998713939739
)
;

boundaryField
{
    back
    {
        type            empty;
    }
    inlet
    {
        type            zeroGradient;
    }
    front
    {
        type            empty;
    }
    top
    {
        type            zeroGradient;
    }
    outlet
    {
        type            fixedValue;
        value           uniform 80;
    }
    bottom
    {
        type            zeroGradient;
    }
    wall
    {
        type            zeroGradient;
    }
}


// ************************************************************************* //
