/*--------------------------------*- C++ -*----------------------------------*\
  =========                 |
  \\      /  F ield         | OpenFOAM: The Open Source CFD Toolbox
   \\    /   O peration     | Website:  https://openfoam.org
    \\  /    A nd           | Version:  11
     \\/     M anipulation  |
\*---------------------------------------------------------------------------*/
FoamFile
{
    format      ascii;
    class       volScalarField;
    location    "0.35923635";
    object      rho;
}
// * * * * * * * * * * * * * * * * * * * * * * * * * * * * * * * * * * * * * //

dimensions      [0 0 0 0 0 0 0];

internalField   nonuniform List<scalar> 
880
(
0.2239950333699092
0.2239950336977215
0.2240219313386456
0.2277382471393327
0.2239950333702082
0.223995034333608
0.2240283851211579
0.2294906886092812
0.2239950333717012
0.2239950371321023
0.2240567387640187
0.2315875419794432
0.2239950333941023
0.2239950499075351
0.2241222555689372
0.2347100003479625
0.223995033259515
0.2239950334139612
0.2239950459401247
0.2239952242250021
0.2239951096732186
0.2239953271727533
0.2239968608683458
0.223997747749237
0.2242817666897235
0.2244566859774539
0.224751344713989
0.2250683405428719
0.2401924932193018
0.2455343412036314
0.2500085001030142
0.2520202039879265
0.2239955037664995
0.2239988445373678
0.2240094182713184
0.2240395953931114
0.2240201690484848
0.2241022661485212
0.2242088533984218
0.2244461000752583
0.2264583029517279
0.2276525003910757
0.2291734937255439
0.231193787432019
0.2539939631896185
0.2568433010946383
0.257450920118756
0.2560354399984645
0.2436279909775279
0.2366721017382721
0.2331385259823255
0.2308249257258085
0.2347449137314883
0.2358606804529506
0.2365383609956876
0.2365730331426622
0.2252532884202331
0.2262087743503182
0.2272170823961769
0.227942862758174
0.2241532005147848
0.2243777856457418
0.2247180589616927
0.2251948706941007
0.2257495237480867
0.2263070117279044
0.2268586669953966
0.2272747028827153
0.2284637166252591
0.2287683439459629
0.2289177104123259
0.228956247306476
0.2358869575710721
0.2349358191793346
0.233684645183587
0.2323892231139886
0.2284543746346999
0.2270998651893741
0.2263600848813474
0.2255256048785876
0.2257913871664312
0.2314865478225081
0.2288735446059789
0.2275322389490945
0.2365887118227328
0.2310972116770251
0.2286240073130754
0.2274951403811203
0.2954157806884571
0.2338488082892832
0.2283256757585108
0.226997823942148
0.3573533326920532
0.2486712971489825
0.2292792855667064
0.2268111569839577
0.2267524296307375
0.230696436854322
0.2665978186817449
0.3845281537071244
0.2257541558193564
0.2332911600724682
0.2862191128766713
0.3841152049269355
0.2261775493476108
0.2392094890476092
0.3116797630733198
0.3875968159435449
0.2277762960686176
0.2496192769225467
0.3348898711523555
0.3832617033927778
0.3736731338848414
0.3470976544407951
0.2651511229993824
0.2312645803329225
0.3618911164120327
0.348442016155775
0.2820885170327892
0.2373726612525359
0.3493506668367356
0.344441006855459
0.2966029658842478
0.2469824151302883
0.3360857416234459
0.3272445270442306
0.2987922005402168
0.2586679491341949
0.2688482575625799
0.2915294790435083
0.3056281029062094
0.3202638244148795
0.2674710125639315
0.2769600872717943
0.2821379436610982
0.2973622570324213
0.2634548801737396
0.2629450994028846
0.2588575600418201
0.2680360660753664
0.258146759535176
0.2516078844561958
0.2376535928227526
0.2330812821184153
0.2537299426031742
0.2402838251546635
0.2167389599931204
0.1875799694680161
0.2465604897887383
0.2298995278295215
0.1990007850635561
0.1311076966131169
0.2410505510877054
0.22559816654165
0.1852430912481026
0.08691818719033624
0.2363159555613003
0.223241640682817
0.1728892375871622
0.05198502326057307
0.05321559156359702
0.1741785311127158
0.2213941547970132
0.2320721909262963
0.0725351120118298
0.1742442836130055
0.2201203745876924
0.2291994058214341
0.0739947414478057
0.1723931461239012
0.2183943613766059
0.227266566439342
0.06823137327327169
0.1690865539664362
0.2169799444969594
0.2262495887287269
0.08121607706147117
0.1750670965781161
0.2166091743459357
0.2244899427054665
0.09692921993801309
0.1821351830980017
0.2169353269297238
0.2234647356690305
0.1160786631504894
0.1914404643707868
0.2176618140421453
0.2234194770612461
0.1390486000850353
0.1994237682496998
0.21883136352088
0.2235311392348166
0.1554765049988166
0.1757859298528992
0.2098486780196248
0.2225128305280021
0.1533133095437781
0.1786600986130536
0.2102829185658008
0.2224898213536284
0.1489453123687332
0.1829368657978937
0.2113252059828655
0.2224888334758411
0.1437273099455943
0.1876059687662828
0.2129160304212037
0.2226132218388455
0.1390486000850662
0.1994237682497194
0.2188313635206072
0.2235311392340155
0.1160786631507144
0.1914404643700699
0.2176618140416519
0.2234194770598649
0.09692921993807486
0.1821351830978163
0.216935326929096
0.2234647356681301
0.08121607706157305
0.1750670965774607
0.2166091743456562
0.2244899427050945
0.2320721909267524
0.2213941547971849
0.1741785311124821
0.05321559156279056
0.229199405821251
0.2201203745876046
0.1742442836124674
0.07253511201113065
0.2272665664395817
0.2183943613770644
0.1723931461229751
0.07399474144769881
0.2262495887290812
0.2169799444975477
0.1690865539663337
0.06823137327313447
0.05198502326053574
0.1728892375870592
0.223241640682956
0.2363159555616018
0.08691818718996093
0.1852430912481219
0.225598166541798
0.2410505510875391
0.1311076966127831
0.199000785064311
0.2298995278297535
0.2465604897894888
0.1875799694683126
0.2167389599927557
0.2402838251537542
0.2537299426038191
0.2688482575634992
0.2915294790448008
0.3056281029071254
0.3202638244144208
0.267471012563832
0.2769600872715656
0.2821379436617329
0.297362257032102
0.2634548801730957
0.2629450994027232
0.2588575600419431
0.2680360660753376
0.258146759535066
0.2516078844557489
0.2376535928223797
0.2330812821187372
0.3360857416231652
0.3272445270439699
0.2987922005409437
0.2586679491358206
0.3493506668361151
0.3444410068551395
0.2966029658846082
0.2469824151305454
0.361891116411805
0.3484420161550197
0.2820885170323383
0.237372661253396
0.3736731338839494
0.3470976544412844
0.2651511230001156
0.2312645803329593
0.226752429630454
0.2306964368542523
0.2665978186817788
0.3845281537062677
0.2257541558203052
0.2332911600727046
0.286219112876568
0.3841152049258692
0.2261775493491329
0.2392094890491084
0.3116797630727527
0.3875968159430383
0.2277762960689358
0.2496192769226979
0.3348898711520693
0.3832617033923033
0.2268111569840844
0.2269978239419038
0.2274951403819251
0.2275322389492007
0.229279285565922
0.2283256757579538
0.2286240073136613
0.228873544605857
0.2486712971480355
0.2338488082892735
0.2310972116764588
0.231486547822253
0.3573533326907572
0.2954157806877374
0.2365887118231625
0.2257913871665086
0.2272747028832716
0.2289562473068233
0.2323892231142918
0.2255256048784107
0.2268586669946396
0.2289177104124106
0.2336846451835043
0.2263600848812469
0.2263070117279302
0.2287683439459528
0.2349358191795482
0.2270998651887051
0.2257495237475315
0.2284637166245433
0.2358869575714786
0.2284543746348289
0.2241532005146575
0.2252532884195943
0.2347449137317208
0.2436279909775877
0.2243777856454831
0.2262087743494797
0.2358606804532919
0.2366721017377193
0.2247180589624878
0.2272170823948991
0.2365383609956634
0.2331385259810085
0.2251948706938663
0.2279428627579668
0.2365730331428065
0.2308249257252253
0.2560354399981866
0.2311937874323377
0.2244461000749516
0.2240395953936051
0.2574509201185616
0.2291734937257486
0.2242088533980644
0.2240094182713143
0.2568433010942966
0.227652500390735
0.2241022661470018
0.2239988445373493
0.2539939631896967
0.2264583029512475
0.2240201690479791
0.2239955037667449
0.2520202039876182
0.2250683405430985
0.2239977477491611
0.2239952242259381
0.2500085001020568
0.2247513447139539
0.2239968608680059
0.2239950459407107
0.2455343412028459
0.2244566859773461
0.2239953271726675
0.2239950334137216
0.2401924932187169
0.2242817666893639
0.2239951096726445
0.2239950332612173
0.2239950333699093
0.2239950336979472
0.2240219313387104
0.2277382471391257
0.2239950333704065
0.2239950343328749
0.2240283851214913
0.2294906886088168
0.2239950333721685
0.2239950371315927
0.224056738764032
0.2315875419800772
0.2239950333946447
0.2239950499073844
0.2241222555690404
0.2347100003483154
0.2309860367572503
0.2340818303580861
0.2390621629883284
0.2488979073527067
0.2340818303586702
0.2381173189671903
0.2455747218589538
0.2600340269805809
0.2390621629885981
0.2455747218587882
0.2575888221162917
0.274861625200794
0.2488979073531542
0.260034026979708
0.2748616252016672
0.2928127669450306
0.3104166545273652
0.2953225164430352
0.2891128243154232
0.2745362834880607
0.3072131086826975
0.3028630765743349
0.3034057917521214
0.2963689460168578
0.3073449017247099
0.3059054978673378
0.3051217410191722
0.3025786831455277
0.3028575808645306
0.3020909003669174
0.301804931039259
0.3000916509843603
0.2950240287624202
0.2917401342974716
0.2853881323845857
0.2766609317351442
0.2958574620418822
0.2924022350559256
0.2858384081459278
0.2774974349848386
0.2966769112573636
0.2929358281040873
0.2859251265662851
0.2782979045281733
0.2970753934063263
0.2928005545250645
0.2862005386821453
0.2758410584863598
0.2263160478537735
0.2042670235873599
0.2017444408326305
0.2026249139282489
0.2115210415422481
0.1977466511527216
0.1990277304036624
0.2006370640288281
0.1993451702291459
0.1972927159822647
0.2000145291066294
0.2014855543601353
0.1809417610035346
0.1925853793758157
0.1978577496387023
0.1999101870821314
0.2023252894714775
0.2029380223437562
0.2046256906997404
0.2066685629316058
0.2009345423271898
0.2018168224286461
0.2037636337481485
0.2063169937806312
0.2016265690075265
0.2022706898369802
0.2039852642787944
0.2060234850384821
0.2003334502239963
0.2011786205375827
0.2033035568081908
0.2060925126067562
0.2180898545606741
0.2812247335541631
0.3614444404767875
0.3822065496548599
0.222932706738417
0.2927332768650766
0.3544348593580803
0.367446736795103
0.2263445019722769
0.2975606964394271
0.3517793789563908
0.3643076504069957
0.228371757091165
0.3061292922468121
0.3524200711364707
0.3640316995498623
0.4398969943081747
0.430065287525419
0.4215544208630905
0.4060840845070012
0.4369341733169879
0.4303675031493513
0.4218068504783424
0.4064953836440027
0.4312653495523617
0.4288336240738904
0.4202849643660601
0.4055025567974079
0.4223955096929374
0.4303391201082505
0.4216465071063852
0.4068340281017531
0.3875012927390399
0.3713087828754932
0.355540797701324
0.3469265970917189
0.3887682589269074
0.3719724894738141
0.355532814972354
0.3465954191220394
0.3881572775464506
0.3703910460580083
0.3547423436727352
0.3453439315860817
0.3906692767635348
0.3717218284488468
0.3564605831850573
0.3464652023249783
0.3381631167291871
0.3240654010489576
0.3003142759233423
0.2623605677929259
0.338763354083907
0.3267217340190539
0.3038970651187548
0.2701430977315533
0.3380921627088502
0.3272109863062815
0.3035346356167757
0.2700298525256801
0.3396839281892592
0.330505732675788
0.3044648050320093
0.3119512363347013
0.1731391511036469
0.05034376059921836
0.008911912066926139
0.004212777763582213
0.1365655387393812
0.03448458695407421
0.01027398016674362
0.008104218085826797
0.103754584300785
0.02499453564682496
0.01089995597068291
0.009786673470918945
0.07437612568779672
0.01516458850343432
0.01060712173820731
0.01059517313033622
0.007180884100319828
0.0143955576648906
0.02016572672464878
0.02856985096585983
0.01249883929883752
0.01872658151124697
0.0247176748130148
0.03400879283085063
0.01535748267721922
0.02183511305752851
0.02993097558986117
0.03977556577337257
0.01757987421445355
0.02469619755525302
0.03513800444611316
0.04478697658244812
0.03597863299185362
0.05195652345459099
0.07156273998648875
0.09542404020725752
0.03896833542773862
0.05280892414287539
0.07024355574955861
0.09111895392263662
0.04275489690492022
0.05287650491829218
0.06805800350053279
0.08778031729538052
0.04171624096742892
0.04958587886657739
0.05995646456502349
0.08265004996548604
0.09972278217909127
0.09878545939662316
0.09918752761854775
0.1010378483972985
0.09008940075839764
0.09155976561926543
0.09365985481524448
0.09517702594880138
0.08610360156170929
0.09010300593203852
0.09206421518729974
0.09461475254820771
0.08127597074423912
0.08658441340519804
0.08919854698727252
0.09399552227140652
0.09891495216924295
0.1032401398668037
0.1060218335728107
0.1069889440566696
0.09791345931725745
0.1011867755994249
0.1034641708130532
0.1045903164499992
0.09812565277714277
0.1013573442500745
0.1046579999364541
0.1063073843150109
0.1051230983067863
0.1089087323921462
0.1123102748703931
0.1130949378494658
0.1069889440566841
0.1045903164499908
0.1063073843150226
0.1130949378494568
0.1060218335728772
0.1034641708130464
0.1046579999364605
0.1123102748703855
0.1032401398668148
0.1011867755995442
0.1013573442502692
0.1089087323921882
0.09891495216951261
0.09791345931727151
0.09812565277727439
0.1051230983068455
0.1010378483976299
0.0991875276186452
0.09878545939675278
0.09972278217918748
0.09517702594886006
0.09365985481536626
0.09155976561932505
0.09008940075849474
0.09461475254841047
0.09206421518758935
0.09010300593212646
0.08610360156185627
0.09399552227151613
0.08919854698736977
0.08658441340534695
0.08127597074438503
0.08265004996571589
0.05995646456537241
0.04958587886685002
0.04171624096767021
0.08778031729557469
0.06805800350067044
0.0528765049185655
0.04275489690528975
0.09111895392282038
0.07024355574981424
0.05280892414315017
0.03896833542798885
0.09542404020740367
0.07156273998676634
0.05195652345475946
0.03597863299224785
0.02856985096603556
0.02016572672473705
0.01439555766481635
0.007180884100260645
0.03400879283101556
0.02471767481315058
0.01872658151123933
0.01249883929884627
0.03977556577354766
0.02993097559005903
0.02183511305752056
0.01535748267721314
0.04478697658261405
0.03513800444622224
0.02469619755529811
0.01757987421445288
0.004212777763495523
0.008911912066764293
0.05034376059881948
0.1731391511033826
0.00810421808582
0.01027398016667971
0.03448458695386578
0.1365655387392845
0.009786673470916708
0.01089995597063641
0.02499453564679207
0.1037545843007879
0.01059517313030602
0.01060712173815965
0.01516458850340234
0.07437612568775599
0.2623605677928982
0.300314275923153
0.3240654010480511
0.3381631167292571
0.2701430977310318
0.3038970651180342
0.3267217340186963
0.3387633540829202
0.2700298525256505
0.3035346356164369
0.3272109863070054
0.3380921627086281
0.3119512363346213
0.3044648050313021
0.3305057326764108
0.3396839281887736
0.346926597091237
0.355540797700488
0.371308782875127
0.387501292737584
0.346595419121588
0.355532814972357
0.3719724894720801
0.3887682589255265
0.345343931586496
0.3547423436718004
0.3703910460567118
0.3881572775454506
0.3464652023243573
0.356460583184626
0.3717218284481075
0.39066927676266
0.4060840845061867
0.4215544208627721
0.4300652875250754
0.4398969943085707
0.4064953836435443
0.4218068504778394
0.4303675031486853
0.4369341733173716
0.4055025567973445
0.4202849643657084
0.4288336240739125
0.4312653495521709
0.4068340281017404
0.4216465071062177
0.4303391201071788
0.4223955096938642
0.3822065496548704
0.3614444404763668
0.2812247335543373
0.2180898545612579
0.3674467367950049
0.3544348593578581
0.292733276865222
0.2229327067389912
0.3643076504069319
0.3517793789562541
0.2975606964395051
0.2263445019728742
0.3640316995490104
0.3524200711363424
0.3061292922468941
0.2283717570917873
0.2066685629319616
0.204625690698986
0.2029380223425933
0.2023252894705306
0.2063169937810846
0.2037636337479592
0.2018168224275452
0.2009345423267279
0.2060234850390042
0.2039852642785087
0.2022706898359469
0.2016265690071146
0.2060925126072688
0.2033035568076962
0.2011786205365202
0.2003334502232221
0.2026249139273076
0.2017444408319053
0.2042670235875656
0.2263160478539861
0.2006370640279115
0.1990277304028145
0.1977466511531394
0.2115210415423687
0.2014855543592352
0.2000145291057948
0.1972927159828126
0.1993451702292006
0.1999101870812184
0.1978577496377028
0.1925853793763629
0.1809417610036881
0.2766609317351496
0.2853881323845237
0.2917401342979012
0.2950240287621681
0.2774974349848553
0.2858384081464838
0.2924022350559483
0.2958574620413453
0.2782979045282172
0.2859251265662299
0.2929358281040094
0.2966769112570329
0.2758410584863101
0.2862005386827971
0.2928005545257372
0.2970753934060529
0.300091650983372
0.3025786831435606
0.2963689460156883
0.2745362834879517
0.3018049310375663
0.3051217410179785
0.3034057917500323
0.2891128243143964
0.302090900365758
0.3059054978657473
0.3028630765723757
0.29532251644111
0.3028575808632433
0.3073449017234175
0.3072131086799424
0.3104166545241537
0.1499153110620582
0.2006579375381639
0.2185670087718803
0.2235520845698152
0.1465636396708588
0.1988682586422566
0.2174185884250186
0.223352362178125
0.143523778512733
0.1964072308702194
0.2163008213948686
0.2231149381786442
0.1411689944459248
0.1921316855739937
0.2146289077006361
0.2228457107284812
0.2225128305278633
0.2098486780197028
0.1757859298528159
0.1554765049991132
0.2224898213533836
0.2102829185657319
0.1786600986128966
0.1533133095437413
0.2224888334757016
0.2113252059830003
0.1829368657976751
0.1489453123689321
0.2226132218385191
0.2129160304209825
0.1876059687661317
0.1437273099458178
0.2228457107279005
0.2231149381784501
0.2233523621774478
0.2235520845689197
0.2146289077000396
0.2163008213946345
0.217418588423984
0.2185670087709997
0.1921316855742574
0.1964072308698702
0.1988682586424439
0.2006579375385255
0.1411689944459591
0.1435237785126098
0.1465636396708515
0.1499153110622772
)
;

boundaryField
{
    back
    {
        type            empty;
    }
    inlet
    {
        type            calculated;
        value           nonuniform List<scalar> 
16
(
0.2239950333699092
0.2239950333702082
0.2239950333717012
0.2239950333941023
0.223995033259515
0.2239950334139612
0.2239950459401247
0.2239952242250021
0.2239952242259381
0.2239950459407107
0.2239950334137216
0.2239950332612173
0.2239950333699093
0.2239950333704065
0.2239950333721685
0.2239950333946447
)
;
    }
    front
    {
        type            empty;
    }
    top
    {
        type            calculated;
        value           nonuniform List<scalar> 
40
(
0.2239955037664995
0.2239988445373678
0.2240094182713184
0.2240395953931114
0.2241532005147848
0.2243777856457418
0.2247180589616927
0.2251948706941007
0.2257495237480867
0.2263070117279044
0.2268586669953966
0.2272747028827153
0.2275322389490945
0.2274951403811203
0.226997823942148
0.2268111569839577
0.2267524296307375
0.2257541558193564
0.2261775493476108
0.2277762960686177
0.2312645803329225
0.2373726612525359
0.2469824151302883
0.2586679491341949
0.2688482575625799
0.2674710125639315
0.2634548801737396
0.258146759535176
0.2537299426031742
0.2465604897887383
0.2410505510877054
0.2363159555613002
0.2320721909262963
0.2291994058214341
0.227266566439342
0.2262495887287269
0.2244899427054664
0.2234647356690305
0.223419477061246
0.2235311392348166
)
;
    }
    outlet
    {
        type            calculated;
        value           uniform 0.2239950333699093;
    }
    bottom
    {
        type            calculated;
        value           nonuniform List<scalar> 
40
(
0.2235311392340155
0.2234194770598649
0.2234647356681301
0.2244899427050945
0.2320721909267524
0.229199405821251
0.2272665664395817
0.2262495887290812
0.2363159555616018
0.2410505510875391
0.2465604897894887
0.2537299426038191
0.2688482575634992
0.267471012563832
0.2634548801730957
0.258146759535066
0.2586679491358206
0.2469824151305454
0.237372661253396
0.2312645803329593
0.226752429630454
0.2257541558203052
0.2261775493491329
0.2277762960689358
0.2268111569840844
0.2269978239419038
0.2274951403819251
0.2275322389492008
0.2272747028832716
0.2268586669946396
0.2263070117279302
0.2257495237475315
0.2241532005146575
0.2243777856454831
0.2247180589624878
0.2251948706938663
0.2240395953936052
0.2240094182713143
0.2239988445373493
0.2239955037667449
)
;
    }
    wall
    {
        type            calculated;
        value           nonuniform List<scalar> 
104
(
0.3104166545273652
0.3072131086826975
0.3073449017247099
0.3028575808645306
0.2970753934063263
0.2928005545250645
0.2862005386821453
0.2758410584863598
0.1809417610035346
0.1925853793758158
0.1978577496387023
0.1999101870821314
0.2003334502239963
0.2011786205375827
0.2033035568081908
0.2060925126067562
0.228371757091165
0.3061292922468121
0.3524200711364707
0.3640316995498623
0.4223955096929374
0.4303391201082505
0.4216465071063852
0.4068340281017531
0.3906692767635348
0.3717218284488468
0.3564605831850573
0.3464652023249783
0.3396839281892592
0.330505732675788
0.3044648050320093
0.3119512363347013
0.07437612568779672
0.01516458850343432
0.01060712173820731
0.01059517313033622
0.01757987421445355
0.02469619755525302
0.03513800444611316
0.04478697658244812
0.04171624096742892
0.04958587886657739
0.05995646456502349
0.08265004996548604
0.08127597074423912
0.08658441340519804
0.08919854698727252
0.09399552227140653
0.09891495216924295
0.1032401398668037
0.1060218335728107
0.1069889440566696
0.1069889440566841
0.1060218335728772
0.1032401398668148
0.09891495216951261
0.09399552227151613
0.08919854698736977
0.08658441340534695
0.08127597074438503
0.08265004996571589
0.05995646456537241
0.04958587886685002
0.04171624096767021
0.04478697658261405
0.03513800444622224
0.02469619755529811
0.01757987421445288
0.01059517313030602
0.01060712173815965
0.01516458850340234
0.07437612568775599
0.3119512363346213
0.3044648050313021
0.3305057326764107
0.3396839281887736
0.3464652023243573
0.356460583184626
0.3717218284481075
0.39066927676266
0.4068340281017404
0.4216465071062177
0.4303391201071788
0.4223955096938642
0.3640316995490104
0.3524200711363424
0.3061292922468941
0.2283717570917873
0.2060925126072688
0.2033035568076962
0.2011786205365202
0.2003334502232222
0.1999101870812184
0.1978577496377028
0.1925853793763629
0.1809417610036881
0.2758410584863101
0.2862005386827971
0.2928005545257372
0.2970753934060529
0.3028575808632433
0.3073449017234175
0.3072131086799424
0.3104166545241537
)
;
    }
}


// ************************************************************************* //
