/*--------------------------------*- C++ -*----------------------------------*\
  =========                 |
  \\      /  F ield         | OpenFOAM: The Open Source CFD Toolbox
   \\    /   O peration     | Website:  https://openfoam.org
    \\  /    A nd           | Version:  11
     \\/     M anipulation  |
\*---------------------------------------------------------------------------*/
FoamFile
{
    format      ascii;
    class       volScalarField;
    location    "0.35923635";
    object      T;
}
// * * * * * * * * * * * * * * * * * * * * * * * * * * * * * * * * * * * * * //

dimensions      [0 0 0 1 0 0 0];

internalField   nonuniform List<scalar> 
880
(
500.0000000000027
500.000000292371
500.0240607150136
503.3408016141606
500.0000000004407
500.0000008570672
500.0298643906667
504.8871322732918
500.0000000016358
500.0000033381324
500.0553415360703
506.7156512900038
500.0000000211684
500.0000146206814
500.1147618191138
509.4284004087623
499.9999999006574
500.000000075423
500.0000101662616
500.0001636970104
500.000067157928
500.0002570915196
500.0016144280948
500.0023566125581
500.263363034628
500.4347007606813
500.7186538879922
500.9607587990099
514.9178250135218
521.1125519384715
526.3742618296599
529.0291890367963
500.0004089506912
500.0033846898205
500.0128251456596
500.0397781049822
500.022791465498
500.0985662215054
500.2005079764784
500.422020773798
502.4155782457728
503.6983901498931
505.2861492765977
507.230717364307
531.2573030388584
533.8983957794252
534.3925847816307
533.164017158039
522.8401829884419
517.6388979207923
515.4439799674784
513.9695439701064
511.0475096850483
512.6641759564042
513.5779415494146
513.707559771068
501.1772371842591
502.0603074583325
503.0083154004793
503.7665788741684
500.141146536684
500.3405988079365
500.6412549713326
501.0639187997737
501.5574428765605
502.0498923801621
502.5356011220171
502.8872398218693
504.3928320003367
504.749008389926
504.9504668765445
504.9005745213825
513.0678946270414
512.1692314950676
510.9866154058655
509.7491177741491
512.2219232981703
511.032336559654
510.2808463037064
509.5129910336893
508.9400038813308
508.8784206685584
504.7597771866102
503.0953017155637
519.1986870208315
508.0402800354273
504.3860278477904
503.0560695721562
571.3184420044232
510.4333400352294
503.9291949267384
502.6034251864768
620.3437927394227
523.8956508231017
504.7805023249531
502.44487788583
502.3965363037173
506.0674106616712
539.6772786374996
637.4092230485995
501.5158530635909
508.5903168909306
556.3028068157672
635.1891511156608
501.8918336760131
514.4421594233802
576.6103761251215
636.1937816652494
503.3246145540539
524.8673247221491
594.7477653234598
633.4377853955081
628.3167963338414
604.8052575087718
539.8155527083251
506.4864438244499
621.8130772741325
607.4544001714423
554.9979153244963
512.1639405188587
614.4986938818738
605.2839198039231
566.994606888973
521.1590398447361
606.6428220791565
594.2587678083806
569.0866724700478
532.089487711683
541.29200149801
563.599314179649
579.7592216330946
597.153632733994
539.8327379476818
552.0558955853398
562.8277667887978
582.2094026567345
535.8351759525023
540.3214279816158
544.5106018035831
560.5778534803392
530.6371107640676
529.835543944916
525.3122857830521
530.4062878758889
526.7522590687228
520.4504658991651
508.4952254281744
495.5316964167142
520.5910696578742
511.2779696456012
491.9682095029857
459.8351013063175
515.7629327417496
506.0172364818963
477.9303741613624
425.120362308352
511.5881903358371
504.583165845228
477.6782833380191
399.8644638229165
410.5412729264003
486.8263489534522
503.260930482269
507.76836566167
477.9404186432633
493.0371292402201
502.4041465961876
505.1697860787593
517.2613457096471
495.7346064237864
500.87348321116
503.3598654735813
530.1724453247373
500.4061410010681
500.2272596655517
502.2904874249803
539.0029337344967
504.3270433171646
498.9655237486858
500.3929324116585
533.7937129732592
504.2973776733272
497.6634668986455
499.2219070723996
525.7949130625091
503.4849391991963
497.2753766620283
499.1942448539224
517.7068326761849
499.1155202790356
497.0794057826006
499.4039051283776
479.7735600955177
469.4022688579147
488.9354870181413
498.6805590000251
474.2556840452847
471.2942416740032
489.424631922924
498.680399789643
465.2303284284439
473.4182817270594
490.3269375368237
498.6945702896055
459.5023591464654
476.2501657862505
491.3790917254013
498.7839123447267
517.7068326762399
499.1155202786615
497.079405782897
499.4039051281143
525.794913062576
503.4849391985238
497.2753766619414
499.1942448529855
533.7937129732892
504.2973776727213
497.66346689749
499.2219070715249
539.0029337345903
504.327043316224
498.9655237484544
500.3929324111714
507.7683656618888
503.2609304825922
486.8263489536195
410.5412729254328
505.1697860786147
502.404146596236
493.0371292406109
477.9404186422459
503.3598654736524
500.8734832114084
495.7346064229462
517.2613457095065
502.2904874249185
500.2272596659753
500.4061410004717
530.1724453250811
399.8644638254466
477.6782833380543
504.5831658454239
511.5881903360265
425.1203623082783
477.9303741613372
506.0172364823258
515.7629327416328
459.8351013063033
491.9682095037763
511.277969645676
520.5910696581249
495.5316964172038
508.4952254278979
520.4504658985156
526.7522590688529
541.2920014981012
563.5993141802563
579.7592216337372
597.1536327344813
539.8327379472236
552.0558955850084
562.8277667890158
582.2094026573367
535.8351759517573
540.3214279813341
544.5106018035486
560.5778534806935
530.637110763835
529.8355439444744
525.3122857827478
530.4062878763335
606.6428220795332
594.2587678088521
569.0866724703404
532.0894877126221
614.4986938824081
605.2839198043877
566.9946068890787
521.1590398446649
621.8130772746568
607.4544001718548
554.9979153241775
512.1639405189302
628.3167963343604
604.805257509132
539.8155527087648
506.486443824332
502.3965363035135
506.0674106616085
539.6772786373765
637.4092230487372
501.5158530643106
508.5903168913156
556.3028068158693
635.1891511158885
501.8918336770099
514.44215942445
576.6103761255789
636.193781665231
503.3246145540627
524.8673247220373
594.7477653240757
633.4377853957091
502.4448778856594
502.6034251862816
503.056069572729
503.0953017157106
504.7805023242433
503.9291949263901
504.3860278479098
504.7597771864346
523.8956508223542
510.433340035158
508.0402800348729
508.8784206684177
620.3437927393467
571.3184420040228
519.1986870209895
508.9400038812007
502.8872398223847
504.9005745217422
509.7491177745238
509.5129910339721
502.5356011218212
504.9504668768675
510.9866154060535
510.2808463038916
502.0498923801575
504.7490083901355
512.1692314951475
511.0323365590352
501.5574428761332
504.3928320000963
513.0678946272321
512.221923298333
500.1411465361469
501.1772371839212
511.0475096854414
522.8401829887889
500.3405988073625
502.0603074579222
512.6641759569095
517.638897920797
500.6412549718151
503.0083154000204
513.5779415498397
515.4439799666292
501.0639187993324
503.7665788741079
513.7075597712173
513.9695439696609
533.164017158073
507.2307173645345
500.4220207737094
500.0397781053173
534.3925847817366
505.2861492767509
500.2005079762096
500.0128251455162
533.8983957797763
503.6983901497535
500.0985662202837
500.003384689416
531.2573030390843
502.4155782454093
500.022791465118
500.0004089511937
529.0291890365588
500.9607587993612
500.0023566127639
500.0001636977393
526.3742618291684
500.7186538880296
500.0016144278505
500.0000101667497
521.1125519378529
500.4347007606336
500.0002570912513
500.0000000750825
514.917825013034
500.2633630344614
500.0000671573235
499.999999901189
500.0000000001753
500.0000002925185
500.0240607149418
503.3408016139353
500.0000000005271
500.0000008567644
500.029864390741
504.8871322732265
500.0000000018922
500.0000033379117
500.0553415361329
506.7156512904881
500.0000000219067
500.0000146205103
500.1147618192047
509.4284004090667
506.2254287947873
508.9278549124919
513.2491885129929
521.8955404055312
508.9278549129413
512.3867460064049
518.7555207601462
531.332064429855
513.2491885132878
518.7555207602007
528.8805748606246
544.0768155113822
521.8955404056267
531.3320644296812
544.0768155119539
560.2595138037101
577.2416235258997
564.2359344686952
557.3544555798421
544.9498507822781
575.4561293616307
571.5456343526778
570.3314374673099
564.6288522891718
575.3921764784432
574.32174650173
573.7613745641905
572.0573475241572
571.9799617371611
571.5450654296607
571.6839772415088
570.9796898536229
567.8988620321451
565.5535425096263
560.4612886319546
553.2864654712262
567.5583348298549
565.1532508515502
560.2395042208434
553.9644434113586
567.574733037182
564.9925009996946
559.9824152763968
554.5583765126727
567.6370652546318
564.7358984468477
560.1859920052741
550.9724952974864
512.3813732021935
492.809900011338
489.9499495284684
490.4503180930952
501.8264795112003
488.7084392766179
489.9704889580722
491.0967708766383
491.5798235730986
488.8778078520356
491.5593600200036
492.8374067737117
469.926705528012
484.1233558217858
489.9013156495066
491.5987571535059
490.793182859863
491.8104990486768
493.332753458563
494.8470073551774
491.003904040313
491.4808066647681
492.8627202957222
494.8616040204704
492.3164349805452
492.3386268812039
493.2673267455201
494.7357278569309
491.2483033732923
491.419499710425
492.7258532056756
494.840411911151
505.0243431490244
567.6798051937501
639.3619526309438
664.5433318983463
510.9450408060875
581.1660940989678
642.0080181119846
660.2510590976065
516.4243023419311
589.4971462311483
641.9780829634207
660.9494102918763
520.2334893294357
597.7649263802565
642.1826448907856
661.3624073385619
694.3007534513814
681.4452471024828
670.1398959184088
656.8750420745347
702.7508891495811
690.0067992779951
676.8981983934773
662.5492585783488
708.7285438038543
697.4718297710392
683.0150046731579
668.0406243575013
706.6523178030359
701.2939151014122
687.1940523811074
671.8351349846355
643.6160679127166
633.0270493893241
623.2182202819909
618.9683199198801
648.7145405296227
637.1076979551212
625.9496142931315
621.0677481076935
653.8779798858542
640.6180420176568
629.5060477280012
623.1776875493763
658.2966697132497
643.6924528897072
632.9968042393277
625.5984423146788
615.0674017868564
607.646270314711
590.9805850888714
565.0079858880068
616.8448346509512
609.23477865994
593.7784182053903
592.6504777680601
617.8389781953407
610.1545416317397
602.7703048788782
620.4156244721386
619.7334446824547
614.0057296858181
616.3505093537237
603.9811707335506
522.5289934244886
460.1974113577235
422.6671965475234
426.5678637710869
512.067152249362
421.9834329022391
305.5286244855258
252.9710902127772
468.7318147780004
368.1012333450578
252.1784406669547
231.8540337607573
368.0076668100348
282.585923569653
227.8297938139055
239.5912371729828
376.1248980346496
403.9270384813232
471.0876579472045
522.9243939344003
306.4933004970666
380.3610938160305
441.818882195244
491.7073255170075
291.6674101491791
350.9021650549974
404.401318450454
445.1310478195543
298.9377646147431
351.4328693874721
402.1235353282292
431.1499680150874
487.0604544123821
510.345629597785
509.2794823647634
509.6869244044573
435.77322611404
473.9286763195254
492.6749003312062
510.5671247416616
407.3530992071188
432.9142157966181
470.5545857418217
514.174309182668
392.4921049500209
408.2738654577096
445.0625636206379
512.9338630352167
491.826111297702
470.6133140022883
459.3926198860263
459.7032221998182
495.1783202371563
486.0219858902047
482.0171130589407
475.8952865038118
504.2370817152706
507.4084184900589
501.6103029542166
488.6176823935702
503.6016061303162
508.6045585807636
498.7249609923899
484.0920418228901
465.9311661269993
450.6272710273798
442.2371808962848
439.8954612199588
471.5290355713515
455.6885947020698
444.4202315631995
441.0563749919047
469.7953991385882
461.295694700754
452.6149194410785
448.9984647969073
462.8007040348371
460.220406477465
455.4795865866706
452.3449338951562
439.895461219923
441.0563749918741
448.9984647969326
452.3449338952481
442.237180896117
444.42023156305
452.6149194410775
455.4795865869254
450.6272710271036
455.6885947017866
461.2956947006502
460.2204064776569
465.9311661265734
471.5290355711577
469.7953991384987
462.8007040349906
459.7032221999394
459.3926198860461
470.6133140025927
491.8261112979154
475.8952865038442
482.0171130590344
486.0219858904986
495.1783202373783
488.6176823933828
501.6103029540632
507.4084184901342
504.237081715335
484.092041822662
498.7249609922998
508.6045585806867
503.6016061302842
512.9338630353163
445.0625636210577
408.2738654583213
392.492104950629
514.1743091827727
470.5545857422769
432.9142157972091
407.3530992078253
510.5671247418313
492.674900331524
473.9286763200702
435.7732261149291
509.6869244045946
509.2794823649541
510.3456295982876
487.0604544130309
522.9243939341932
471.0876579471482
403.9270384798094
376.1248980436998
491.7073255169979
441.8188821954959
380.3610938153773
306.4933004974401
445.1310478198498
404.4013184510564
350.9021650546946
291.66741014898
431.1499680154749
402.1235353287657
351.4328693877974
298.9377646147823
426.5678637928677
422.667196549438
460.1974113577051
522.5289934248093
252.9710902163062
305.5286244854198
421.9834329018346
512.0671522496975
231.8540337609814
252.1784406666064
368.101233345746
468.7318147786758
239.5912371731241
227.8297938133406
282.5859235702562
368.0076668106483
565.0079858883802
590.9805850892701
607.6462703152465
615.0674017871429
592.6504777684007
593.7784182055871
609.2347786601896
616.8448346514316
620.4156244724429
602.7703048788854
610.1545416315648
617.8389781955628
603.98117073438
616.3505093536812
614.0057296855833
619.7334446827138
618.9683199204869
623.2182202823986
633.027049389165
643.6160679127557
621.0677481082183
625.9496142931539
637.1076979548513
648.714540529351
623.1776875495772
629.5060477281747
640.6180420172303
653.8779798855452
625.5984423150932
632.9968042395311
643.6924528895513
658.2966697129298
656.8750420743527
670.139895918
681.4452471021369
694.3007534511282
662.5492585781082
676.8981983934499
690.0067992778849
702.7508891491603
668.0406243571445
683.0150046728592
697.4718297703897
708.7285438039079
671.8351349843078
687.1940523809179
701.2939151013675
706.6523178024559
664.5433318983324
639.3619526306821
567.679805193711
505.024343149486
660.2510590974612
642.0080181117016
581.1660940988718
510.9450408066473
660.949410291646
641.978082963082
589.4971462309485
516.4243023425034
661.3624073388329
642.1826448904507
597.7649263800315
520.2334893299982
494.8470073558287
493.3327534584583
491.8104990479466
490.7931828593921
494.8616040211174
492.8627202955968
491.480806663802
491.0039040398996
494.7357278575735
493.2673267452089
492.3386268802153
492.3164349800169
494.8404119117889
492.7258532053031
491.4194997093726
491.2483033724795
490.4503180923054
489.9499495278426
492.809900011745
512.3813732025627
491.0967708758823
489.9704889572268
488.7084392771414
501.8264795114886
492.8374067729384
491.5593600190334
488.8778078524883
491.5798235733113
491.5987571527018
489.9013156483439
484.1233558221591
469.9267055282321
553.2864654713881
560.4612886321736
565.5535425102935
567.898862031995
553.9644434115929
560.2395042209697
565.1532508521636
567.5583348296262
554.5583765124688
559.9824152763975
564.9925010001498
567.5747330368899
550.9724952974931
560.185992005363
564.7358984470133
567.6370652544055
570.9796898527143
572.0573475230607
564.6288522882362
544.9498507823948
571.6839772405436
573.761374562663
570.3314374656062
557.3544555793525
571.5450654285634
574.3217464999768
571.5456343498427
564.2359344668473
571.9799617362215
575.3921764765759
575.4561293582001
577.2416235222287
505.1314768644748
497.2538236272493
496.8135841230082
499.4842278807793
485.4159934601132
492.0361749256333
495.392664871474
499.34541099401
470.3698343221697
486.3989809245033
493.9791488970254
499.1480453667389
460.1373151803768
480.4285006510125
492.4955471852963
498.9410829597046
498.6805589995942
488.93548701817
469.4022688578402
479.7735600956022
498.6803997892652
489.4246319230493
471.2942416738488
474.2556840456371
498.6945702895811
490.3269375372359
473.4182817267695
465.2303284287548
498.7839123447201
491.3790917256239
476.2501657860134
459.5023591466109
498.9410829594256
499.1480453666379
499.3454109941529
499.4842278808548
492.495547185039
493.979148896833
495.392664870915
496.8135841228661
480.4285006512155
486.3989809247813
492.0361749261875
497.253823627674
460.1373151802003
470.3698343219183
485.4159934601212
505.131476864557
)
;

boundaryField
{
    back
    {
        type            empty;
    }
    inlet
    {
        type            zeroGradient;
    }
    front
    {
        type            empty;
    }
    top
    {
        type            zeroGradient;
    }
    outlet
    {
        type            fixedValue;
        value           uniform 500;
    }
    bottom
    {
        type            zeroGradient;
    }
    wall
    {
        type            zeroGradient;
    }
}


// ************************************************************************* //
