/*--------------------------------*- C++ -*----------------------------------*\
  =========                 |
  \\      /  F ield         | OpenFOAM: The Open Source CFD Toolbox
   \\    /   O peration     | Website:  https://openfoam.org
    \\  /    A nd           | Version:  11
     \\/     M anipulation  |
\*---------------------------------------------------------------------------*/
FoamFile
{
    format      ascii;
    class       volVectorField;
    location    "0.35923635";
    object      U;
}
// * * * * * * * * * * * * * * * * * * * * * * * * * * * * * * * * * * * * * //

dimensions      [0 1 -1 0 0 0 0];

internalField   nonuniform List<vector> 
880
(
(24.99999999999999 -2.80618576761275e-12 0)
(24.99999998203183 -1.217445859477611e-08 0)
(24.99829023033226 -0.0005554033240596287 0)
(24.71736227180583 0.007624646984413661 0)
(24.99999999998872 -2.83139247347709e-11 0)
(24.99999994445427 -7.039861352140973e-08 0)
(24.99747956593842 -0.001722092209223683 0)
(24.63269582644573 -0.159335965901135 0)
(24.99999999963697 -2.437836552789502e-10 0)
(24.99999976102305 -2.871881338253415e-07 0)
(24.99514552103253 -0.003584485645253778 0)
(24.51360181231713 -0.2644844787023192 0)
(24.99999999829957 1.052129374327392e-09 0)
(24.9999988181946 -1.167856236191055e-06 0)
(24.98908576348179 -0.007016796405731517 0)
(24.13724518528755 -0.4137218579458698 0)
(25.0000000111903 -4.114290488990182e-09 0)
(24.99999998001881 8.778769302785307e-09 0)
(24.99999953213299 -9.298557148215405e-07 0)
(24.99999314126271 -1.184381363014668e-05 0)
(24.99999376797667 -4.448703982472947e-06 0)
(24.99996304601736 -1.867020159855176e-05 0)
(24.99985589061928 1.067218946680665e-05 0)
(25.0001747736955 -0.001107686449462568 0)
(24.97171067622331 -0.0101983722425364 0)
(24.9516429069855 -0.006360445969679325 0)
(24.92414652299668 0.01073097594235327 0)
(24.91407768519174 -0.06683446717078786 0)
(23.40264135191987 -0.0954220153850245 0)
(22.69017337143209 0.6348506047935496 0)
(22.26855472621234 1.335027361646259 0)
(22.24430231815709 1.746228951098815 0)
(24.99988402708262 -6.197568468012791e-06 0)
(24.9996066165849 -0.0003640888596206369 0)
(24.99925375271179 -0.001529058336634144 0)
(24.99747569491425 -0.004522243152433214 0)
(24.99801876082708 -0.0006931030961421118 0)
(24.99019679463495 -0.0003535534340560727 0)
(24.9771502708485 0.005493423047780393 0)
(24.95441939160078 0.008911108515615301 0)
(24.75586067901944 -0.01080202803031742 0)
(24.63017775539797 0.09839499406217045 0)
(24.46165097141684 0.2785202199801162 0)
(24.31834644786047 0.406258286301274 0)
(21.98167219148985 2.340708388145313 0)
(21.9873261930686 2.779772419875702 0)
(21.88512168252729 3.317362543299687 0)
(22.33925861726587 3.758410251028149 0)
(23.38567548623482 4.323114830204432 0)
(24.11422363451326 4.17302286588323 0)
(24.45809794249469 3.766267846183053 0)
(24.81732902731036 3.316635019370064 0)
(24.07885865241208 0.7463995744139514 0)
(24.09385714973157 1.104403309754743 0)
(24.19611755900105 1.34948951764141 0)
(24.38213301695615 1.475562228090653 0)
(24.87564064575677 0.03529367894827611 0)
(24.77190251887574 0.1155047841222767 0)
(24.67953936479454 0.2412737688706851 0)
(24.63421402311403 0.3945577024886596 0)
(24.98787370549844 -0.01055573398159152 0)
(24.97236284746526 -0.02426018620617807 0)
(24.95024689682763 -0.04404403925964314 0)
(24.92405116297101 -0.07056223812832713 0)
(24.90149103415236 -0.1010174444077539 0)
(24.88771100276191 -0.1311319305235647 0)
(24.88284621533626 -0.1445275692602934 0)
(24.88832717446372 -0.1379816421651638 0)
(24.6326370278044 0.5574761786114365 0)
(24.67445695413611 0.7120258709937259 0)
(24.76092236896088 0.8382252501570655 0)
(24.87669157054941 0.8925693225198549 0)
(24.54953927905994 1.608774616232582 0)
(24.75257869459976 1.654945835871243 0)
(24.94052645863036 1.627183130965138 0)
(25.09323296022214 1.555466754693641 0)
(24.99115114852897 2.905792221418913 0)
(25.17872769869436 2.489598600736747 0)
(25.29112390206049 2.094358073730238 0)
(25.36345320563401 1.778075684661989 0)
(25.42831508206778 1.377469855370325 0)
(25.24435147506726 1.4537313530245 0)
(24.99916003464253 0.912739244451572 0)
(24.89607449268837 -0.1212258387246869 0)
(24.54805850374788 1.559495157958456 0)
(25.34338538102904 1.289316991237153 0)
(25.14340452627943 0.8617787908097765 0)
(24.90333233120263 -0.09618273562435871 0)
(19.15447216354763 1.728677291659749 0)
(25.15905204352466 1.297214693826485 0)
(25.25814745131652 0.7517607934974219 0)
(24.91621892279977 -0.08053427228083458 0)
(14.12715938408537 2.095955165063589 0)
(23.7023453408927 1.628793943784376 0)
(25.27711928102411 0.7747406873332352 0)
(24.94896426691145 -0.09185089808336221 0)
(24.95452979270709 -0.06679490878566523 0)
(25.2173342174232 0.7182216578817091 0)
(22.05149497159291 2.269344799353478 0)
(12.4898615130222 3.860297724146184 0)
(24.83136615941525 -0.08882842342280374 0)
(24.99459939207434 0.8082350552710743 0)
(20.60602186462782 3.314549992547069 0)
(12.7985901854709 5.640548860679392 0)
(24.78950769339837 -0.1158504310714551 0)
(24.47445481049828 1.156894994740756 0)
(18.82499130347052 4.649466731782855 0)
(12.64753410005931 7.078642181489475 0)
(24.69831929555675 -0.1634658703372549 0)
(23.59935574448154 1.928802961682052 0)
(17.58778077773384 6.058360611844394 0)
(13.1358337048152 8.144180237895625 0)
(14.04754520048776 8.855731549708597 0)
(16.96792696255328 7.293791285946292 0)
(22.43004618514807 3.156612845351944 0)
(24.51832200379291 -0.1864962848635871 0)
(15.13572920896227 9.393297640782791 0)
(17.24088233149245 8.219371416488308 0)
(21.21731415814516 4.641921771506643 0)
(24.19845441700368 -0.07130128542651806 0)
(16.37658877285474 9.684268621645957 0)
(18.1105536888046 8.754313184636583 0)
(20.70756468470529 5.995904808657655 0)
(23.69389456836192 0.2364126781095674 0)
(17.54806255984021 9.756789806155144 0)
(19.39761831003969 8.85412878565463 0)
(20.87608989346801 7.035966193296544 0)
(23.1962880719949 0.7229085283941938 0)
(22.91098643294093 0.8509577377941951 0)
(22.04904084295972 7.091141423667673 0)
(21.12108819549337 8.806653697628294 0)
(18.9638583803453 9.897793074718193 0)
(23.45622317393758 0.6463791188914876 0)
(23.50851305914316 6.648119612987835 0)
(23.10798207817728 8.415244421337494 0)
(20.90706418611414 9.810493179584675 0)
(24.0400062972457 0.3441117588253977 0)
(24.93162753378385 5.875073550325696 0)
(25.19364604636583 7.620151595751977 0)
(23.44735697414034 9.2382759140364 0)
(24.51868716222176 -0.2494444531479229 0)
(26.06332551918506 4.606849728384923 0)
(27.16639000495692 6.226687943529811 0)
(26.40059954280411 7.616386257293662 0)
(24.88419521294205 -0.3075642559904733 0)
(26.92925978666622 3.628093191851215 0)
(29.04979468368884 4.804324949203592 0)
(30.68346551863394 4.75902667236313 0)
(25.30046769616633 -0.498950923759653 0)
(27.4976574480682 2.601741115733874 0)
(30.11084382351453 3.390622802188907 0)
(34.00251425097667 0.7046178245932073 0)
(25.54327270018558 -0.5425569715254357 0)
(27.54995701700884 1.647316871465497 0)
(30.83476491555249 1.256058941996627 0)
(36.34819564462132 -4.253945404640596 0)
(25.65369141504389 -0.5437362518750343 0)
(27.22445182434505 1.022791076862397 0)
(30.31236489249153 -0.3107765253845204 0)
(37.77928407378043 -9.251895756159641 0)
(34.01923216758316 -7.328037073666969 0)
(29.13039997281872 -1.417306728549186 0)
(26.94232764223828 0.3554884200363917 0)
(25.69371214246443 -0.5467489454376459 0)
(25.63444409262947 -3.215016760826933 0)
(28.24646246505269 -1.936569088467711 0)
(26.64810759424236 -0.1001440809824418 0)
(25.62905279205196 -0.4720538224105211 0)
(23.08905253021793 -3.612739272306529 0)
(27.75005881786721 -2.841728188105283 0)
(26.39349532475035 -0.5594311042402031 0)
(25.5062659595464 -0.3592882432659624 0)
(19.90312002763259 -3.659482664216438 0)
(26.97782746378379 -3.450133721178872 0)
(26.0493051767175 -0.9532378160178753 0)
(25.38979586672542 -0.275104674738661 0)
(18.08527643356193 -4.76015724138801 0)
(25.72428266573669 -4.391146187330018 0)
(25.48601397495483 -1.289822755954555 0)
(25.1802170695435 -0.2156686577190258 0)
(15.433248359196 -6.813631176624327 0)
(24.08648946121824 -4.635058384494695 0)
(24.89651877441774 -1.125733972893458 0)
(25.00123598471654 -0.107925752828568 0)
(14.3782876308121 -6.976673911522114 0)
(23.02532074205294 -4.048543378802075 0)
(24.65192846190664 -0.7359070949684499 0)
(24.97081078265786 -0.04913538097895197 0)
(14.33666019527823 -5.861275507702716 0)
(22.80033472221814 -3.600469770311695 0)
(24.67303658188337 -0.6014538749692733 0)
(24.97608485543207 -0.03607928507520168 0)
(14.22227284785777 -0.663257908546412 0)
(20.34304536538252 -0.1132472714383388 0)
(23.64826127917144 0.01057966834627576 0)
(24.85559453299614 0.001982440616704726 0)
(14.20386097759059 -1.755759612756958 0)
(20.33968717683032 -0.5377987795802887 0)
(23.66317375078382 0.0006311949867858791 0)
(24.85253756795972 0.004365035532278461 0)
(14.41817930049736 -3.25608506250243 0)
(20.34760068050135 -0.9879021344875105 0)
(23.70249472235562 -0.07175644006887506 0)
(24.85178741972014 0.0002502826909935659 0)
(14.4699937502544 -4.649570406610609 0)
(20.5561992232589 -1.352431792819869 0)
(23.80222866851516 -0.1947167899422703 0)
(24.86017356612717 -0.01139039824646861 0)
(14.33666019529202 5.861275507681961 0)
(22.80033472224285 3.60046977030419 0)
(24.67303658200138 0.6014538749223181 0)
(24.97608485554234 0.03607928505583602 0)
(14.37828763082998 6.976673911490865 0)
(23.02532074213637 4.048543378854717 0)
(24.65192846197096 0.7359070949533074 0)
(24.97081078276387 0.04913538102511966 0)
(15.43324835924207 6.813631176645096 0)
(24.08648946123899 4.63505838453357 0)
(24.89651877440783 1.125733972937694 0)
(25.00123598474813 0.1079257528789259 0)
(18.08527643358946 4.760157241390625 0)
(25.72428266585135 4.391146187401285 0)
(25.48601397497572 1.289822755989105 0)
(25.18021706953128 0.2156686577669601 0)
(25.69371214243194 0.5467489453792113 0)
(26.94232764225134 -0.3554884200706684 0)
(29.13039997284037 1.417306728541252 0)
(34.01923216750795 7.328037073794838 0)
(25.62905279205858 0.4720538223592687 0)
(26.64810759425028 0.1001440809751474 0)
(28.24646246511334 1.936569088473628 0)
(25.63444409270002 3.215016760930655 0)
(25.50626595948281 0.359288243219665 0)
(26.39349532469919 0.5594311042655734 0)
(27.75005881795283 2.841728188237977 0)
(23.08905253014619 3.612739272349771 0)
(25.38979586663407 0.2751046747179536 0)
(26.04930517664676 0.9532378159895095 0)
(26.97782746380613 3.450133721256548 0)
(19.9031200277016 3.659482664244986 0)
(37.77928407383743 9.251895756306656 0)
(30.31236489248226 0.3107765253791437 0)
(27.2244518243639 -1.022791076869751 0)
(25.6536914150232 0.5437362518275954 0)
(36.3481956446313 4.253945404689815 0)
(30.83476491558783 -1.256058941955067 0)
(27.54995701704458 -1.647316871471907 0)
(25.5432727001836 0.5425569715379686 0)
(34.00251425099134 -0.7046178245515902 0)
(30.11084382343424 -3.390622802167365 0)
(27.49765744809185 -2.601741115710264 0)
(25.30046769603224 0.4989509238282693 0)
(30.68346551858286 -4.759026672342094 0)
(29.04979468372793 -4.8043249491737 0)
(26.92925978677776 -3.628093191824513 0)
(24.88419521281292 0.3075642560782206 0)
(22.91098643284987 -0.8509577377748235 0)
(22.0490408428965 -7.091141423670434 0)
(21.12108819544946 -8.806653697631347 0)
(18.96385838036757 -9.897793074720427 0)
(23.45622317392383 -0.6463791188470774 0)
(23.50851305914759 -6.648119612982634 0)
(23.10798207812043 -8.41524442131659 0)
(20.90706418613286 -9.810493179587601 0)
(24.04000629729322 -0.3441117588053506 0)
(24.93162753381568 -5.875073550336047 0)
(25.19364604632348 -7.620151595724477 0)
(23.44735697413603 -9.238275914023051 0)
(24.51868716218416 0.2494444532175701 0)
(26.06332551925495 -4.60684972836289 0)
(27.16639000497544 -6.226687943498715 0)
(26.40059954276403 -7.616386257277884 0)
(17.54806255985947 -9.756789806160505 0)
(19.39761831006116 -8.854128785675309 0)
(20.87608989342813 -7.035966193293706 0)
(23.19628807185886 -0.7229085284103945 0)
(16.37658877289115 -9.684268621666117 0)
(18.11055368884386 -8.754313184651362 0)
(20.7075646846869 -5.99590480866553 0)
(23.69389456833115 -0.236412678106336 0)
(15.13572920897248 -9.393297640795938 0)
(17.24088233155786 -8.219371416494477 0)
(21.21731415816527 -4.641921771481086 0)
(24.19845441691267 0.07130128543352543 0)
(14.04754520052007 -8.855731549711191 0)
(16.96792696255746 -7.293791285914663 0)
(22.43004618506211 -3.156612845318073 0)
(24.51832200377709 0.1864962848651552 0)
(24.95452979274292 0.06679490880839249 0)
(25.21733421743896 -0.7182216578558143 0)
(22.05149497160693 -2.269344799365959 0)
(12.48986151306798 -3.860297724153568 0)
(24.83136615931994 0.0888284234210764 0)
(24.99459939206245 -0.8082350552271791 0)
(20.60602186465357 -3.314549992547482 0)
(12.7985901855126 -5.640548860702831 0)
(24.78950769324387 0.1158504310648231 0)
(24.47445481037105 -1.156894994676739 0)
(18.8249913035152 -4.649466731757844 0)
(12.64753410009141 -7.078642181497287 0)
(24.69831929550753 0.1634658703404328 0)
(23.59935574448784 -1.928802961604603 0)
(17.58778077780334 -6.058360611822106 0)
(13.13583370482591 -8.144180237897951 0)
(24.94896426688919 0.09185089809718232 0)
(24.91621892282571 0.08053427229343586 0)
(24.90333233112433 0.09618273565399918 0)
(24.8960744926794 0.1212258387210501 0)
(25.27711928110305 -0.7747406873347017 0)
(25.25814745138351 -0.751760793488326 0)
(25.14340452619586 -0.8617787907966508 0)
(24.99916003462836 -0.9127392444675487 0)
(23.70234534099043 -1.628793943803728 0)
(25.15905204354547 -1.297214693831209 0)
(25.34338538108822 -1.289316991250178 0)
(25.24435147509264 -1.453731353017221 0)
(14.12715938415147 -2.09595516506726 0)
(19.15447216361424 -1.72867729165543 0)
(24.54805850370563 -1.559495157931917 0)
(25.42831508205987 -1.377469855344741 0)
(24.888327174412 0.137981642172377 0)
(24.87669157048461 -0.8925693224987628 0)
(25.09323296021169 -1.555466754668489 0)
(25.36345320568929 -1.778075684613591 0)
(24.88284621540232 0.1445275692410591 0)
(24.76092236892853 -0.8382252501500635 0)
(24.94052645868195 -1.627183130945205 0)
(25.29112390208862 -2.094358073689321 0)
(24.88771100275213 0.1311319305142589 0)
(24.67445695413076 -0.7120258709416879 0)
(24.75257869463046 -1.654945835881963 0)
(25.17872769874668 -2.489598600736443 0)
(24.90149103420614 0.1010174443268511 0)
(24.63263702784008 -0.5574761785899985 0)
(24.54953927907318 -1.608774616228811 0)
(24.99115114854653 -2.905792221410453 0)
(24.98787370549918 0.01055573389645488 0)
(24.87564064585839 -0.03529367885443881 0)
(24.07885865242905 -0.7463995744063947 0)
(23.38567548623665 -4.323114830182853 0)
(24.97236284748867 0.02426018609023133 0)
(24.77190251895778 -0.1155047840509435 0)
(24.09385714976102 -1.104403309720444 0)
(24.11422363456965 -4.173022865891193 0)
(24.95024689672647 0.04404403923272233 0)
(24.67953936492667 -0.2412737687998692 0)
(24.19611755904993 -1.349489517642454 0)
(24.45809794262149 -3.766267846234793 0)
(24.92405116299642 0.07056223806022284 0)
(24.63421402312837 -0.3945577024350692 0)
(24.38213301704674 -1.475562228056754 0)
(24.81732902735879 -3.316635019394798 0)
(22.33925861729045 -3.758410251015823 0)
(24.31834644784479 -0.4062582863043085 0)
(24.95441939168069 -0.008911108420806946 0)
(24.99747569488403 0.004522243139164122 0)
(21.88512168255868 -3.317362543283972 0)
(24.46165097140695 -0.2785202199841839 0)
(24.97715027090507 -0.005493423009802762 0)
(24.99925375274582 0.001529058305611424 0)
(21.98732619311914 -2.779772419866987 0)
(24.63017775545143 -0.09839499406807904 0)
(24.99019679479085 0.0003535534410615377 0)
(24.99960661657316 0.0003640887379515342 0)
(21.98167219147746 -2.34070838812733 0)
(24.75586067908896 0.01080202802281669 0)
(24.99801876090349 0.0006931031112941776 0)
(24.99988402709568 6.197582735335361e-06 0)
(22.2443023181338 -1.746228951084159 0)
(24.91407768518777 0.06683446717531361 0)
(25.0001747737268 0.001107686468749084 0)
(24.99999314123308 1.184385686408653e-05 0)
(22.26855472616081 -1.335027361633183 0)
(24.92414652300856 -0.01073097594553304 0)
(24.99985589066205 -1.067219030410675e-05 0)
(24.99999953209123 9.298649851021747e-07 0)
(22.69017337128013 -0.6348506048023937 0)
(24.95164290701203 0.006360445960786104 0)
(24.99996304604649 1.867019234899814e-05 0)
(24.99999998004261 -8.824185583866451e-09 0)
(23.40264135169105 0.09542201533801775 0)
(24.97171067629086 0.01019837223725029 0)
(24.99999376809577 4.448717040378791e-06 0)
(25.00000001114298 4.117458165175409e-09 0)
(25.00000000000002 5.954917271339864e-12 0)
(24.99999998201898 1.215774911829814e-08 0)
(24.99829023032633 0.0005554033061606979 0)
(24.71736227177585 -0.007624646827686885 0)
(24.99999999997173 4.182429401512385e-11 0)
(24.99999994453042 7.037514114260863e-08 0)
(24.9974795659111 0.0017220921868455 0)
(24.63269582625848 0.1593359659716373 0)
(24.99999999962681 2.564904539912977e-10 0)
(24.99999976109916 2.871918322498128e-07 0)
(24.99514552104639 0.003584485631899201 0)
(24.51360181196707 0.2644844786329291 0)
(24.99999999828481 -1.026237840141875e-09 0)
(24.99999881823999 1.167868890626518e-06 0)
(24.98908576348738 0.007016796395443106 0)
(24.13724518500705 0.4137218578902656 0)
(24.52527501545411 1.098713949984026e-10 0)
(24.35979748620599 0.1495548207558492 0)
(23.97404974911659 0.1736329267612608 0)
(23.03855677004439 0.01871740682854588 0)
(24.35979748642229 -0.1495548205388869 0)
(24.08843889582635 4.096599778461156e-11 0)
(23.40957887085138 -0.06031083412685859 0)
(21.96067231495712 -0.4863796718882535 0)
(23.97404974956061 -0.1736329266683465 0)
(23.40957887120291 0.0603108342027843 0)
(22.12862515692839 6.328677087370955e-11 0)
(20.03096844495373 -0.5819752012096895 0)
(23.0385567704438 -0.01871740684918287 0)
(21.9606723155029 0.4863796718303554 0)
(20.03096844523949 0.5819752011635643 0)
(17.78919580179075 -2.400774822650906e-10 0)
(17.25879212166844 2.521585289013935 0)
(17.89935868363515 2.917350531538413 0)
(19.54340393525113 2.655844273342316 0)
(21.08694404509399 1.887815155337345 0)
(18.24491753853981 4.246788873061174 0)
(18.30813220838098 4.203003655960847 0)
(19.04066575705633 4.11478226703889 0)
(20.0739843473939 3.952547795730944 0)
(17.68386475339287 5.193202257610662 0)
(18.85058089541666 4.491073888085416 0)
(19.52792997203989 4.691879658464861 0)
(20.05234267288787 4.563750121466868 0)
(18.33526019175972 5.754221050482626 0)
(19.70556153115341 4.717195100403984 0)
(20.20572172162688 4.891233766949879 0)
(20.49070637751978 4.805575239582927 0)
(20.79097054352259 4.932706586670782 0)
(21.02926213361366 5.061731360098022 0)
(21.40435521350597 5.120579856570803 0)
(22.16085119289041 5.280348854962955 0)
(20.72900774183849 4.994248164507401 0)
(21.03869334261731 5.101570387498287 0)
(21.53837087630687 5.117413715162382 0)
(22.65128844329762 5.500671994689339 0)
(20.47285219985058 4.931259801001297 0)
(20.9734420277689 5.105923419216863 0)
(21.55536905138475 5.158191395821844 0)
(24.10137113410895 5.943007222674926 0)
(18.97617461908652 5.851120855138586 0)
(19.59933399967731 5.875949252149557 0)
(20.50317680793954 5.734760040355543 0)
(25.83119041024899 7.125898379443963 0)
(25.81525583189265 3.187582013821297 0)
(26.4094523970939 0.8090347929801435 0)
(25.72185728874841 0.4870787657235539 0)
(25.59509874938849 0.3820584478121379 0)
(28.37610771581569 2.198782357739917 0)
(28.69592305732136 0.3397475308260036 0)
(27.56801933886169 0.2832496757792716 0)
(26.89269675621464 0.3137579467497902 0)
(31.54902233853842 1.904715148180745 0)
(30.1499502044416 0.04577646243993024 0)
(28.75773633959304 0.05144591405799433 0)
(27.77933177535204 0.09386636943368609 0)
(25.07990675184359 1.987934127823227 0)
(24.21747389857783 0.6522692495986305 0)
(24.07232422195595 0.08970352551615829 0)
(24.15978618404302 -0.2164445701165855 0)
(25.66542737830729 0.3867735783206692 0)
(25.71343966068849 0.319813460155795 0)
(25.70095704417799 0.2051391368570932 0)
(25.65343357598421 0.1716694139966609 0)
(26.53712311659302 0.3417380619173943 0)
(26.22460005140915 0.291514447290278 0)
(25.94663365056602 0.19159548534364 0)
(25.72127398778474 0.1306871295229042 0)
(27.15030127564455 0.147846421562897 0)
(26.59224608021258 0.1471935185192507 0)
(26.09880990315906 0.09830406252716052 0)
(25.66598319757937 0.08514223527575458 0)
(24.13123878715305 -0.462250137783665 0)
(23.90331953603617 -0.6207336276595513 0)
(23.70232198754258 -0.7154383191866593 0)
(23.36994190351118 -0.6662477797575821 0)
(25.20554525432583 0.7717076134391586 0)
(20.09245912078296 5.098279440731959 0)
(13.7199868297493 3.924547337643789 0)
(9.345228505031709 1.059331049951263 0)
(24.62762467697855 1.255351458570912 0)
(16.07233095640284 4.951608558847361 0)
(8.863845169039569 2.740844911616759 0)
(4.471050479665099 -0.1764340011221801 0)
(23.43572017638442 1.295037618245686 0)
(11.69341239074483 3.634455116315223 0)
(3.139707185456408 2.029152178365168 0)
(-0.7690190067974905 0.2418303072038124 0)
(19.41401670287205 -0.7286128642688801 0)
(7.302888554450734 -0.7957958369906989 0)
(0.2337419516875852 0.5429919895254023 0)
(-2.595583226959745 0.1743982274073272 0)
(8.569166978910582 2.693901141121862 0)
(10.58535877937328 4.559497757157398 0)
(11.49760224745217 6.280344686860324 0)
(12.44951696233669 7.625632672315557 0)
(6.136700612503889 1.99369635663224 0)
(9.511377408822213 4.411053923705553 0)
(11.20128222055304 6.226219497048069 0)
(12.40430757699078 7.672156786575203 0)
(2.933333083319408 0.01198856927681556 0)
(7.442499342106781 3.331974004714825 0)
(10.26714702809249 6.036197368203324 0)
(12.0212250185765 7.596919876083789 0)
(0.2395658880772357 -0.1062467502252101 0)
(3.47030254878291 2.475995522994545 0)
(7.538066415338017 3.976204337919246 0)
(10.63465493448161 5.463987185017249 0)
(13.63848743922453 8.986481740105354 0)
(14.77053473282638 10.00814649535482 0)
(15.91944859506952 10.56578678307946 0)
(16.81353135674486 10.85599312378391 0)
(13.55816064558517 8.920998506763206 0)
(14.71381900903082 9.954785414841071 0)
(15.82396590981328 10.54167350791225 0)
(16.69640110761104 10.88142299279017 0)
(13.23585814950371 8.764172381666244 0)
(14.51737824808927 9.775723821740955 0)
(15.74209483978867 10.47462949111607 0)
(16.62307466848486 10.96198361142839 0)
(13.11737388495676 6.748235020685163 0)
(14.67202419528646 8.448568963843163 0)
(15.76611938988424 10.30180844058548 0)
(16.64566306786935 10.93921678364475 0)
(17.82792334121961 11.27568653390674 0)
(19.42337834403304 11.76985023195857 0)
(21.77504627916905 11.69322435727153 0)
(24.77797796530864 10.42095900994344 0)
(17.6227841528897 11.27976725874536 0)
(19.07492579545625 11.72985603341215 0)
(21.21153580036687 11.74952287381178 0)
(24.9758236311172 12.47347206553312 0)
(17.47370821273786 11.36886208520422 0)
(18.72297621125064 11.78346356784582 0)
(21.34547491078355 12.58553912272602 0)
(31.48515313188647 18.45883660433238 0)
(17.43735939834398 11.39312696867911 0)
(18.64012100133279 11.79211502985517 0)
(22.06806991017236 13.17484000737654 0)
(43.24393671156263 25.51573327559082 0)
(30.59387595049277 5.261206674946048 0)
(32.03811186597859 -3.582406744407488 0)
(12.6543334020339 8.691286382633198 0)
(7.857764574701074 30.84079133034897 0)
(32.2313485351861 4.900228269471572 0)
(26.46679529359114 -1.952387223460085 0)
(8.976528678823021 17.4167902630231 0)
(8.448220310123988 29.02681172904396 0)
(31.9740066937407 3.292517755684785 0)
(17.20845930862517 -4.302854900162066 0)
(3.82891422783957 21.32885682830766 0)
(4.61199003360516 29.02652893068045 0)
(20.3081927844635 -8.29902282536254 0)
(7.328057341543984 -0.5716234905245953 0)
(2.088281198706005 24.81804864223093 0)
(2.648155957363534 28.7339093872921 0)
(7.017623284576309 24.62063319833294 0)
(2.699507452525423 17.69699490042276 0)
(-0.7734292779500935 14.87149524497146 0)
(-2.833108471606871 9.937935086818573 0)
(6.712178726494427 23.57247646516727 0)
(1.915010668300045 19.2473977992571 0)
(-0.4568486792756322 14.98167296271721 0)
(-1.253591682623272 7.687159682959158 0)
(3.278191156268259 22.61473461076478 0)
(1.430387079888194 18.10665155391936 0)
(-0.3154137100061446 12.35858804012125 0)
(-0.8159267416457594 4.900424553527631 0)
(0.7861724769403874 22.03872343143109 0)
(-0.4547244716864156 17.36655646115871 0)
(-1.909240869774235 10.9680234483058 0)
(-1.738855790633781 3.285183174517859 0)
(-6.073793707040537 3.28972987034111 0)
(-2.016678346758794 0.262131560788164 0)
(2.429032166250936 -2.420523411843886 0)
(4.457027123764075 -6.632209572067407 0)
(-6.812406432252421 3.051105822972774 0)
(-5.955706673092561 0.3487182926855103 0)
(-1.266709185985067 -0.7973825023688922 0)
(2.679173991337866 -5.575521328502752 0)
(-6.212866835461971 2.126682870419051 0)
(-7.806370401605034 0.6687017969885619 0)
(-4.517855376788531 0.3046461262221035 0)
(0.03249925591549881 -4.086228573704882 0)
(-4.585729237049186 2.184275190994533 0)
(-7.136611137497767 2.668557996132042 0)
(-5.229429588483848 3.072709009128478 0)
(-0.6498441612605202 -1.052233557223565 0)
(2.361404456073445 -6.93559458050659 0)
(2.29331430996714 -7.541107187208536 0)
(3.15694434346294 -7.215778122394806 0)
(4.463001592134276 -6.469176836968142 0)
(1.465775256892085 -6.803525313901138 0)
(1.926658294311998 -6.275257780943658 0)
(3.127054509065951 -5.840708336734878 0)
(3.899697987161864 -4.924406375374279 0)
(0.4567632325244251 -4.750792937261742 0)
(0.6585345188898113 -3.491328249064177 0)
(1.655368421711904 -3.00366317090447 0)
(2.137360383367096 -1.923676310943593 0)
(1.658926810848649 -1.986403535099083 0)
(1.311138442507688 -0.7525231868292203 0)
(1.877076286289581 -0.3122938474546985 0)
(1.653207952279206 0.6367214406874193 0)
(0.7800722261179855 1.147325804158865 0)
(-0.03300440576845065 1.284719550235268 0)
(-0.6587244210726211 0.968287818492832 0)
(-0.9813183118984684 0.3366277853283774 0)
(1.58701176829887 -0.9804543134186915 0)
(0.5863160607054743 -0.4815390920100279 0)
(-0.2570336810325645 -0.05723686951775874 0)
(-0.6750696177183533 -0.02422581884727473 0)
(3.363760727781439 -3.806020466793059 0)
(2.444075681586303 -2.79687812126024 0)
(1.338052360718679 -1.704886808445346 0)
(0.6067422106483173 -0.6385231554771766 0)
(5.107030385395262 -4.81670366599999 0)
(4.969889999365141 -3.302414287337955 0)
(4.187911226816583 -2.022007955399008 0)
(3.720963878207542 -0.7293640741930412 0)
(-0.9813183119007605 -0.3366277853054951 0)
(-0.6750696177184463 0.02422581885705613 0)
(0.6067422106485559 0.6385231554718171 0)
(3.72096387820885 0.7293640741735371 0)
(-0.6587244210763344 -0.9682878184730795 0)
(-0.257033681033428 0.05723686952727505 0)
(1.338052360723062 1.704886808442764 0)
(4.18791122684511 2.0220079553803 0)
(-0.03300440577227579 -1.284719550222312 0)
(0.5863160607038823 0.4815390920170913 0)
(2.444075681586404 2.796878121259341 0)
(4.969889999385506 3.302414287338691 0)
(0.7800722261155557 -1.147325804148348 0)
(1.587011768301715 0.9804543134239331 0)
(3.36376072777455 3.806020466797944 0)
(5.107030385397147 4.816703666007568 0)
(4.463001592118194 6.469176836944428 0)
(3.156944343466773 7.215778122384658 0)
(2.293314309970345 7.541107187197626 0)
(2.361404456088196 6.935594580494589 0)
(3.899697987161371 4.924406375374222 0)
(3.127054509074771 5.840708336728588 0)
(1.926658294327528 6.275257780933826 0)
(1.465775256913301 6.803525313889079 0)
(2.137360383368716 1.923676310941962 0)
(1.655368421715643 3.00366317089774 0)
(0.6585345189005309 3.491328249063672 0)
(0.4567632325380953 4.750792937255815 0)
(1.653207952281227 -0.6367214406836395 0)
(1.877076286297227 0.3122938474590544 0)
(1.31113844251704 0.7525231868364401 0)
(1.658926810857234 1.986403535107007 0)
(-0.6498441612430114 1.052233557225776 0)
(-5.229429588447649 -3.072709009100635 0)
(-7.13661113746099 -2.66855799610113 0)
(-4.585729237021846 -2.184275190986082 0)
(0.0324992559308116 4.086228573702785 0)
(-4.517855376765302 -0.3046461261995239 0)
(-7.806370401548017 -0.6687017969711816 0)
(-6.212866835399809 -2.126682870389095 0)
(2.679173991351142 5.575521328494318 0)
(-1.266709185952715 0.7973825023928787 0)
(-5.955706673021724 -0.3487182926597187 0)
(-6.812406432202289 -3.051105822921901 0)
(4.457027123776721 6.632209572062512 0)
(2.429032166275239 2.420523411865266 0)
(-2.016678346672608 -0.2621315607672393 0)
(-6.073793706942803 -3.289729870272545 0)
(-2.833108471600457 -9.937935086704362 0)
(-0.7734292780079444 -14.87149524497786 0)
(2.6995074525642 -17.69699490068422 0)
(7.017623284307382 -24.62063319845545 0)
(-1.253591682619053 -7.687159682895313 0)
(-0.4568486792866796 -14.98167296268989 0)
(1.915010668388992 -19.24739779934338 0)
(6.712178726528728 -23.57247646516884 0)
(-0.815926741647382 -4.900424553503064 0)
(-0.3154137100108418 -12.35858804009774 0)
(1.430387079913509 -18.10665155394932 0)
(3.278191156286059 -22.61473461077526 0)
(-1.738855790628864 -3.285183174525872 0)
(-1.909240869780171 -10.96802344832267 0)
(-0.4547244716878565 -17.36655646116481 0)
(0.7861724769507287 -22.03872343145327 0)
(7.857764574339528 -30.84079133038061 0)
(12.65433340176943 -8.69128638294136 0)
(32.03811186592431 3.582406744454908 0)
(30.59387595049616 -5.261206674932144 0)
(8.448220309980384 -29.02681172906844 0)
(8.976528678769485 -17.41679026322462 0)
(26.46679529361649 1.952387223434116 0)
(32.23134853514575 -4.900228269446763 0)
(4.611990033621655 -29.02652893075551 0)
(3.828914227785641 -21.32885682842116 0)
(17.20845930858867 4.302854900108289 0)
(31.97400669368835 -3.292517755674482 0)
(2.648155957369076 -28.73390938736175 0)
(2.088281198684136 -24.81804864235661 0)
(7.328057341566876 0.5716234904603232 0)
(20.30819278447229 8.299022825342519 0)
(24.77797796529669 -10.42095900992308 0)
(21.77504627916236 -11.69322435724857 0)
(19.42337834407417 -11.76985023195676 0)
(17.82792334121055 -11.27568653389826 0)
(24.97582363114266 -12.47347206553243 0)
(21.21153580038729 -11.74952287380033 0)
(19.07492579545934 -11.72985603339733 0)
(17.62278415293697 -11.27976725876742 0)