/*--------------------------------*- C++ -*----------------------------------*\
  =========                 |
  \\      /  F ield         | OpenFOAM: The Open Source CFD Toolbox
   \\    /   O peration     | Website:  https://openfoam.org
    \\  /    A nd           | Version:  11
     \\/     M anipulation  |
\*---------------------------------------------------------------------------*/
FoamFile
{
    format      ascii;
    class       volScalarField;
    location    "3.7";
    object      p;
}
// * * * * * * * * * * * * * * * * * * * * * * * * * * * * * * * * * * * * * //

dimensions      [0 2 -2 0 0 0 0];

internalField   nonuniform List<scalar> 
5472
(
108.87721
107.08658
105.30325
103.56815
101.85977
100.1862
98.545223
96.995193
95.537858
94.142916
92.865455
91.710621
90.677721
89.767472
89.014082
88.42089
87.93766
87.581139
87.394443
109.19739
107.59005
105.96649
104.31007
102.6995
101.12608
99.557574
98.049559
96.617589
95.252695
93.985001
92.833533
91.808578
90.89791
90.113133
89.472911
88.93591
88.59192
88.401262
109.52445
108.02954
106.56497
105.04843
103.51548
102.01701
100.53124
99.080224
97.672701
96.342003
95.089288
93.947719
92.916851
91.986702
91.190083
90.520251
89.977779
89.612901
89.386249
109.77693
108.46192
107.08059
105.67082
104.2744
102.86979
101.45961
100.04959
98.688705
97.390254
96.155297
95.031716
93.987648
93.055595
92.244916
91.561118
91.018317
90.618598
90.365114
109.9931
108.77378
107.51097
106.24636
104.96961
103.64884
102.3225
100.96634
99.646309
98.381953
97.172081
96.055443
95.018518
94.095593
93.267759
92.578396
92.01646
91.603204
91.337104
110.11082
109.02759
107.88897
106.73495
105.57667
104.37115
103.10521
101.8083
100.55492
99.327191
98.154729
97.046585
96.029794
95.107926
94.282066
93.590381
93.003637
92.580231
92.293451
110.21751
109.21428
108.19436
107.17404
106.11554
104.97582
103.81087
102.60258
101.39283
100.20615
99.07078
97.997354
96.997443
96.070782
95.254417
94.537964
93.965145
93.531609
93.226341
110.26754
109.38064
108.4645
107.52814
106.5483
105.53608
104.46216
103.32565
102.17311
101.03732
99.951461
98.897557
97.914507
97.014673
96.199399
95.490204
94.918535
94.45734
94.148399
110.25669
109.48356
108.67274
107.82474
106.95553
106.02183
105.01296
103.97873
102.88746
101.80504
100.75961
99.745974
98.798187
97.904269
97.091624
96.372604
95.802882
95.352187
95.036117
110.27421
109.55488
108.81958
108.07148
107.27624
106.43119
105.52757
104.54781
103.52113
102.51964
101.51774
100.55182
99.617889
98.754653
97.977687
97.274828
96.703011
96.230693
95.900165
110.22255
109.60318
108.95245
108.27098
107.55764
106.79138
105.95801
105.06361
104.12503
103.17599
102.21615
101.28903
100.38799
99.550129
98.753272
98.078124
97.512471
97.051441
96.724003
110.14964
109.59419
109.03137
108.44524
107.80842
107.10694
106.34195
105.51571
104.64499
103.75529
102.8685
101.98415
101.1229
100.31357
99.546946
98.887439
98.305989
97.856174
97.514358
110.07016
109.58578
109.09954
108.57024
107.9969
107.36725
106.67177
105.91809
105.1136
104.28408
103.44952
102.6012
101.77904
100.99204
100.25982
99.615767
99.056457
98.612935
98.265419
109.98801
109.56474
109.11952
108.65281
108.14946
107.58277
106.95686
106.26938
105.53186
104.77043
103.99534
103.19582
102.41277
101.64628
100.93942
100.30478
99.762716
99.309421
98.961693
109.89395
109.53759
109.15103
108.73926
108.28406
107.76752
107.18973
106.56029
105.8832
105.17879
104.45943
103.71599
102.97636
102.24881
101.5727
100.95908
100.42833
99.975987
99.634951
109.77756
109.46098
109.13044
108.78228
108.38863
107.9325
107.41009
106.83895
106.21794
105.5702
104.89239
104.18646
103.47958
102.78715
102.14143
101.55427
101.03588
100.59266
100.25196
109.7109
109.43893
109.14267
108.81244
108.44804
108.04068
107.56953
107.04967
106.48846
105.90638
105.28326
104.62503
103.95148
103.29049
102.66945
102.10693
101.60258
101.16984
100.8276
109.61713
109.37861
109.1335
108.8616
108.54099
108.16018
107.72484
107.24441
106.7308
106.19123
105.61023
105.00243
104.3742
103.7521
103.15437
102.60898
102.1176
101.69536
101.35276
109.52885
109.32188
109.10517
108.86327
108.58028
108.24866
107.86029
107.42135
106.95455
106.45038
105.90779
105.33267
104.74391
104.1613
103.59347
103.0695
102.59033
102.17669
101.83784
109.49933
109.31224
109.11391
108.88867
108.62562
108.32161
107.96282
107.56722
107.14482
106.68474
106.18208
105.63312
105.06992
104.51447
103.97448
103.47177
103.01003
102.60266
102.26741
109.44413
109.28851
109.11952
108.92396
108.68681
108.40249
108.06987
107.70202
107.30607
106.87982
106.41914
105.92357
105.40062
104.86418
104.33815
103.846
103.39445
102.99562
102.66436
109.43243
109.28208
109.12343
108.94455
108.73319
108.47791
108.17795
107.84031
107.46675
107.05693
106.60503
106.12133
105.62558
105.12523
104.6286
104.15447
103.71118
103.31942
102.98525
109.42744
109.29934
109.15619
108.98906
108.79114
108.55177
108.27369
107.96647
107.62642
107.2545
106.84418
106.39362
105.91787
105.42361
104.93349
104.46425
104.02918
103.64159
103.30769
109.43851
109.32566
109.19655
109.04657
108.86561
108.643
108.37888
108.07957
107.74574
107.37724
106.96737
106.52508
106.06091
105.59082
105.11891
104.65829
104.23167
103.84767
103.51448
109.4626
109.36944
109.24935
109.11088
108.9512
108.757
108.5223
108.24945
107.94933
107.6163
107.24499
106.83186
106.37636
105.89348
105.4029
104.92868
104.48928
104.09373
103.74953
109.49141
109.42227
109.32073
109.19349
109.03704
108.84476
108.61278
108.3385
108.02414
107.6721
107.28911
106.87295
106.42746
105.96179
105.48195
105.0152
104.57674
104.19359
103.85218
109.51318
109.48215
109.42289
109.33427
109.21596
109.06687
108.87881
108.6485
108.37476
108.05416
107.69215
107.29089
106.83048
106.30661
105.75934
105.22726
104.75903
104.34868
103.97491
87.327415
87.437535
87.677925
88.013952
88.497299
89.044544
89.695474
90.445616
91.291231
92.234939
93.289915
94.410704
95.631734
96.953273
98.425541
99.996615
101.68112
103.46953
105.36287
88.298796
88.42295
88.651845
89.009558
89.530976
90.136649
90.880451
91.721951
92.650692
93.68091
94.793754
95.97403
97.24481
98.586997
100.01479
101.49851
103.06017
104.67267
106.35964
89.279159
89.387855
89.598767
90.017537
90.556371
91.234782
92.065757
92.978703
94.006104
95.112238
96.267634
97.501705
98.796026
100.12615
101.48021
102.85535
104.24013
105.62327
106.96501
90.25287
90.320341
90.558141
91.008558
91.573247
92.332915
93.197787
94.179423
95.263307
96.394629
97.570974
98.811893
100.06408
101.31642
102.54194
103.7251
104.82075
105.83419
106.67733
91.202336
91.251741
91.523194
91.96948
92.584385
93.381747
94.277407
95.305814
96.392289
97.510573
98.666681
99.828271
100.96602
102.07505
103.11593
104.0028
104.73778
105.24708
105.48402
92.140851
92.181032
92.464695
92.916126
93.583336
94.38138
95.314067
96.349857
97.409453
98.500143
99.60529
100.66613
101.67336
102.54549
103.32945
103.86928
104.20882
104.2177
103.89492
93.056042
93.092312
93.369568
93.842179
94.529109
95.33657
96.297105
97.303923
98.33004
99.36494
100.3887
101.32299
102.16813
102.81449
103.30594
103.53246
103.51614
103.22508
102.64363
93.955945
93.989659
94.262247
94.755302
95.4298
96.246978
97.195604
98.164799
99.16043
100.11638
101.03457
101.81758
102.46905
102.90756
103.1449
103.16923
102.94018
102.59066
102.11743
94.818636
94.857662
95.110388
95.610106
96.277028
97.104109
98.021063
98.945095
99.891427
100.74933
101.5474
102.17554
102.65211
102.92137
102.97805
102.89778
102.68694
102.44083
102.15745
95.665738
95.688258
95.920367
96.425816
97.080408
97.905959
98.772026
99.651119
100.5157
101.28117
101.94525
102.44047
102.76779
102.92725
102.92718
102.86178
102.75542
102.64583
102.57108
96.486721
96.472322
96.697127
97.201287
97.846175
98.639974
99.455688
100.2873
101.04298
101.73133
102.2602
102.66147
102.88693
103.01015
103.03333
103.04107
103.05089
103.09127
103.14667
97.265568
97.205287
97.445579
97.927737
98.557747
99.316762
100.08224
100.84296
101.51157
102.10693
102.53816
102.86838
103.05198
103.19984
103.27567
103.36329
103.47852
103.61006
103.73209
98.008221
97.905749
98.168562
98.609122
99.221578
99.925217
100.63915
101.3345
101.92829
102.43238
102.80241
103.08853
103.27571
103.45772
103.59675
103.76655
103.93685
104.12458
104.29278
98.681691
98.602244
98.842305
99.230436
99.843006
100.48366
101.14681
101.76767
102.29496
102.73797
103.07004
103.3417
103.55674
103.76812
103.95772
104.17405
104.37718
104.59349
104.7616
99.324883
99.258902
99.438743
99.818077
100.39232
100.97641
101.61858
102.15191
102.63574
103.02965
103.34356
103.61796
103.85386
104.09557
104.32191
104.55589
104.77023
104.94963
105.05436
99.932529
99.857861
99.991724
100.37727
100.87653
101.43232
102.02629
102.50687
102.96023
103.30542
103.61642
103.90211
104.16204
104.41315
104.64767
104.87491
105.05874
105.21313
105.30473
100.50294
100.39592
100.51404
100.8828
101.32382
101.86623
102.37724
102.83823
103.24928
103.57962
103.91058
104.18049
104.44787
104.6995
104.92047
105.11281
105.27456
105.42985
105.54816
101.02504
100.88732
100.99718
101.31776
101.73012
102.2409
102.69785
103.1306
103.4999
103.84531
104.1583
104.42118
104.69918
104.91727
105.11596
105.27542
105.42226
105.56215
105.65453
101.50345
101.3446
101.44454
101.72049
102.11884
102.57744
103.00404
103.43676
103.79616
104.12007
104.3919
104.65595
104.89609
105.07774
105.25328
105.36883
105.47379
105.53937
105.53596
101.92443
101.74648
101.82342
102.06606
102.43901
102.83794
103.24922
103.62853
103.95414
104.27404
104.55177
104.81169
105.00172
105.15526
105.27333
105.32585
105.3365
105.23928
105.08873
102.31792
102.13423
102.17632
102.39498
102.7461
103.12529
103.53547
103.88829
104.21268
104.49097
104.72452
104.92658
105.05781
105.15188
105.16966
105.11786
104.978
104.73808
104.47043
102.62939
102.42994
102.45486
102.64651
102.95611
103.3205
103.68175
104.00074
104.31585
104.5786
104.78764
104.94094
105.02204
105.02955
104.95081
104.7959
104.54511
104.2716
104.00905
102.94226
102.72392
102.72724
102.89354
103.19883
103.56186
103.91375
104.23743
104.49535
104.69265
104.83901
104.90476
104.88964
104.79033
104.61714
104.38062
104.12645
103.90153
103.66956
103.14805
102.92743
102.89055
103.0546
103.34018
103.67301
104.00008
104.29034
104.52891
104.70968
104.80973
104.82172
104.75174
104.59275
104.37887
104.14103
103.90022
103.6337
103.36355
103.35911
103.11198
103.07704
103.22808
103.53011
103.88402
104.20765
104.45249
104.62388
104.71073
104.70275
104.60197
104.42331
104.19078
103.9462
103.70664
103.46124
103.22026
102.9487
103.46306
103.23763
103.15951
103.29982
103.59935
103.93736
104.24243
104.47767
104.63154
104.69793
104.66591
104.55547
104.38268
104.16756
103.90708
103.63265
103.31926
102.93059
102.47449
103.55489
103.27391
103.22526
103.42915
103.78387
104.1621
104.44332
104.58703
104.62621
104.56914
104.41316
104.17006
103.87649
103.5399
103.16551
102.76179
102.34407
101.91006
101.49347
107.4115
109.58033
111.96486
114.48824
117.20565
120.02501
122.63216
125.90488
123.79402
119.11984
112.14689
103.26371
93.469149
83.555239
74.987455
68.372511
64.005511
61.851846
61.968203
108.07645
109.92975
111.86854
114.00548
116.16494
118.44878
120.15333
119.92167
116.16509
109.52497
100.81056
90.721593
79.966363
70.016298
62.324916
57.031875
54.525242
54.792546
57.176233
108.28286
109.65045
110.99525
112.32728
113.33081
113.82264
112.95167
109.75913
103.66498
95.807042
85.995195
74.254727
61.427734
50.051139
42.564732
38.754611
38.708771
42.427679
48.229529
107.40506
107.98602
108.41294
108.45781
107.89274
106.26928
103.18379
97.641072
90.980899
82.22544
67.034831
50.018676
32.96785
18.636272
9.626114
6.5157148
9.8463441
18.619216
30.149721
105.41515
105.19071
104.72064
103.70598
101.8694
98.847953
94.268689
87.090979
77.317414
64.530243
49.15679
32.658744
16.607653
3.1985358
-4.4731702
-5.0036054
1.2362299
14.34268
27.786826
103.22855
102.52976
101.5967
100.18106
97.989553
94.90817
90.515337
84.454576
76.485393
66.515771
55.367582
43.392451
32.117015
22.922285
17.431723
16.792271
20.789307
28.689356
38.733781
101.85198
101.1044
100.20728
98.894457
97.031141
94.536632
91.228524
87.189971
82.090973
76.039215
69.258339
61.996922
54.977734
48.89813
44.831383
43.176064
44.391241
48.469896
54.503726
101.49955
100.91535
100.20936
99.153751
97.752323
95.902803
93.764984
91.188201
88.129329
84.696075
80.690629
76.482226
72.191235
68.555236
65.641145
63.792344
63.748865
65.531849
68.654379
101.77917
101.43328
100.88876
100.09469
99.053992
97.786754
96.367335
94.65495
92.775947
90.545656
87.974752
85.262104
82.561564
80.117247
78.192894
77.429977
77.526533
78.017858
79.255751
102.45229
102.22937
101.79157
101.19786
100.42156
99.576908
98.606884
97.499668
96.233789
94.747688
93.101137
91.395477
89.677482
87.974293
86.521727
85.388265
84.857838
84.887784
85.388485
103.15495
103.01514
102.72142
102.27684
101.739
101.19598
100.55409
99.820749
98.971119
97.944863
96.721082
95.43639
94.015462
92.536879
91.131615
89.876339
88.565974
87.374273
86.78897
103.81975
103.78561
103.58784
103.27295
102.92167
102.56491
102.14723
101.62579
100.98059
100.14342
99.203664
98.182227
96.880898
95.335576
93.793083
92.025499
89.996018
88.214664
86.817552
104.45126
104.45946
104.28831
104.0669
103.82023
103.5569
103.2257
102.77784
102.22224
101.55509
100.76651
99.669857
98.164607
96.428668
94.560849
92.083689
89.212805
86.269158
83.388045
104.88809
104.87974
104.76161
104.60027
104.38731
104.14087
103.82786
103.38212
102.80389
102.054
101.13353
99.852843
97.940058
95.770874
92.94831
88.941911
83.846234
77.975674
71.384969
105.20165
105.2322
105.16838
105.03253
104.85294
104.6527
104.33926
103.87587
103.27132
102.58491
101.73931
100.15463
97.8726
95.508513
92.156451
87.147182
80.345238
71.779808
61.731275
105.51562
105.60295
105.58762
105.52037
105.47093
105.36814
105.14105
104.80463
104.50325
104.02739
102.82183
101.42453
100.17316
98.085446
95.081064
90.768133
85.118509
78.31457
70.610614
105.77539
105.88345
105.90456
105.93218
105.9559
105.8976
105.78743
105.4253
104.4517
103.90372
104.35152
103.22278
101.43073
99.145195
96.336176
92.867263
88.813646
84.443125
80.107806
105.8218
105.90206
105.94912
106.03873
106.07549
106.03386
105.67417
105.38135
104.81537
103.57106
102.2024
100.70333
98.885414
96.753891
94.463626
92.115325
89.752435
87.599383
85.907669
105.55125
105.60525
105.74474
105.86256
105.89921
105.82437
105.47837
104.96035
103.77687
101.06421
98.431691
96.241234
94.449765
92.900126
91.335988
89.900836
88.791986
88.129836
88.167938
104.87438
104.92666
105.04038
105.13068
105.13231
105.06637
104.91817
104.59712
103.72458
101.58402
97.960226
92.328744
86.422254
82.26563
79.851761
79.067645
79.857539
81.76026
84.274609
104.14827
104.12649
104.12411
104.05386
103.84987
103.53799
103.06083
102.32231
100.94191
98.277034
94.393217
89.997414
85.793917
81.839563
78.246472
75.707278
74.95279
75.959779
78.545889
103.77746
103.72396
103.68663
103.58493
103.38525
103.12525
102.73668
102.16006
101.20888
99.772755
97.538468
94.522028
90.976205
87.021585
83.305681
80.711387
79.673012
80.174955
82.171671
103.54052
103.55728
103.61833
103.63646
103.60675
103.60288
103.52721
103.4354
103.2353
102.87368
102.2066
101.1013
99.550642
97.674432
95.83991
94.011302
92.160776
90.827431
90.580631
103.30827
103.3494
103.40754
103.47786
103.55651
103.64438
103.75153
103.88015
103.95348
103.96197
103.97294
103.79478
103.14161
102.21822
101.08458
99.610378
97.985714
96.355561
94.888384
102.80629
102.84256
102.96594
103.07178
103.17174
103.28289
103.45621
103.56302
103.63886
103.5664
103.04165
102.244
101.90895
101.41863
100.3559
98.949979
97.47258
95.879357
94.058954
102.02882
102.09553
102.25429
102.34666
102.43463
102.54031
102.57781
102.67341
102.70938
102.70526
102.65383
101.65934
101.58399
101.64916
101.21666
100.36647
99.21074
97.825822
96.316847
101.01666
101.06985
101.13344
101.12456
101.1327
101.19066
101.27702
101.50425
101.77226
102.15818
102.73511
103.47675
103.76945
103.00443
102.33109
101.61898
100.89458
100.18075
99.524383
63.210224
65.213742
67.880877
70.937347
73.932181
76.965584
79.466351
81.151253
82.66091
84.017299
84.700081
84.993239
85.211449
85.090465
84.707434
84.274723
83.637404
82.832695
81.949825
60.906766
65.107658
69.373872
73.689062
77.656379
81.0075
83.773246
85.97338
87.611286
88.686386
89.366486
89.594239
89.559867
89.317989
88.85739
88.37824
87.689568
86.881846
85.954863
54.975934
61.980915
68.476272
74.392231
79.687295
84.258873
87.760821
90.102622
91.933907
93.221078
93.848589
94.003131
93.888027
93.55261
92.980813
92.43836
91.738136
90.838832
89.83509
42.711509
54.801101
65.200753
73.821639
80.774362
86.331894
90.806255
93.837979
95.822504
97.159148
97.880679
98.09549
97.878116
97.405141
96.792221
96.114948
95.430518
94.510091
93.389188
41.571051
54.303192
65.252228
74.331435
81.746646
87.867878
93.004846
96.897635
99.269961
100.67026
101.32793
101.48621
101.26924
100.70259
99.99159
99.28364
98.540231
97.698211
96.535983
49.419833
59.696993
68.988801
77.05057
84.006165
89.748441
94.819737
99.411339
102.18281
103.60479
104.26584
104.33403
103.98478
103.40904
102.62381
101.85107
101.09283
100.28843
99.199819
61.407203
68.478016
75.363511
81.676434
87.273951
92.218318
96.561419
101.52373
104.21898
105.59408
106.19959
106.31282
105.97172
105.34929
104.57909
103.76096
103.00664
102.23427
101.27181
72.62354
77.294493
82.266142
87.064116
91.626906
95.906512
99.651245
102.9304
105.13104
106.17432
106.7816
106.96175
106.76218
106.26603
105.62485
104.89112
104.21546
103.51716
102.69461
81.536607
84.46023
87.726404
91.316605
95.066291
98.547181
101.55531
103.95613
105.46174
106.23656
106.56745
106.67169
106.57223
106.25137
105.82036
105.25907
104.72744
104.1677
103.50272
86.340189
87.894829
90.197436
92.976796
95.828231
98.597144
101.31055
103.53167
105.10951
105.95816
106.21628
106.0808
106.02702
105.86542
105.60363
105.22241
104.81205
104.39555
103.86588
87.044786
88.003598
89.485028
91.298767
93.408239
96.061314
98.888098
101.44151
103.52353
104.83635
105.35016
105.50546
105.68638
105.60503
105.40738
105.12746
104.78633
104.46082
104.0474
85.676167
84.890905
84.765702
85.576554
87.329443
89.937558
93.118924
96.545866
99.635349
101.97319
103.51679
104.36678
104.43194
104.85641
105.00541
104.92183
104.69484
104.44127
104.12512
80.503362
78.077783
76.509159
76.120959
77.146915
79.429142
82.977384
87.395333
92.012633
96.036679
99.534975
102.13404
103.46408
104.40798
104.6683
104.71395
104.55047
104.31328
104.08239
64.423427
58.333995
54.725464
54.506678
57.86283
63.126295
69.284627
76.336714
83.781683
90.955755
97.151751
101.3983
102.46112
103.55529
104.004
104.13924
104.06895
103.8452
103.70612
51.374229
42.486217
37.347493
37.773913
43.123714
51.631911
62.350476
73.464246
83.186473
90.94152
96.440474
99.678414
101.25298
102.27083
102.84908
103.11189
103.16828
103.063
102.99434
62.630906
55.656803
51.646909
51.561007
54.923203
60.828819
68.680401
76.847264
84.348537
90.479094
94.948323
97.81007
99.596111
100.79038
101.57828
102.05985
102.29462
102.33655
102.3699
76.186802
73.211742
72.050595
73.079512
75.751634
79.4734
83.803619
88.113566
91.985134
95.172998
97.475894
99.063208
100.19966
100.97999
101.53093
101.88849
102.11203
102.19501
102.21209
84.651875
84.084666
84.531196
85.972296
87.964581
90.434532
93.018335
95.397096
97.372538
98.927488
100.07251
100.88616
101.48717
101.8689
102.1391
102.32967
102.41504
102.47926
102.44283
88.949647
90.124737
91.264892
92.732309
94.560486
96.317897
97.959954
99.360891
100.44983
101.30451
101.90018
102.30211
102.59889
102.73054
102.80852
102.84981
102.84801
102.82932
102.75731
87.14772
90.136088
92.962646
95.409354
97.487041
99.102647
100.48345
101.77769
102.57133
102.98949
103.30098
103.47935
103.55882
103.51031
103.41513
103.31444
103.26128
103.17453
103.00897
82.229266
86.534806
90.850233
94.499899
97.389672
99.520994
100.67041
101.11795
102.00102
103.2528
103.87898
103.9378
103.91436
103.85468
103.68687
103.54012
103.37908
103.27656
103.12521
85.315262
88.899284
92.355309
95.382247
97.844272
99.758695
101.12178
102.01263
102.83754
103.44171
103.6466
103.77312
103.8717
103.73699
103.60572
103.44521
103.26102
103.11953
102.98726
91.253405
92.486681
94.010901
95.585633
97.101023
98.539205
99.779365
100.46059
101.29723
102.63917
103.091
103.23601
103.33222
103.20332
103.10845
102.96113
102.81356
102.61912
102.50049
93.476482
92.338185
91.706717
91.683531
92.203797
93.453901
95.74454
98.696606
100.99289
102.10065
102.18445
102.30018
102.34648
102.28689
102.24157
102.13537
102.02504
101.90123
101.84445
92.520338
91.518561
91.157515
91.700713
93.149879
94.874133
96.195762
97.364392
98.58275
99.826796
100.59652
100.90104
101.0517
101.12195
101.18622
101.22721
101.20699
101.18
101.20272
94.960058
93.958192
93.493626
93.734968
94.668789
96.03615
97.373858
98.201444
98.761155
99.374272
99.649535
99.809733
100.00862
100.19771
100.36116
100.4855
100.54725
100.57416
100.66601
98.944534
98.412514
97.916076
97.466403
97.082575
96.775082
96.8018
97.543283
98.397323
98.927836
99.342548
99.642688
99.852898
99.968884
100.05078
100.1385
100.21595
100.24894
100.24342
80.944972
79.839794
78.711009
77.510015
76.297303
75.083904
73.945309
72.802823
71.759673
70.730896
69.836386
68.984244
68.243991
67.643138
67.051266
66.69723
66.531229
66.50493
66.774888
84.879834
83.665737
82.388857
81.054529
79.684607
78.321106
76.991166
75.687605
74.44743
73.254024
72.140035
71.164064
70.25085
69.514563
68.885709
68.40226
68.18282
68.100525
68.210422
88.601267
87.290611
85.856302
84.415468
82.911116
81.425419
79.957518
78.503578
77.089897
75.744769
74.461993
73.332126
72.302482
71.392839
70.694297
70.140937
69.81526
69.744004
69.853264
92.034565
90.578316
89.050611
87.48758
85.907132
84.305768
82.731217
81.176675
79.637506
78.167686
76.760352
75.473392
74.33291
73.300369
72.481235
71.857471
71.447847
71.336543
71.462179
95.115202
93.568496
91.959339
90.324557
88.672555
87.004836
85.34209
83.711084
82.083465
80.497551
78.989689
77.576814
76.317303
75.184757
74.258226
73.552595
73.074563
72.915347
73.004057
97.778853
96.241753
94.608393
92.940988
91.249243
89.534828
87.808815
86.10547
84.417613
82.759053
81.160798
79.65425
78.260059
77.041927
76.009869
75.237556
74.699987
74.505283
74.628769
99.948487
98.49168
96.909071
95.270891
93.585592
91.860886
90.112772
88.36314
86.61366
84.906254
83.224311
81.655155
80.164021
78.860154
77.74026
76.871877
76.284128
76.025015
76.089371
101.56462
100.28291
98.835422
97.284245
95.661194
93.974367
92.232601
90.479935
88.696239
86.94727
85.215309
83.575127
82.019889
80.629456
79.432002
78.49484
77.860029
77.577638
77.672926
102.62114
101.55372
100.31302
98.926955
97.412023
95.815
94.127637
92.399455
90.625194
88.855373
87.090649
85.397687
83.794027
82.33338
81.078249
80.048726
79.382034
79.026621
79.094888
103.21742
102.39461
101.37112
100.20073
98.855874
97.38675
95.799385
94.137681
92.398098
90.638728
88.874967
87.128912
85.499803
83.968106
82.674066
81.586143
80.866155
80.507426
80.53088
103.51007
102.89835
102.09773
101.12581
99.971789
98.666247
97.208405
95.642077
93.98767
92.249468
90.518544
88.757648
87.095254
85.532323
84.186054
83.073807
82.285668
81.900053
81.909108
103.69037
103.20536
102.56702
101.78103
100.81632
99.679666
98.381403
96.928968
95.385951
93.718048
92.025083
90.292627
88.608991
87.025886
85.622696
84.488505
83.667417
83.243161
83.229929
103.76169
103.38141
102.86347
102.21557
101.43193
100.46218
99.331921
98.012618
96.579288
95.011153
93.372001
91.687558
90.0133
88.434495
86.993011
85.830025
84.990697
84.543733
84.502591
103.58292
103.34851
102.9936
102.47506
101.85386
101.03584
100.06459
98.901144
97.591617
96.137847
94.579475
92.961315
91.308564
89.747239
88.291869
87.093285
86.230413
85.77465
85.714439
103.12468
103.07107
102.91155
102.55659
102.09342
101.44294
100.61883
99.613773
98.437995
97.103549
95.634981
94.098192
92.493481
90.951004
89.509766
88.292718
87.40493
86.932445
86.866102
102.61189
102.68168
102.64788
102.46311
102.14963
101.67058
100.99705
100.14606
99.110736
97.91146
96.548315
95.098048
93.565376
92.048136
90.633889
89.417911
88.513014
88.016915
87.955713
102.34171
102.37697
102.38009
102.2969
102.09587
101.76631
101.248
100.54674
99.649143
98.587493
97.34034
95.976766
94.530687
93.053915
91.662142
90.455122
89.557674
89.033318
88.967947
102.37725
102.28552
102.23965
102.17181
102.01492
101.76916
101.37876
100.81319
100.0452
99.114444
97.993458
96.719479
95.356097
93.948406
92.594866
91.397057
90.516143
89.987679
89.90356
102.55494
102.40216
102.28328
102.16778
102.00148
101.78381
101.47181
101.01238
100.36931
99.557362
98.564783
97.39127
96.110051
94.758282
93.459259
92.274747
91.381165
90.868899
90.776707
102.7301
102.58017
102.42015
102.25519
102.05268
101.83635
101.55842
101.1627
100.61251
99.890102
99.004255
97.940214
96.738231
95.447974
94.188285
93.049962
92.1627
91.650347
91.562717
102.8632
102.75196
102.58752
102.41105
102.18888
101.95209
101.68498
101.32523
100.8509
100.20457
99.400375
98.439908
97.335573
96.142649
94.895961
93.777314
92.90144
92.381797
92.286518
102.87984
102.8571
102.72854
102.56118
102.35666
102.1093
101.83581
101.48158
101.05432
100.47781
99.734536
98.826332
97.770593
96.616515
95.458793
94.358726
93.506147
92.995857
92.898258
102.60784
102.69799
102.69372
102.61464
102.48372
102.27504
102.01223
101.68716
101.27905
100.76916
100.10117
99.262824
98.279434
97.189515
96.047886
94.973703
94.103096
93.588968
93.466873
102.11099
102.36297
102.53818
102.57933
102.54515
102.42975
102.20986
101.91344
101.50852
100.99578
100.35185
99.558309
98.602249
97.522061
96.414815
95.36343
94.515333
94.013507
93.906734
101.49638
101.78517
102.06928
102.27481
102.35577
102.35446
102.26167
102.06697
101.7602
101.3369
100.76892
100.03179
99.133234
98.112711
96.999959
95.918175
95.005971
94.44486
94.313205
100.98818
101.36831
101.73002
102.05516
102.28607
102.38966
102.36566
102.21984
101.95053
101.54049
100.98161
100.25728
99.338975
98.263663
97.151774
96.088893
95.214832
94.665306
94.536378
100.43601
100.71513
101.04641
101.38838
101.71842
101.99
102.16915
102.23189
102.13443
101.89923
101.50407
100.90464
100.08442
99.067837
97.884128
96.676937
95.621947
94.916093
94.706456
67.07247
67.56109
68.260308
69.094776
70.165935
71.398476
72.792046
74.334422
75.996992
77.794769
79.695647
81.704616
83.816752
85.994829
88.258173
90.557356
92.874931
95.220229
97.577111
68.624104
69.145179
69.890916
70.751725
71.823565
73.067411
74.452759
75.994343
77.646263
79.423624
81.291402
83.255477
85.307317
87.411864
89.577846
91.768858
93.951877
96.141338
98.324864
70.235212
70.764157
71.500223
72.401147
73.459933
74.705242
76.094915
77.616905
79.264207
81.006182
82.861
84.779566
86.759499
88.794813
90.862151
92.934934
94.99358
97.026311
99.022443
71.821484
72.370689
73.095433
73.999105
75.069502
76.307191
77.704311
79.216285
80.857941
82.582836
84.388403
86.254184
88.17091
90.107352
92.078313
94.042138
95.963557
97.837465
99.639248
73.401577
73.956479
74.683951
75.589639
76.652022
77.889266
79.269131
80.775313
82.398678
84.087453
85.844807
87.637461
89.472192
91.332518
93.195897
95.044769
96.829045
98.565532
100.21826
74.994243
75.535507
76.244933
77.148172
78.206822
79.429353
80.797482
82.278455
83.866312
85.518315
87.235024
88.973995
90.715973
92.484361
94.24499
95.967329
97.612221
99.211694
100.73688
76.489869
77.045815
77.767594
78.66524
79.719139
80.928473
82.27232
83.724717
85.276285
86.894774
88.553415
90.224998
91.876769
93.538867
95.185896
96.794505
98.32116
99.777572
101.17408
78.031751
78.565451
79.270817
80.152092
81.186274
82.36913
83.687332
85.115155
86.631604
88.208588
89.789071
91.375165
92.948913
94.518705
96.050259
97.526927
98.932292
100.27076
101.56416
79.48274
80.010312
80.704422
81.568078
82.596865
83.759841
85.052577
86.454049
87.915256
89.428434
90.939295
92.448947
93.941588
95.405436
96.826299
98.193903
99.512398
100.73813
101.89445
80.902604
81.418423
82.111303
82.965664
83.974609
85.112985
86.352556
87.707347
89.120471
90.569414
92.026527
93.460648
94.858749
96.210122
97.541148
98.809414
100.01249
101.12003
102.15107
82.274704
82.780048
83.458959
84.295039
85.268594
86.377156
87.588869
88.892444
90.265899
91.64934
93.033991
94.375276
95.680122
96.939477
98.172491
99.336648
100.44093
101.47592
102.41771
83.588472
84.084794
84.749062
85.563208
86.523537
87.591987
88.767257
90.022396
91.329307
92.637786
93.949938
95.225251
96.448813
97.612488
98.747461
99.848116
100.85861
101.78599
102.63308
84.854835
85.331918
85.980702
86.767808
87.703569
88.736504
89.872874
91.077113
92.317931
93.573611
94.80759
96.000518
97.138984
98.229358
99.269099
100.26557
101.18423
102.02998
102.81544
86.055178
86.514776
87.146235
87.915545
88.820175
89.823305
90.907235
92.054762
93.226638
94.410568
95.574491
96.695732
97.755883
98.770676
99.732835
100.65401
101.50972
102.28493
102.98285
87.198855
87.6494
88.255306
88.99964
89.869293
90.832685
91.86322
92.957151
94.073875
95.202436
96.303454
97.350998
98.332288
99.266338
100.16361
101.00806
101.77289
102.45443
103.09767
88.275111
88.704997
89.27956
89.999948
90.835728
91.763529
92.757544
93.7981
94.856978
95.915749
96.949103
97.923414
98.837625
99.702562
100.53397
101.30322
102.01666
102.66067
103.24516
89.274248
89.689039
90.250028
90.94502
91.754527
92.646326
93.596608
94.574487
95.574481
96.563093
97.534855
98.450114
99.311861
100.11627
100.8768
101.58576
102.23927
102.82558
103.33951
90.216344
90.617358
91.156446
91.816533
92.593605
93.443415
94.348551
95.276549
96.22192
97.15802
98.069571
98.93087
99.736012
100.48211
101.17813
101.83404
102.44005
102.98141
103.45773
91.08364
91.461134
91.970951
92.60991
93.358022
94.178945
95.042409
95.925702
96.818991
97.703354
98.564287
99.372082
100.12397
100.81877
101.46223
102.07394
102.63785
103.1318
103.55596
91.856268
92.218567
92.729094
93.358407
94.071925
94.85117
95.674961
96.515517
97.366676
98.201627
99.007688
99.765358
100.46255
101.1144
101.72125
102.28882
102.80838
103.2661
103.66097
92.599588
92.963964
93.445969
94.022687
94.695462
95.443427
96.237472
97.042983
97.856209
98.650873
99.409279
100.1289
100.78853
101.40985
101.98745
102.51686
102.99352