/*--------------------------------*- C++ -*----------------------------------*\
  =========                 |
  \\      /  F ield         | OpenFOAM: The Open Source CFD Toolbox
   \\    /   O peration     | Website:  https://openfoam.org
    \\  /    A nd           | Version:  11
     \\/     M anipulation  |
\*---------------------------------------------------------------------------*/
FoamFile
{
    format      ascii;
    class       volVectorField;
    location    "3.7";
    object      U;
}
// * * * * * * * * * * * * * * * * * * * * * * * * * * * * * * * * * * * * * //

dimensions      [0 1 -1 0 0 0 0];

internalField   nonuniform List<vector> 
5472
(
(10.032335 2.4921918 1.7306887e-18)
(10.210265 2.5055357 -1.8021472e-18)
(10.40146 2.5248114 -1.8250272e-18)
(10.580476 2.4687194 -1.860914e-18)
(10.751628 2.4751877 5.7781142e-18)
(10.937747 2.4060011 -3.2605246e-20)
(11.092948 2.3649657 -3.0580135e-18)
(11.257747 2.2746327 1.0645501e-18)
(11.437783 2.202445 0)
(11.562376 2.0918318 0)
(11.716242 1.9974014 0)
(11.837019 1.8678081 -3.3669765e-18)
(11.94323 1.7458981 1.7304139e-18)
(12.076667 1.6096934 -2.0295465e-20)
(12.139441 1.4591771 1.1764357e-18)
(12.248619 1.3208843 -6.0417394e-19)
(12.304088 1.1569281 -9.0715669e-19)
(12.363326 1.0225787 3.1006383e-19)
(12.416547 0.87333475 0)
(10.047674 2.3073775 -1.5805947e-18)
(10.188862 2.3080073 3.2646086e-18)
(10.376165 2.3167947 -1.6862222e-18)
(10.545105 2.2895125 -1.7017048e-18)
(10.717735 2.2839164 2.1157086e-20)
(10.866312 2.2213215 0)
(11.014348 2.1994632 1.8349373e-18)
(11.224366 2.1097943 -3.7518004e-18)
(11.339231 2.055262 4.8467935e-18)
(11.487289 1.9617927 9.9092707e-19)
(11.632223 1.8656674 0)
(11.743086 1.7609468 2.0642713e-18)
(11.881592 1.6372874 0)
(11.973754 1.5218153 5.2595539e-19)
(12.081566 1.3864728 -5.415214e-19)
(12.166957 1.2557275 0)
(12.228565 1.1276631 0)
(12.293681 0.99041644 -2.7366224e-19)
(12.321111 0.85233654 0)
(10.034188 2.1324894 0)
(10.187645 2.1699721 1.4841963e-18)
(10.337181 2.1758453 1.5228978e-18)
(10.500341 2.1622998 0)
(10.639274 2.173744 -1.7250775e-20)
(10.793811 2.1346421 -2.3899327e-20)
(10.983964 2.1064069 -1.6865818e-18)
(11.117429 2.041419 0)
(11.244176 2.0049923 -1.7408788e-18)
(11.409846 1.9103333 -4.4619201e-18)
(11.529896 1.8352173 1.1467446e-20)
(11.67488 1.7284978 -9.1102799e-19)
(11.789586 1.6166086 -9.3880035e-19)
(11.893955 1.5085224 1.9245034e-18)
(12.005418 1.3770991 1.4543873e-18)
(12.065471 1.2625765 4.9103728e-19)
(12.156119 1.1301881 2.4586587e-19)
(12.200958 0.99196324 -3.716496e-19)
(12.248063 0.86757505 1.2398285e-19)
(10.031023 1.9790162 0)
(10.173111 1.9814552 -1.3396164e-18)
(10.353855 1.9942662 -1.3730711e-18)
(10.457767 2.0195102 2.8033647e-18)
(10.616965 2.013631 -1.4710007e-18)
(10.78731 1.9684277 0)
(10.8992 1.9699021 -1.5224391e-18)
(11.048525 1.9018436 1.5395205e-18)
(11.193428 1.8739276 -1.5941142e-18)
(11.335114 1.7832715 -1.6936332e-20)
(11.472989 1.7228847 -1.6539641e-18)
(11.596231 1.6195016 0)
(11.702486 1.5254381 0)
(11.802076 1.4190124 -8.5649161e-19)
(11.89186 1.3031354 -8.6612536e-19)
(11.967643 1.1908217 0)
(12.050182 1.0642793 -2.2079755e-19)
(12.100523 0.93818497 1.117318e-19)
(12.155903 0.8106462 2.2281542e-19)
(10.017771 1.7975987 0)
(10.195563 1.8416687 0)
(10.273028 1.8846799 0)
(10.41341 1.8919386 -2.5365415e-18)
(10.567041 1.8846263 1.3200287e-18)
(10.661738 1.8911861 -4.004931e-18)
(10.81125 1.8618775 5.4832455e-18)
(10.964096 1.8202264 -2.7999532e-18)
(11.10156 1.8003602 3.1662932e-21)
(11.247081 1.7224487 1.4488639e-18)
(11.371179 1.6757765 1.474492e-18)
(11.488421 1.578885 -3.013234e-18)
(11.601488 1.512909 2.2979575e-18)
(11.708087 1.3949132 -7.7796975e-19)
(11.813555 1.2972336 0)
(11.90067 1.1747857 7.9286257e-19)
(11.977299 1.0664522 -3.9872638e-19)
(12.038402 0.93786171 1.9876208e-19)
(12.089211 0.82241417 -1.9808903e-19)
(10.050509 1.653627 0)
(10.173698 1.6946589 -4.3700228e-18)
(10.268688 1.7241083 2.2575148e-18)
(10.431466 1.7508725 2.307069e-18)
(10.509564 1.7617409 1.1764293e-18)
(10.653798 1.7385049 -1.1977873e-18)
(10.805909 1.7319527 2.4857864e-18)
(10.923797 1.7130211 1.2535666e-18)
(11.067865 1.6772007 2.5566007e-18)
(11.170606 1.6273725 -2.6215757e-18)
(11.306777 1.5781288 1.5481042e-20)
(11.414937 1.4935657 2.7079303e-18)
(11.550839 1.4196245 0)
(11.64282 1.3111287 -6.9765272e-19)
(11.751623 1.2293621 6.9840938e-19)
(11.818145 1.1051145 -1.7633572e-18)
(11.900337 1.0150689 7.0910866e-19)
(11.955896 0.87647978 -1.7776694e-19)
(12.008831 0.77404108 3.291367e-22)
(10.031521 1.5243394 3.8625768e-18)
(10.165615 1.5564853 3.943555e-18)
(10.246844 1.6051096 0)
(10.371513 1.6159739 -5.8822262e-21)
(10.452325 1.6238998 -4.2483809e-18)
(10.61487 1.643134 4.3657162e-18)
(10.696929 1.6346308 0)
(10.834301 1.6138857 -1.1381085e-18)
(10.952646 1.5968062 -4.6103033e-18)
(11.080749 1.5558664 2.367403e-18)
(11.230326 1.5018315 1.1895235e-18)
(11.32705 1.4383033 -1.220264e-18)
(11.465325 1.3622932 0)
(11.537919 1.2850032 6.1810121e-19)
(11.667131 1.1895124 0)
(11.72415 1.0926142 -6.2922015e-19)
(11.832776 0.99207308 9.5242938e-19)
(11.873409 0.87073833 7.6476276e-22)
(11.952428 0.76609137 -7.8908341e-22)
(10.079407 1.3818754 1.7286724e-18)
(10.183151 1.4292786 -3.545123e-18)
(10.25197 1.4800937 -3.6180369e-18)
(10.381101 1.4885703 3.7312816e-18)
(10.45324 1.5245491 -1.916801e-18)
(10.585069 1.5215533 -1.9471844e-18)
(10.661409 1.5208548 0)
(10.821245 1.5217062 3.0355206e-18)
(10.915313 1.4810871 -1.2291864e-20)
(11.07136 1.4630519 -3.155759e-18)
(11.159653 1.4152286 3.2287344e-18)
(11.280654 1.3645341 0)
(11.388958 1.296044 0)
(11.469971 1.2177524 1.1055458e-18)
(11.589088 1.1221912 -5.664563e-19)
(11.643461 1.0404794 -1.1266165e-18)
(11.755353 0.93063028 2.8515687e-19)
(11.77813 0.83135642 2.8677497e-19)
(11.881788 0.71458377 7.0292322e-20)
(10.054129 1.2602474 -1.5513403e-18)
(10.133149 1.2880219 4.759425e-18)
(10.205243 1.334901 -4.90304e-18)
(10.314614 1.3693838 3.3407784e-18)
(10.381754 1.396559 0)
(10.521783 1.3983377 1.740759e-18)
(10.599979 1.4200413 -1.7953328e-18)
(10.745334 1.4013216 0)
(10.82132 1.3997718 9.2101736e-19)
(10.972683 1.3754637 -1.90229e-18)
(11.052528 1.3348622 -9.5288554e-19)
(11.205632 1.3003706 -8.3642503e-21)
(11.284763 1.2255141 -2.945892e-18)
(11.417571 1.1717912 5.0558582e-19)
(11.499424 1.0756925 -4.9290903e-19)
(11.600071 0.99845128 1.0063423e-18)
(11.672356 0.89542737 -5.0205315e-19)
(11.735441 0.80361586 2.5603828e-19)
(11.800318 0.68594713 2.517623e-19)
(10.094697 1.1368393 -2.7872473e-18)
(10.168342 1.1846134 0)
(10.255892 1.2383981 1.4587821e-18)
(10.34626 1.2448541 -4.4728704e-18)
(10.420431 1.2841344 1.5391077e-18)
(10.521561 1.2956374 -1.5661447e-18)
(10.588072 1.3176891 1.5886625e-18)
(10.724688 1.3150695 -1.6341895e-18)
(10.800391 1.3163556 0)
(10.940536 1.2834453 8.3817585e-19)
(11.008034 1.2565248 0)
(11.147791 1.2112996 8.60118e-19)
(11.204569 1.160237 3.9953886e-23)
(11.338661 1.1060151 -4.3798037e-19)
(11.383192 1.0214969 4.4142519e-19)
(11.503806 0.96259157 4.4441796e-19)
(11.54122 0.85185116 -2.4131502e-21)
(11.644612 0.77381926 -6.7175485e-19)
(11.673109 0.65856909 0)
(10.080181 1.0021594 0)
(10.127478 1.0580187 1.2739569e-18)
(10.207173 1.1033172 0)
(10.264301 1.1502539 1.3257867e-18)
(10.341635 1.1780728 -4.0987203e-18)
(10.433526 1.1832014 4.1937106e-18)
(10.516102 1.2099048 -1.4098519e-18)
(10.631742 1.2066438 4.3682731e-18)
(10.707371 1.2229951 0)
(10.842941 1.1947788 7.511164e-19)
(10.917097 1.187095 0)
(11.056908 1.1403333 -1.5295418e-18)
(11.124337 1.1031687 3.1026506e-18)
(11.266459 1.0322708 -6.968124e-21)
(11.327285 0.96873813 -3.9503357e-19)
(11.462993 0.88687975 0)
(11.506648 0.80228002 0)
(11.616734 0.71807302 0)
(11.636448 0.62309336 -4.9632836e-20)
(10.101791 0.91669169 4.4303842e-18)
(10.154905 0.97120933 -5.6962177e-18)
(10.234271 1.00694 2.3211036e-18)
(10.291121 1.0325095 -6.7442775e-21)
(10.378194 1.0685364 0)
(10.438721 1.095529 -2.4779426e-18)
(10.533084 1.1125935 1.279365e-18)
(10.608737 1.1231991 -1.2878985e-18)
(10.706042 1.1301665 0)
(10.814181 1.1196793 -6.6367445e-19)
(10.887335 1.109558 1.3428229e-18)
(11.008237 1.0668293 -1.1668419e-20)
(11.071415 1.0418235 -1.3820677e-18)
(11.189934 0.97453314 -2.7676822e-18)
(11.243536 0.92939001 2.4422268e-18)
(11.355557 0.84110055 -1.4007929e-18)
(11.395929 0.78042794 8.8001312e-19)
(11.501449 0.67913338 1.7625694e-19)
(11.52197 0.60644707 4.3562989e-20)
(10.074301 0.79757495 -6.9227715e-18)
(10.128996 0.85061845 4.0614464e-18)
(10.188684 0.88001133 0)
(10.23466 0.93001541 -5.2886461e-18)
(10.306255 0.95729167 4.3438319e-18)
(10.370595 0.98806059 1.1063693e-18)
(10.463396 1.0166289 3.3725593e-18)
(10.531146 1.0276744 -2.3002349e-18)
(10.644414 1.0298596 -2.9022255e-18)
(10.724552 1.0287279 1.7788992e-18)
(10.831367 1.0171582 2.3807404e-18)
(10.932055 0.99674566 -3.6287383e-18)
(11.030547 0.96589664 2.4372469e-18)
(11.134749 0.91256341 -6.204759e-19)
(11.209407 0.86290865 3.0542001e-19)
(11.30904 0.7803211 -3.7379773e-21)
(11.355537 0.72268102 -7.7669496e-19)
(11.448244 0.62414937 -1.5460077e-19)
(11.475673 0.56577775 -3.8758568e-20)
(10.101621 0.71286161 2.6461024e-18)
(10.156215 0.75973764 3.5974196e-18)
(10.201456 0.80350791 -3.6938627e-18)
(10.253001 0.83904634 9.4213848e-19)
(10.313372 0.86426964 -2.8741871e-18)
(10.37405 0.89733404 2.9533891e-18)
(10.450886 0.92357598 9.9372451e-19)
(10.514055 0.95228492 -5.0788843e-18)
(10.607731 0.95698162 3.6056985e-18)
(10.668707 0.96045378 -1.5764612e-18)
(10.765913 0.94124895 0)
(10.846843 0.92334773 -5.3534356e-19)
(10.953437 0.89565122 -1.6128087e-18)
(11.034247 0.8643039 5.513148e-19)
(11.14209 0.81238235 1.6373349e-18)
(11.213401 0.75304801 5.448767e-19)
(11.294403 0.68138644 -1.0949914e-18)
(11.362833 0.59833836 2.7550839e-19)
(11.412035 0.52775086 3.0710049e-19)
(10.062428 0.59972216 -3.905966e-18)
(10.104199 0.64960264 3.2074847e-18)
(10.148521 0.70159562 0)
(10.204731 0.7373003 -8.351248e-19)
(10.264846 0.76477531 3.4024052e-18)
(10.333334 0.78772607 -6.9480115e-18)
(10.402376 0.81879574 9.0474327e-19)
(10.483898 0.84736593 3.6091759e-18)
(10.575608 0.86366223 2.7382845e-18)
(10.65103 0.87812798 -4.6242164e-19)
(10.745122 0.86128163 0)
(10.817945 0.85057726 2.3485543e-18)
(10.909899 0.81673118 -9.5701104e-19)
(10.988156 0.78668557 9.5514978e-19)
(11.089547 0.73542395 -1.4429102e-18)
(11.149128 0.68955727 -2.413612e-19)
(11.241058 0.61908271 0)
(11.285201 0.55925879 0)
(11.353086 0.48062096 -3.010015e-20)
(10.102365 0.51590842 6.7834126e-19)
(10.143341 0.56341175 -6.3959811e-18)
(10.181014 0.61234484 2.89498e-18)
(10.221667 0.65101107 -3.703813e-18)
(10.259778 0.69318933 -7.5392343e-19)
(10.306678 0.71866229 0)
(10.367776 0.74170966 -3.8966373e-18)
(10.436162 0.76042632 2.3893823e-18)
(10.504237 0.78518198 -8.0531642e-19)
(10.587918 0.80213907 -1.4079846e-21)
(10.674528 0.79841931 0)
(10.762899 0.79188946 0)
(10.849099 0.76358918 -4.1713148e-19)
(10.931306 0.73615362 -4.1936419e-19)
(11.016117 0.69101951 2.1050441e-19)
(11.081649 0.64924047 1.267837e-18)
(11.167551 0.57887378 -8.4998868e-19)
(11.217083 0.52555677 1.0625504e-19)
(11.288988 0.44109439 2.6296564e-20)
(10.060475 0.42685515 4.305036e-18)
(10.092807 0.47122442 -4.4071506e-18)
(10.137775 0.5077858 0)
(10.185928 0.54772917 6.5397894e-19)
(10.236765 0.58880484 0)
(10.296351 0.61983618 6.7835811e-19)
(10.358195 0.65036963 6.894627e-19)
(10.418643 0.67426048 0)
(10.486348 0.69228069 3.5339533e-18)
(10.558523 0.70145725 -2.5179541e-18)
(10.62864 0.70774114 1.8068166e-18)
(10.713329 0.70737226 -1.4654299e-18)
(10.792858 0.69210376 1.4659156e-18)
(10.881813 0.66453773 -9.1705653e-21)
(10.954856 0.62800224 -1.4880353e-18)
(11.031959 0.58481445 -1.8536029e-19)
(11.097804 0.5263379 -1.8652587e-19)
(11.15946 0.47693082 -9.2735874e-20)
(11.215566 0.40018366 0)
(10.101716 0.34460209 4.9027259e-18)
(10.110496 0.40491966 0)
(10.14704 0.43378452 0)
(10.160734 0.47900171 5.7757576e-19)
(10.205763 0.50644719 0)
(10.251012 0.54695291 -5.9733435e-19)
(10.307337 0.57705455 -6.0640201e-19)
(10.370936 0.60365114 -2.4555789e-18)
(10.435924 0.6266571 2.4986994e-18)
(10.499487 0.64133338 0)
(10.573405 0.6469976 -2.8553876e-18)
(10.654175 0.64323804 2.2516509e-18)
(10.732632 0.63304175 1.2868994e-18)
(10.819531 0.61111709 -2.593885e-18)
(10.891198 0.5807077 2.6026092e-18)
(10.973461 0.54087583 -1.9576129e-18)
(11.032132 0.48790307 6.5318237e-19)
(11.105231 0.43596703 0)
(11.156548 0.36748236 0)
(10.061187 0.27435066 7.7039995e-18)
(10.088474 0.31525927 -3.9313828e-18)
(10.124489 0.35038703 3.9964153e-18)
(10.149524 0.38799901 -4.5863479e-18)
(10.198307 0.41790435 -4.135823e-18)
(10.226594 0.45723063 4.2146214e-18)
(10.285799 0.48159782 2.1305605e-18)
(10.338186 0.51595971 -9.1203277e-21)
(10.400345 0.53271308 -2.1941191e-18)
(10.467448 0.55277685 0)
(10.540467 0.55816935 0)
(10.615408 0.56178109 2.8066102e-19)
(10.691852 0.5554868 0)
(10.769697 0.5383584 1.1329593e-18)
(10.842905 0.51520352 -1.1425668e-18)
(10.916954 0.48114821 -5.6940405e-19)
(10.978326 0.43642959 7.1477203e-19)
(11.045032 0.38650274 -3.5635739e-19)
(11.089121 0.32664605 2.8462068e-19)
(10.052026 0.21358693 0)
(10.08241 0.25177678 0)
(10.101325 0.28358916 3.5223023e-18)
(10.134747 0.32259978 -3.5895225e-18)
(10.17196 0.355801 4.093958e-18)
(10.207614 0.39126777 -4.1660225e-18)
(10.264 0.4202409 0)
(10.308657 0.45092644 4.74873e-19)
(10.369133 0.47064317 1.9158817e-18)
(10.421314 0.49249206 -1.9433972e-18)
(10.490862 0.50015094 1.9505598e-18)
(10.559363 0.50648387 -1.0363656e-20)
(10.638461 0.49765286 -3.9587583e-18)
(10.71354 0.48356328 1.992523e-18)
(10.788533 0.46107065 0)
(10.862019 0.43086678 -9.9554945e-19)
(10.926451 0.3900714 1.5609065e-18)
(10.992601 0.34581643 -6.8641056e-19)
(11.042627 0.28999099 2.4870415e-19)
(10.048914 0.15249859 1.162135e-17)
(10.071626 0.18216948 -6.1078377e-18)
(10.085244 0.21110783 0)
(10.116865 0.23721065 -3.9419281e-19)
(10.141031 0.27172518 -4.0003614e-19)
(10.18677 0.30435348 4.0565339e-19)
(10.228221 0.33696174 0)
(10.285248 0.36407519 -4.156565e-19)
(10.337715 0.38820062 3.356144e-18)
(10.399177 0.40834873 -3.401065e-18)
(10.461382 0.42083549 0)
(10.526165 0.42920036 0)
(10.600433 0.42622935 2.1649832e-19)
(10.66715 0.41710651 1.0864854e-19)
(10.74163 0.40138913 -1.0890814e-19)
(10.806034 0.37671182 0)
(10.870108 0.34329291 -4.8910458e-19)
(10.925579 0.30301798 4.3605926e-19)
(10.975447 0.25453804 0)
(10.035282 0.10606243 -1.0553285e-17)
(10.052072 0.13294375 1.1074236e-17)
(10.074087 0.15821916 -8.4375768e-21)
(10.095427 0.18864811 -5.1963425e-18)
(10.121396 0.21365486 0)
(10.155961 0.24594676 2.8422718e-18)
(10.192947 0.27537207 -5.9415969e-18)
(10.24243 0.29961033 2.9174557e-18)
(10.289996 0.32355501 0)
(10.35248 0.34279349 -2.9606506e-18)
(10.409184 0.3601002 2.9945123e-18)
(10.485976 0.36452792 1.4992061e-18)
(10.548531 0.36665041 -1.5125573e-18)
(10.625783 0.35524011 1.3214819e-18)
(10.693974 0.34053767 -1.4262875e-18)
(10.766925 0.31837461 0)
(10.832234 0.2899716 -4.7523088e-20)
(10.891513 0.25413923 -1.4183838e-19)
(10.94259 0.20760378 2.0095331e-19)
(10.036124 0.068368316 2.9013463e-19)
(10.051006 0.082943656 -5.8985485e-19)
(10.065312 0.09974521 4.7858865e-18)
(10.084175 0.12316978 2.9556211e-19)
(10.109966 0.14733916 -3.1770478e-19)
(10.137773 0.17384573 -4.9901224e-18)
(10.179303 0.20462032 1.5747443e-19)
(10.215599 0.23068475 2.702171e-18)
(10.267489 0.25004858 -2.5745346e-18)
(10.316431 0.27089622 -1.6203709e-19)
(10.374249 0.28557436 0)
(10.44127 0.29836247 2.7806502e-18)
(10.502815 0.30168364 -2.8032552e-18)
(10.579193 0.29757843 -1.2346087e-18)
(10.639403 0.28902042 8.8744545e-20)
(10.712071 0.27080851 1.9858288e-18)
(10.76989 0.2535733 -6.2128552e-19)
(10.833782 0.22359156 -6.186209e-20)
(10.883016 0.19161163 -1.0258505e-20)
(10.015846 0.046559454 0)
(10.028906 0.05857846 2.5885455e-19)
(10.038405 0.070290541 4.1974321e-18)
(10.054297 0.084949621 -4.6588716e-18)
(10.07397 0.10287646 4.4406794e-18)
(10.104738 0.12229233 -4.3650623e-18)
(10.141555 0.14332274 1.377956e-19)
(10.185748 0.16630128 -1.3894281e-19)
(10.235567 0.18599688 2.0988425e-18)
(10.287191 0.20320459 -2.1219744e-18)
(10.351347 0.21555894 2.125721e-18)
(10.413412 0.22424942 -2.3591626e-18)
(10.48509 0.22680954 0)
(10.550652 0.22312906 1.1457109e-18)
(10.61888 0.21342644 -1.2960243e-18)
(10.685218 0.19667503 5.7381079e-19)
(10.743309 0.17528154 -5.3985776e-19)
(10.800524 0.14914779 -2.5060245e-19)
(10.847804 0.11749809 2.9066726e-19)
(10.018606 0.024140202 -5.2202294e-21)
(10.028177 0.030490104 -7.2669344e-18)
(10.042055 0.037911807 1.1502651e-19)
(10.054463 0.049914709 -7.7918703e-23)
(10.071002 0.057599633 1.1776807e-19)
(10.093245 0.074042554 0)
(10.116453 0.089297138 3.8443066e-18)
(10.15377 0.1097093 -4.0093904e-18)
(10.191568 0.12669488 1.2218034e-19)
(10.240522 0.1434979 -1.905059e-18)
(10.295404 0.15923466 4.0232975e-18)
(10.354217 0.1711223 -3.9783701e-18)
(10.425919 0.18025842 1.9995351e-18)
(10.495556 0.18326778 0)
(10.569765 0.18264832 -9.6652454e-19)
(10.638946 0.17613723 1.001899e-18)
(10.700614 0.16816364 -1.5556964e-20)
(10.759986 0.1484898 2.6423994e-23)
(10.809941 0.12703727 -3.8732588e-21)
(10.00594 0.011981437 6.330426e-18)
(10.012824 0.01498438 -6.3592117e-18)
(10.02137 0.020768113 6.3435677e-18)
(10.033418 0.025503237 1.017822e-19)
(10.049206 0.030539643 0)
(10.069033 0.037607896 0)
(10.096692 0.043748022 -5.2345591e-20)
(10.131563 0.051336016 -3.3260789e-18)
(10.173712 0.059138388 3.4653825e-18)
(10.22533 0.065245036 3.3940666e-18)
(10.281048 0.071580815 -1.6502781e-18)
(10.345234 0.074577789 -1.8120742e-18)
(10.413779 0.074472047 0)
(10.483918 0.07282556 2.7138742e-20)
(10.556798 0.069920391 2.7093356e-20)
(10.624369 0.065249813 8.5146187e-19)
(10.689162 0.057352937 -8.8104488e-19)
(10.745088 0.043535514 1.9544943e-19)
(10.792801 0.029488923 -2.1550139e-19)
(10.005417 0.0028280425 -4.2630617e-20)
(10.009468 0.0043885463 5.5032897e-18)
(10.016363 0.0068002209 -3.7653883e-21)
(10.026371 0.01029098 -5.3311369e-21)
(10.039951 0.014639934 -5.6936011e-18)
(10.058223 0.019603544 0)
(10.082454 0.025028655 2.8486327e-18)
(10.113603 0.030421027 -2.876273e-18)
(10.152399 0.035555228 -4.5821434e-20)
(10.198795 0.040154758 -2.3028646e-20)
(10.252468 0.043928605 -2.3122282e-20)
(10.313132 0.047305722 2.3190486e-20)
(10.373927 0.051222983 0)
(10.437608 0.056943371 1.4698845e-18)
(10.503594 0.061920371 -1.5056435e-18)
(10.568833 0.065334297 -7.3805583e-19)
(10.646853 0.073723156 7.5219524e-19)
(10.701213 0.061486209 3.7972782e-19)
(10.759419 0.067102919 -3.7353936e-19)
(12.441747 0.73771472 -1.4902529e-19)
(12.480418 0.61604655 -5.9611327e-19)
(12.481281 0.48600569 5.8340289e-19)
(12.481476 0.36453004 0)
(12.456385 0.25839589 -1.0919184e-18)
(12.454946 0.16326561 -2.1035814e-18)
(12.40947 0.066183074 0)
(12.381182 -0.017573942 -1.9789614e-20)
(12.314181 -0.1046103 3.574768e-18)
(12.272617 -0.17126616 1.7154272e-18)
(12.199362 -0.23249973 -1.6115396e-18)
(12.153756 -0.27597605 3.0764875e-18)
(12.090564 -0.30642873 -2.8709293e-18)
(12.04869 -0.3330538 0)
(12.001119 -0.33209802 1.303717e-18)
(11.929319 -0.32477228 -1.2224992e-18)
(11.881859 -0.29070899 -2.3627539e-18)
(11.794413 -0.21817731 2.2188016e-18)
(11.744191 -0.14837886 -1.0675696e-18)
(12.369319 0.70949795 -1.286148e-19)
(12.371567 0.56872971 7.690237e-19)
(12.387319 0.43075287 -5.0365652e-19)
(12.390276 0.31423629 0)
(12.364753 0.18513958 -9.5607625e-19)
(12.364725 0.09896533 2.7446193e-18)
(12.343343 0.00084708855 0)
(12.317087 -0.067950142 0)
(12.274041 -0.14515845 0)
(12.230459 -0.19875326 0)
(12.166097 -0.24871654 2.8786439e-18)
(12.107278 -0.2815746 -4.0969141e-18)
(12.045128 -0.29911587 -3.9220811e-18)
(11.989853 -0.3009836 2.4487476e-18)
(11.956084 -0.27678238 -2.3432944e-18)
(11.923766 -0.2459244 2.2469453e-18)
(11.905138 -0.18026935 4.7296858e-21)
(11.897152 -0.10633506 -2.0191976e-18)
(11.877044 -0.0064940604 1.9519337e-18)
(12.293714 0.72717266 0)
(12.295999 0.57948002 -4.4627727e-19)
(12.321805 0.46029514 -8.7526039e-19)
(12.305716 0.31746334 -4.5357202e-21)
(12.285583 0.20553325 -6.9233672e-21)
(12.276975 0.09259852 1.6225483e-18)
(12.231807 0.00071131665 -3.0919205e-18)
(12.227388 -0.083819556 1.473736e-18)
(12.17859 -0.15231872 1.689003e-20)
(12.143734 -0.21340165 0)
(12.109878 -0.25518436 3.8728856e-18)
(12.072845 -0.28056045 1.3598579e-20)
(12.028798 -0.28827331 2.3322343e-18)
(11.990364 -0.28302503 2.2384449e-18)
(11.968016 -0.25564701 3.1821173e-18)
(11.970938 -0.21872237 -4.014262e-18)
(11.975342 -0.13961617 -3.1430208e-20)
(12.017045 -0.077072747 3.6584946e-18)
(12.103693 0.066577748 1.7875591e-18)
(12.197493 0.67420599 3.8673111e-19)
(12.212563 0.53533019 -7.7114402e-19)
(12.242852 0.40690322 1.1359851e-18)
(12.214622 0.27425399 0)
(12.218702 0.16782267 2.1720101e-18)
(12.165971 0.052786087 -3.5063251e-18)
(12.153785 -0.034752907 2.7135684e-18)
(12.10687 -0.11358754 -1.8308401e-21)
(12.076147 -0.18108768 1.5745465e-20)
(12.035804 -0.23376579 -1.2078021e-18)
(12.01392 -0.26606473 0)
(11.990115 -0.28851247 -1.0887984e-18)
(11.987189 -0.28757537 1.0468931e-18)
(11.989025 -0.27752833 -1.9356216e-18)
(12.003385 -0.25155144 0)
(12.029525 -0.21518007 0)
(12.095249 -0.17662312 -1.7293139e-18)
(12.177519 -0.11146839 0)
(12.331076 -0.037948563 1.597823e-18)
(12.135498 0.68478808 3.3417372e-19)
(12.160309 0.54686006 -3.3212585e-19)
(12.184168 0.41042773 3.4186068e-21)
(12.166788 0.28240531 -6.4549731e-19)
(12.172845 0.16466455 6.2200209e-19)
(12.118247 0.054112996 -4.2233694e-22)
(12.111529 -0.02815209 -1.1821864e-18)
(12.051865 -0.10455333 0)
(12.03288 -0.16916231 -2.2119849e-18)
(11.998007 -0.2088446 1.0569e-18)
(11.975509 -0.24678409 0)
(11.965616 -0.26365155 0)
(11.978734 -0.28244912 -1.8233023e-18)
(12.00155 -0.27062643 -1.7491726e-18)
(12.046837 -0.27454802 1.7046272e-18)
(12.128235 -0.24715715 3.2612096e-18)
(12.232833 -0.26397193 1.5630712e-18)
(12.37476 -0.23584517 -1.4731599e-18)
(12.570899 -0.27693674 1.8347713e-20)
(12.051847 0.62650353 0)
(12.087498 0.5061485 2.8868307e-19)
(12.086509 0.35808395 -1.421699e-18)
(12.09734 0.25242473 5.593735e-19)
(12.074322 0.12265775 1.6447397e-18)
(12.058258 0.03175332 -1.0762282e-18)
(12.030209 -0.062090464 -2.0906057e-18)
(11.992703 -0.12591812 2.0058937e-18)
(11.968899 -0.19687419 -9.9035611e-19)
(11.954118 -0.21907435 1.8645399e-18)
(11.934328 -0.27267971 0)
(11.947708 -0.27836189 0)
(11.969167 -0.30931909 -1.6368617e-18)
(12.022584 -0.29943091 4.7020452e-18)
(12.073239 -0.35064962 -6.0268818e-18)
(12.195137 -0.34618036 2.873572e-18)
(12.279026 -0.44977203 -5.4890204e-18)
(12.491785 -0.4764765 1.2959828e-18)
(12.596774 -0.66406074 2.4718431e-18)
(11.982509 0.62539772 6.2670233e-20)
(12.03376 0.50286508 2.5048543e-19)
(12.037885 0.3519828 -4.9102431e-19)
(12.053195 0.24119711 0)
(12.026645 0.1037145 -9.5704178e-19)
(12.022416 0.028249347 2.7993768e-18)
(11.972115 -0.072269197 -1.8093569e-18)
(11.966113 -0.12683699 8.8636523e-19)
(11.927548 -0.20040596 -1.7208493e-18)
(11.935756 -0.23183323 4.9569726e-18)
(11.919588 -0.29118139 -3.1469009e-18)
(11.952377 -0.30589823 0)
(11.972063 -0.36141597 1.4568913e-18)
(12.059648 -0.37891075 2.8034219e-18)
(12.095359 -0.47140942 -4.0079365e-18)
(12.246812 -0.5239692 3.8244193e-18)
(12.278672 -0.67960207 -3.6326719e-18)
(12.489372 -0.79836063 -2.2823265e-18)
(12.489654 -1.066802 -1.0673592e-18)
(11.863574 0.59814887 1.6202441e-19)
(11.963876 0.45594732 2.154868e-19)
(11.917007 0.3263941 -4.2500257e-19)
(11.972887 0.20022251 0)
(11.914758 0.083120515 1.6543256e-18)
(11.941272 -0.0053058389 -8.1457266e-19)
(11.882542 -0.098073127 0)
(11.906821 -0.16263244 -1.5420849e-18)
(11.859039 -0.23087827 7.5248684e-19)
(11.888463 -0.26988856 0)
(11.871942 -0.3383677 -1.3970593e-18)
(11.927357 -0.37072895 1.3427262e-18)
(11.932869 -0.45481638 1.2912071e-18)
(12.040502 -0.5142138 -2.4782937e-18)
(12.045887 -0.63838629 2.3642226e-18)
(12.197041 -0.75720234 -1.1300433e-18)
(12.167393 -0.93351761 -1.0730083e-18)
(12.317581 -1.1378999 -1.0174097e-18)
(12.189358 -1.4174075 -9.6694127e-19)
(11.823407 0.58656666 3.7258145e-19)
(11.895365 0.42622838 -1.8483472e-19)
(11.88345 0.31459608 0)
(11.931476 0.16894917 0)
(11.875593 0.078856263 -1.4355957e-18)
(11.90663 -0.031303352 1.4104513e-18)
(11.838719 -0.11416745 0)
(11.872853 -0.18490987 6.7112221e-19)
(11.825852 -0.25754193 -6.5230835e-19)
(11.868353 -0.31110211 0)
(11.842327 -0.38781333 1.223383e-18)
(11.910593 -0.45242534 3.6298853e-21)
(11.88897 -0.55728439 1.6730425e-21)
(11.99172 -0.66082977 0)
(11.955933 -0.81174334 -4.1794011e-18)
(12.056827 -0.96544225 3.9927291e-18)
(11.983141 -1.1756689 4.7526918e-18)
(12.024409 -1.369157 -6.3306565e-18)
(11.829122 -1.6508135 4.3160902e-18)
(11.752924 0.5617246 0)
(11.768405 0.38571568 1.3555514e-21)
(11.815885 0.29107695 0)
(11.817617 0.13358381 0)
(11.813147 0.057822772 6.1988871e-19)
(11.808298 -0.075983457 4.818198e-21)
(11.776 -0.13347011 -6.037221e-19)
(11.78729 -0.23515437 -1.7734544e-18)
(11.758601 -0.29400769 2.2810981e-18)
(11.801367 -0.37826426 0)
(11.775759 -0.4571514 -1.0788092e-18)
(11.848246 -0.56366956 -6.2450642e-18)
(11.801113 -0.67459476 2.9989222e-18)
(11.883606 -0.82283271 0)
(11.803293 -0.96342314 -3.6869654e-18)
(11.841727 -1.1642363 4.4133736e-18)
(11.697187 -1.3349752 -3.373882e-18)
(11.676259 -1.5387763 4.0332312e-18)
(11.415671 -1.7404149 0)
(11.728002 0.52496365 -2.777198e-19)
(11.727702 0.36543366 1.3915209e-19)
(11.78575 0.26044336 0)
(11.763737 0.10828986 -1.0948571e-18)
(11.788622 0.032447126 1.6161715e-18)
(11.765076 -0.10343191 -5.3001932e-19)
(11.755923 -0.16120927 -1.5788118e-18)
(11.743731 -0.27915847 3.5875626e-18)
(11.735652 -0.33607056 -1.9916364e-18)
(11.751876 -0.45804992 0)
(11.728303 -0.53208714 9.4147141e-19)
(11.766294 -0.68094978 5.474447e-18)
(11.698791 -0.77926518 -3.5125978e-18)
(11.737039 -0.96190912 0)
(11.600724 -1.0869044 0)
(11.576165 -1.2927872 -1.5615613e-18)
(11.375407 -1.414717 7.5064242e-19)
(11.285091 -1.5968 -2.1568986e-18)
(10.979356 -1.6946974 0)
(11.631135 0.48184864 -2.3968561e-19)
(11.627389 0.35089467 7.1811301e-19)
(11.701299 0.22438773 -7.132869e-19)
(11.660473 0.084034308 0)
(11.707346 -0.0075141326 1.4097494e-18)
(11.657807 -0.12907901 -1.8381734e-18)
(11.682712 -0.20057538 0)
(11.651624 -0.32697564 8.9302215e-19)
(11.665838 -0.39590734 8.7278464e-19)
(11.646436 -0.53073513 0)
(11.636201 -0.60726309 0)
(11.615111 -0.77632216 -7.9738957e-19)
(11.550449 -0.86061643 -2.3141372e-18)
(11.496813 -1.073587 -3.2341704e-21)
(11.366687 -1.1395612 2.1492171e-18)
(11.265842 -1.3498328 1.3811929e-18)
(11.045171 -1.397239 -6.6349084e-19)
(10.912763 -1.5439135 1.2757792e-18)
(10.599062 -1.5569353 0)
(11.578155 0.43724312 0)
(11.58337 0.33854087 -8.2649042e-19)
(11.664961 0.17657111 1.6416491e-18)
(11.616407 0.065119582 -1.2225315e-18)
(11.67211 -0.049729821 0)
(11.612837 -0.16316311 0)
(11.645223 -0.25747916 0)
(11.58501 -0.37344195 -7.7200336e-19)
(11.604785 -0.46115215 -7.5605255e-19)
(11.543345 -0.59122512 0)
(11.534466 -0.68482804 -7.2012936e-19)
(11.446738 -0.84695312 -6.9889205e-19)
(11.383816 -0.93423059 -6.7512668e-19)
(11.241093 -1.1178248 2.6169202e-18)
(11.110891 -1.1544577 -2.5272424e-18)
(10.923972 -1.3301741 -6.0894232e-19)
(10.714089 -1.2952453 3.5388028e-18)
(10.527099 -1.4174536 -5.6858074e-18)
(10.220015 -1.3269735 3.2947288e-18)
(11.490123 0.4085937 -4.4754562e-20)
(11.519702 0.30539338 8.9299247e-20)
(11.577905 0.13573019 8.8678632e-19)
(11.551705 0.052757105 -2.1165822e-18)
(11.591767 -0.096786271 1.0424939e-18)
(11.537658 -0.17729387 0)
(11.571733 -0.30012201 0)
(11.493403 -0.40675318 6.725778e-19)
(11.508227 -0.51202612 -2.6388085e-18)
(11.41891 -0.6343034 -6.5416054e-19)
(11.394644 -0.7382867 6.1882527e-19)
(11.260882 -0.87916303 3.0454922e-18)
(11.176115 -0.95000119 5.9287943e-19)
(10.990147 -1.0954989 0)
(10.858989 -1.0983938 1.6701768e-18)
(10.642819 -1.2103117 0)
(10.461751 -1.121375 -3.1373343e-18)
(10.224533 -1.1983258 9.0847222e-18)
(9.9759384 -1.0195352 -7.8156812e-18)
(11.399226 0.38363623 7.691102e-20)
(11.470593 0.25350656 -7.6507664e-20)
(11.491498 0.11399935 0)
(11.494335 0.01425048 -9.1611956e-19)
(11.501287 -0.14006336 2.9398482e-19)
(11.467318 -0.21068311 1.191062e-18)
(11.475765 -0.36466759 0)
(11.392584 -0.43497387 -2.9132835e-18)
(11.388807 -0.57341825 1.7077637e-18)
(11.27148 -0.66926035 -1.5427141e-21)
(11.225031 -0.77654384 0)
(11.052708 -0.87483914 0)
(10.9519 -0.94492195 -5.1744366e-19)
(10.716608 -1.0260581 0)
(10.591087 -1.0003894 3.2450732e-21)
(10.343717 -1.0396605 9.5156599e-19)
(10.216603 -0.91477135 -2.7680352e-18)
(9.9835789 -0.92187495 7.1424509e-18)
(9.8273205 -0.68173559 -3.459926e-18)
(11.335034 0.35398646 2.3206619e-19)
(11.419087 0.21366864 -1.9846212e-19)
(11.421941 0.10439828 0)
(11.462892 -0.028068242 0)
(11.433109 -0.15328993 0)
(11.426836 -0.24804016 0)
(11.383889 -0.38553749 -2.048694e-18)
(11.323625 -0.45138512 2.0099477e-18)
(11.266194 -0.61060594 2.4794641e-18)
(11.149464 -0.65792572 -9.6860716e-19)
(11.080812 -0.77924183 0)
(10.888308 -0.82664694 3.7200224e-18)
(10.771608 -0.87639517 -6.7954786e-18)
(10.526687 -0.88341081 3.5276797e-18)
(10.402596 -0.84338557 -4.2998233e-18)
(10.135645 -0.80567896 2.5058438e-18)
(10.043776 -0.6714448 -8.1158396e-19)
(9.8236176 -0.61325905 -7.8940466e-19)
(9.7490398 -0.3498671 7.6423657e-19)
(11.270116 0.31516885 2.2837448e-19)
(11.332456 0.17622355 -7.4134272e-19)
(11.33935 0.072173235 4.5389296e-19)
(11.366202 -0.072719618 -9.0636037e-19)
(11.32715 -0.17081946 8.9691323e-19)
(11.331126 -0.29340902 0)
(11.25332 -0.39847203 -4.4218941e-19)
(11.207816 -0.49286169 1.7471214e-18)
(11.093156 -0.60997322 -1.7138107e-18)
(10.988467 -0.65085468 -4.2113538e-19)
(10.852303 -0.76018914 -3.3131322e-18)
(10.683084 -0.73869183 3.2344646e-18)
(10.552686 -0.77692366 -3.951644e-19)
(10.328225 -0.71476698 2.3208573e-18)
(10.227199 -0.65738741 -2.2566787e-18)
(10.006188 -0.55475393 0)
(9.9627427 -0.41205509 -5.7238692e-18)
(9.768098 -0.28595794 6.2521042e-18)
(9.7805914 -0.012906781 0)
(11.228899 0.28034092 -3.9328492e-19)
(11.279041 0.1531381 3.9297533e-19)
(11.305932 0.044959582 -7.8368208e-19)