/*--------------------------------*- C++ -*----------------------------------*\
  =========                 |
  \\      /  F ield         | OpenFOAM: The Open Source CFD Toolbox
   \\    /   O peration     | Website:  https://openfoam.org
    \\  /    A nd           | Version:  11
     \\/     M anipulation  |
\*---------------------------------------------------------------------------*/
FoamFile
{
    format      ascii;
    class       surfaceScalarField;
    location    "5.725";
    object      phi;
}
// * * * * * * * * * * * * * * * * * * * * * * * * * * * * * * * * * * * * * //

dimensions      [0 3 -1 0 0 0 0];

internalField   nonuniform List<scalar> 
8667
(
15.890182
1.7956746
0.091921466
13.995029
1.6510653
0.24408742
12.093775
1.5168859
0.3843679
10.192336
1.4599788
0.44146011
8.2946117
1.3868685
0.51085609
6.4109829
1.3418969
0.54173196
4.5155436
1.3026978
0.59274145
2.6814362
1.2446548
0.58945266
1.2361199
0.56990263
0.87541366
15.889105
3.6843475
13.99305
3.5471202
12.086817
3.4231196
10.181959
3.3648364
8.2901537
3.2786739
6.3955505
3.2365001
4.5150089
3.1832394
2.6770284
3.0826353
3.0608899
0.85225838
15.889478
5.5726472
13.98811
5.4484888
12.084619
5.3266102
10.175965
5.2734909
8.281359
5.1732795
6.3843563
5.1335028
4.5023609
5.0652348
2.6664534
4.9185427
4.8950694
0.83227395
15.889525
7.4609002
13.986657
7.3513572
12.081111
7.2321561
10.171371
7.1832306
8.2731605
7.0714899
6.3748736
7.0317898
4.4850241
6.9550843
2.6392175
6.7643493
6.7253425
0.8089444
15.889345
9.3493314
13.987149
9.2535533
12.077609
9.141696
10.167543
9.0932963
8.2664377
8.9725954
6.3647139
8.9335136
4.4765489
8.8432492
2.624084
8.6168142
8.557247
0.79217959
15.888921
11.238189
13.987646
11.154828
12.077332
11.052011
10.166887
11.003741
8.2618693
10.877613
6.3528386
10.842544
4.4572095
10.738878
2.5945452
10.479478
10.382623
0.76916947
15.888614
13.127352
13.987179
13.056264
12.077651
12.961538
10.165144
12.916248
8.2580828
12.784674
6.3482332
12.752394
4.4501346
12.636977
2.5758879
12.353725
12.205437
0.75307404
15.888299
15.016831
13.987478
14.957084
12.078555
14.870462
10.167504
14.827299
8.2546821
14.697496
6.3362324
14.670843
4.4313023
14.541907
2.542721
14.242307
14.019664
0.7284939
15.888512
16.906097
13.989504
16.856092
12.080813
16.779152
10.168257
16.739854
8.2553203
16.610433
6.3346453
16.591518
4.4237079
16.452845
2.5154157
16.150599
15.838117
0.69696231
18.732892
15.950984
20.558825
15.951845
22.384355
15.952253
24.209699
15.952436
26.034595
15.952864
27.858454
15.953921
29.680727
15.955507
31.500548
15.957959
15.960879
33.317449
18.690628
14.116448
20.525001
14.117472
22.358435
14.118819
24.190452
14.120419
26.020725
14.122591
27.849141
14.125505
29.678792
14.125856
31.510898
14.125854
14.123382
33.348394
18.62431
12.271291
20.467461
12.274321
22.309805
12.276476
24.150464
12.279759
25.991253
12.281802
27.82853
12.288228
29.659621
12.294764
31.483387
12.302088
12.308967
33.297803
18.590313
10.420832
20.441798
10.422836
22.291739
10.426536
24.141009
10.430489
25.98964
10.433171
27.84274
10.435128
29.708837
10.428668
31.575226
10.435699
10.435484
33.448709
18.472897
8.5583677
20.336161
8.5595721
22.207353
8.5553436
24.076942
8.5609005
25.947812
8.5623006
27.810881
8.5720595
29.662477
8.5770711
31.514893
8.5832834
8.5913984
33.358978
18.467607
6.682279
20.352142
6.6750376
22.248772
6.6587129
24.158153
6.6515196
26.079841
6.6406123
28.015282
6.6366192
29.957335
6.6350176
31.907392
6.6332262
6.634041
33.86475
18.320202
4.8149219
20.208881
4.7863578
22.108409
4.7591849
24.02941
4.7305191
25.954723
4.7152994
27.896252
4.6950905
29.831662
4.6996072
31.778355
4.6865334
4.7048868
33.707509
18.058395
2.9071258
20.034767
2.8099855
22.063241
2.7307115
24.154516
2.6392438
26.270495
2.5993197
28.413077
2.552509
30.56071
2.5519744
32.728011
2.5192324
2.5235209
34.909376
17.701304
1.0439383
19.762019
0.74927067
22.019868
0.47286296
24.353866
0.30524611
26.689505
0.26368052
28.983611
0.25840262
31.285312
0.2502741
33.63933
0.16521436
36.080283
0.082566981
33.191424
0.12602502
33.066335
0.12508945
32.941678
0.12465648
32.818743
0.12293484
32.696713
0.1220306
32.577825
0.11888761
32.460271
0.11755419
32.347836
0.1124353
0.11089025
32.236945
33.233197
0.24122179
33.12067
0.23761694
33.010157
0.23516931
32.903821
0.22927062
32.800093
0.22575901
32.702611
0.21636927
32.608005
0.21216084
32.521194
0.19924562
0.19501285
32.437072
33.185773
0.35325141
33.080234
0.34315626
32.978042
0.33736153
32.882566
0.32474626
32.793845
0.31448033
32.708389
0.30182438
32.632729
0.2878218
32.559703
0.27227112
0.25956009
32.495156
33.364489
0.43747087
33.288086
0.41956012
33.21626
0.40918705
33.151097
0.38990971
33.08865
0.37692653
33.03261
0.35786477
32.978998
0.34143429
32.932146
0.31912275
0.30389964
32.887806
33.293235
0.50321393
33.236501
0.47629454
33.185071
0.46061716
33.141871
0.43310926
33.101362
0.41743586
33.072284
0.38694254
33.041988
0.37173057
33.023675
0.33743548
0.32393772
33.003637
33.84409
0.52387363
33.831846
0.48853908
33.820485
0.47197811
33.812824
0.44077016
33.805662
0.4245979
33.799898
0.39270603
33.793804
0.37782514
33.785951
0.34528825
0.33312014
33.776769
33.719922
0.51146031
33.735287
0.47317422
33.760072
0.44719361
33.789198
0.4116443
33.826842
0.38695375
33.862976
0.35657124
33.900687
0.34011448
33.926722
0.31925307
0.31004432
33.949798
35.080616
0.34022115
35.251118
0.30267181
35.422937
0.27537502
35.569659
0.26492226
35.69818
0.25843198
35.787259
0.2674929
35.841874
0.28549968
35.840411
0.32071586
0.35221709
35.798238
36.38325
0.037255013
36.636887
0.049033909
36.826426
0.085836955
36.913106
0.17824206
36.888279
0.28325846
36.754545
0.40122706
36.581065
0.45897939
36.368368
0.53341364
36.091718
0.6288667
35.919941
0.62526189
-0.45348494
35.709725
0.59750319
-0.38728762
35.498305
0.58059892
-0.36917853
35.294155
0.56867595
-0.36452581
35.073979
0.5640826
-0.34390686
34.837022
0.55386111
-0.31690355
34.574471
0.54245088
-0.27990019
34.279338
0.52878804
-0.23365544
0.51699116
33.955307
-0.19296025
35.849551
0.5739492
35.858804
0.58825032
35.841963
0.5974399
35.801027
0.60961143
35.745735
0.61937438
35.669738
0.62985845
35.573356
0.6388327
35.453811
0.64833321
0.65637704
35.314425
34.081407
0.44234067
34.204801
0.46485647
34.309259
0.4929819
34.404723
0.51414734
34.480935
0.54316209
34.548019
0.56277464
34.595733
0.59111813
34.633456
0.61061046
0.63992003
34.649913
33.887695
0.33141436
34.002516
0.35003565
34.109172
0.38632524
34.218459
0.40486067
34.318272
0.443349
34.419072
0.46197478
34.508238
0.50195257
34.597378
0.5214702
0.56344748
34.67385
33.11445
0.22060119
33.228281
0.23620418
33.344806
0.26980082
33.462508
0.28715812
33.582198
0.32365905
33.702818
0.34135507
33.82358
0.38119106
33.944638
0.40041182
0.44244488
34.065641
32.972706
0.13570111
33.062023
0.146888
33.157588
0.17423549
33.257471
0.18727507
33.364178
0.21695219
33.471051
0.23448193
33.588729
0.26351316
33.702374
0.28676643
0.31344449
33.831375
32.5627
0.068157195
32.636347
0.07324027
32.716627
0.093955601
32.804692
0.099210231
32.898615
0.12302982
33.000877
0.13221943
33.110504
0.15388604
33.22665
0.17062054
0.1898747
33.35022
32.483542
0.021687217
32.534237
0.022544503
32.594596
0.033596837
32.657579
0.036227063
32.73044
0.050169527
32.810902
0.051757513
32.897822
0.066965578
32.998869
0.069573178
0.086659378
33.102085
32.258633
32.281177
32.314774
32.351001
32.401171
32.452928
32.519894
32.589467
32.676126
32.765189
-0.089062987
32.873431
-0.10824184
32.987923
-0.11449235
33.122111
-0.13418712
33.260978
-0.13886738
33.426897
-0.16591889
33.596422
-0.16952517
33.793773
-0.19735057
-0.20521198
33.998985
33.224048
-0.21102651
33.346764
-0.230958
33.491876
-0.25960386
33.635317
-0.27762876
33.803513
-0.30706327
33.97304
-0.33544511
34.165046
-0.36153164
34.361227
-0.39353122
-0.42521145
34.581226
33.483868
-0.34467465
33.623702
-0.37079171
33.769508
-0.40540988
33.924792
-0.43291319
34.089191
-0.47146202
34.252771
-0.4990257
34.435701
-0.54446117
34.614798
-0.5726282
-0.62284426
34.812431
33.951052
-0.46435235
34.088997
-0.50873614
34.213862
-0.53027531
34.360757
-0.57980831
34.493394
-0.60409837
34.648999
-0.65463054
34.793832
-0.68929442
34.962388
-0.7411844
-0.78119195
35.120736
34.184301
-0.58301272
34.303276
-0.62771078
34.421853
-0.64885224
34.539854
-0.6978096
34.657689
-0.72193396
34.779286
-0.77622681
34.895239
-0.80524754
35.021496
-0.86744195
-0.9004814
35.140786
34.751208
-0.66037041
34.815781
-0.69228365
34.883936
-0.71700772
34.938664
-0.75253768
35.000055
-0.78332457
35.047233
-0.82340449
35.102686
-0.86070047
35.14349
-0.90824663
-0.95205203
35.195061
34.659734
-0.6701918
34.651959
-0.68450806
34.640738
-0.70578702
34.618058
-0.72985798
34.592979
-0.75824532
34.557539
-0.78796394
34.520199
-0.82336127
34.46996
-0.85800693
-0.90010023
34.418008
35.158811
-0.51457758
34.998801
-0.52449808
34.837174
-0.5441602
34.674393
-0.56707669
34.505468
-0.58932072
34.328195
-0.61069043
34.131992
-0.62715828
33.914845
-0.64085991
-0.65703616
33.67178
33.645195
-0.20446473
33.348187
-0.22749
33.053386
-0.24935993
32.72984
-0.24352994
32.384991
-0.2444722
31.978345
-0.20404444
31.557202
-0.20601552
31.110078
-0.19373514
30.695479
-0.24243728
0.67492803
30.275428
-0.25487691
0.94134474
33.405364
1.0090417
34.350311
0.97235488
35.231748
0.84402239
35.269118
0.65806128
35.306697
0.45717051
35.013322
0.23197395
34.806423
34.230959
0.71382458
29.883565
-0.32196245
0.9903995
33.128789
1.0588428
34.281868
1.0100252
35.280565
0.88418104
35.394962
0.70663899
35.484239
0.4943146
35.225646
0.24631289
35.054424
34.477271
0.75119221
29.475294
-0.3429213
1.0449376
32.835043
1.1273006
34.199505
1.0909809
35.316885
0.96055765
35.525386
0.75459449
35.690202
0.52862799
35.451612
0.27152384
35.311529
34.748795
0.82211461
29.089909
-0.43672937
1.1028406
32.554317
1.1822369
34.120108
1.132388
35.366734
1.0000518
35.657722
0.80245083
35.887803
0.57065361
35.68341
0.2902254
35.591957
35.039021
0.89231351
28.631942
-0.43434578
1.1813595
32.265271
1.2665704
34.034898
1.2262205
35.407084
1.089947
35.793995
0.85896117
36.118789
0.60642277
35.935948
0.31608318
35.882296
35.355104
0.98456575
28.205101
-0.55772496
1.2484637
32.001373
1.3274503
33.955911
1.2708925
35.463642
1.13125
35.933638
0.91071816
36.339321
0.65719336
36.189473
0.34116761
36.198322
35.696271
1.067915
27.680989
-0.54380335
1.3492994
31.719989
1.430908
33.874302
1.3764928
35.518057
1.2298226
36.080308
0.97063013
36.598513
0.68897276
36.47113
0.36411584
36.523179
36.060387
1.1617261
27.228569
-0.70930627
1.4213668
31.460348
1.4946917
33.800977
1.42419
35.588558
1.2743525
36.230146
1.0290852
36.84378
0.75097627
36.749239
0.39549605
36.878659
36.455883
1.2570809
26.597006
-0.62551793
1.5420614
31.175368
1.6221932
33.720846
1.5472966
35.663455
1.3867708
36.390672
1.0947864
37.135765
0.77940677
37.064619
0.41623834
37.241828
36.872122
-0.078856737
36.950978
-0.084239756
37.247211
-0.040366298
37.020745
0.071984075
37.023414
0.20240857
36.260247
0.40580229
35.460061
0.62355638
33.503092
0.93357663
30.865347
26.490651
1.0399314
-0.08367209
37.034651
-0.084188121
37.247727
-0.079972383
37.01653
-0.014550506
36.957992
0.093069847
36.152627
0.28038269
35.272749
0.46499112
33.318483
0.70584177
30.624497
26.445977
0.75051636
-0.10846184
37.143112
-0.141606
37.280871
-0.11404189
36.988966
-0.016061693
36.860012
0.08680521
36.04976
0.26730065
35.092253
0.44008581
33.145698
0.66742745
30.397155
26.37734
0.73606466
-0.11283631
37.255949
-0.14324912
37.311284
-0.16456038
37.010277
-0.11936778
36.81482
-0.025695692
35.956088
0.14178197
34.924775
0.29138024
32.9961
0.481829
30.206706
26.354497
0.5046716
-0.13542922
37.391378
-0.19081093
37.366665
-0.17998264
36.999448
-0.10202396
36.736861
-0.017790169
35.871854
0.14958807
34.757397
0.29242244
32.853265
0.47709089
30.022038
26.289301
0.54228702
-0.14041997
37.531798
-0.19617022
37.422416
-0.23730144
37.04058
-0.20286644
36.702426
-0.12134599
35.790333
0.027509248
34.608542
0.15387536
32.726899
0.32387862
29.852035
26.235806
0.37737371
-0.16113162
37.692929
-0.22884792
37.490132
-0.2357537
37.047485
-0.17652522
36.643197
-0.10066357
35.714472
0.052120178
34.455758
0.17527034
32.603749
0.34348051
29.683824
26.146894
0.4323928
-0.16378192
37.856711
-0.23770821
37.564058
-0.2912681
37.101045
-0.26780204
36.619731
-0.20443036
35.6511
-0.073023582
34.324351
0.045575321
32.48515
0.20704735
29.522352
26.059209
0.29473236
-0.18414758
38.040859
-0.26013517
37.640046
-0.27964648
37.120557
-0.23085263
36.570938
-0.1660036
35.586251
-0.030008017
34.188356
0.084615157
32.370527
0.24311255
29.363855
25.932294
0.37002751
-0.11862087
25.802499
0.24841516
0.037565377
29.207669
0.15313156
32.254961
0.26676739
34.07472
0.31369334
35.539325
0.32430814
36.560323
0.26199177
37.182873
0.18017085
37.721867
38.22103
-0.17264386
25.645784
0.32935896
-0.014897798
29.049923
0.092547585
32.147515
0.20962441
33.957643
0.26655019
35.482399
0.30634356
36.520529
0.26998129
37.219235
0.19214561
37.799702
38.413175
-0.062772117
25.486041
0.22251533
0.094691888
28.892459
0.20377674
32.038431
0.30040559
33.861014
0.32979272
35.453012
0.32911525
36.521207
0.26292071
37.28543
0.18504895
37.877574
38.598224
-0.13051303
25.308173
0.30838131
0.024578595
28.737367
0.12254368
31.940465
0.22540313
33.758155
0.2732813
35.405134
0.30302316
36.491465
0.26061458
37.327838
0.18844971
37.949739
38.786674
-0.03662964
25.13088
0.21392291
0.11791128
28.582826
0.21663616
31.841741
0.30054142
33.67425
0.3238178
35.381858
0.32100688
36.494276
0.25269399
37.396151
0.17620085
38.026232
38.962875
-0.12199515
24.951297
0.30157815
0.025764683
28.435066
0.11343723
31.754068
0.20654109
33.581146
0.23979948
35.348599
0.26133065
36.472745
0.22655953
37.430922
0.167511
38.085281
39.130386
-0.044303607
24.781064
0.21453658
0.09798817
28.292775
0.18808193
31.663974
0.26461752
33.50461
0.28280941
35.330407
0.27875729
36.476797
0.2142379
37.495442
0.15055319
38.148965
39.280939
-0.14827237
24.634487
0.29484886
-0.014416757
28.158919
0.062294231
31.587263
0.14989252
33.417012
0.17222626
35.308074
0.191727
36.457296
0.17014162
37.517027
0.12835097
38.190756
39.40929
-0.086566083
24.515762
0.20529152
0.035486565
28.036866
0.11848124
31.504269
0.19350077
33.341992
0.20234641
35.299228
0.19561085
36.464032
0.14865465
37.563983
0.10452736
38.234883
39.513817
0.069215647
39.444602
0.16421746
38.139882
0.2586604
37.46954
0.35339779
36.369294
0.41872071
35.233905
0.49776204
33.262951
0.55571293
31.446318
0.54980755
28.042772
24.590193
0.47537574
0.11048876
39.334113
0.21504562
38.035325
0.28840593
37.39618
0.36329793
36.294402
0.41442864
35.182774
0.48256684
33.194813
0.5492945
31.37959
0.51722793
28.074838
24.762286
0.34513565
0.16533628
39.168777
0.30784479
37.892816
0.43484672
37.269178
0.54455855
36.18469
0.61527059
35.112062
0.691641
33.118442
0.77500732
31.296224
0.76399396
28.085852
25.025407
0.5008732
0.21553717
38.95324
0.36526502
37.743088
0.47902636
37.155417
0.58242361
36.081293
0.64285448
35.051631
0.70475915
33.056538
0.80579582
31.195187
0.82272365
28.068924
25.455843
0.39228684
0.27639718
38.676842
0.48193431
37.537551
0.65186608
36.985485
0.78839699
35.944762
0.86865555
34.971373
0.93581856
32.989375
1.04359
31.087416
1.1367498
27.975764
25.991674
0.60091876
0.33121979
38.345623
0.547198
37.321573
0.7073437
36.825339
0.84478552
35.80732
0.92027379
34.895885
0.97113645
32.938512
1.0904787
30.968073
1.2495822
27.81666
26.617825
0.62343116
0.39664834
37.948974
0.67574193
37.042479
0.89938997
36.601691
1.0698588
35.636852
1.1716745
34.794069
1.2154233
32.894763
1.293956
30.889541
1.6084213
27.502195
27.247784
0.97846316
0.46004241
37.488932
0.75103681
36.751485
0.96783679
36.384891
1.1451981
35.45949
1.2513168
34.68795
1.2727151
32.873365
1.3415542
30.820701
1.7668545
27.076895
27.565505
1.4491329
0.51588887
36.973043
0.88685862
36.380515
1.1801967
36.091553
1.4261034
35.213584
1.5754736
34.53858
1.6021081
32.846731
1.6110277
30.811782
2.1088596
26.579063
27.381573
2.2927913
-1.290039
38.263082
-2.716531
37.807007
-4.2259167
37.600939
-5.7043784
36.692045
-7.0319031
35.866105
-8.2244599
34.039287
-8.9797858
31.567108
-9.2444424
26.843719
28.050706
-9.9135746
-1.2441909
39.507273
-2.6743424
39.237159
-4.161259
39.087856
-5.7044334
38.23522
-7.12661
37.288281
-8.3181527
35.23083
-9.1151105
32.364065
-9.08112
26.809729
27.022891
-8.0533053
-1.1906425
40.697915
-2.6263589
40.672875
-4.1716429
40.633139
-5.7704672
39.834044
-7.2377593
38.755573
-8.432349
36.42542
-9.1941773
33.125894
-8.4931466
26.108698
21.432058
-2.9023137
-1.1420843
41.84
-2.589207
42.119998
-4.1039354
42.147868
-5.7460231
41.476132
-7.3238244
40.333375
-8.5463401
37.647935
-9.1154926
33.695046
-7.8283569
24.821563
13.789562
-0.18586042
-1.070741
42.910741
-2.5079656
43.557223
-4.0690508
43.708953
-5.7901411
43.197222
-7.3936372
41.936871
-8.6507429
38.905041
-9.0551436
34.099447
-6.8601056
22.626525
6.9505795
-0.021123639
-1.0079065
43.918647
-2.4546071
45.003923
-3.9899328
45.244279
-5.7452394
44.952529
-7.4575969
43.649228
-8.7692644
40.216709
-8.7772334
34.107416
-5.0118995
18.861191
1.2289683
0.70971169
-0.92574026
44.844387
-2.3538511
46.432034
-3.9282837
46.818711
-5.7620717
46.786317
-7.5218145
45.408971
-8.7784531
41.473347
-8.0201397
33.349103
-2.7792825
13.620334
-2.2162469
0.66593269
-0.85940786
45.703795
-2.2752885
47.847915
-3.8302798
48.373703
-5.6982445
48.654281
-7.5414242
47.252151
-8.7305805
42.662504
-7.0928512
31.711373
-1.9420608
8.4695432
-4.7720426
0.61373485
-0.7728467
46.476642
-2.1526637
49.227732
-3.750835
49.971874
-5.68865
50.592096
-7.5498834
49.113384
-8.5562893
43.668909
-5.7907073
28.945791
-0.7826028
3.4614387
-6.4364852
0.88183977
0.09432048
-7.0411106
0.51030502
2.9526922
0.60306698
5.1442521
26.754231
4.4251205
44.388041
3.158565
50.379939
1.8790559
51.871606
0.91382255
50.937107
0.17433166
49.967222
46.650974
-0.15361542
-7.4665512
0.57905605
2.5946839
-2.1452323
5.0330556
24.31586
4.3530423
45.068054
3.0505904
51.682391
1.7537614
53.168435
0.77700889
51.91386
0.089323187
50.654908
46.740297
-0.25394409
-7.7981547
0.58554764
2.4018757
-4.8010521
4.9124264
21.805309
4.2934377
45.687043
2.9468052
53.029024
1.6184395
54.4968
0.67698548
52.855314
0.0500408
51.281853
46.790338
-0.19445571
-8.1808772
0.57717821
2.397545
-7.3930528
4.7724454
19.430408
4.1936616
46.265827
2.8335226
54.389163
1.5046506
55.825672
0.55030006
53.809664
-0.027210149
51.859363
46.763127
-0.087559689
-8.577196
0.48387858
2.449655
-9.9302675
4.6595115
17.220552
4.1216549
46.803683
2.7202041
55.790613
1.3601669
57.18571
0.44757217
54.722259
-0.057573787
52.364509
46.705554
-0.010491667
-8.9930508
0.42634645
2.4287501
-12.369509
4.5205052
15.128797
4.002641
47.321548
2.5933312
57.199923
1.2392399
58.539801
0.31921931
55.64228
-0.13363856
52.817367
46.571915
0.041511208
-9.3183157
0.28375375
2.3605444
-14.688543
4.3752682
13.114073
3.9220946
47.774721
2.4614975
58.66052
1.0837838
59.917515
0.21932838
56.506735
-0.15477985
53.191475
46.417135
0.10631951
-9.8347335
0.41009835
2.3586531
-16.940876
4.2046098
11.268116
3.7709929
48.208338
2.3202824
60.111231
0.9603932
61.277404
0.09495226
57.372176
-0.2235836
53.510011
46.193552
0.16220691
-9.9977598
0.00081946624
2.2650645
-19.043734
4.0415111
9.4916697
3.7032987
48.546551
2.1753275
61.639202
0.80730532
62.645426
0.000767368
58.178714
-0.22951622
53.740294
45.964035
2.5802683
-12.990617
0.41258916
5.0562521
-21.519717
3.6313386
10.916583
0.57275673
51.605132
-1.9878174
64.199776
-3.3533287
64.010937
-3.3698473
58.195233
-2.1370857
52.507533
43.82695
3.3231377
-16.544621
0.23086622
5.0673736
-23.263953
2.8317779
13.152179
-0.5847613
55.021672
-3.4729792
67.087994
-4.3837348
64.921693
-3.7898533
57.601351
-2.133481
50.851161
41.693469
3.6757189
-20.349786
0.12944614
4.8542544
-24.442489
1.7607264
16.245707
-1.8066252
58.589023
-4.0448445
69.326213
-4.679536
65.556384
-4.0768473
56.998663
-2.1039754
48.878289
39.589493
3.9380527
-23.493724
-0.79411443
4.7058868
-25.210323
1.0803249
19.871269
-2.8474182
62.516766
-5.3067716
71.785567
-5.7188092
65.968422
-4.3488495
55.628703
-2.0608482
46.590287
37.528645
4.0267188
-25.332401
-2.188042
4.4072998
-25.590904
0.042332317
24.236236
-3.9409485
66.500047
-5.7072963
73.551914
-5.4874457
65.748572
-4.0099644
54.151222
-2.2211318
44.801455
35.307513
3.9449451
-26.651529
-2.6258165
4.1711563
-25.817115
-0.570569
28.977962
-4.7628225
70.692301
-6.5391367
75.328228
-6.1420929
65.351528
-4.4879409
52.497069
-2.4344829
42.747997
32.87303
3.772922
-28.418432
-2.0060196
3.641923
-25.686116
-1.7404536
34.360338
-5.8086009
74.760448
-6.796258
76.315886
-5.8501782
64.405448
-3.7011021
50.347993
-1.5239401
40.570835
31.34909
3.658564
-30.559566
-1.5174297
3.2492208
-25.276773
-2.2741639
39.883723
-6.4444824
78.930766
-7.3843257
77.255729
-6.305781
63.326903
-3.9085484
47.950761
-1.4087571
38.071043
29.940333
3.5564576
-1.5376094
-32.578414
2.5220386
-24.242354
-3.7671211
46.172883
-7.6991546
82.8628
-7.5304421
77.087016
-5.5560404
61.352502
-2.760914
45.155634
-0.21715667
35.527286
29.723176
-1.2312801
18.828265
0.55851072
-18.155496
-1.0320466
59.438574
-59.637808
1.2701716
48.297164
-50.599382
4.8199277
-16.828063
13.278307
6.886938
-44.636937
42.569926
7.8492808
-53.931609
52.969266
8.0957204
-57.312364
57.065924
7.6974068
-40.653372
41.051685
3.1749146
-3.4683
-1.2959729
19.574335
0.54990313
-1.0052415
59.147843
1.6550857
45.636837
5.2941043
-20.467081
7.4092812
-46.752113
8.3848499
-54.907177
8.498572
-57.426086
7.8073841
-39.962184
2.8934748
-1.3814484
20.394328
0.56145478
-0.99661703
58.763011
2.0750826
42.565137
5.7792745
-24.171273
7.9478291
-48.920668
9.0138133
-55.973162
9.058169
-57.470442
8.114135
-39.01815
2.5943237
-1.4703968
21.312377
0.55234825
-0.98203853
58.274653
2.5476372
39.035461
6.3304368
-27.954073
8.5598097
-51.150041
9.7149792
-57.128331
9.684483
-57.439946
8.5371214
-37.870788
2.2231359
-1.5803617
22.343507
0.54923152
-0.98729311
57.681585
3.0375029
35.010665
6.8803245
-31.796894
9.1846919
-53.454408
10.442086
-58.385726
10.297573
-57.295432
8.9879647
-36.56118
1.6579391
-1.6619654
23.463983
0.54148882
-0.93198917
56.951608
3.5523471
30.526329
7.4121304
-35.656678
9.7505812
-55.792859
11.038009
-59.673153
10.699886
-56.957309
9.3147913
-35.176085
0.74508372
-1.7032724
24.632252
0.5350033
-0.78000575
56.028342
4.1121439
25.634179
7.9843192
-39.528853
10.296735
-58.105275
11.516977
-60.893396
10.945341
-56.385673
9.5635436
-33.794288
-0.61865613
-1.7708782
25.866947
0.53618324
-0.66311905
54.920582
4.6859405
20.28512
8.5446129
-43.387525
10.808281
-60.368943
11.912558
-61.997672
11.026512
-55.499626
9.7166133
-32.48439
-2.4768636
-1.8200905
0.54437015
27.142667
-0.51290909
53.613401
5.2380024
14.534208
9.0837965
-47.233319
11.338829
-62.623975
12.317487
-62.97633
11.057352
-54.239492
9.903729
-31.330767
-4.8837775
-5.3903362
-19.652989
-1.2644062
26.307731
-9.2527556
-71.67256
75.534979
-6.5060259
-67.200933
64.454204
-0.22498208
-31.923943
25.642899
6.0289635
-3.1572931
-3.0966527
8.6972996
-5.0217926
2.3534566
5.8292412
-29.499066
32.367125
0.44379833
-51.915935
57.301378
-64.408513
64.852312
-4.331661
-11.860992
-3.4603361
-8.677084
-67.327137
-7.2484258
-68.629592
-1.6255569
-37.546812
5.4379894
-10.220839
8.9920681
-8.5758713
7.2133234
-27.720322
2.0006648
-46.703277
-62.407849
-4.0228912
-3.4833664
-4.3547348
-8.5258811
-62.824147
-7.0993405
-70.056132
-1.5894936
-43.056659
4.8991255
-16.709459
8.3460324
-12.022778
6.8183665
-26.192656
2.3860159
-42.270926
-60.021833
-3.2090673
4.0957795
-4.3700788
-8.0706388
-57.962576
-7.7207836
-70.405988
-2.3095069
-48.467935
4.5865146
-23.60548
7.93634
-15.372604
7.5714198
-25.827736
3.4752976
-38.174804
-56.546535
-2.7822554
11.120546
-4.242511
-7.7158409
-53.02899
-8.0613151
-70.060513
-3.9148818
-52.614369
2.5575477
-30.07791
6.3565608
-19.171617
6.3197994
-25.790974
3.4628595
-35.317864
-53.083676
-2.1356706
16.822588
-3.5663722
-7.1156777
-48.048983
-8.1574853
-69.018706
-5.0773534
-55.694501
0.28120879
-35.436472
4.8115101
-23.701918
6.0935074
-27.072972
4.0020412
-33.226398
-49.081634
-1.9301068
20.320342
-1.5676477
-6.6256795
-43.353411
-8.2141346
-67.43025
-6.0025545
-57.906081
-1.190121
-40.248905
2.8534191
-27.745458
4.4155914
-28.635144
3.6081372
-32.418944
-45.473497
-1.4613975
21.366054
0.41568435
-6.0270119
-38.787797
-7.8405425
-65.61672
-6.2751908
-59.471432
-2.5155332
-44.008563
1.4002401
-31.661231
3.5402705
-30.775174
3.2093455
-32.088019
-42.264152
-0.94971827
21.557184
0.75858737
-5.0586242
-34.678891
-7.2483179
-63.427026
-6.631561
-60.088189
-3.6019204
-47.038203
-0.19125869
-35.071893
2.0185797
-32.985013
2.6395179
-32.708957
-39.624634
-0.37362438
32.699234
-32.32561
-0.33898386
33.238323
-33.272964
-0.32488377
35.079605
-35.093705
-0.32988915
38.155544
-38.150539
-0.94778852
44.971699
-44.3538
-2.0803298
52.554405
-51.421864
-3.1538114
56.532865
-55.459384
-1.9637102
44.177345
-45.367446
-7.1719653
5.7794411
-0.57118615
-0.47837033
33.177605
-0.39860903
33.158562
-0.3427703
35.023767
-0.29861563
38.11139
-0.81878257
45.491866
-1.8831628
53.618786
-2.9180691
57.567772
-1.8821071
43.141383
-8.5164443
-0.53762802
-0.54547736
33.723082
-0.47538282
33.088467
-0.35546003
34.903844
-0.19318091
37.949111
-0.69854671
45.997232
-1.765659
54.685898
-2.7385194
58.540632
-1.6853755
42.088239
-10.259994
0.058174083
-0.69164075
34.414723
-0.57696104
32.973788
-0.41156607
34.738449
-0.19382143
37.731366
-0.57842524
46.381836
-1.5741156
55.681588
-2.5029081
59.469425
-1.4031548
40.988486
-12.286209
0.62305988
-0.7879721
35.202695
-0.69148314
32.877299
-0.45791885
34.504884
-0.1163654
37.389813
-0.46109535
46.726565
-1.4527147
56.673208
-2.3349737
60.351683
-1.1462821
39.799794
-14.303728
0.87123687
-0.92389691
36.126592
-0.82790654
32.781308
-0.53932847
34.216306
-0.12152621
36.97201
-0.34527743
46.950317
-1.2641591
57.592089
-2.0950165
61.182541
-0.9176983
38.622475
-16.279475
1.0580488
-1.025352
37.151944
-0.97200648
32.727963
-0.61980648
33.864106
-0.087655469
36.439859
-0.23442196
47.097083
-1.1324032
58.490071
-1.9308425
61.980981
-0.64721845
37.338851
-18.204763
1.2780685
-1.1755031
38.327447
-1.1318904
32.68435
-0.72425642
33.456472
-0.094927502
35.81053
-0.11726645
47.119422
-0.94677729
59.319581
-1.701672
62.735876
-0.38882952
36.026008
-20.023282
1.429689
-1.2971869
-1.3217936
-0.85033397
-0.11169681
-0.030478156
-0.79908607
-1.4902363
-0.14311922
1.3907831
3.7237559
1.3950341
0.66065113
7.0005664
-48.644257
5.3993774
-53.858195
3.4460899
-49.468577
2.1488693
-43.056579
1.5369085
-37.538578
1.0683924
-34.625189
0.71032814
-32.9149
-31.615282
6.2321189
-5.5583526
0.72126777
7.6061196
-50.018258
5.6322792
-51.884354
3.5532776
-47.389575
2.2163883
-41.71969
1.5684806
-36.890671
1.0558967
-34.112605
0.64569852
-32.504701
-30.969583
8.1611284
-13.766537
0.04705569
7.8407817
-49.697911
5.7667633
-49.810336
3.7256508
-45.348463
2.3894198
-40.383459
1.6287125
-36.129963
1.0457981
-33.529691
0.60684797
-32.065751
-30.362735
8.7754531
-22.600941
0.058951229
8.0426252
-48.965083
5.9153369
-47.683048
3.8503775
-43.283503
2.4685262
-39.001608
1.6804252
-35.341862
1.0629799
-32.912246
0.57367149
-31.576443
-29.789064
9.6118844
-32.241046
0.028221142
8.1556062
-47.508805
5.9641949
-45.491636
3.9889302
-41.308239
2.6274395
-37.640117
1.7539976
-34.46842
1.0781032
-32.236351
0.55667651
-31.055016
-29.232387
10.09793
-41.520507
-0.81846966
8.4151301
-45.826005
6.0299115
-43.106418
4.0911798
-39.369507
2.7089211
-36.257858
1.8186389
-33.578138
1.1161058
-31.533818
0.53505874
-30.473969
-28.697329
10.598167
-45.719222
-6.3994519
8.4520206
-43.679859
6.0187815
-40.673179
4.1931464
-37.543872
2.855259
-34.919971
1.8997941
-32.622673
1.1501302
-30.784154
0.5284957
-29.852335
-28.168833
10.8505
-44.618658
-11.951063
8.2514903
-41.080849
6.0143324
-38.436021
4.2609698
-35.790509
2.9308342
-33.589835
1.9615124
-31.653351
1.1931121
-30.015754
0.52541776
-29.18464
-27.643415
10.764251
-42.094508
-13.288402
8.0793905
-38.395989
5.9807977
-36.337428
4.3473306
-34.157042
3.0532574
-32.295762
2.0364885
-30.636583
1.2280078
-29.207273
0.53222516
-28.488858
-27.11119
0.65123783
33.549084
-34.200321
1.20016
33.976922
-34.525844
1.6886636
34.63904
-35.127544
2.096534
35.511647
-35.919518
2.3868616
36.426396
-36.716724
2.4321053
37.445688
-37.490932
2.1163415
37.504679
-37.188915
1.3456686
35.597187
-34.826514
28.822389
-28.061513
0.58479243
0.70327829
32.845805
1.2809547
33.399245
1.8226646
34.09733
2.2644803
35.069831
2.5685015
36.122375
2.6866338
37.327556
2.3771191
37.814194
1.5336285
36.440677
29.791835
0.56418241
0.73506539
32.11074
1.3580002
32.776311
1.9321489
33.523182
2.4341095
34.567871
2.8348167
35.721667
3.0438686
37.118504
2.8479345
38.010128
1.9667848
37.321827
31.122731
0.63588871
0.78438206
31.326358
1.4291894
32.131503
2.0584493
32.893922
2.5875002
34.03882
3.0061814
35.302986
3.2956322
36.829053
3.1966606
38.109099
2.3973641
38.121123
32.915276
0.60481928
0.80496592
30.521392
1.4900568
31.446412
2.1526468
32.231332
2.749859
33.441608
3.2661225
34.786723
3.6404009
36.454775
3.7224052
38.027095
3.0358206
38.807708
35.176779
0.77431734
0.8352684
29.686123
1.5435316
30.738149
2.2543584
31.520505
2.8707496
32.825216
3.4038826
34.25359
3.8794404
35.979217
4.0874353
37.8191
3.6652573
39.229886
37.612996
1.22904
0.85044849
28.835675
1.5798519
30.008746
2.3216525
30.778704
3.0129933
32.133876
3.6275268
33.639056
4.1724183
35.434325
4.5485097
37.443009
4.393274
39.385122
39.522901
2.4833694
0.86348474
27.97219
1.615586
29.256645
2.3871356
30.007155
3.0950257
31.425986
3.7224204
33.011661
4.3357213
34.821025
4.7714831
37.007247
5.0308726
39.125732
41.194351
3.3594227
0.86100008
1.628787
2.4286685
3.2180716
3.933971
4.5979537
5.2677727
5.9975164
5.0973596
-0.63138141
-27.798096
0.36796451
-1.1267194
-34.331176
-1.4537702
-36.861864
-1.5249156
-37.419786
-1.4304794
-36.81116
-1.2028883
-36.147109
-0.87397587
-35.456456
-0.48290373
-34.916916
-34.683225
-0.59547712
-27.585643
0.38302495
-1.0318437
-33.894809
-1.3170763
-36.576632
-1.4024785
-37.334384
-1.2976449