/*--------------------------------*- C++ -*----------------------------------*\
  =========                 |
  \\      /  F ield         | OpenFOAM: The Open Source CFD Toolbox
   \\    /   O peration     | Website:  https://openfoam.org
    \\  /    A nd           | Version:  11
     \\/     M anipulation  |
\*---------------------------------------------------------------------------*/
FoamFile
{
    format      ascii;
    class       volScalarField;
    location    "9.95";
    object      p;
}
// * * * * * * * * * * * * * * * * * * * * * * * * * * * * * * * * * * * * * //

dimensions      [0 2 -2 0 0 0 0];

internalField   nonuniform List<scalar> 
4455
(
5929.6692
5937.4624
5956.0037
5986.897
6030.1646
6084.4219
6160.7887
6263.1484
6397.9571
5911.6854
5921.7891
5942.732
5975.299
6020.1473
6075.2799
6155.9099
6265.368
6446.5235
5889.8951
5902.6156
5926.1379
5960.9332
6006.8611
6062.0179
6145.0016
6257.6605
6474.0668
5864.8035
5880.3028
5907.1171
5944.2572
5989.8105
6045.678
6129.6433
6246.7045
6499.1252
5836.9536
5856.377
5886.3009
5924.5716
5970.1126
6026.5108
6110.3001
6231.7985
6528.7164
5807.9222
5831.1792
5863.2601
5902.9082
5948.3798
6005.3696
6088.5144
6210.4221
6557.8466
5778.2621
5804.8749
5839.1358
5879.6406
5924.6511
5982.2968
6064.7365
6183.721
6583.2486
5748.8701
5778.1014
5814.4074
5854.9993
5899.3101
5958.1176
6039.5918
6149.6582
6603.5352
5720.4627
5751.6676
5788.8887
5829.63
5873.4453
5933.2327
6014.0399
6110.1914
6613.1575
5693.3468
5668.1326
5645.6046
5626.0107
5608.7366
5594.1966
5582.5138
5574.2652
5570.7606
5725.8689
5700.7197
5676.7009
5654.1881
5633.6439
5615.2496
5598.9731
5584.4926
5570.6836
5762.6729
5736.2148
5710.4601
5685.5179
5662.1352
5639.8297
5619.6771
5603.0389
5590.3233
5803.1682
5775.6162
5748.1934
5721.6194
5695.8349
5670.5444
5644.9415
5617.8341
5587.6611
5846.2765
5816.8881
5787.2212
5757.6766
5729.0293
5702.0641
5678.2233
5658.5016
5641.5231
5906.0202
5875.0792
5842.89
5809.4898
5774.7095
5738.0879
5699.463
5659.5179
5613.4539
5987.1974
5956.6721
5925.3477
5895.3645
5867.078
5842.2996
5821.1834
5802.8567
5783.0559
6061.6758
5998.7009
5931.7272
5861.7089
5792.1052
5723.2529
5653.9168
5589.3042
5530.7749
6604.5864
6511.7043
6342.5298
6186.2871
6058.8379
5946.546
5852.4746
5769.148
5664.1678
5572.4569
5570.7503
5566.425
5561.2776
5554.9738
5548.0268
5539.3035
5529.7777
5518.0964
5560.6028
5553.1543
5545.6887
5537.4026
5527.2323
5514.9116
5500.5559
5484.7359
5467.4995
5583.95
5576.2032
5565.3448
5552.3756
5538.3877
5523.8458
5508.659
5492.3691
5474.3598
5566.1509
5552.2641
5540.5541
5528.6465
5515.0251
5499.5713
5482.3518
5463.7645
5443.6702
5630.4855
5617.5575
5600.6992
5581.487
5560.8305
5540.1058
5520.5899
5499.8956
5478.278
5579.925
5559.5032
5543.4455
5528.1758
5511.6274
5492.3793
5471.1845
5449.1054
5425.9796
5758.5705
5727.9708
5692.1593
5655.2816
5620.1194
5586.9835
5555.9397
5526.214
5498.2593
5487.0082
5452.0962
5417.7779
5380.1805
5339.9908
5301.0719
5265.1131
5232.3758
5203.8805
5561.0475
5464.6129
5376.4916
5307.4373
5254.8947
5210.4313
5164.1712
5117.9317
5085.8641
5078.6771
5081.9192
5105.5591
5154.8371
5230.7269
5331.6524
5450.8988
5577.2802
5703.5616
5182.0787
5164.4349
5150.5309
5144.6152
5147.0348
5157.8786
5179.8769
5213.6346
5257.0064
5475.18
5455.4806
5437.5024
5422.3177
5411.1954
5404.5697
5402.3804
5403.9513
5409.5412
5402.4611
5379.014
5354.9966
5330.5594
5306.3184
5283.006
5261.0937
5241.804
5225.3131
5455.9936
5432.653
5409.1898
5385.1535
5361.3752
5337.5348
5312.9198
5288.3531
5264.0073
5423.0603
5402.2001
5378.5314
5353.535
5327.7533
5299.9166
5271.7237
5242.4174
5213.0287
5454.8261
5434.0528
5412.0051
5388.3673
5363.6412
5337.729
5308.8658
5279.9779
5249.5244
5448.9456
5428.8258
5406.9661
5383.2876
5357.7667
5330.0282
5300.1942
5269.4475
5235.8913
5502.7369
5483.2668
5463.2455
5443.0995
5422.547
5400.6743
5376.7119
5350.0688
5320.3016
5287.7961
5251.777
5213.2785
5171.6339
5126.5238
5078.3085
5025.7947
4968.6059
4906.4631
5200.3231
5162.4151
5121.0403
5077.5466
5030.9512
4981.1014
4927.9651
4870.5144
4809.1475
5215.6915
5181.7194
5144.6085
5104.2349
5063.2149
5018.0205
4970.1476
4920.8182
4865.7904
5181.0409
5148.0449
5113.5956
5076.9853
5038.8893
4998.5562
4955.5941
4910.0197
4862.459
5239.1787
5214.5218
5189.8554
5164.4877
5138.7217
5111.9917
5083.4639
5055.2931
5024.2256
5211.0319
5198.7104
5188.5908
5179.9683
5172.3423
5164.832
5157.1295
5149.5134
5140.0714
5419.5277
5432.9522
5449.7922
5468.825
5490.6533
5513.8997
5537.6096
5560.9981
5587.0705
5307.7269
5366.2977
5432.3525
5503.0481
5578.4581
5657.0011
5739.0925
5824.1724
5908.2353
5833.6674
5966.8194
6099.4818
6232.6585
6369.5904
6509.7044
6651.9024
6793.9652
6936.0936
7083.0482
5989.0928
5614.8067
5129.1361
4990.131
4809.9356
4806.6889
4743.1294
4839.099
7235.6903
6068.0305
5640.6568
5115.8673
4954.9853
4752.608
4743.8606
4671.9093
4765.8479
7389.5298
6145.5586
5661.8996
5095.8556
4914.3868
4691.705
4675.8412
4595.2784
4686.4071
7541.3093
6219.6766
5678.6734
5071.1336
4870.0887
4624.4907
4601.8044
4512.7772
4599.9883
7683.7871
6285.9658
5690.0098
5040.0993
4819.7706
4551.2042
4523.2538
4423.4604
4506.3187
7821.0232
6342.0564
5693.5768
4999.1237
4763.0056
4469.5789
4436.1946
4327.3983
4404.6851
7947.6432
6384.4006
5687.1095
4948.9747
4698.6931
4380.572
4343.3698
4223.8228
4294.9887
8049.4217
6410.9792
5667.9206
4887.9251
4625.71
4282.1005
4241.6282
4112.9544
4177.089
8106.325
6413.3487
5632.2817
4813.3373
4542.9944
4174.6342
4130.2603
3993.7684
4050.9473
3918.3951
3866.4442
4008.1004
4056.6646
4441.2916
4721.4627
5570.842
6383.628
8084.826
3785.5139
3730.3427
3870.941
3927.6895
4317.5669
4604.6714
5460.1646
6280.6591
7826.8405
3637.5526
3582.9567
3720.0844
3785.1069
4168.1624
4459.5206
5304.1542
6107.8884
7533.5616
3466.0854
3425.3441
3556.8125
3628.2329
4001.9689
4291.2027
5118.4638
5905.2322
7266.2475
3272.9263
3255.1325
3382.094
3456.9896
3816.7739
4103.0395
4911.5202
5688.8131
7012.5301
3068.7539
3073.4282
3193.3865
3271.4078
3615.0567
3902.1135
4689.4214
5461.5956
6745.9952
2856.6624
2880.9582
2995.3509
3073.6512
3401.0326
3684.1472
4451.6689
5218.877
6474.0118
2637.8046
2678.1026
2786.3183
2862.4629
3173.6152
3451.8313
4196.6544
4959.5657
6192.0584
2410.6126
2466.4031
2566.1705
2638.3749
2932.6879
3201.8366
3923.5421
4682.861
5907.4009
5617.0906
4389.0203
3631.4768
2935.8507
2677.2448
2405.6872
2336.1197
2247.5384
2174.5843
5323.9756
4077.8878
3319.6848
2652.9435
2408.9852
2161.3981
2099.0906
2021.6839
1931.683
5021.003
3747.5517
2989.299
2354.3977
2128.1926
1910.1842
1854.4355
1790.3093
1686.7741
4710.0978
3397.0433
2639.4157
2038.6093
1836.7721
1649.1846
1603.8788
1554.7236
1442.8383
4381.467
3025.4462
2272.7258
1711.2222
1537.292
1384.0933
1353.3293
1315.3506
1199.6619
4042.4883
2631.4186
1887.8178
1371.0074
1227.4043
1112.8824
1100.6856
1076.8236
956.01116
3681.0418
2212.8459
1487.5798
1021.4326
918.88311
841.15614
849.34
840.05479
713.13498
3301.193
1769.2859
1070.7566
662.09152
604.70016
571.42181
601.77782
610.38267
483.62543
2894.5692
1297.1399
643.51547
299.89488
293.85908
305.05084
362.67803
387.97661
266.93521
70.846159
176.36904
131.176
42.698266
-20.04744
-76.033326
181.16078
764.35637
2420.2046
-107.79884
-20.763157
-88.081424
-210.99589
-330.92848
-456.30239
-310.76646
151.696
1828.6491
-259.46115
-198.54667
-289.26199
-447.13274
-622.91576
-826.07789
-801.01947
-493.73483
1167.7622
-384.43803
-354.41302
-466.26594
-661.66326
-898.41242
-1173.0803
-1271.5668
-1148.2638
438.42335
-483.13418
-481.94205
-618.33101
-846.96503
-1142.9318
-1498.4524
-1717.7934
-1800.906
-371.29325
-543.20668
-582.21796
-741.29997
-1004.3794
-1354.445
-1789.6112
-2123.1725
-2418.699
-1272.7753
-577.27441
-654.02712
-838.17588
-1126.3064
-1526.2577
-2040.9633
-2481.606
-2980.9614
-2301.149
-579.91145
-706.44488
-903.33587
-1223.1354
-1654.2125
-2248.529
-2779.8383
-3428.8149
-3468.7247
-556.30559
-743.86149
-940.09001
-1299.3263
-1741.7774
-2404.2241
-3013.8975
-3717.3854
-4594.8458
-528.29796
-763.82249
-951.05373
-1359.2253
-1815.7214
-2576.3937
-3340.2771
-4020.7834
-5726.534
-483.8266
-771.19391
-951.30575
-1444.6157
-1924.9322
-2824.2498
-3822.8939
-4502.6317
-6480.4753
-417.51438
-769.14979
-951.26079
-1539.2762
-2082.4958
-3133.3049
-4434.7304
-5117.4387
-6509.3485
-326.48722
-759.55437
-954.40225
-1646.9524
-2267.1145
-3460.4265
-5122.4416
-5861.3214
-5164.1518
-226.91142
-735.3312
-944.09306
-1744.099
-2446.403
-3789.2747
-5841.6797
-6722.26
-4649.2219
-114.09763
-693.48847
-919.42259
-1824.215
-2612.2879
-4104.4567
-6566.1259
-7597.323
-5983.8942
3.2946233
-632.39699
-875.81406
-1882.9811
-2769.128
-4417.4911
-7302.4162
-8053.3271
-6399.4289
127.09859
-556.31283
-818.89982
-1919.3185
-2924.8199
-4723.7686
-8040.2733
-8277.9234
-6605.841
271.96085
-467.71636
-750.69259
-1932.156
-3072.7832
-5019.6258
-8743.1511
-8902.6479
-6859.4962
-7092.3126
-9425.6921
-9219.4616
-5257.9028
-3180.3388
-1916.6755
-674.48222
-363.75369
433.08413
-7245.4949
-9768.4504
-9556.8209
-5418.6175
-3257.1378
-1879.0361
-595.84044
-247.98724
588.75496
-7401.6039
-10061.016
-9861.3333
-5540.8709
-3303.0672
-1816.5931
-505.70804
-120.84253
730.14951
-7570.677
-10322.72
-10120.445
-5639.7203
-3321.0947
-1730.8391
-406.20737
12.062605
851.68173
-7751.3274
-10577.663
-10339.631
-5727.1149
-3324.9391
-1627.5985
-302.27044
144.49842
961.56576
-7949.6708
-10775.911
-10509.079
-5808.9099
-3315.9188
-1515.7887
-195.56931
273.66083
1061.0693
-8190.6919
-10999.691
-10631.818
-5882.6134
-3287.2363
-1402.4231
-87.789287
398.67188
1155.7017
-8621.4086
-11139.541
-10689.283
-5941.5771
-3240.4868
-1285.4845
18.25827
519.58171
1240.7924
-8865.9729
-11327.932
-10692.42
-5969.8315
-3169.4998
-1161.16
124.22237
638.08635
1316.1134
-8860.3076
-11364.716
-10424.75
-5865.2323
-2962.7206
-909.86003
309.98916
837.671
1425.9108
-8963.6077
-11841.31
-10277.129
-5636.1508
-2594.3463
-539.18449
559.98427
1058.3041
1534.6419
-8930.4091
-11918.072
-10021.839
-5277.407
-2121.6799
-144.50796
785.56899
1264.0999
1593.3704
-8636.1978
-12277.71
-9689.8467
-4792.0693
-1603.329
219.49426
971.79211
1456.7518
1616.8167
-8320.6129
-12429.831
-9320.7612
-4228.4785
-1113.5014
533.89637
1129.8902
1612.027
1597.8461
-8225.5074
-12442.482
-8961.4415
-3609.3227
-643.53858
784.6997
1212.7356
1729.8747
1559.3407
-8297.2332
-12233.781
-8636.3665
-2948.6964
-267.15542
945.99095
1258.5605
1829.8235
1496.1397
-8381.3922
-11864.756
-8365.3229
-2223.8483
18.900438
1047.1271
1345.7983
1875.124
1459.5016
-8476.803
-11336.904
-8132.1887
-1510.7481
193.45103
1114.9348
1479.9754
1846.0909
1323.6479
-9516.7564
-8463.3065
-8461.1439
-4617.9924
-3419.4159
-3308.869
-3032.9214
-2361.8338
-377.40265
-9493.1784
-8621.4738
-8703.7524
-4718.3166
-3257.1432
-2966.9255
-2529.0637
-2049.1866
-209.16737
-9458.6688
-8771.5773
-8899.3148
-4780.668
-3060.0294
-2627.7099
-2032.0243
-1719.6893
-28.789661
-9415.9065
-8918.5189
-9057.5989
-4806.7181
-2829.8569
-2298.1146
-1555.6847
-1392.1502
156.8882
-9370.4044
-9065.7369
-9179.4969
-4796.2403
-2562.574
-1979.6091
-1114.0377
-1079.1824
343.79977
-9324.3063
-9210.9469
-9262.3594
-4749.2651
-2258.5552
-1670.8721
-704.72342
-782.02953
533.07612
-9279.8338
-9359.454
-9313.9384
-4660.0589
-1923.9187
-1370.9034
-320.19963
-488.88885
726.72999
-9242.2645
-9509.2666
-9335.4429
-4525.1131
-1576.4432
-1090.0265
33.487925
-197.09423
922.22457
-9211.902
-9656.7684
-9334.4376
-4352.769
-1236.8861
-834.37739
338.14355
73.688214
1118.6618
-9632.1108
-3797.3771
1962.8017
1809.8785
538.14508
-3293.3774
-1908.0575
-840.01469
-450.52044
-10023.63
-4315.5993
2126.4909
2014.5903
1128.362
-2501.7579
-1925.0547
-1004.7384
-527.52141
-10480.602
-4856.1818
2263.3797
2455.9141
1791.6796
-1565.126
-1739.9984
-1117.8501
-632.53544
-11038.261
-5472.4913
2157.0018
3065.4914
2244.2827
-641.44583
-1378.4467
-1107.5586
-735.41321
-11667.24
-6111.9732
1732.926
3520.0855
2663.4797
242.47468
-885.46382
-957.6528
-788.3999
-12291.291
-6759.7907
1027.702
3851.6837
2993.4012
1043.9841
-292.27393
-658.59836
-740.84446
-12503.185
-7444.8905
28.435274
3878.9913
3237.9014
1742.9391
327.84084
-251.83053
-586.42074
-12839.411
-8223.3256
-1175.3947
3559.2328
3308.9237
2258.4966
930.45395
229.35432
-339.43162
-13258.39
-9093.3327
-2188.1585
3059.1874
3201.6394
2575.9501
1399.6998
706.73741
0.81821876
1441.1143
1945.1487
2032.8685
2262.8536
1825.6781
931.09343
-2904.1678
-10006.174
-14532.304
1330.1728
1897.7235
2050.362
2359.0512
1973.2253
1139.5366
-2979.1825
-9880.8516
-14487.973
1202.3892
1830.231
2055.3748
2442.0278
2135.8965
1375.3709
-2977.5523
-9855.7228
-14369.222
1063.6665
1740.7692
2044.1996
2517.6148
2308.0783
1606.562
-2948.4319
-9891.9272
-14278.006
912.77728
1630.3001
2012.4007
2579.6732
2470.0996
1842.4698
-2916.4844
-9942.9271
-14162.16
753.93412
1500.2462
1956.9341
2628.8882
2621.4573
2071.2432
-2885.123
-9941.0278
-14039.626
590.78369
1354.3107
1879.5968
2660.0822
2765.4601
2298.746
-2832.2296
-9870.9478
-13976.212
426.90577
1194.0343
1778.5455
2670.1186
2901.458
2513.5945
-2752.8805
-9749.7855
-13785.28
265.38111
1020.5551
1655.1633
2653.4483
3026.4175
2710.6477
-2641.7554
-9651.6533
-13510.211
-14681.339
-10116.964
-2667.5556
725.41933
1679.7069
2154.6116
2004.3633
1971.9233
1540.8962
-14177.21
-9580.2123
-2290.2446
529.70641
1541.6223
2042.3655
1967.3252
1978.0813
1624.4931
-13198.554
-8570.7835
-1984.5865
395.10984
1423.78
1932.2474
1921.1395
1966.5874
1692.2982
-12161.163
-7336.3242
-1789.7401
328.54667
1322.6588
1827.4977
1874.4965
1943.8526
1739.0244
-13015.306
-6016.6458
-1609.6382
296.07113
1238.6246
1730.3647
1827.3891
1913.2372
1767.1085
-16359.768
-4739.5909
-1346.8624
293.04252
1178.7218
1641.7955
1788.3612
1880.6067
1776.6204
-16461
-3607.7791
-1022.9252
325.70136
1142.2237
1567.0219
1752.6911
1843.8339
1776.2539
-13770.277
-2519.019
-742.98754
355.38451
1109.8111
1500.6218
1710.2105
1805.0888
1771.0615
-11722.708
-1801.1152
-624.75378
333.67359
1053.0139
1431.271
1653.5254
1760.8754
1771.4179
1639.4417
1580.108
1400.8405
1088.9921
642.59659
0.87445428
-679.91884
-1252.0676
515.20024
1617.4699
1547.2898
1359.4461
1033.7316
556.07091
-153.75143
-1011.9355
-1943.9334
-374.84258
1607.7149
1532.5734
1339.9305
1007.7618
512.73669
-255.76912
-1274.5704
-2612.731
-1411.3477
1617.2177
1533.0982
1341.7048
1009.425
509.79455
-299.56879
-1443.9541
-3210.577
-2639.6986
1636.064
1550.3013
1364.0102
1036.1687
542.57726
-284.73547
-1496.8625
-3654.0107
-4133.5694
1668.1164
1581.9817
1404.6412
1088.0831
606.28128
-218.24588
-1418.6403
-3886.2057
-5907.5989
1703.4008
1622.0015
1458.3779
1162.615
694.31716
-108.43508
-1236.5511
-3836.4536
-7910.6069
1746.6742
1665.2448
1520.193
1250.2078
810.92171
34.41489
-989.13791
-3457.1677
-9584.0181
1769.5749
1714.5864
1590.5317
1345.7637
941.39155
192.12664
-763.6556
-2662.0123
-10652.076
1208.6388
-619.0812
-306.55815
197.55657
764.98083
1171.0574
1463.2057
1631.3692
1681.5638
1789.6376
-44.808131
69.31918
417.49075
909.35893
1273.6326
1542.9113
1697.4026
1736.7802
2320.5699
503.77561
457.82515
664.23792
1078.925
1394.9282
1641.1206
1780.8486
1813.5985
2816.3943
1024.9067
848.27905
926.92827
1267.8527
1533.0402
1754.5476
1878.9578
1901.1777
3273.9012
1516.6719
1234.3574
1203.1003
1467.2776
1685.4201
1880.2772
1990.3483
2008.8577
3701.2442
1979.3111
1610.9211
1486.8916
1678.0628
1848.7191
2018.1027
2111.6627
2123.7751
4092.7143
2415.748
1976.0027
1769.9823
1898.4059
2021.3744
2163.0387
2241.6137
2254.9052
4461.3116
2822.0407
2323.3031
2051.938
2117.7154
2198.1721
2317.0285
2380.0268
2390.6745
4795.1557
3203.1253
2654.9359
2326.0903
2338.0914
2379.5308
2474.4546
2523.3371
2536.7063
3853.6644
3794.4922
3841.8047
3867.8948
4032.0383
4270.4564
4774.5586
5463.8131
6497.0036
3735.9273
3667.807
3709.0252
3730.2699
3886.8886
4118.4229
4624.2235
5309.2172
6424.3181
3597.0707
3535.9979
3569.2717
3583.2352
3727.6741
3945.0641
4447.439
5137.9296
6345.6475
3449.7166
3399.8056
3423.6553
3427.9747
3556.2969
3752.4583
4247.4182
4939.8589
6223.8438
3296.9336
3257.7126
3272.7486
3265.0182
3374.078
3546.9166
4027.8279
4713.9583
6051.0803
3145.1673
3112.4013
3117.7788
3096.1903
3180.8967
3327.3663
3790.6915
4462.3591
5840.2998
2990.8001
2966.2617
2958.4995
2921.7738
2980.0874
3093.5295
3535.3919
4187.8172
5612.8503
2838.5857
2817.6597
2797.073
2741.6364
2772.2505
2849.9285
3262.7254
3887.7646
5359.6319
2684.7028
2669.1987
2635.6195
2562.3974
2557.8891
2593.5646
2966.1512
3560.1079
5089.5582
3972.7927
4094.1167
4211.8052
4324.7753
4432.6319
4535.1473
4632.0283
4723.1624
4808.8612
3915.7985
4032.0839
4143.6171
4250.344
4352.4452
4449.0293
4540.9109
4628.5614
4711.6193
3966.528
4083.4036
4194.6125
4299.2076
4398.5258
4493.2017
4582.2135
4665.3212
4744.772
3995.8688
4114.6717
4226.2527
4330.8288
4428.8383
4520.7855
4606.8818
4687.9306
4764.17
4161.9634
4277.9899
4384.8531
4483.4809
4574.4129
4658.6566
4736.6405
4809.4289
4877.3443
4401.1726
4514.0864
4615.4654
4706.6952
4787.6521
4860.6168
4926.7187
4987.2458
5042.7852
4893.3009
4987.2894
5066.7925
5134.3626
5190.5828
5237.2516
5277.285
5311.8787
5341.4767
5594.7151
5693.3542
5753.6987
5788.1463
5810.3071
5816.959
5808.6514
5798.9573
5784.5215
6588.2298
6720.2019
6813.4674
6819.6554
6774.1689
6734.9744
6662.2256
6585.246
6514.0037
4888.9898
4789.5817
4820.7579
4835.975
4941.1589
5094.5434
5367.9827
5766.6058
6434.6185
4964.6955
4864.1203
4891.4312
4903.8007
5001.1638
5142.7317
5392.9943
5749.693
6356.2492
5035.2888
4934.837
4957.5263
4968.1669
5057.9044
5188.379
5416.7604
5733.9586
6284.2464
5101.6488
5000.8755
5021.3517
5029.1156
5111.605
5232.0761
5438.1113
5716.1956
6209.4896
5163.502
5063.4846
5081.074
5086.9743
5162.7785
5274.5433
5460.0163
5702.1339
6138.1769
5221.0268
5122.8335
5136.5226
5142.004
5211.7362
5315.8603
5482.0691
5691.1376
6076.7696
5273.7181
5178.2025
5189.8679
5194.43
5258.8194
5356.4001
5504.4685
5682.25
6011.1494
5322.8782
5230.2342
5239.6822
5243.8327
5303.8739
5396.0583
5529.0697
5678.2777
5947.6912
5368.2916
5278.8809
5286.0507
5290.479
5347.2412
5435.1604
5555.618
5679.7277
5891.7926
5638.084
5588.4867
5585.4461
5600.6643
5646.0741
5740.5402
5845.5016
5933.0722
5766.0061
5617.7887
5563.9279
5561.7848
5574.9415
5620.3443
5711.0073
5810.5809
5882.6884
5707.2065
5595.5875
5537.1329
5536.0704
5547.2859
5593.0049
5680.484
5775.7953
5836.4484
5662.3049
5571.4519
5508.2246
5507.994
5517.5268
5564.0859
5649.011
5741.9093
5796.2729
5646.9939
5545.1029
5476.9007
5477.8581
5485.5417
5533.3156
5616.3484
5709.0564
5762.1847
5658.6815
5516.0031
5443.0464
5444.5592
5451.4711
5500.4659
5582.3551
5676.703
5734.5617
5688.1546
5483.971
5406.5573
5409.0005
5415.2236
5465.5134
5547.1499
5644.6507
5712.9746
5732.0066
5448.6143
5366.959
5371.3463
5376.4591
5428.2635
5510.8179
5613.5095
5696.2962
5780.5611
5410.002
5324.7733
5330.0404
5334.6347
5388.7203
5473.4075
5583.5795
5685.3881
5834.2281
5830.395
5990.3088
5881.4847
5770.0596
5670.7069
5624.2559
5607.4026
5610.8655
5655.9968
5916.9048
6055.3404
5917.3339
5798.1012
5693.5334
5645.6912
5627.8021
5631.2965
5669.8063
6010.6067
6120.6344
5950.8332
5823.1911
5713.9356
5665.4109
5646.4117
5649.4445
5682.0467
6110.3753
6182.9617
5980.3207
5844.8049
5731.4507
5683.3455
5663.2283
5665.2639
5692.2421
6212.9032
6241.0871
6004.4388
5862.3818
5745.5051
5697.9621
5678.0609
5679.3143
5700.9632
6314.8519
6294.0444
6022.6313
5875.9745
5756.2764
5710.5177
5691.2135
5691.7254
5708.1341
6414.7473
6341.6176
6035.3432
5886.2063
5764.7648
5722.1094
5702.8099
5702.5259
5713.8926
6512.8289
6385.9211
6045.8624
5895.6864
5773.4722
5733.5964
5713.6337
5711.4587
5718.2164
6610.8288
6431.3315
6061.7236
5908.8785
5786.247
5746.4929
5724.4804
5718.974
5720.5153
6722.8593
6484.3114
6097.2604
5935.431
5811.8729
5765.3877
5739.0566
5727.2001
5721.8027
6850.7151
6539.2205
6141.6201
5968.3494
5844.0688
5789.2255
5758.9012
5740.2502
5727.7056
6971.3414
6589.0859
6183.4584
6001.6817
5876.2297
5814.4543
5779.8265
5755.1012
5736.9923
7079.4653
6631.9237
6219.9757
6034.123
5907.5482
5840.6718
5801.7459
5771.9156
5749.3267
7170.922
6664.5285
6248.905
6063.959
5937.3025
5867.0172
5824.3059
5790.5092
5764.4432
7242.5643
6682.5212
6270.0017
6090.2526
5965.3888
5893.2593
5847.0425
5810.4855
5781.998
7255.8575
6681.4392
6282.8365
6111.763
5990.5861
5918.0836
5869.5712
5831.4191
5801.5869
7149.6719
6661.3754
6290.9598
6128.4857
6012.7937
5941.0526
5891.4838
5852.6231
5822.6689
6976.8444
6621.0431
6296.8089
6141.1956
6031.6879
5961.8268
5912.0495
5873.5993
5844.5712
5942.2509
5949.3524
5967.2404
5996.0007
6039.4357
6095.6061
6171.174
6275.3386
6414.1293
5948.9259
5956.413
5976.4411
6007.3483
6052.8734
6115.6151
6202.0915
6322.3766
6485.6935
5950.2262
5959.7659
5981.2301
6014.2007
6062.9265
6130.3945
6223.3253
6352.5563
6513.352
5946.2307
5958.9482
5981.4425
6017.2278
6068.8625
6142.2283
6242.527
6386.8241
6563.9837
5936.6972
5952.6687
5978.1901
6017.0774
6071.1325
6151.5498
6260.5418
6423.7849
6614.1457
5923.0695
5942.2266
5971.2447
6013.2451
6069.7499
6157.0726
6277.2429
6461.1212
6670.6098
5906.3823
5928.2912
5960.7676
6005.6645
6064.7371
6158.2961
6289.5005
6498.6003
6727.2341
5887.3169
5911.8208
5947.0751
5994.4729
6056.9154
6155.4843
6296.4856
6536.5475
6787.3241
5866.4142
5893.4835
5930.6434
5979.729
6046.1804
6149.4559
6298.0673
6575.1486
6860.8983
6652.9669
6713.3892
6769.6949
6847.8835
6935.5223
7037.6038
7180.4167
7387.6653
7671.5649
6693.7468
6749.7353
6812.1391
6894.1872
6985.8469
7092.0728
7241.9122
7453.5269
7737.8801
6733.9356
6787.6582
6852.3523
6935.4925
7033.9666
7148.6984
7308.1668
7530.2847
7824.734
6775.0561
6828.4109
6894.1622
6977.836
7079.9191
7203.4173
7372.1428
7608.4692
7920.4282
6817.7495
6870.0741
6934.4456
7018.0418
7122.0466
7252.5708
7427.7306
7680.3013
8009.6208
6850.4122
6900.9999
6964.9354
7045.1294
7146.2872
7278.8734
7454.9642
7736.654
8082.7392
6860.6855
6906.3023
6967.2194
7046.2861
7145.8631
7271.5508
7424.5869
7763.4502
8109.2085
6835.2747
6874.164
6923.5218
6985.5452
7068.1908
7199.3705
7295.6741
7727.4951
8030.2213
6742.6253
6773.5829
6808.4891
6853.5758
6902.9851
7035.0491
7028.3155
7629.183
7722.6346
3175.5582
5549.5215
5455.3505
6108.8058
6250.2565
6396.5299
6472.6895
6504.9491
6492.1983
4865.5527
5000.9304
4952.6623
5311.8525
5334.6059
5578.19
5665.4968
5787.9767
5869.0184
5335.8801
5345.1768
5226.0631
5341.9981
5259.7671
5384.4718
5361.4933
5459.9483
5478.0047
5358.5646
5414.4893
5352.046
5438.5167
5352.7637
5439.3556
5374.4809
5448.7601
5407.2948
5338.2655
5371.9295
5339.5317
5426.7443
5379.6377
5459.8157
5408.3237
5471.8383
5442.5584
5308.7532
5330.8618
5312.9995
5363.7436
5348.8217
5399.0425
5394.2533
5438.4904
5429.2884
5247.687
5257.3256
5242.2353
5265.7261
5251.8808
5285.0203
5271.6698
5314.0361
5295.425
5129.9579
5133.565
5114.7363
5135.0317
5091.6895
5129.6782
5063.9678
5111.5657
5033.0912
5049.5747
5047.8583
5040.9559
5055.1754
5034.1162
5059.3523
5027.0829
5060.054
5024.8308
4999.0893
4996.5667
4965.3579
4890.3195
4752.6993
4517.9689
4247.0519
4024.9546
3886.8623
5032.0131
4990.7679
4953.9942
4878.181
4744.3584
4514.7957
4232.0414
3984.9303
3811.5902
4994.2506
4973.3291
4930.6475
4849.769
4715.2436
4488.0474
4202.1211
3925.6346
3709.5661
5017.5977
4968.7228
4918.3648
4832.0445
4699.3907
4469.5848
4175.3733
3862.389
3583.4442
4993.5284
4956.5465
4902.2998
4814.978
4682.7213
4453.9423
4149.8205
3801.9584
3448.7939
5004.6367
4953.0787
4895.5904
4805.037
4678.1215
4446.5273
4135.2184
3749.9517
3326.2043
4992.9662
4945.5042
4883.3914
4796.9979
4662.8442
4445.6895
4122.6991
3717.4335
3236.6255
4997.946
4946.7999
4885.1382
4790.1017
4666.6072
4443.8589
4123.983
3681.3717
3258.5621
4999.1987
4949.9005
4881.7406
4800.4806
4674.3978
4470.4073
4136.0529
3710.8655
3111.5491
3918.677
4115.8974
4466.1943
4789.1858
5015.4367
5188.1802
5355.1449
5524.8451
5692.857
3805.4783
4012.2354
4418.2191
4765.938
4997.4308
5172.9073
5343.6139
5517.1277
5689.0023
3667.322
3909.7231
4384.5731
4749.6607
4981.2045
5160.7524
5335.7926
5511.3561
5684.8051
3506.4285
3807.7779
4349.0223
4727.562
4962.4041
5151.3628
5333.2014
5512.6362
5688.66
3303.6586
3713.7093
4318.4076
4699.5231
4930.0358
5124.9251
5313.7921
5497.5614
5675.9331
3011.8432
3632.6508
4322.3149
4701.0842
4934.4977
5135.1533
5325.8135
5509.3698
5687.1066
2590.3101
3502.473
4274.7427
4646.8556
4890.9639
5104.7912
5304.2326
5493.2556
5673.8379
2110.3637
3501.9483
4313.0309
4651.6361
4900.9032
5117.9167
5315.994
5501.7443
5680.269
1379.2658
3393.7209
4288.6419
4622.671
4883.8786
5107.7307
5308.189
5495.7291
5675.4836
5858.7062
6025.5947
6196.5756
6363.6241
6532.7617
6702.7881
6878.5675
7061.0434
7251.4083
5857.6571
6027.3041
6198.3477
6367.6293
6537.5403
6709.4598
6886.0869
7070.348
7261.9847
5855.8995
6027.5162
6198.9521
6368.9203
6540.6525
6714.9878
6894.4493
7080.6359
7273.2505
5859.9204
6033.1708
6205.4799
6377.3044
6548.9471
6724.3909
6904.0284
7092.0455
7286.0393
5850.523
6025.3354
6198.0214
6372.0392
6546.7601
6724.5848
6905.2609
7093.9289
7289.9615
5859.2686
6034.2598
6207.6643
6381.5711
6557.125
6736.6365
6918.1928
7106.2716
7300.7896
5849.1912
6026.5949
6200.808
6377.5561
6554.1696
6733.4471
6916.2361
7106.9239
7301.7296
5853.9711
6030.4929
6205.6291
6382.4445
6560.0362
6741.2756
6924.7288
7113.5115
7306.5167
5851.3024
6028.5274
6203.854
6381.1153
6558.7716
6737.1645
6923.9482
7114.6112
7307.4074
7464.6956
7689.3296
7915.7469
8164.3869
8414.1031
8673.7617
8930.3002
9182.1749
9286.1929
7476.8811
7703.8309
7939.1119
8193.0231
8447.8158
8715.2886
8984.5895
9250.0582
9382.5345
7489.148
7718.8305
7959.9008
8218.5907
8479.1914
8754.2717
9035.0867
9314.451
9482.4309
7503.0959
7735.2977
7979.4036
8239.2833
8506.4223
8788.3722
9082.0569
9373.2223
9578.7869
7508.0614
7742.285
7993.2786
8256.214
8529.3423
8817.331
9124.7705
9427.3368
9673.6658
7518.1665
7752.6744
8005.9133
8271.1335
8548.9118
8842.514
9162.175
9476.8908
9760.7026
7519.7393
7755.8317
8012.7685
8277.8416
8560.3109
8858.7833
9189.3879
9516.6693
9837.0441
7522.9125
7759.1776
8017.8466
8285.1166
8570.3381
8872.0564
9212.1782
9550.0589
9913.9376
7523.9477
7760.9792
8019.5087
8286.2176
8574.5478
8875.8685
9220.3434
9565.4372
9914.9235
9663.1149
9026.0469
8581.5327
8256.7598
7907.374
7549.4813
7199.905
6857.9141
6534.8384
9769.6172
9110.6489
8663.1724
8331.3233
7972.3465
7607.2001
7251.0511
6907.2486
6580.7561
9833.6587
9177.0879
8737.6732
8398.6484
8033.2341
7662.9691
7302.3503
6959.1329
6628.5671
9903.114
9239.4746
8810.0256
8459.9773
8088.5847
7715.0999
7347.7656
7004.204
6668.3125
9977.3016
9302.2235
8882.3328
8525.3279
8151.1636
7777.4582
7406.7452
7058.4856
6721.1717
10057.027
9360.4556
8940.5647
8569.6084
8194.0226
7817.3439
7442.164
7095.6639
6751.5454
10133.436
9438.6272
9016.4628
8639.6976
8259.9782
7884.5482
7506.7276
7158.0067
6813.0848
10202.189
9468.254
9048.4809
8663.8865
8284.7809
7906.5835
7527.5092
7177.7252
6828.3076
10336.116
9585.3877
9139.6053
8748.2885
8367.0968
7988.2306
7607.6396
7254.5936
6903.6613
6211.0669
5900.6205
5580.5696
5260.5425
4931.0507
4590.6657
4238.6622
3872.7425
3495.8974
6255.2254
5940.3571
5619.7447
5298.2998
4968.4817
4628.0998
4276.8279
3911.1337
3532.8732
6302.306
5983.9979
5663.0902
5340.5861
5012.0327
4672.2311
4323.4205
3958.4491
3583.4906
6345.1445
6022.5724
5703.4379
5379.2713
5051.7231
4712.6802
4364.2787
4001.486
3625.9779
6393.7127
6070.9463
5748.7718
5425.83
5096.0609
4759.3439
4411.0656
4049.8001
3676.025
6427.3778
6100.464
5779.8096
5455.2542
5126.6913
4791.2496
4442.6754
4084.9907
3708.9912
6487.9099
6160.555
5838.2772
5514.8504
5184.3498
4851.4869
4502.2406
4148.1621
3770.814
6504.6649
6172.8889
5852.8108
5527.3016
5197.6488
4865.8643
4516.1048
4165.0918
3786.2306
6577.1466
6246.4866
5923.9421
5600.5143
5269.7242
4941.0003
4591.3553
4246.0183
3863.4871
3060.9692
2546.5832
2006.8791
1416.4266
789.51812
112.35247
-598.50656
-1376.0151
-2369.734
3099.0515
2599.756
2069.226
1498.7615
887.55791
249.00422
-424.27892
-1157.8249
-2105.4054
3154.7754
2669.7417
2152.1326
1598.3614
1004.7774
387.07882
-265.33115
-992.44017
-1898.4915
3206.598
2733.3296
2233.2601
1691.8826
1118.7989
513.32197
-98.709598
-763.50272
-1591.9304
3261.1512
2798.1391
2315.8638
1785.9629
1232.1168
633.36676
72.573956
-527.83496
-1124.0446
3308.3593
2854.2442
2392.0069
1875.6795
1333.1706
746.1223
198.59556
-282.63322
-682.94194
3377.792
2932.4576
2495.9942
1994.0831
1475.1673
884.16208
360.21478
-212.89851
560.82925
3406.6197
2968.1596
2541.1746
2057.1079
1536.7908
959.40737
331.53989
-68.735314
-262.90517
3497.6559
3077.1214
2682.3278
2224.9393
1753.8187
1210.5587
647.60694
-517.06752
3195.8126
-4200.7518
-5789.6214
-6071.9331
-6056.6714
-6291.4218
-6632.4981
-6308.3151
-6259.1707
-6225.8776
-4042.057
-5826.6784
-5976.3374
-5984.7768
-6189.7873
-6435.636
-6278.1214
-6220.6683
-6166.8776
-4005.3279
-5971.602
-5881.1433
-5987.3948
-6261.375
-6449.0321
-6255.0251
-6179.6236
-6104.45
-4132.6881
-6143.3056
-5793.7281
-6006.2388
-6206.2581
-6332.4819
-6229.8054
-6137.4438
-6040.6164
-4379.4844
-6197.096
-5626.7815
-6036.2187
-6259.739
-6306.2091
-6207.5568
-6096.5733
-5977.5972
-4268.6312
-6003.2221
-5611.3024
-6109.1719
-6224.7481
-6258.9186
-6176.6205
-6057.5693
-5922.5074
-3490.1435
-5668.3649
-5761.7335
-6129.1862
-6248.7562
-6234.4164
-6135.3913
-6025.7674
-5876.6666
-3998.7181
-6800.8294
-5746.1225
-6202.7528
-6250.6424
-6212.0188
-6113.4931
-6000.4539
-5845.0237
-12653.03
-4870.02
-5996.0355
-6231.4993
-6227.5447
-6186.7623
-6082.854
-5979.2107
-5825.1214
-6176.8126
-6213.3536
-6459.9595
-6966.5017
-7905.0477
-9171.6789
-10585.331
-13997.296
-13246.824
-6089.9669
-6100.6215
-6332.2607
-6861.8863
-7860.4622
-9245.607
-10761.995
-14172.01
-13180.262
-6017.7771
-6019.8963
-6281.156
-6880.5025
-7957.3277
-9554.4631
-11311.25
-13844.537
-13138.763
-5954.5343
-5956.8886
-6243.7313
-6919.3291
-8082.284
-9813.8377
-11747.217
-14059.774
-12797.104
-5895.0858
-5890.1899
-6200.8431
-6947.2559
-8189.2206
-10014.126
-12024.849
-13760.729
-12254.79
-5843.2586
-5834.5805
-6161.3575
-6978.2956
-8294.726
-10156.731
-12099.296
-13082.8
-11571.851
-5806.8087
-5802.5917
-6149.0509
-7033.3681
-8418.701
-10346.122
-12007.911
-12616.068
-10835.801