/*--------------------------------*- C++ -*----------------------------------*\
  =========                 |
  \\      /  F ield         | OpenFOAM: The Open Source CFD Toolbox
   \\    /   O peration     | Website:  https://openfoam.org
    \\  /    A nd           | Version:  11
     \\/     M anipulation  |
\*---------------------------------------------------------------------------*/
FoamFile
{
    format      ascii;
    class       volScalarField;
    location    "0.35923515";
    object      p;
}
// * * * * * * * * * * * * * * * * * * * * * * * * * * * * * * * * * * * * * //

dimensions      [0 2 -2 0 0 0 0];

internalField   nonuniform List<scalar> 
880
(
80.0000000000004
80.00000016385775
80.01345656252442
81.8803398874437
80.00000000017729
80.0000004813165
80.01669038919502
82.76388716356192
80.00000000090172
80.00000187777135
80.03089485394716
83.82257628376938
80.0000000120275
80.00000824566997
80.06380919791651
85.40754174782307
79.9999999446778
80.00000002780087
80.00000611597962
80.00009435548715
80.00003799613788
80.00014606256134
80.00091099689995
80.00134649072717
80.1445977975622
80.23457325827002
80.38548738326664
80.53778559249197
88.34435815422935
91.39558800585021
94.00065077963087
95.23496486485372
80.00023343533589
80.00190270352689
80.00718962424618
80.02228087442363
80.01262416461253
80.05407584658633
80.10847676561039
80.22875571655392
81.27049461848543
81.90766246872735
82.71481511271094
83.76511837806187
96.38506576298857
97.95087397037483
98.27348182702076
97.50849095133357
90.98665294217261
87.50957068781985
85.83751693200244
84.74259088994265
85.69173910629303
86.37140810782054
86.77396230086711
86.80858707295502
80.63879739924704
81.12353692921006
81.63899908845451
82.02323033057485
80.07908803801116
80.19128735066094
80.36115802788267
80.59965681403365
80.87775297527439
81.157083022698
81.43361864389259
81.64004223126229
82.31285274128295
82.48080831004684
82.56760415129193
82.57334531234014
86.44906037476045
85.9496786814986
85.29454899460843
84.61630410307492
83.58709977415126
82.89855031287392
82.50699098621439
82.07914298183071
82.08344818245799
84.14366091407666
82.52050138794068
81.76636335228137
87.74220296681655
83.8637803114748
82.36950084701668
81.74665411959388
120.5567659335978
85.26202376789161
82.18750619101201
81.49455749437952
158.3474126641835
93.05752366971483
82.6701793018222
81.40186094808342
81.37293599343823
83.39320512443828
102.7712438048066
175.0764753892187
80.87268617325061
84.7515506361068
113.7340526946222
174.2793778772652
81.08510043626886
87.90143703471145
128.3723648545574
176.1372796279272
81.89135351568997
93.58544069668517
142.2707094110012
173.4128302614385
167.7074941802922
149.9506521057134
102.2396083985899
83.66775761130911
160.7384451588744
151.1909420567797
111.8296656289512
86.84016298018362
153.3432074287113
148.9209216770672
120.125439954163
91.9426309459581
145.6347213590359
138.9088035034526
121.4586819730005
98.3122523750344
103.948756038184
117.3638483937019
126.5676504416837
136.6078121231379
103.1374867954703
109.2148156657911
113.4276142227647
123.664932319228
100.836608452195
101.4842551331156
100.681345999296
107.3274212371861
97.84647612836463
95.22408022136722
89.17513717573775
88.30752698861251
95.4682908747247
89.32755432649648
78.72375628354722
66.39565500767711
91.68564462978513
83.96082490010311
69.93168448483152
43.06378038129741
88.80541591993136
81.54220876814298
63.23963269687363
26.39392759098849
86.35646045985821
80.46176814116885
58.9911204568118
14.84809560632036
15.60577346942714
60.5691837654533
79.5867875880956
84.17247750754184
24.76324893843594
61.36500352636651
78.99418589063797
82.70509002637311
27.33970875135715
61.04523162488461
78.13600201202357
81.71382353453386
25.83949173724238
60.43858221146959
77.52980467212589
81.17535098806069
31.26909944139047
63.06655289916187
77.20209883290391
80.23974873736724
36.95816705008947
65.60887846205101
77.11657371477021
79.68640191474933
43.59639298521933
68.8497133501244
77.31449279244626
79.66585562284172
51.42002550823575
71.09838660278361
77.69929048199175
79.73914819302354
53.282114687407
58.94016388506291
73.28919300595709
79.26093619781319
51.93648945411123
60.14529523907864
73.51431460987898
79.25271409440234
49.49654415752924
61.86260820169185
74.01488126326399
79.25461247261219
47.17456195789829
63.82102498241965
74.73205698726277
79.31312529147455
51.42002550823089
71.0983866027164
77.69929048200299
79.7391481926998
43.59639298525171
68.84971334982036
77.31449279233519
79.66585562238214
36.95816705008993
65.60887846182989
77.1165737143684
79.68640191422145
31.26909944144632
63.06655289892605
77.20209883281304
80.23974873704989
84.17247750777058
79.58678758814482
60.56918376544127
15.60577346915515
82.70509002634614
78.99418589060191
61.3650035263077
24.76324893817944
81.71382353456526
78.1360020120708
61.04523162445241
27.33970875129123
81.17535098807747
77.52980467237525
60.43858221135493
25.83949173724297
14.84809560632995
58.99112045671584
80.46176814112363
86.35646045994035
26.39392759087407
63.2396326969192
81.54220876823487
88.8054159199868
43.06378038123428
69.93168448503198
83.96082490012296
91.68564463003081
66.39565500776621
78.72375628335833
89.32755432616815
95.46829087489331
103.9487560383801
117.3638483943619
126.5676504421801
136.6078121230815
103.1374867953583
109.2148156656482
113.427614222977
123.664932319309
100.8366084517106
101.4842551329816
100.6813459992617
107.3274212372447
97.84647612824318
95.22408022117433
89.17513717564965
88.30752698877447
145.6347213590389
138.9088035036572
121.4586819733878
98.3122523758684
153.3432074286541
148.920921677185
120.1254399543331
91.9426309460725
160.7384451589083
151.190942056736
111.8296656288069
86.8401629804349
167.7074941800159
149.950652106045
102.2396083989538
83.66775761135108
81.37293599337781
83.39320512448418
102.7712438046975
175.0764753889487
80.87268617373876
84.75155063627774
113.7340526946187
174.2793778768812
81.08510043702374
87.90143703537026
128.3723648546307
176.1372796278053
81.89135351580818
93.58544069656783
142.2707094111327
173.4128302612008
81.40186094809579
81.4945574943133
81.74665411995454
81.76636335234397
82.67017930142319
82.18750619076501
82.36950084708096
82.52050138791363
93.05752366926846
85.26202376792391
83.86378031117802
84.14366091396541
158.3474126637131
120.5567659332196
87.74220296689154
82.08344818246582
81.64004223152676
82.57334531244064
84.61630410324746
82.0791429820097
81.43361864361538
82.56760415151129
85.29454899480439
82.50699098632046
81.15708302268612
82.48080831007803
85.94967868140141
82.8985503125203
80.87775297500966
82.31285274108517
86.4490603750876
83.58709977421914
80.07908803788014
80.6387973990027
85.69173910654413
90.98665294242308
80.19128735036719
81.12353692880126
86.3714081081162
87.50957068776968
80.36115802817793
81.63899908807284
86.77396230088584
85.83751693150306
80.59965681380895
82.02323033045478
86.80858707329142
84.74259088967774
97.50849095124627
83.76511837813197
80.22875571637097
80.02228087480449
98.27348182698444
82.71481511279829
80.10847676548599
80.00718962421435
97.95087397047224
81.907662468621
80.05407584587081
80.00190270325704
96.38506576293707
81.27049461827234
80.01262416437127
80.00023343570916
95.23496486472396
80.53778559256317
80.00134649079028
80.0000943559439
94.00065077918791
80.38548738325947
80.00091099664051
80.00000611626892
91.39558800544005
80.23457325822672
80.00014606232766
80.0000000276608
88.34435815388159
80.14459779744838
80.00003799606762
79.99999994537085
80.00000000002807
80.00000016396199
80.01345656252923
81.88033988731192
80.00000000026193
80.00000048100623
80.0166903891393
82.76388716358177
80.00000000110963
80.00000187755403
80.03089485401487
83.82257628404074
80.00000001233936
80.00000824559363
80.06380919796682
85.40754174794104
83.52397651286122
85.09526128295559
87.64366488675763
92.78680275308656
85.09526128324687
87.15058243248802
90.99714817162466
98.69100413382345
87.64366488687877
90.9971481716403
97.31190973630029
106.8207692934076
92.78680275314626
98.69100413364474
106.8207692936949
117.1819324476864
127.9923770332979
119.0251453667855
115.1013003234295
106.8655349378741
126.2796589579979
123.6456014690728
123.6040233237638
119.5300698792185
126.3198039075117
125.4943041275841
125.0506420825096
123.6400984704678
123.7373328316868
123.3302486964614
123.2434460311241
122.3928495990508
119.6767727430366
117.8559326827357
114.2518089569878
109.3401075025741
119.9428924058592
118.039796843692
114.3867899072767
109.8050897386972
120.2785789171212
118.2215675174517
114.3689868702008
110.2399001848183
120.4533590440303
118.1133042513395
114.5207657283269
108.5601450232505
82.83050757480794
71.90504535429496
70.60493196551171
70.98549416482669
75.82087341630319
69.03044186441976
69.65708095377859
70.38174032072516
69.99731680708982
68.89584772682949
70.22945054657198
70.92989827867017
60.73660939889345
66.59797627539621
69.23782835620514
70.19844091622245
70.93009038400922
71.29237442984477
72.10774854801444
73.05117172249146
70.47277564107937
70.85096950223122
71.7355586133814
72.92905431934973
70.90452125941648
71.13424761091542
71.87253963216428
72.80678661736687
70.2969321465568
70.61810942511437
71.55371041981236
72.84658924524247
78.67352150743288
114.0346271021564
165.0701846544673
181.4274412260509
81.3632754376024
121.5213102179445
162.538989468927
173.2945116729926
83.49432220942451
125.2960758864285
161.3136797945854
171.995761524057
84.86348304308277
130.712041981784
161.6590451394001
171.9728059130258
218.1626580959917
209.3376912592487
201.7908615426663
190.5377486357111
219.3305762978548
212.1167199014396
203.9478446455338
192.3782817274059
218.3263963022255
213.6473747895055
205.0482744042062
193.4989482574459
213.2096131342637
215.5722955518399
206.971146445033
195.2369520693424
178.1486625126112
167.8958268428642
158.27472660146
153.3866589247295
180.147039889132
169.2803864121589
158.9648847721627
153.759995323247
181.2955287883335
169.4894274916843
159.5126684100841
153.7252937000584
183.7018429588403
170.9145266236744
161.1740479372639
154.8235222484868
148.5697487180031
140.6581793294355
126.7741807905357
105.8850765047955
149.2635430227669
142.1818504126698
128.8939494815378
114.3600024491441
149.2078886214459
142.6097192692142
130.6897751311804
119.6674804247765
150.370042922017
144.9548587208912
134.0436695840164
134.5834623321613
64.62303805345299
16.54900779077726
2.690620409450827
1.283616101557604
49.95164514744273
10.39447596535123
2.242196794684468
1.464418554426366
34.73868778092901
6.571958875901397
1.963437348553424
1.620818990255437
19.55113853336556
3.061009399081054
1.726206729953429
1.813277235737893
1.929257429821752
4.153556199751042
6.78578482191619
10.67161452953121
2.736372018087986
5.087923231234907
7.800739028037925
11.94484755547806
3.199582126477744
5.473013398948244
8.646022081098197
12.64696708665322
3.753887116036081
6.199495925128704
10.09296467368973
13.79309857974294
12.5172678067186
18.94030462496117
26.0330551284204
34.74108520350365
12.12982633766788
17.87734524650873
24.72002756692091
33.23101777232206
12.44053518461802
16.35110852364911
22.87554309908338
32.23959696497946
11.69549569115775
14.4608122030785
19.06073165841351
30.28220995702662
35.03391015375825
33.20776962940766
32.54790963144643
33.17743149575651
31.86525094138566
31.78647086656584
32.24761217701381
32.35376893771902
31.01255867718272
32.65718649693341
32.98672459435011
33.02248489941839
29.23680079522234
31.45587939131483
31.77609883162452
32.50251902063987
32.92046374103271
33.2314100792012
33.49142236264736
33.61797829306072
32.97863318129249
32.9362392879844
32.84476335283035
32.95096536047249
32.92856082513417
33.39768628414556
33.83633070056103
34.09497960032756
34.75146231209767
35.80220298837013
36.54013120812068
36.54222603552427
33.61797829306259
32.95096536045362
34.09497960035133
36.54222603552886
33.49142236267375
32.84476335283128
33.83633070057199
36.5401312081254
33.231410079178
32.93623928799698
33.39768628417717
35.80220298840709
32.92046374108362
32.9786331812751
32.92856082514574
34.75146231214427
33.17743149584563
32.54790963146061
33.2077696294656
35.03391015379049
32.35376893774406
32.24761217706198
31.78647086662373
31.86525094142308
33.02248489945281
32.98672459441405
32.65718649698547
31.01255867723964
32.50251902064792
31.77609883165333
31.45587939134862
29.23680079527319
30.28220995712188
19.06073165853505
14.46081220317961
11.69549569124349
32.2395969650573
22.87554309917349
16.35110852375588
12.44053518472852
33.23101777240016
24.72002756703558
17.87734524662226
12.12982633776538
34.74108520356624
26.03305512853102
18.94030462505072
12.51726780685701
10.67161452958988
6.785784821942796
4.153556199712373
1.92925742984882
11.94484755553546
7.800739028083099
5.087923231223642
2.736372018089662
12.64696708671661
8.646022081157501
5.473013398948156
3.199582126473364
13.79309857980467
10.09296467374465
6.199495925142543
3.753887116030152
1.283616101594767
2.690620409413301
16.54900779067253
64.62303805353042
1.464418554440759
2.242196794671808
10.39447596530355
49.95164514737998
1.620818990254736
1.96343734854351
6.571958875890574
34.73868778093969
1.813277235735296
1.726206729943261
3.06100939908137
19.55113853334653
105.8850765048541
126.7741807904614
140.6581793292239
148.5697487179307
114.3600024490712
128.8939494814647
142.1818504125728
149.2635430225849
119.6674804246634
130.6897751309979
142.6097192691538
149.2078886213946
134.583462332181
134.043669583881
144.9548587209182
150.3700429218694
153.386658924653
158.2747266011594
167.8958268426017
178.1486625120901
153.7599953231492
158.9648847720906
169.2803864113279
180.1470398885036
153.7252937001921
159.5126684097449
169.4894274909097
181.2955287877443
154.8235222484259
161.1740479370696
170.9145266232613
183.7018429584528
190.5377486353476
201.7908615422911
209.3376912589736
218.162658096026
192.3782817271554
203.9478446453222
212.1167199010388
219.3305762978893
193.4989482572778
205.0482744039002
213.6473747892174
218.3263963022059
195.2369520692575
206.9711464448614
215.5722955513812
213.2096131344678
181.4274412260535
165.0701846542087
114.0346271022191
78.67352150771534
173.2945116729072
162.5389894687528
121.5213102179838
81.3632754379007
171.9957615239667
161.3136797944385
125.2960758864178
83.49432220973746
171.9728059127425
161.6590451392568
130.7120419817704
84.86348304340618
73.05117172271298
72.10774854776224
71.29237442933035
70.9300903836582
72.92905431960503
71.73555861327117
70.85096950170481
70.47277564085788
72.80678661764595
71.87253963199269
71.13424761040939
70.90452125919482
72.84658924551661
71.5537104195849
70.61810942458968
70.29693214622655
70.98549416438374
70.60493196516816
71.90504535442147
82.83050757494506
70.3817403202961
69.65708095336164
69.03044186463922
75.82087341639004
70.92989827824216
70.22945054613939
68.89584772708415
69.99731680713944
70.19844091578813
69.23782835569105
66.59797627563718
60.73660939897346
109.3401075026088
114.2518089570087
117.8559326830271
119.6767727429161
109.8050897386694
114.3867899075446
118.0397968439303
119.9428924056631
110.2399001848275
114.3689868701863
118.2215675174903
120.2785789169665
108.5601450232121
114.5207657285651
118.1133042516599
120.4533590438706
122.3928495984516
123.6400984696115
119.5300698783119
106.8655349378439
123.243446030305
125.0506420814978
123.6040233223965
115.1013003229836
123.3302486958289
125.4943041264952
123.6456014675363
119.0251453657386
123.7373328309273
126.3198039065916
126.2796589560851
127.9923770311399
54.09199452069434
71.27156031721097
77.56392961496262
79.75944566358181
50.81867917392351
69.89470941133351
76.93571564460962
79.66604257803913
48.22211443459201
68.2388918471605
76.32179209601571
79.54990463599351
46.39902938324074
65.9340388682552
75.50441587114786
79.42097226711559
79.26093619773877
73.28919300595926
58.94016388507364
53.28211468746035
79.25271409426281
73.51431460989136
60.14529523910481
51.93648945413992
79.25461247258745
74.0148812633737
61.86260820167328
49.49654415758533
79.31312529143217
74.73205698722731
63.82102498241644
47.17456195794468
79.42097226697653
79.5499046358847
79.66604257797566
79.75944566334708
75.50441587089814
76.32179209590285
76.9357156443396
77.56392961485923
65.93403886828652
68.23889184718662
69.89470941147476
71.27156031737155
46.39902938321715
48.22211443453441
50.81867917392066
54.09199452072083
)
;

boundaryField
{
    back
    {
        type            empty;
    }
    inlet
    {
        type            zeroGradient;
    }
    front
    {
        type            empty;
    }
    top
    {
        type            zeroGradient;
    }
    outlet
    {
        type            fixedValue;
        value           uniform 80;
    }
    bottom
    {
        type            zeroGradient;
    }
    wall
    {
        type            zeroGradient;
    }
}


// ************************************************************************* //
