/*--------------------------------*- C++ -*----------------------------------*\
  =========                 |
  \\      /  F ield         | OpenFOAM: The Open Source CFD Toolbox
   \\    /   O peration     | Website:  https://openfoam.org
    \\  /    A nd           | Version:  11
     \\/     M anipulation  |
\*---------------------------------------------------------------------------*/
FoamFile
{
    format      ascii;
    class       volVectorField;
    location    "0.35923515";
    object      U;
}
// * * * * * * * * * * * * * * * * * * * * * * * * * * * * * * * * * * * * * //

dimensions      [0 1 -1 0 0 0 0];

internalField   nonuniform List<vector> 
880
(
(24.99999999999999 -2.805992162129333e-12 0)
(24.99999998203183 -1.217386955118105e-08 0)
(24.998290260615 -0.0005554053228009774 0)
(24.71736463533152 0.007624529482674525 0)
(24.99999999998872 -2.831240465523123e-11 0)
(24.99999994445427 -7.039626453730085e-08 0)
(24.99747960527101 -0.001722072614278419 0)
(24.63269862639346 -0.1593358067571 0)
(24.99999999963697 -2.437731399031458e-10 0)
(24.99999976102305 -2.871800898023129e-07 0)
(24.99514558211154 -0.003584449333027852 0)
(24.51360529828327 -0.2644843363704705 0)
(24.99999999829957 1.052095920602492e-09 0)
(24.9999988181946 -1.167829385814299e-06 0)
(24.9890858751929 -0.007016733930085638 0)
(24.13724947201824 -0.4137218708495642 0)
(25.0000000111903 -4.114367927634701e-09 0)
(24.99999998001881 8.779462937847112e-09 0)
(24.99999953213299 -9.298326438956912e-07 0)
(24.99999314126271 -1.184355593694126e-05 0)
(24.99999376815199 -4.448614529984897e-06 0)
(24.99996304623036 -1.867009257758119e-05 0)
(24.99985589158725 1.067379008238414e-05 0)
(25.00017477339057 -0.001107677213479367 0)
(24.97171091123248 -0.01019830622949006 0)
(24.95164325787459 -0.006360363468152703 0)
(24.92414707416786 0.01073104618519058 0)
(24.91407848179634 -0.06683414157157429 0)
(23.40264637634261 -0.09542261333952343 0)
(22.69017906512375 0.6348494522779834 0)
(22.26856140362369 1.335025592726938 0)
(22.24430881647289 1.746227047538442 0)
(24.99988402797635 -6.198184696078758e-06 0)
(24.99960662262081 -0.0003640865988039754 0)
(24.99925376812751 -0.001529035806312484 0)
(24.99747573215775 -0.004522196772881324 0)
(24.99801878213244 -0.0006930946816570664 0)
(24.99019689454952 -0.0003535274938635906 0)
(24.97715050132012 0.005493413077442885 0)
(24.95441985337852 0.008911088556203704 0)
(24.75586195930658 -0.0108018789508052 0)
(24.63017965477725 0.09839473727767817 0)
(24.46165364800119 0.2785195104029475 0)
(24.31834987005917 0.4062569888140336 0)
(21.98167854875586 2.340706176533861 0)
(21.98733244685346 2.779769280482223 0)
(21.88512772389618 3.317359731168102 0)
(22.33926385402039 3.758405774338456 0)
(23.38567984105758 4.323110699320043 0)
(24.11422635347596 4.173018333800929 0)
(24.45810066853883 3.766263122596269 0)
(24.81733078033583 3.316631189652772 0)
(24.07886251934204 0.7463978569154217 0)
(24.09386054953898 1.104402119792436 0)
(24.19612189741796 1.349487056192553 0)
(24.38213634542861 1.475560550598999 0)
(24.87564170223025 0.0352935265082491 0)
(24.77190448507307 0.1155042547109791 0)
(24.67954182219411 0.2412727139967974 0)
(24.63421675512333 0.3945560759188847 0)
(24.98787385226141 -0.01055562572296294 0)
(24.9723631580382 -0.02425999009471293 0)
(24.95024742779689 -0.0440437884561856 0)
(24.9240520109268 -0.07056191161433771 0)
(24.90149220400118 -0.1010170252094636 0)
(24.88771240959567 -0.1311312693050437 0)
(24.88284771644421 -0.1445264457149021 0)
(24.88832853917186 -0.1379802361028215 0)
(24.63263989156906 0.55747408590847 0)
(24.67445992500142 0.712023116492048 0)
(24.76092548015079 0.8382213877759657 0)
(24.87669443799162 0.8925646450647809 0)
(24.54954263323658 1.60877191812101 0)
(24.75258196724528 1.654942150395185 0)
(24.94052898698082 1.62717914724309 0)
(25.09323506508675 1.555462158299669 0)
(24.99115110540184 2.905788898617139 0)
(25.17872947177308 2.489595719987583 0)
(25.29112411642723 2.094355587817304 0)
(25.36345530371727 1.778073583098637 0)
(25.42831773206486 1.377465769793181 0)
(25.24435372068414 1.453726060560781 0)
(24.9991625491935 0.9127339216672762 0)
(24.8960753122222 -0.1212244730330431 0)
(24.54808907810296 1.559487068421253 0)
(25.34338723701949 1.289310810886198 0)
(25.14340672352044 0.8617728252902526 0)
(24.90333278156674 -0.09618158603207497 0)
(19.1545558727671 1.728676198122758 0)
(25.15906136182709 1.297206559306913 0)
(25.2581484158013 0.7517552301404875 0)
(24.91621905377846 -0.08053322970448355 0)
(14.12720165208479 2.095947209188808 0)
(23.70236973852698 1.62878150811606 0)
(25.27712125032645 0.7747337325712603 0)
(24.94896568556324 -0.09185003550658397 0)
(24.95452733177762 -0.06679296465200872 0)
(25.21733591540695 0.7182133515577049 0)
(22.05152503166522 2.269328487443097 0)
(12.48988794953181 3.860287056503533 0)
(24.83136797089163 -0.08882688215901367 0)
(24.99460354456176 0.8082234343616214 0)
(20.60606027194362 3.314528786967907 0)
(12.79861089708773 5.640542110833424 0)
(24.78951122011509 -0.1158484542904173 0)
(24.47446563783295 1.156876933530012 0)
(18.82503795166543 4.649441089481714 0)
(12.64755206659797 7.078641459510042 0)
(24.69832530733806 -0.1634638554297908 0)
(23.59937775871165 1.928774350094701 0)
(17.5878187549876 6.058338626274778 0)
(13.13583799856303 8.144185988291056 0)
(14.04754454928465 8.85574114344954 0)
(16.96794192210906 7.293778675100651 0)
(22.43007578449829 3.156574576667584 0)
(24.51833199771659 -0.1864963602782003 0)
(15.13572621568871 9.393307695614322 0)
(17.24089338198035 8.219360639498449 0)
(21.21734842409931 4.641879872334748 0)
(24.19846971300497 -0.07130760226518325 0)
(16.37658521125759 9.684278916464292 0)
(18.1105537360705 8.754313407326237 0)
(20.70758886593137 5.995867460881609 0)
(23.69391792467507 0.2363992773480108 0)
(17.54805974332948 9.756797358214405 0)
(19.39760559614191 8.854134996637796 0)
(20.87609526485052 7.0359392366494 0)
(23.19631354162688 0.7228879374377118 0)
(22.91100533208255 0.8509406386479063 0)
(22.04904925218531 7.091131092473384 0)
(21.12107896544933 8.806658336641609 0)
(18.96385450079468 9.897796297101252 0)
(23.45623513385405 0.6463643280745491 0)
(23.50851434814903 6.648114964107183 0)
(23.10797640343966 8.415247056144912 0)
(20.90706024109633 9.810492902582833 0)
(24.04001115714233 0.3440991499172912 0)
(24.93162830153779 5.875069850889251 0)
(25.19364524388886 7.620153197874518 0)
(23.44735261266776 9.238273471171988 0)
(24.5186862467359 -0.249451957702623 0)
(26.06331998550951 4.606848592238996 0)
(27.16638900071396 6.226687363764883 0)
(26.40059522840446 7.61638141915357 0)
(24.88419084356308 -0.3075667738540043 0)
(26.92925075723863 3.628094022798679 0)
(29.04978506998153 4.804325149115449 0)
(30.68345804284202 4.759020314303383 0)
(25.30046039513375 -0.4989497732914817 0)
(27.49764684964148 2.601741287280109 0)
(30.11082555554387 3.390621293316183 0)
(34.00250353094331 0.7046093988110457 0)
(25.54326457004064 -0.5425532975712495 0)
(27.54994244258917 1.647317655199033 0)
(30.83473880399216 1.256058427468516 0)
(36.34819874661117 -4.253975944186839 0)
(25.65368253914938 -0.5437315432358082 0)
(27.22443658265721 1.022792746497588 0)
(30.31232851240977 -0.3107703780961955 0)
(37.77907137857492 -9.251786297004688 0)
(34.01927687930215 -7.327953023803387 0)
(29.13037990930325 -1.417295350733183 0)
(26.94231462459597 0.3554909346013638 0)
(25.69370251148383 -0.5467438526052274 0)
(25.63433843038613 -3.215000764998458 0)
(28.2464494154681 -1.936564094647222 0)
(26.64809475655927 -0.1001416001590215 0)
(25.62904340000363 -0.4720472951742697 0)
(23.08901898851857 -3.612747147331969 0)
(27.75004502394925 -2.841723839783779 0)
(26.39348251809976 -0.5594278967584778 0)
(25.50625709204564 -0.3592809354665751 0)
(19.90308239319222 -3.659476624525781 0)
(26.97781476926443 -3.450133046663008 0)
(26.04929271652227 -0.9532345558560196 0)
(25.38978717672968 -0.2750982763895832 0)
(18.08523588308266 -4.760176381526358 0)
(25.72426045636398 -4.391146234884451 0)
(25.48600256717531 -1.289814879522617 0)
(25.18021137977505 -0.2156633592071166 0)
(15.43322188236645 -6.813671228520615 0)
(24.08647460657589 -4.635047614168748 0)
(24.89651329127428 -1.125722936838082 0)
(25.00123475881487 -0.1079230813101287 0)
(14.3782841091427 -6.976708242503419 0)
(23.02531249103326 -4.048529723672729 0)
(24.6519282248094 -0.735897308806871 0)
(24.97081098205772 -0.04913423354986012 0)
(14.33667326624595 -5.861283709400146 0)
(22.80033857337303 -3.60044830929478 0)
(24.67303812584304 -0.6014458717509318 0)
(24.97608526471356 -0.03607848103241859 0)
(14.22230239936356 -0.6632660587067997 0)
(20.34307223872006 -0.1132413805530472 0)
(23.64828093126026 0.01058024555643697 0)
(24.85559836207838 0.001982407854636467 0)
(14.20389886941823 -1.75578147201652 0)
(20.33971257299322 -0.5377814880045947 0)
(23.66319241645221 0.0006337791429796945 0)
(24.85254129566909 0.00436505475922716 0)
(14.41821956684408 -3.256112405053181 0)
(20.34762642121654 -0.9878789586765849 0)
(23.70251119905505 -0.07175156530006607 0)
(24.85179089811646 0.0002504532324094423 0)
(14.47003990219491 -4.649569338722665 0)
(20.55622399072362 -1.352405059321967 0)
(23.80224247132937 -0.1947105201008665 0)
(24.86017652664812 -0.01138984738064826 0)
(14.33667326626627 5.861283709382116 0)
(22.8003385733967 3.600448309286811 0)
(24.6730381259436 0.6014458717035333 0)
(24.97608526482259 0.03607848101305131 0)
(14.3782841091817 6.976708242482624 0)
(23.02531249110323 4.048529723722974 0)
(24.65192822485198 0.7358973087910468 0)
(24.9708109821149 0.04913423359593367 0)
(15.43322188242366 6.813671228546176 0)
(24.08647460662107 4.635047614212287 0)
(24.89651329126432 1.125722936882303 0)
(25.0012347588656 0.1079230813605671 0)
(18.08523588310474 4.760176381527508 0)
(25.72426045643799 4.391146234949138 0)
(25.48600256718307 1.289814879556535 0)
(25.18021137979019 0.2156633592552893 0)
(25.69370251144396 0.5467438525466403 0)
(26.94231462462729 -0.3554909346358892 0)
(29.13037990930717 1.417295350724435 0)
(34.01927687922538 7.327953023930926 0)
(25.62904339999303 0.4720472951226845 0)
(26.64809475657039 0.1001416001517415 0)
(28.24644941549914 1.93656409465109 0)
(25.63433843042833 3.215000765098757 0)
(25.50625709200048 0.3592809354205013 0)
(26.39348251809215 0.5594278967848237 0)
(27.75004502403519 2.841723839916458 0)
(23.08901898846115 3.612747147377487 0)
(25.38978717666466 0.2750982763691744 0)
(26.04929271645689 0.9532345558278484 0)
(26.97781476928894 3.450133046740985 0)
(19.90308239323365 3.659476624549185 0)
(37.77907137872106 9.251786297173414 0)
(30.312328512424 0.3107703780910627 0)
(27.22443658271079 -1.022792746506336 0)
(25.65368253914433 0.5437315431886895 0)
(36.34819874661804 4.253975944235758 0)
(30.83473880401297 -1.256058427426393 0)
(27.54994244263416 -1.647317655205933 0)
(25.54326457000391 0.5425532975830311 0)
(34.00250353093433 -0.7046093987689619 0)
(30.11082555551948 -3.390621293300965 0)
(27.49764684968621 -2.601741287258512 0)
(25.3004603950198 0.4989497733604717 0)
(30.68345804281513 -4.759020314285968 0)
(29.04978507002422 -4.804325149086072 0)
(26.92925075731942 -3.628094022767783 0)
(24.88419084345528 0.3075667739420114 0)
(22.91100533203259 -0.850940638630081 0)
(22.04904925212044 -7.091131092475638 0)
(21.12107896540749 -8.80665833664534 0)
(18.96385450081235 -9.897796297100811 0)
(23.45623513383713 -0.6463643280300468 0)
(23.50851434815089 -6.648114964101342 0)
(23.10797640339996 -8.41524705613033 0)
(20.90706024110074 -9.810492902579067 0)
(24.04001115721218 -0.3440991498975736 0)
(24.93162830157359 -5.875069850900689 0)
(25.19364524386303 -7.62015319785194 0)
(23.44735261266294 -9.238273471158545 0)
(24.51868624670642 0.2494519577723623 0)
(26.06331998556673 -4.606848592214484 0)
(27.1663890007047 -6.226687363727934 0)
(26.4005952283729 -7.616381419140153 0)
(17.54805974334408 -9.756797358217195 0)
(19.39760559613317 -8.854134996644254 0)
(20.87609526480569 -7.035939236645102 0)
(23.19631354148224 -0.7228879374536284 0)
(16.37658521128258 -9.684278916478341 0)
(18.11055373609015 -8.754313407331592 0)
(20.70758886591272 -5.995867460889611 0)
(23.69391792463835 -0.2363992773447193 0)
(15.13572621569934 -9.393307695627424 0)
(17.2408933820175 -8.219360639491583 0)
(21.21734842409921 -4.641879872304839 0)
(24.19846971293244 0.07130760227224593 0)
(14.04754454931832 -8.855741143453182 0)
(16.96794192210908 -7.293778675067151 0)
(22.43007578441243 -3.156574576633725 0)
(24.51833199768864 0.186496360279663 0)
(24.95452733179302 0.06679296467468449 0)
(25.21733591540303 -0.7182133515312424 0)
(22.05152503169957 -2.269328487457642 0)
(12.48988794957029 -3.860287056508603 0)
(24.8313679707887 0.08882688215725874 0)
(24.99460354454496 -0.8082234343175316 0)
(20.60606027196601 -3.3145287869679 0)
(12.79861089712638 -5.640542110855336 0)
(24.7895112199475 0.1158484542837257 0)
(24.47446563772402 -1.156876933466851 0)
(18.82503795167991 -4.6494410894494 0)
(12.64755206661874 -7.078641459511624 0)
(24.6983253072881 0.163463855432967 0)
(23.59937775875435 -1.928774350020276 0)
(17.58781875504199 -6.058338626247222 0)
(13.13583799858114 -8.14418598829832 0)
(24.94896568554222 0.09185003552041281 0)
(24.91621905379063 0.08053322971703993 0)
(24.90333278149401 0.09618158606173932 0)
(24.89607531221292 0.1212244730294054 0)
(25.27712125040544 -0.7747337325727288 0)
(25.25814841586513 -0.7517552301313138 0)
(25.14340672347987 -0.861772825278591 0)
(24.99916254916603 -0.9127339216827888 0)
(23.70236973861447 -1.628781508134675 0)
(25.1590613618347 -1.297206559310953 0)
(25.34338723707573 -1.289310810899083 0)
(25.24435372070856 -1.4537260605535 0)
(14.12720165213895 -2.095947209190761 0)
(19.15455587283372 -1.72867619811845 0)
(24.54808907808844 -1.55948706839636 0)
(25.42831773205663 -1.377465769767599 0)
(24.88832853912516 0.1379802361100613 0)
(24.87669443794877 -0.892564645044562 0)
(25.09323506507617 -1.555462158274511 0)
(25.36345530371939 -1.778073583046331 0)
(24.88284771650481 0.1445264456956373 0)
(24.76092548008258 -0.838221387767748 0)
(24.94052898698251 -1.627179147220067 0)
(25.29112411642689 -2.094355587773855 0)
(24.88771240958905 0.1311312692957641 0)
(24.67445992499571 -0.712023116440007 0)
(24.7525819673249 -1.654942150409175 0)
(25.17872947182638 -2.489595719987696 0)
(24.9014922040542 0.101017025128561 0)
(24.6326398915795 -0.5574740858864886 0)
(24.54954263320972 -1.608771918114988 0)
(24.99115110542003 -2.905788898608744 0)
(24.98787385225712 0.01055562563782477 0)
(24.87564170232092 -0.03529352641439634 0)
(24.07886251932867 -0.7463978569070472 0)
(23.38567984102057 -4.323110699291425 0)
(24.97236315808832 0.02425998997879285 0)
(24.7719044851671 -0.1155042546396924 0)
(24.09386054954469 -1.104402119757205 0)
(24.11422635349419 -4.173018333802061 0)
(24.95024742771518 0.04404378842929221 0)
(24.67954182228581 -0.2412727139255441 0)
(24.19612189747791 -1.349487056194195 0)
(24.45810066863431 -3.766263122643034 0)
(24.92405201096726 0.07056191154630068 0)
(24.63421675514659 -0.3945560758654998 0)
(24.38213634544517 -1.475560550561121 0)
(24.81733078037832 -3.316631189677027 0)
(22.33926385404244 -3.758405774325608 0)
(24.31834987006699 -0.4062569888174811 0)
(24.95441985347404 -0.00891108846140006 0)
(24.99747573208923 0.004522196759604189 0)
(21.88512772392356 -3.317359731151788 0)
(24.461653647993 -0.2785195104070493 0)
(24.97715050136454 -0.005493413039463782 0)
(24.99925376816345 0.001529035775290896 0)
(21.98733244686651 -2.779769280468994 0)
(24.63017965481881 -0.09839473728354695 0)
(24.99019689469991 0.0003535275008684158 0)
(24.9996066226613 0.0003640864771340349 0)
(21.98167854877354 -2.340706176518544 0)
(24.75586195936538 0.0108018789433011 0)
(24.99801878220879 0.0006930946968093385 0)
(24.99988402793688 6.198198963919378e-06 0)
(22.24430881644258 -1.74622704752332 0)
(24.91407848181025 0.06683414157614465 0)
(25.00017477340786 0.001107677232765389 0)
(24.99999314123308 1.184359917117585e-05 0)
(22.2685614035711 -1.335025592713805 0)
(24.92414707417998 -0.01073104618837044 0)
(24.99985589165649 -1.067379091967008e-05 0)
(24.99999953209009 9.298419143294089e-07 0)
(22.69017906497347 -0.6348494522868845 0)
(24.95164325790044 0.0063603634592589 0)
(24.99996304629928 1.867008332790314e-05 0)
(24.99999998004261 -8.824877668606843e-09 0)
(23.4026463761253 0.09542261329256894 0)
(24.97171091128832 0.01019830622419966 0)
(24.99999376820709 4.448627588191491e-06 0)
(25.00000001114298 4.117534264472781e-09 0)
(25.00000000000002 5.954548020243226e-12 0)
(24.99999998201898 1.215716014242408e-08 0)
(24.99829026061055 0.0005554053049018087 0)
(24.71736463530599 -0.007624529325943268 0)
(24.99999999997173 4.182282493212904e-11 0)
(24.99999994453042 7.037279222014651e-08 0)
(24.9974796052917 0.001722072591903619 0)
(24.63269862615755 0.1593358068272497 0)
(24.99999999962681 2.564798800364366e-10 0)
(24.99999976109916 2.871837880078939e-07 0)
(24.99514558211182 0.003584449319671267 0)
(24.51360529794129 0.2644843363011816 0)
(24.99999999828481 -1.026204608973908e-09 0)
(24.99999881823999 1.167842039866572e-06 0)
(24.98908587519897 0.007016733919797149 0)
(24.13724947175306 0.4137218707941604 0)
(24.52527892587063 1.098763279129566e-10 0)
(24.35980227516163 0.1495547157134166 0)
(23.97405606503162 0.1736330503013879 0)
(23.03856469103886 0.01871816274418005 0)
(24.35980227537793 -0.1495547154963794 0)
(24.08844493317146 4.096521485276924e-11 0)
(23.40958642539272 -0.06031068230461263 0)
(21.96068141609791 -0.4863789221666019 0)
(23.97405606548264 -0.1736330502085195 0)
(23.40958642572667 0.0603106823804766 0)
(22.12863389651151 6.328490573933226e-11 0)
(20.03097763623733 -0.5819750021259096 0)
(23.03856469146843 -0.01871816276485897 0)
(21.96068141660396 0.4863789221077927 0)
(20.03097763655839 0.5819750020807639 0)
(17.78920405127415 -2.400816973741544e-10 0)
(17.25879915828479 2.521586052234915 0)
(17.89936623932447 2.91735168762627 0)
(19.54341243175491 2.655844689119551 0)
(21.08695245154545 1.887814259413076 0)
(18.24492451245278 4.246789962014232 0)
(18.30813929495852 4.203005019338592 0)
(19.04067307087182 4.114783739001812 0)
(20.07399212687461 3.952548560617039 0)
(17.6838726020351 5.193204593700306 0)
(18.85058725781947 4.491074781193982 0)
(19.52793692937059 4.691880543151846 0)
(20.05235032217313 4.563750560756064 0)
(18.33526829098271 5.754223444396835 0)
(19.70556764578897 4.717196729166299 0)
(20.20572806960171 4.891235298899181 0)
(20.49071303897999 4.805576613619748 0)
(20.79097689065475 4.932707823793746 0)
(21.02926717131088 5.061731857064784 0)
(21.40435955598418 5.120581061081418 0)
(22.1608537767763 5.280349519103236 0)
(20.72901355582358 4.994249559582236 0)
(21.03869777396879 5.101571459905915 0)
(21.53837467188866 5.117414945141538 0)
(22.65129106855865 5.500672819442863 0)
(20.47285785579786 4.931261162619572 0)
(20.97344610533432 5.105924696838418 0)
(21.55537295174399 5.158192850621319 0)
(24.10137362591993 5.943007754519585 0)
(18.97618213839214 5.851122540303109 0)
(19.59933922034959 5.875952012248774 0)
(20.50318015217778 5.734762972996956 0)
(25.83119220475458 7.125899334522327 0)
(25.81525914322647 3.187581985044912 0)
(26.40945408745915 0.8090345311081402 0)
(25.72185895719915 0.4870781308602902 0)
(25.59509961764299 0.3820583328565054 0)
(28.37611036886629 2.198782134179203 0)
(28.69592270921769 0.339747223349137 0)
(27.56801872771045 0.2832496025434136 0)
(26.89269689018528 0.3137581048905781 0)
(31.54902558788456 1.904714667816614 0)
(30.14994863731869 0.04577615421561855 0)
(28.75773387938113 0.05144589657580356 0)
(27.77933115904137 0.09386653421984613 0)
(25.07990707032185 1.987935626536576 0)
(24.21747203448532 0.6522646928845471 0)
(24.07232341980362 0.08970548093809388 0)
(24.15978528031261 -0.2164443933858026 0)
(25.6654237296061 0.3867738081726405 0)
(25.71343550362947 0.3198140645697241 0)
(25.70095400582705 0.2051413851994917 0)
(25.65343039425431 0.1716715343023281 0)
(26.5371191225094 0.3417386029453971 0)
(26.22459446318325 0.2915148518324018 0)
(25.94662929399906 0.1915971244694122 0)
(25.72127022886801 0.1306881616066155 0)
(27.1502967401064 0.1478464677529946 0)
(26.59223943359574 0.1471935759234577 0)
(26.09880499549293 0.09830544330357434 0)
(25.66597760682908 0.08514325084894711 0)
(24.13123273889755 -0.4622498076873704 0)
(23.90331320799768 -0.6207330935327937 0)
(23.70231568183633 -0.7154379950359793 0)
(23.36993481463964 -0.6662463179272569 0)
(25.20556750683784 0.7716815919043635 0)
(20.09254953521264 5.098243492395214 0)
(13.72005329832585 3.924579319340402 0)
(9.345257479268295 1.059342675139588 0)
(24.62766398288586 1.255316025167366 0)
(16.07245227798772 4.951585960207508 0)
(8.863914071638611 2.740881167018417 0)
(4.471076890401321 -0.1764270487002691 0)
(23.43578652156608 1.295008503678804 0)
(11.69355135103191 3.634446809775488 0)
(3.139778693454973 2.029183120216928 0)
(-0.7690027390967104 0.2418293449592593 0)
(19.41411373839174 -0.7286034393307244 0)
(7.303003402754543 -0.7958112795564242 0)
(0.2337833434110344 0.5429794744190379 0)
(-2.59557350018473 0.1744029911613428 0)
(8.569184733922654 2.693907657098538 0)
(10.58535289596394 4.559495511361746 0)
(11.49759062047202 6.280335644404524 0)
(12.44950832734082 7.625629982461757 0)
(6.136724567115243 1.993707684190226 0)
(9.511385253064178 4.411057242104578 0)
(11.20127370901284 6.22621013292591 0)
(12.40429701056856 7.672156756896679 0)
(2.933357688530507 0.01199918629845088 0)
(7.442519534605956 3.331985395676381 0)
(10.26715077918268 6.036199718254476 0)
(12.02121701495198 7.596921589299283 0)
(0.2395728520789764 -0.1062351309625718 0)
(3.470322231531878 2.476006560467009 0)
(7.538083183126368 3.976221444447227 0)
(10.63465006938196 5.46399650391145 0)
(13.63848428322706 8.986468493905644 0)
(14.77053299251603 10.00813770294617 0)
(15.91944403060837 10.56579027355939 0)
(16.81353299301944 10.85599505919858 0)
(13.55815509452015 8.920992355828247 0)
(14.71380243159679 9.954789134080182 0)
(15.82396282108923 10.54167710773654 0)
(16.69640493719924 10.88142735428305 0)
(13.23585957534882 8.764169045305893 0)
(14.51737671601425 9.775728424497114 0)
(15.74209828130589 10.47463714825192 0)
(16.62308202483868 10.96199044444048 0)
(13.11736006887948 6.748237824453003 0)
(14.67199227680122 8.448611371111685 0)
(15.76612414660123 10.30182277597582 0)
(16.64567225177962 10.93922249466367 0)
(17.82792798617852 11.27568947476883 0)
(19.42338236269494 11.76985306004202 0)
(21.77504298387979 11.69321733611277 0)
(24.77797469155771 10.42095083153988 0)
(17.62279091019773 11.27977285090276 0)
(19.07493065038924 11.72986107341909 0)
(21.2115349024112 11.74952137440633 0)
(24.97582014193186 12.47346494147625 0)
(17.47371758171057 11.36886915730917 0)
(18.72298241876979 11.7834687076132 0)
(21.34547758102594 12.58553915985961 0)
(31.48514611397609 18.45882947683218 0)
(17.43737013479329 11.39313424011306 0)
(18.64012680709426 11.79212147441205 0)
(22.06807164272882 13.17484168451156 0)
(43.24392678334565 25.51572601664131 0)
(30.59386891980047 5.261197058157451 0)
(32.03809275139531 -3.582404189261971 0)
(12.65433015871841 8.691359139840216 0)
(7.857851218495933 30.84073655697382 0)
(32.23134048197492 4.900221865218196 0)
(26.46677164189548 -1.952373409109495 0)
(8.976548880765808 17.41679956663085 0)
(8.448272975931964 29.02675630971012 0)
(31.97400080951785 3.292515405023588 0)
(17.208434514492 -4.302830187468268 0)
(3.828935722588941 21.3288316313785 0)
(4.611968835411713 29.02646193696563 0)
(20.30819241187905 -8.299025969313552 0)
(7.32804099728066 -0.5716152689835371 0)
(2.088299997309299 24.81799285138103 0)
(2.648148470600173 28.73384857314908 0)
(7.01782779432481 24.62055084121183 0)
(2.699416270358296 17.6968249360602 0)
(-0.7734616457724156 14.87142988657957 0)
(-2.833128184918718 9.937914147495405 0)
(6.712143025677979 23.5724584885825 0)
(1.914927090007946 19.24731406623846 0)
(-0.4568949132016683 14.98162220451401 0)
(-1.25360934132842 7.687134444696018 0)
(3.278163883481735 22.61469721689658 0)
(1.430353147485792 18.10661772524857 0)
(-0.3154467693150638 12.35855207386489 0)
(-0.8159264746324262 4.900408778426828 0)
(0.7861638872208161 22.03868081962959 0)
(-0.4547303033240349 17.36653155774332 0)
(-1.909240569656228 10.96799579793995 0)
(-1.738848296624147 3.285173327524847 0)
(-6.073748256155454 3.289703500256573 0)
(-2.016603571143357 0.2620767535285907 0)
(2.4291012815431 -2.420573530393789 0)
(4.457073885341426 -6.632229979577434 0)
(-6.812344852160042 3.051071887155657 0)
(-5.955622707780587 0.3486615298746136 0)
(-1.266621840754338 -0.7974367552568741 0)
(2.679229183544917 -5.575563478247888 0)
(-6.21280975396686 2.126659035536983 0)
(-7.806291822679851 0.6686660077888215 0)
(-4.517755989361727 0.3046187776152288 0)
(0.03259858716869295 -4.086251276301896 0)
(-4.585695438346243 2.184259837146963 0)
(-7.136555838265598 2.66850421713524 0)
(-5.229318561141118 3.072695128656492 0)
(-0.6496912022550899 -1.052242509670338 0)
(2.361445734998096 -6.935588827909137 0)
(2.293354178650543 -7.541109960521665 0)
(3.156979735345134 -7.215803477351082 0)
(4.46303675439531 -6.46923345987003 0)
(1.465809434701134 -6.803549544465382 0)
(1.926694467837121 -6.275293979068072 0)
(3.127089147908972 -5.840753952679333 0)
(3.899732753904009 -4.924466712060835 0)
(0.456806074147581 -4.750844667486926 0)
(0.6585836442516531 -3.491367043604877 0)
(1.655414576485586 -3.00368865401456 0)
(2.137388197759322 -1.923703818240373 0)
(1.659009909451707 -1.986506913881639 0)
(1.31120007757871 -0.7525629203427125 0)
(1.877132352764319 -0.3122957244970007 0)
(1.653223152380579 0.6367381306424105 0)
(0.7800628289076921 1.147340361852719 0)
(-0.03302247977865969 1.284730784097193 0)
(-0.6587458939549033 0.9682938934555569 0)
(-0.9813414748728608 0.3366285491065987 0)
(1.587027810737329 -0.9804801796734358 0)
(0.5863260238712695 -0.4815505235606405 0)
(-0.2570389018550804 -0.05724050570569238 0)
(-0.6750849112007753 -0.02422951628540579 0)
(3.363796895907051 -3.806082702828159 0)
(2.444111004301827 -2.796929238635748 0)
(1.338090495196526 -1.704911755310296 0)
(0.6067650511716957 -0.6385331152902781 0)
(5.107068044012911 -4.816765863334476 0)
(4.969944197816549 -3.302461953999645 0)
(4.18797330635519 -2.022016345787814 0)
(3.720991355199091 -0.7293689420757339 0)
(-0.9813414748751446 -0.3366285490837164 0)
(-0.6750849112011378 0.02422951629519796 0)
(0.6067650511716048 0.6385331152845343 0)
(3.720991355200385 0.7293689420562292 0)
(-0.658745893958388 -0.9682938934354802 0)
(-0.2570389018558089 0.05724050571517431 0)
(1.338090495200735 1.704911755307574 0)
(4.187973306384944 2.022016345769741 0)
(-0.03302247978248193 -1.284730784084077 0)
(0.5863260238698592 0.4815505235678507 0)
(2.444111004303799 2.796929238637062 0)
(4.9699441978359 3.302461953999764 0)
(0.7800628289055511 -1.147340361842656 0)
(1.587027810740349 0.9804801796787903 0)
(3.36379689590322 3.806082702836195 0)
(5.107068044011924 4.816765863339421 0)
(4.463036754383255 6.469233459853115 0)
(3.156979735351476 7.215803477347285 0)
(2.293354178653939 7.541109960513092 0)
(2.361445735014231 6.935588827900005 0)
(3.89973275390323 4.924466712060544 0)
(3.127089147917735 5.840753952673071 0)
(1.926694467851596 6.275293979054903 0)
(1.46580943472286 6.803549544455608 0)
(2.137388197762711 1.923703818240336 0)
(1.655414576491021 3.003688654010946 0)
(0.6585836442619545 3.491367043602225 0)
(0.456806074161249 4.750844667480894 0)
(1.653223152383692 -0.6367381306390149 0)
(1.877132352771956 0.3122957245013482 0)
(1.311200077588728 0.752562920350289 0)
(1.659009909460261 1.986506913889523 0)
(-0.6496912022374726 1.052242509672316 0)
(-5.229318561106828 -3.072695128629716 0)
(-7.136555838228824 -2.668504217104346 0)
(-4.5856954383189 -2.184259837138512 0)
(0.03259858718400548 4.086251276299709 0)
(-4.517755989333581 -0.3046187775923485 0)
(-7.806291822622924 -0.6686660077714504 0)
(-6.21280975391263 -2.126659035509762 0)
(2.679229183558225 5.575563478239575 0)
(-1.266621840721389 0.7974367552805147 0)
(-5.955622707709813 -0.3486615298488102 0)
(-6.812344852112884 -3.051071887106112 0)
(4.457073885354042 6.632229979572602 0)
(2.429101281567467 2.420573530415202 0)
(-2.016603571056016 -0.262076753507499 0)
(-6.073748256066094 -3.289703500192669 0)
(-2.833128184913757 -9.937914147384371 0)
(-0.7734616458305489 -14.87142988659219 0)
(2.699416270397953 -17.6968249363234 0)
(7.017827794063389 -24.62055084136315 0)
(-1.253609341324245 -7.687134444632298 0)
(-0.4568949132128335 -14.98162220449068 0)
(1.91492709009694 -19.24731406632596 0)
(6.712143025716943 -23.57245848859989 0)
(-0.8159264746341123 -4.900408778402628 0)
(-0.3154467693200841 -12.35855207385414 0)
(1.430353147509982 -18.10661772526417 0)
(3.278163883500053 -22.61469721691039 0)
(-1.738848296619262 -3.285173327532901 0)
(-1.909240569660442 -10.96799579794714 0)
(-0.4547303033256478 -17.36653155775548 0)
(0.7861638872318533 -22.03868081967176 0)
(7.857851218141824 -30.84073655703399 0)
(12.65433015845732 -8.691359140150867 0)
(32.03809275130931 3.582404189305766 0)
(30.59386891975452 -5.26119705813565 0)
(8.448272975798691 -29.02675630977047 0)
(8.976548880707487 -17.41679956682309 0)
(26.46677164187575 1.952373409080305 0)
(32.23134048196262 -4.900221865197338 0)
(4.611968835430076 -29.02646193705271 0)
(3.828935722533901 -21.32883163148619 0)
(17.20843451448328 4.302830187421318 0)
(31.97400080949085 -3.292515405015799 0)
(2.648148470604921 -28.73384857320996 0)
(2.08829999728658 -24.8179928514957 0)
(7.32804099730329 0.5716152689192532 0)
(20.30819241191662 8.299025969305537 0)
(24.77797469154613 -10.42095083151948 0)
(21.77504298388692 -11.69321733609721 0)
(19.42338236272737 -11.76985306003501 0)
(17.82792798619297 -11.27568947477589 0)
(24.97582014194164 -12.47346494146657 0)
(21.21153490240153 -11.74952137437707 0)
(19.07493065039099 -11.72986107340359 0)
(17.62279091022475 -11.27977285091165 0)
(31.48514611397295 -18.45882947682034 0)