/*--------------------------------*- C++ -*----------------------------------*\
  =========                 |
  \\      /  F ield         | OpenFOAM: The Open Source CFD Toolbox
   \\    /   O peration     | Website:  https://openfoam.org
    \\  /    A nd           | Version:  11
     \\/     M anipulation  |
\*---------------------------------------------------------------------------*/
FoamFile
{
    format      ascii;
    class       volScalarField;
    location    "0.35923585";
    object      T;
}
// * * * * * * * * * * * * * * * * * * * * * * * * * * * * * * * * * * * * * //

dimensions      [0 0 0 1 0 0 0];

internalField   nonuniform List<scalar> 
880
(
500.0000000000027
500.000000292371
500.0240605326666
503.3407923143968
500.0000000004407
500.0000008570672
500.0298642201021
504.88712043516
500.0000000016358
500.0000033381324
500.0553412671372
506.7156371918316
500.0000000211684
500.0000146205118
500.1147613487991
509.428383700486
499.9999999006574
500.000000075423
500.0000101660415
500.0001636967463
500.0000671573022
500.0002570885405
500.0016144234638
500.0023566033269
500.2633620891508
500.4346994075271
500.7186519269201
500.9607552010841
514.9178061758245
521.1125310712125
526.3742383604481
529.0291651773047
500.0004089511318
500.0033846768671
500.0128250642443
500.0397779193771
500.02279138548
500.0985657891423
500.2005071183789
500.4220189413617
502.415573027864
503.6983828128807
505.2861389203741
507.2307037056858
531.2572804240679
533.8983749836877
534.3925672463689
533.1640067951142
522.8401767899209
517.6388957663025
515.4439822956459
513.9695477122754
511.0474944464959
512.6641592525854
513.5779258705554
513.7075456262348
501.1772331098753
502.0603004777975
503.0083058375496
503.7665676548997
500.1411458881837
500.3405974414893
500.6412526858036
501.0639152176363
501.5574374354909
502.0498849959208
502.5355913846088
502.8872275554826
504.392819190351
504.7489946559759
504.9504536462737
504.9005614006005
513.0678825063665
512.1692229211466
510.9866120215798
509.7491154956616
512.2219219575146
511.0323420391146
510.2808466860383
509.512997851207
508.9399973625961
508.8784197211532
504.7597652484743
503.0952860577847
519.1985712384725
508.0402745703952
504.3860204818806
503.0560523296418
571.3181120583984
510.4333132855061
503.9291850236935
502.6034079890381
620.3436007446451
523.895560458387
504.7804866589969
502.4448647164411
502.3965099935057
506.0673840086893
539.6771621992268
637.4091490322764
501.5158335533662
508.5902714731858
556.3026489983496
635.1890958908618
501.8918123540649
514.4420727759114
576.6101919110097
636.1937703537092
503.3245816270231
524.8671749153337
594.7476144071023
633.4378207150367
628.3168625073126
604.805184025063
539.8153503140921
506.4863854529802
621.8131526121579
607.4543954858443
554.997704784655
512.1638423537149
614.498770187197
605.2839438892025
566.9944453483408
521.1588891480799
606.6428666974465
594.2588070120802
569.0865645678748
532.0892906270058
541.2918205067048
563.5992870963951
579.7592617351535
597.1536492996358
539.8325771644589
552.055853340386
562.8278069833955
582.2094093572324
535.8350389826476
540.3213926132742
544.5106422154071
560.5778662118316
530.6369987148611
529.8355163814834
525.3123199406438
530.4063128448986
526.752168346184
520.4504449920571
508.4952764840229
495.531731864006
520.591000257856
511.2779503282367
491.9682746283157
459.8351438693654
515.7628729461107
506.0172263526799
477.9305564380634
425.1202674568465
511.5881429479912
504.5831605582048
477.6785431728633
399.8640392678828
410.5420070997415
486.8265794456887
503.2609243448928
507.7683318545273
477.9408478164921
493.0372528731806
502.4041469301125
505.1697549543598
517.2615369716192
495.7347093936786
500.8734929058392
503.3598362319854
530.1726638924525
500.4062565126004
500.2272677445757
502.2904625657337
539.0029468289999
504.3271001140834
498.9655262132155
500.3929187829462
533.7936437615656
504.2973872021324
497.6634641361142
499.2219057539884
525.7947074159656
503.4849007618179
497.2753821469278
499.1942496290676
517.706617100965
499.1154618780935
497.0794141601799
499.4039113012013
479.7733760694182
469.4022945721599
488.9355534944356
498.6805735145167
474.2554807890325
471.2942590951776
489.4246939880559
498.6804137058176
465.230108211359
473.4183096179704
490.3269853792327
498.6945827489456
459.5021760330054
476.2501968337697
491.3791287617469
498.7839226631004
517.7066171010254
499.1154618777355
497.0794141604981
499.4039113009422
525.7947074160533
503.4849007611572
497.275382146879
499.1942496282115
533.7936437616065
504.2973872014858
497.6634641349613
499.2219057530913
539.0029468290932
504.3271001132225
498.9655262130098
500.3929187824223
507.7683318547574
503.2609243451676
486.826579445906
410.5420070987789
505.1697549542379
502.4041469301586
493.0372528736545
477.9408478155255
503.3598362320091
500.8734929060153
495.7347093928368
517.2615369714663
502.2904625656428
500.2272677450096
500.4062565119925
530.1726638927947
399.8640392699753
477.6785431728355
504.5831605583223
511.5881429481479
425.1202674567916
477.9305564380733
506.0172263530799
515.7628729460471
459.8351438694474
491.9682746289471
511.2779503282468
520.5910002580777
495.531731864453
508.4952764837425
520.450444991466
526.7521683462946
541.2918205067793
563.5992870969984
579.7592617357978
597.1536493001181
539.8325771640033
552.0558533400541
562.8278069836097
582.2094093578278
535.8350389818961
540.3213926129911
544.5106422153621
560.5778662121826
530.636998714619
529.835516381051
525.3123199403801
530.4063128453399
606.6428666978129
594.2588070125154
569.0865645681639
532.0892906279503
614.4987701877247
605.2839438896384
566.9944453484447
521.1588891480187
621.8131526126841
607.4543954862352
554.9977047843349
512.1638423537561
628.3168625078357
604.8051840254117
539.8153503145303
506.4863854528725
502.3965099933762
506.0673840086488
539.6771621990963
637.4091490323691
501.5158335541181
508.5902714735676
556.3026489984509
635.1890958910764
501.8918123550913
514.4420727769666
576.6101919114357
636.1937703536535
503.3245816270318
524.8671749151808
594.7476144076851
633.4378207152812
502.4448647162783
502.6034079888641
503.056052330205
503.095286057933
504.7804866582857
503.9291850233556
504.3860204819378
504.7597652483257
523.8955604576475
510.4333132854662
508.0402745698704
508.8784197210152
620.3436007445093
571.3181120579968
519.1985712385964
508.9399973624668
502.8872275559906
504.9005614009315
509.7491154960367
509.5129978515747
502.5355913844174
504.9504536466454
510.9866120218558
510.2808466862384
502.0498849959246
504.7489946561853
512.1692229211519
511.0323420385075
501.5574374350654
504.3928191901609
513.0678825066321
512.2219219576835
500.1411458876834
501.1772331095592
511.0474944469529
522.8401767902966
500.3405974408858
502.0603004773585
512.6641592531385
517.638895766354
500.6412526862337
503.0083058371543
513.5779258709624
515.4439822948322
501.0639152172066
503.766567654838
513.7075456265393
513.9695477118206
533.1640067951471
507.2307037058733
500.4220189412512
500.0397779197598
534.3925672464765
505.2861389205328
500.2005071181296
500.0128250641005
533.8983749840864
503.6983828127726
500.098565787924
500.0033846763877
531.2572804242652
502.4155730275572
500.0227913851015
500.0004089516961
529.0291651770757
500.9607552014019
500.0023566035478
500.0001636974906
526.3742383599599
500.7186519269567
500.0016144231759
500.0000101665276
521.1125310705976
500.4346994074801
500.0002570882144
500.0000000750825
514.9178061753224
500.2633620890053
500.0000671568157
499.999999901189
500.0000000001753
500.0000002925185
500.0240605325958
503.3407923141701
500.0000000005271
500.0000008567644
500.0298642201177
504.8871204351568
500.0000000018922
500.0000033379117
500.055341267219
506.7156371923278
500.0000000219067
500.0000146203533
500.1147613488874
509.4283837007656
506.2254126503561
508.9278346860918
513.2491629232151
521.8955091213413
508.927834686553
512.3867217914446
518.7554913970855
531.3320299011676
513.2491629235
518.7554913971251
528.8805413867159
544.0767817866844
521.8955091214501
531.3320299010138
544.0767817872583
560.259485181879
577.2416022735647
564.2359080181697
557.354424984386
544.9498172654196
575.4561056216132
571.5456093026961
570.3314110388371
564.6288225468293
575.3921602571952
574.3217286407868
573.7613539783247
572.0573228098235
571.9799472274409
571.5450495251158
571.6839603953952
570.9796710881686
567.8988453804186
565.5535343463978
560.4612832939604
553.2864699607396
567.558318612901
565.1532427820759
560.2395003140304
553.9644472964729
567.574717172653
564.9924945334589
559.9824131532341
554.5583805440383
567.6370500485023
564.7358910676152
560.1859886274121
550.9724964130462
512.3813819385158
492.8099113165628
489.949966652714
490.4503342078827
501.8264899088549
488.7084495727445
489.9705084211728
491.0967898214013
491.5798342833467
488.8778179350106
491.5593805736414
492.8374266285272
469.9267114262667
484.1233685115569
489.9013373715936
491.5987771823314
490.7932024485845
491.8105217647038
493.3327733643918
494.8470240380283
491.0039279175961
491.4808331541214
492.8627426688739
494.8616228251291
492.3164616061943
492.3386550445314
493.2673510215704
494.7357523737264
491.2483302100201
491.4195281673062
492.7258760272304
494.8404357537544
505.0242139929115
567.6794468453866
639.3616598910038
664.5432285828764
510.9448431598967
581.1657586238028
642.0077921455635
660.2509412447768
516.4240698097402
589.4968305828801
641.9778577309511
660.949307846069
520.2332256767884
597.7646356567716
642.1824636220292
661.3622862194688
694.3007362509684
681.4452951614662
670.1400164801263
656.8751732991848
702.7508704332082
690.0068497130341
676.8982889060102
662.5493874524593
708.7285335094655
697.4718846854745
683.0150713972154
668.040724206332
706.6523043968799
701.2939674522551
687.1940991742998
671.8352100437774
643.6162478575419
633.0271941511488
623.2182895590773
618.9683260188625
648.7147495206133
637.1079482258598
625.9497069775982
621.0677501389279
653.878169842611
640.6183020871169
629.5061752880376
623.1777023841109
658.2968400184396
643.6926206045413
632.9969105400241
625.5984710783761
615.0673990222639
607.6462849514686
590.9806042984158
565.0080016901451
616.8448185743574
609.2347770640598
593.77844069991
592.6504975547994
617.8389539891169
610.1545175084568
602.7702999017149
620.4156357616648
619.7334208780553
614.0056892741935
616.3504812350366
603.9811753191955
522.5290135329652
460.197459985203
422.6662942118464
426.5629197355073
512.0671853006762
421.9833982022457
305.5282012425582
252.9704863625923
468.7318353445678
368.1012012697236
252.1783626553461
231.8540613766786
368.0076852394026
282.5859501878654
227.8297932849938
239.5913012463466
376.1215128984446
403.9276900056441
471.0878779080532
522.9245462334609
306.4931652653152
380.3614058693942
441.8189873313335
491.7073015923283
291.6675431571994
350.9022985787161
404.4012375081326
445.1308638925636
298.937821681019
351.4328346826635
402.123331425822
431.1497238337407
487.0603803357191
510.3455648235479
509.2793145405121
509.6867151930099
435.7731733298689
473.9286844123791
492.6747689124248
510.5669299585888
407.3529961220101
432.9142081712616
470.554514871051
514.1741651856281
392.4920212157248
408.2738892140083
445.0625646674508
512.9340101960067
491.8259475515931
470.6131973637302
459.3925242272978
459.7030334647629
495.1781581601594
486.0218430286401
482.0170403514074
475.8952343487729
504.2369530367642
507.4083707524916
501.610302119501
488.6177137900879
503.601437995579
508.6045773315091
498.7249508585601
484.0920741058218
465.9312346062872
450.627359894951
442.2372751527105
439.8955644858128
471.5291043546551
455.6886714433972
444.420294599112
441.05644793842
469.7954172925479
461.2957968412251
452.6150493610538
448.998598530754
462.8005980103454
460.2204836644755
455.4797877632754
452.3451255820858
439.895564485777
441.0564479383921
448.9985985307662
452.3451255821776
442.2372751525395
444.4202945989586
452.6150493610486
455.4797877635326
450.6273598946737
455.688671443117
461.295796841133
460.2204836646636
465.9312346058662
471.5291043544618
469.7954172924747
462.8005980104952
459.7030334648938
459.3925242273297
470.6131973640387
491.8259475518344
475.8952343488054
482.0170403515008
486.0218430289152
495.1781581603898
488.6177137899231
501.6103021193774
507.4083707525366
504.2369530368299
484.0920741056081
498.7249508584699
508.604577331453
503.6014379955468
512.9340101961004
445.0625646678729
408.2738892146201
392.4920212163328
514.1741651857326
470.5545148714901
432.9142081718524
407.3529961227064
510.5669299587591
492.6747689127275
473.9286844129242
435.7731733307584
509.6867151931486
509.2793145407026
510.3455648240324
487.0603803364008
522.9245462332663
471.0878779079885
403.9276900041282
376.1215129073897
491.7073015923201
441.8189873315795
380.361405868737
306.493165265624
445.1308638928595
404.4012375087093
350.9022985784629
291.6675431569857
431.1497238341281
402.1233314263773
351.4328346829659
298.9378216809806
426.5629197571944
422.6662942137506
460.1974599852657
522.5290135334084
252.9704863658824
305.5282012425016
421.9833982020329
512.0671853009466
231.8540613768266
252.178362655032
368.1012012703225
468.7318353452447
239.5913012465738
227.8297932844851
282.5859501884717
368.0076852398987
565.008001690513
590.980604298819
607.6462849519912
615.0673990225905
592.6504975551406
593.7784407000729
609.234777064312
616.8448185747989
620.4156357619715
602.7702999017308
610.1545175083231
617.8389539893411
603.9811753199588
616.3504812349856
614.0056892739932
619.7334208783151
618.9683260194486
623.2182895594935
633.0271941509919
643.6162478575433
621.0677501394443
625.9497069776428
637.1079482255593
648.714749520326
623.1777023843219
629.5061752882195
640.6183020867229
653.8781698423577
625.5984710787592
632.9969105402396
643.6926206044328
658.2968400180615
656.8751732990188
670.1400164797692
681.4452951611401
694.3007362507744
662.5493874521238
676.8982889059906
690.0068497128963
702.7508704328644
668.0407242060166
683.0150713969476
697.4718846849255
708.7285335094587
671.835210043472
687.1940991741204
701.2939674521243
706.6523043963995
664.5432285828676
639.3616598907453
567.6794468453472
505.0242139933708
660.2509412446328
642.0077921452793
581.1657586237055
510.9448431604566
660.9493078458374
641.9778577306136
589.4968305826777
516.4240698103101
661.3622862196128
642.1824636216937
597.764635656549
520.2332256773514
494.8470240386816
493.3327733643017
491.8105217639734
490.793202448189
494.8616228257753
492.8627426687314
491.4808331531522
491.0039279171814
494.7357523743695
493.2673510212416
492.3386550435416
492.3164616056639
494.8404357543906
492.7258760268615
491.4195281662498
491.2483302092627
490.450334207095
489.9499666520906
492.8099113169333
512.3813819388865
491.0967898206506
489.9705084203262
488.7084495732676
501.8264899091438
492.8374266277535
491.5593805726705
488.8778179354642
491.5798342835591
491.5987771815264
489.9013373704304
484.1233685119321
469.9267114264877
553.2864699609154
560.4612832942133
565.5535343470423
567.898845380286
553.9644472966568
560.2395003141975
565.1532427826544
567.5583186127152
554.5583805439011
559.9824131532778
564.9924945338231
567.5747171723531
550.9724964130723
560.1859886274896
564.735891067815
567.6370500482712
570.9796710872515
572.0573228087159
564.628822545909
544.9498172655377
571.6839603944143
573.7613539768305
570.3314110371513
557.3544249838808
571.5450495240317
574.3217286390422
571.5456092998868
564.2359080162914
571.9799472265144
575.3921602553257
575.4561056181799
577.2416022698978
505.1313567068754
497.2537786068789
496.8135914515383
499.4842339941803
485.4160187062461
492.0361429772169
495.3926764266491
499.3454171380735
470.3698955751203
486.3989682488773
493.9791658831201
499.1480522500002
460.1372885157782
480.4285168736181
492.4955740797434
498.9410915196481
498.6805735141189
488.9355534944553
469.402294572097
479.773376069505
498.680413705452
489.4246939881924
471.2942590950644
474.2554807893849
498.6945827489392
490.3269853796459
473.4183096177039
465.2301082116633
498.7839226631447
491.379128761927
476.2501968335624
459.5021760331427
498.9410915194371
499.1480522498824
499.3454171382626
499.4842339942878
492.4955740794852
493.9791658829256
495.3926764261363
496.8135914514802
480.4285168737904
486.3989682491328
492.0361429777689
497.2537786073092
460.1372885156022
470.36989557487
485.4160187062557
505.1313567069737
)
;

boundaryField
{
    back
    {
        type            empty;
    }
    inlet
    {
        type            zeroGradient;
    }
    front
    {
        type            empty;
    }
    top
    {
        type            zeroGradient;
    }
    outlet
    {
        type            fixedValue;
        value           uniform 500;
    }
    bottom
    {
        type            zeroGradient;
    }
    wall
    {
        type            zeroGradient;
    }
}


// ************************************************************************* //
