/*--------------------------------*- C++ -*----------------------------------*\
  =========                 |
  \\      /  F ield         | OpenFOAM: The Open Source CFD Toolbox
   \\    /   O peration     | Website:  https://openfoam.org
    \\  /    A nd           | Version:  11
     \\/     M anipulation  |
\*---------------------------------------------------------------------------*/
FoamFile
{
    format      ascii;
    class       volScalarField;
    location    "0.039";
    object      p;
}
// * * * * * * * * * * * * * * * * * * * * * * * * * * * * * * * * * * * * * //

dimensions      [0 2 -2 0 0 0 0];

internalField   nonuniform List<scalar> 
880
(
80
80
80
79.99999998241778
80
80
79.99999999999991
79.9999999847132
80
79.99999999999999
80
80.00007397972378
80
80
80
80.00038966453249
80
80.00000000000001
79.99999999999994
80
79.99999999999999
80
79.99999999999983
80
80.00000000001721
79.99999999989524
80.00003262451591
79.99978789440279
80.09638954275971
80.5421795458153
80.96711754430062
81.05441201968537
80.00000000394233
80.00000000501166
80.00000000552001
80.00000000190421
80.00000042398635
80.00000056852085
80.00000063836721
80.00000026714129
80.00104329547688
80.0011517315432
80.00124638869191
80.00093280974927
81.12437864072436
81.21681755117912
81.25649009033719
81.35004401419768
81.46276923705827
80.87049571485726
80.28771105189279
80.03878762003907
80.00291928858273
80.00212392365641
80.00081777816634
80.00012265980394
80.00000229674482
80.00000177383036
80.00000070428032
80.00000010142585
80.00000002426711
80.00000001732205
80.00000000529334
80.0000000004033
80.00000000000017
79.99999999999997
80
80.00000000000001
80.00000000363281
80
80.00000000000001
80.00000000000001
80.00000470736056
79.99999999953964
79.9999999898421
79.9999999969255
80.00130456111188
79.99999423570617
79.9999959168658
79.99999916187519
79.99999997542272
79.999999999952
79.99999999999999
80
79.99999875685793
79.99999996202513
79.99999999919307
79.99999999999999
80.00055703665404
80.00001841514478
80.00000002826714
80.00000000016773
79.70284471718018
79.99894471844098
79.99999887003183
79.99999999942398
79.99999999998337
80.00000004153677
80.00032319503143
81.26090983408218
80.00000001324192
80.00000169631305
80.0039585618789
84.83972194243114
80.00000002087275
80.00000267643188
80.00580369693333
86.20409387026439
80.0000000262587
80.00000329991165
80.00670928936879
86.59506738415435
86.9402065358819
80.00775468350933
80.00000409127375
80.0000000335793
87.34566330365958
80.00908529843835
80.00000516082561
80.00000004343528
87.76379112631518
80.01061140200143
80.00000647573199
80.00000005624396
88.36685862733941
80.01312171649447
80.00000882978561
80.00000007995203
80.0000000572927
80.00000641667584
80.01117673801804
88.30929210104448
80.00000006106372
80.00000679376892
80.01129170224009
87.98916457768851
80.0000001047253
80.00000754655083
80.01144394024236
87.38693223572845
79.99999999132184
80.00000449213118
80.00615965056512
83.96061354428424
79.99999432066649
79.99867209622109
79.98798678335685
81.21367928863033
79.99999952029931
79.99919553521319
79.86330710997841
74.10857248154213
79.99999972799064
79.99955604522403
79.79985200315009
67.08579039827352
79.99999979212021
79.99954232193011
79.73395888333866
63.73464996828744
67.26011556651062
79.87302908794162
79.99975112847109
79.99999979999262
67.90836220520893
79.88543862924855
79.99979713293692
79.99999985995812
69.52601178186796
79.9201311990597
79.99986977302889
79.999999925577
67.87719238411466
79.89683834471087
79.99984126521066
79.99999989263412
75.09809567138983
79.98185734397234
79.99997643408535
79.99999998461539
79.18173890372117
79.99876059267564
79.99999885083892
79.99999999989357
79.89392793433734
79.99982857877851
79.99999982997305
79.99999999993055
79.7852649201504
79.99945372571651
79.99999929406432
79.99999999859206
78.8281012524421
79.99217252974401
79.99998279147464
80.00000005602249
78.82942262997979
79.99217927460677
79.99998275933311
80.00000005515096
78.82735781692256
79.99215945594986
79.99998239808919
80.00000004466945
78.8419320788952
79.99220566050928
79.99998186560444
80.00000002525248
79.78526491997874
79.99945372554865
79.99999929383004
79.99999999870155
79.89392793404146
79.99982857857378
79.99999982950192
79.99999999993962
79.18173890368649
79.99876059272013
79.99999885083758
79.99999999988992
75.09809567167368
79.98185734442865
79.99997643411703
79.99999998450032
79.99999980031954
79.99975112904038
79.87302908811199
67.26011556674251
79.99999986015087
79.99979713301875
79.88543862947307
67.90836220516441
79.99999992530144
79.99986977332556
79.92013119906609
69.52601178228359
79.99999989269662
79.99984126530275
79.8968383451644
67.87719238381698
63.73464996775711
79.73395888306183
79.99954232167347
79.99999979204237
67.08579039782848
79.79985200285674
79.9995560446862
79.99999972747986
74.10857248142271
79.86330710957155
79.99919553525424
79.99999951983563
81.21367928874434
79.98798678323078
79.9986720960496
79.99999432133048
80.00000005719768
80.0000064169387
80.01117673819476
88.30929210146309
80.00000006112552
80.00000679388531
80.01129170224317
87.98916457763897
80.00000010501395
80.00000754654221
80.01144393999637
87.38693223568656
79.99999999182981
80.0000044921191
80.00615965038176
83.96061354424522
88.36685862806777
80.01312171617927
80.00000883019784
80.00000007989316
87.76379112694289
80.01061140255744
80.00000647583468
80.00000005630787
87.34566330361166
80.00908529900866
80.00000516117449
80.0000000433885
86.94020653615672
80.00775468309045
80.00000409128708
80.00000003351148
79.99999999999976
80.00000004182533
80.00032319498283
81.26090983358613
80.00000001304225
80.00000169603229
80.00395856205718
84.83972194236881
80.00000002078242
80.00000267644151
80.00580369706938
86.20409387058523
80.00000002616201
80.00000329999342
80.00670928905973
86.59506738419037
79.99999999940388
80.00000000020462
80
80
79.99999886961737
80.00000002820535
79.99999999942509
80.00000000000001
79.99894471853686
80.00001841539024
79.99999996184067
79.99999999993402
79.70284471718229
80.00055703667721
79.99999875687374
79.99999997542628
79.99999999999991
80
79.99999999697111
79.9999991619575
80
79.99999999999999
79.9999999902235
79.9999959168789
79.99999999999999
80.0000000000024
79.9999999993701
79.99999423574425
79.99999999999957
80.00000000361435
80.00000470763227
80.0013045610184
80.00000002399126
80.00000229640779
80.00291928831903
81.46276923696999
80.00000001705908
80.00000177391215
80.00212392366591
80.87049571452332
80.0000000052424
80.00000070471509
80.00081777805318
80.28771105185405
80.00000000037008
80.00000010157071
80.00012265982262
80.038787619763
81.35004401431891
80.0009328103156
80.00000026694562
80.00000000179807
81.25649009017947
80.00124638946268
80.00000063828631
80.00000000558438
81.21681755171143
80.00115173181359
80.00000056859116
80.00000000494848
81.12437864057588
80.0010432942411
80.00000042389283
80.00000000399496
81.0544120198843
79.99978789472792
80
80
80.96711754416928
80.00003262399196
80
79.99999999999999
80.54217954602241
79.99999999978974
80
79.99999999999999
80.09638954264803
80.00000000005947
80
79.99999999999989
80
79.99999999999997
80
79.99999999895029
80.00000000000003
80.00000000000001
79.99999999999999
79.99999998407041
80
80
80
80.00007397994986
80
80
79.99999999999989
80.00038966440874
79.99998777204966
79.99985933814183
79.9995086059036
80.03860829214597
79.99985934090523
79.99879154215706
79.99723109030354
80.0343266604423
79.99950860615039
79.99723108995913
80.03102052454935
81.8896016041314
80.03860829252177
80.03432666065368
81.88960160419185
96.25122131769972
125.8665310875463
102.158262067839
92.00109469469109
83.64662851898763
126.2424433432549
118.4753509248779
113.0254287800914
99.37670289155025
126.4709822592041
126.2714758511175
124.1509924783586
113.1374211262108
128.1902592374742
130.3469426389009
128.5895615601934
117.4745587957682
119.0016665962478
119.4440325432049
119.6248145756357
124.4049409993471
129.5703960270272
129.6600840888436
129.7280621059233
137.4364922295423
131.3040803201999
131.3774365341321
131.4360385921171
136.7827279075698
128.6425728270079
128.6084098723031
128.6350061037222
130.9370002201906
107.9331476370308
91.83285101501001
83.01142331032743
80.3110759463831
108.3804211407169
89.37239562072425
82.00213908690404
80.24081052521821
89.07658651863322
79.79810413020691
81.3268451024673
80.33824882483856
73.1656543005497
75.67739063737399
78.91824413137273
79.82673738066498
80.00678129192005
79.99967745908056
79.9999390969228
79.99999603716458
80.00309346696918
79.99948491560914
79.99999133527625
79.99999971342926
80.00616827809036
79.99950295806353
79.99998156140393
79.9999998726701
79.9773354007751
79.99797903095507
79.99988733466273
79.99999791150083
79.99999986304789
80.00000003275035
80.00010637507479
76.5171195632507
79.99999990101337
79.99999999650873
80.00004599170452
82.029146411875
79.99999998091664
79.99999999905003
80.0000097802712
92.50641686453635
79.99999999031652
80.00000000094433
80.00000304610344
102.7842130889155
151.7279405959477
195.4390758373981
206.6862563087524
208.3061832097411
190.4394968021915
215.5475943494978
228.2109396647419
230.3650324964853
199.167373006603
210.7900771277599
223.5777265064229
226.0796762512497
211.3979564930176
201.8037235374996
210.0852247544308
213.223373487074
208.5824379585831
208.866221941055
209.1752712545021
209.4777444288457
230.4204136999642
230.4129784692086
230.4149488760126
230.1675861793707
226.1641032634269
226.1403060671327
226.1104573028907
225.8608198785767
213.4492211343899
213.4745830204341
213.4821705168484
213.2139069777521
205.8824520705031
202.3519923196159
193.6178994051372
157.2372905464767
229.5999617099899
227.8343270065257
219.720601607375
194.0435752200778
227.1386701803231
226.6430182421286
216.427733146318
197.8431193510048
214.0889556337893
213.2302009002914
203.7884236427217
196.8875991235921
90.49699840184471
40.53591009269521
14.25575682443769
9.837342105698998
85.96079831968892
24.56462612668454
9.331956822060075
6.347966984605501
59.4004190869443
13.55494803527071
7.338975123693906
5.279304329686316
29.54595111305941
3.981150431834428
5.075515110235401
4.565968339577649
9.841521804334397
10.0540582584774
10.61635063611962
8.801508224872816
6.141490976747716
6.303206977422976
7.17373736187596
6.599979975066478
4.99851657613186
5.240528835894441
6.422278108031773
6.677592313779199
4.202210064545838
4.420964464210236
5.743140495590902
5.2854602008083
39.77217052194311
65.33226362412364
74.88753307151777
72.28279106853743
29.484409333778
52.65679842805383
65.7789368005198
70.05496717285267
21.98545661364406
44.72579530833872
58.78175753034057
70.53704676427583
10.70304466002007
33.43812132103254
52.00193044945366
64.72443913962429
68.257948042851
60.79572147885122
51.1421671653397
38.37833018044049
46.31719678420898
37.58887351819543
38.3790624327957
28.15765207179115
32.64575849594573
11.96435677214521
18.22214674297786
22.07804322257321
21.35330764777749
7.425481533378001
5.828721304847174
7.234787295626051
6.37957587760046
3.683547804430044
2.659181500744331
2.569813753452427
14.8552793005626
7.597899321482862
5.93417819330327
5.750225390828953
17.65479566378617
13.73302533059336
13.1061040395649
13.00791424375109
30.72469901157692
28.97233552787581
28.61490101591739
28.51059945158184
2.569813753450948
5.750225390840109
13.00791424373598
28.51059945141038
2.65918150074708
5.934178193321729
13.10610403954487
28.61490101576619
3.68354780443079
7.5978993214936
13.73302533053756
28.97233552804092
6.379575877622118
14.85527930054865
17.6547956637505
30.72469901144695
38.37833018038326
51.14216716515413
60.7957214786591
68.25794804248949
28.15765207174393
38.37906243281093
37.58887351831544
46.31719678400823
22.07804322257277
18.22214674300966
11.96435677211296
32.64575849589067
7.234787295641751
5.828721304845407
7.425481533385211
21.35330764774263
64.72443913946785
52.0019304493327
33.43812132109849
10.70304466003715
70.53704676415607
58.78175753024631
44.72579530838617
21.98545661369366
70.05496717278103
65.77893680037025
52.6567984280733
29.48440933384651
72.28279106843073
74.88753307135563
65.33226362412867
39.77217052203291
8.801508224847906
10.61635063615872
10.05405825846911
9.841521804321161
6.599979975064167
7.173737361882097
6.303206977416417
6.14149097673694
6.677592313806803
6.422278108041811
5.240528835916145
4.998516576147947
5.285460200831863
5.743140495610806
4.420964464241503
4.202210064572324
9.837342105558156
14.25575682426816
40.53591009268314
90.49699840180583
6.347966984571815
9.331956821993861
24.56462612663258
85.96079831941087
5.279304329707604
7.338975123663869
13.55494803528251
59.40041908669008
4.565968339629694
5.075515110222137
3.981150431830917
29.54595111300461
157.2372905461163
193.6178994050632
202.3519923195208
205.8824520706329
194.0435752197546
219.7206016073413
227.834327006645
229.5999617102187
197.8431193507466
216.4277331462439
226.6430182423013
227.1386701804916
196.8875991233851
203.7884236427533
213.230200900436
214.0889556339443
209.4777444287893
209.1752712549217
208.8662219411486
208.5824379585881
230.167586179175
230.4149488763406
230.4129784694034
230.4204136999207
225.8608198784657
226.1104573031317
226.140306067279
226.164103263363
213.2139069777836
213.4821705170425
213.4745830205014
213.4492211343755
208.3061832095949
206.6862563090205
195.439075837358
151.7279405960421
230.3650324963785
228.2109396649854
215.5475943493426
190.4394968022506
226.0796762511596
223.5777265066251
210.790077127661
199.1673730065831
213.2233734869999
210.0852247546875
201.8037235372939
211.3979564929751
76.51711956326511
80.000106374982
80.00000003268957
79.99999986306304
82.02914641192086
80.00004599165044
79.99999999648004
79.99999990102276
92.50641686459748
80.00000978025162
79.99999999903929
79.9999999809165
102.7842130889183
80.00000304609378
80.00000000093658
79.99999999031309
79.99999603719587
79.99993909700493
79.99967745909304
80.0067812918999
79.99999971344175
79.99999133532367
79.9994849156698
80.00309346690254
79.99999987267108
79.99998156146219
79.99950295817267
80.00616827793206
79.99999791150836
79.99988733474501
79.99797903101515
79.97733540070929
80.31107594622338
83.01142331028773
91.83285101483847
107.933147636952
80.24081052509632
82.00213908689518
89.37239562063544
108.3804211407577
80.33824882475474
81.32684510247613
79.79810413015871
89.07658651869997
79.82673738044069
78.91824413142035
75.67739063727609
73.16565430054492
124.4049409992381
119.6248145754632
119.444032543127
119.0016665964685
137.4364922293459
129.728062105849
129.6600840887636
129.5703960272618
136.782727907336
131.4360385918871
131.3774365336764
131.3040803202905
130.9370002199988
128.6350061035799
128.6084098720628
128.6425728270576
117.474558795876
113.137421125941
99.37670289181791
83.64662851908713
128.5895615603185
124.1509924781937
113.0254287801727
92.00109469471332
130.3469426391194
126.2714758507593
118.4753509248749
102.1582620677875
128.1902592377647
126.4709822590602
126.2424433432093
125.8665310876124
79.75388062238238
79.99882261695481
79.99999759610775
80.00000000468651
79.42457826733323
79.99669044071418
79.99999289561075
80.0000000163009
78.93364751985757
79.99350513629265
79.99998545938753
80.00000000946319
78.36146252287769
79.99045293574329
79.99997941898995
80.0000000092104
80.00000005619714
79.99998279136713
79.99217252977323
78.82810125239986
80.00000005528223
79.99998275958373
79.9921792742762
78.82942263006744
80.00000004451664
79.99998239833988
79.99215945597084
78.82735781671039
80.0000000247498
79.99998186588516
79.99220565941903
78.84193207883648
80.00000000914099
80.00000000938823
80.00000001576764
80.00000000408733
79.99997941904452
79.9999854593844
79.99999289549973
79.99999759578387
79.99045293610062
79.99350513590153
79.9966904411002
79.99882261666681
78.36146252246853
78.93364751952059
79.42457826741843
79.75388062241355
)
;

boundaryField
{
    back
    {
        type            empty;
    }
    inlet
    {
        type            zeroGradient;
    }
    front
    {
        type            empty;
    }
    top
    {
        type            zeroGradient;
    }
    outlet
    {
        type            fixedValue;
        value           uniform 80;
    }
    bottom
    {
        type            zeroGradient;
    }
    wall
    {
        type            zeroGradient;
    }
}


// ************************************************************************* //
