/*--------------------------------*- C++ -*----------------------------------*\
  =========                 |
  \\      /  F ield         | OpenFOAM: The Open Source CFD Toolbox
   \\    /   O peration     | Website:  https://openfoam.org
    \\  /    A nd           | Version:  11
     \\/     M anipulation  |
\*---------------------------------------------------------------------------*/
FoamFile
{
    format      ascii;
    class       volVectorField;
    location    "0.3592358";
    object      U;
}
// * * * * * * * * * * * * * * * * * * * * * * * * * * * * * * * * * * * * * //

dimensions      [0 1 -1 0 0 0 0];

internalField   nonuniform List<vector> 
880
(
(24.99999999999999 -2.806097031766186e-12 0)
(24.99999998203183 -1.217418861709014e-08 0)
(24.99829024421187 -0.0005554042401603058 0)
(24.71736335509284 0.00762459312944555 0)
(24.99999999998872 -2.83132280335875e-11 0)
(24.99999994445427 -7.039753690531334e-08 0)
(24.9974795839658 -0.001722083228220048 0)
(24.63269710974642 -0.1593358929602003 0)
(24.99999999963697 -2.4377883562877e-10 0)
(24.99999976102305 -2.871844469829265e-07 0)
(24.9951455490272 -0.003584469002128452 0)
(24.51360341005054 -0.2644844134669859 0)
(24.99999999829957 1.052114041279542e-09 0)
(24.9999988181946 -1.167843929707317e-06 0)
(24.98908581468277 -0.007016767771020192 0)
(24.13724715003861 -0.4137218638608393 0)
(25.0000000111903 -4.11432598244559e-09 0)
(24.99999998001881 8.779087218888762e-09 0)
(24.99999953213299 -9.298451406205286e-07 0)
(24.99999314126271 -1.184369552164401e-05 0)
(24.99999376805717 -4.448662983151441e-06 0)
(24.999963046115 -1.867015162902764e-05 0)
(24.99985589106289 1.067292308182e-05 0)
(25.0001747735557 -0.001107682216292764 0)
(24.97171078393587 -0.01019834198654304 0)
(24.95164306780969 -0.006360408156437167 0)
(24.92414677561676 0.01073100813705193 0)
(24.91407805030247 -0.06683431793793015 0)
(23.40264365478005 -0.09542228944836054 0)
(22.69017598104046 0.6348500765570216 0)
(22.26855778667497 1.335026550891867 0)
(22.24430529654374 1.746228078632234 0)
(24.9998840274923 -6.19785090626985e-06 0)
(24.99960661935154 -0.0003640878234119424 0)
(24.99925375977734 -0.001529048010231343 0)
(24.99747571198403 -0.004522221895107661 0)
(24.9980187705921 -0.000693099239503821 0)
(24.99019684042915 -0.0003535415447914191 0)
(24.97715037648122 0.00549341847812561 0)
(24.95441960324903 0.008911099367555388 0)
(24.75586126581782 -0.01080195970239272 0)
(24.63017862594684 0.0983948763693715 0)
(24.46165219818466 0.2785198947575827 0)
(24.3183480163683 0.4062576916198983 0)
(21.98167510523616 2.34070737449014 0)
(21.98732905938505 2.779770980989019 0)
(21.88512445147477 3.31736125440685 0)
(22.33926101744531 3.758408199212977 0)
(23.38567748219508 4.323112936882615 0)
(24.1142248807045 4.173020788681006 0)
(24.45809919192601 3.766265681206801 0)
(24.81732983079186 3.316633264080108 0)
(24.07886042475489 0.7463987872265733 0)
(24.09385870797671 1.104402764357842 0)
(24.19611954744176 1.349488389477426 0)
(24.38213454250602 1.475561459241399 0)
(24.87564112997375 0.03529360908003403 0)
(24.77190342004944 0.115504541475485 0)
(24.67954049110272 0.2412732853868496 0)
(24.6342152752851 0.3945569569778627 0)
(24.98787377276475 -0.01055568436297992 0)
(24.97236298981117 -0.02426009632167202 0)
(24.95024714018868 -0.04404392430810409 0)
(24.92405155161747 -0.070562088476309 0)
(24.90149157033304 -0.1010172522756286 0)
(24.88771164756339 -0.1311316274666156 0)
(24.88284690335172 -0.1445270543040829 0)
(24.88832779995487 -0.1379809977208856 0)
(24.63263834036342 0.5574752194572712 0)
(24.67445831578818 0.7120246085172247 0)
(24.76092379492305 0.8382234799047862 0)
(24.87669288479362 0.8925671786917434 0)
(24.54954081638877 1.608773379602259 0)
(24.75258019455531 1.654944146696241 0)
(24.94052761745766 1.627181305094175 0)
(25.09323392495178 1.555464648016844 0)
(24.99115112876076 2.905790698476085 0)
(25.17872851135528 2.489597280401185 0)
(25.29112400030548 2.094356934359829 0)
(25.3634541672474 1.77807472145062 0)
(25.42831629664766 1.377467982805373 0)
(25.24435250430679 1.453728927319124 0)
(24.99916118714517 0.9127368048480098 0)
(24.89607486829783 -0.1212252127814274 0)
(24.54807251709618 1.559491450265549 0)
(25.34338623169159 1.28931415857561 0)
(25.14340553334815 0.8617760566192156 0)
(24.9033325376193 -0.09618220872814871 0)
(19.15451053027338 1.728676790459935 0)
(25.1590563144424 1.297210965503968 0)
(25.2581478933775 0.7517582436256376 0)
(24.91621898282222 -0.08053379443232327 0)
(14.12717875684893 2.095951518623689 0)
(23.70235652316895 1.628788244085774 0)
(25.27712018363722 0.7747374997439973 0)
(24.9489649171221 -0.09185050273346225 0)
(24.95452866479701 -0.06679401772216917 0)
(25.21733499568319 0.718217850823297 0)
(22.05150874914493 2.269337323050947 0)
(12.48987362971458 3.860292834818909 0)
(24.83136698967164 -0.08882771700859729 0)
(24.99460129531844 0.8082297290122347 0)
(20.60603946800455 3.314540273320672 0)
(12.79859967824724 5.640545767030269 0)
(24.78950930980803 -0.1158495250451146 0)
(24.47445977306138 1.156886716668032 0)
(18.82501268390587 4.64945497908073 0)
(12.64754233466205 7.078641850611864 0)
(24.69832205096658 -0.1634649468395176 0)
(23.59936583437187 1.92878984801721 0)
(17.58779818395857 6.058350535157723 0)
(13.13583567274353 8.144182873522663 0)
(14.04754490199046 8.855735946858903 0)
(16.96793381893224 7.293785506021826 0)
(22.43005975152663 3.156595305536146 0)
(24.51832658435923 -0.1864963194411496 0)
(15.13572783702775 9.393302249257195 0)
(17.24088739626784 8.219366477052874 0)
(21.21732986334693 4.641902567746512 0)
(24.19846142769884 -0.07130418067154498 0)
(16.37658714048495 9.684273340109218 0)
(18.1105537105077 8.754313286698823 0)
(20.70757576773228 5.995887690978986 0)
(23.69390527338035 0.2364065360723838 0)
(17.54806126900283 9.756793267493432 0)
(19.39761248285797 8.854131632352502 0)
(20.87609235527064 7.035953838237211 0)
(23.1962997456054 0.7228990908549633 0)
(22.91099509502012 0.8509499006817399 0)
(22.0490446972044 7.091136688566224 0)
(21.1210839650431 8.806655823866675 0)
(18.96385660226492 9.897794551618569 0)
(23.4562286555608 0.6463723397766518 0)
(23.50851364994581 6.648117482283338 0)
(23.10797947725015 8.415245628983895 0)
(20.90706237798461 9.810493052619048 0)
(24.04000852469514 0.3441059797343526 0)
(24.93162788565906 5.875071854820657 0)
(25.19364567856704 7.620152330081245 0)
(23.44735497512577 9.238274794397043 0)
(24.5186867426184 -0.2494478927437035 0)
(26.06332298291456 4.60684920770601 0)
(27.16638954469763 6.226687677820721 0)
(26.40059756537434 7.616384039816661 0)
(24.88419321030631 -0.3075654100157471 0)
(26.9292556481978 3.62809357273917 0)
(29.04979027743851 4.804325040845487 0)
(30.68346209222828 4.75902375825024 0)
(25.30046434985521 -0.4989503964725486 0)
(27.49765259047134 2.601741194402041 0)
(30.11083545070011 3.39062211066081 0)
(34.00250933763121 0.7046139628301948 0)
(25.54326897386597 -0.5425552876415703 0)
(27.54995033707663 1.647317230718436 0)
(30.83475294775573 1.25605870623237 0)
(36.3481970664274 -4.253959402479466 0)
(25.65368734691811 -0.5437340937838475 0)
(27.22444483857537 1.022791842193457 0)
(30.31234821813353 -0.3107737078854688 0)
(37.77918658537292 -9.251845587753092 0)
(34.01925266623537 -7.327998549100295 0)
(29.13039077707867 -1.417301513682005 0)
(26.94232167581119 0.3554895725621591 0)
(25.69370772825838 -0.5467466112170375 0)
(25.63439566367547 -3.215009430250233 0)
(28.24645648406986 -1.936566799585405 0)
(26.64810171029788 -0.1001429439113765 0)
(25.62904848736632 -0.4720508307656144 0)
(23.08903715751404 -3.612742881761986 0)
(27.75005249564305 -2.841726195119244 0)
(26.39348945503332 -0.5594296341234339 0)
(25.50626189526598 -0.3592848938575408 0)
(19.90310277847185 -3.659479896232241 0)
(26.977821645464 -3.450133412006826 0)
(26.04929946580144 -0.9532363217682362 0)
(25.38979188380078 -0.2751017421523706 0)
(18.08525784795758 -4.76016601386692 0)
(25.72427248647313 -4.39114620913938 0)
(25.48600874638754 -1.289819145924531 0)
(25.18021446172527 -0.2156662292233303 0)
(15.43323622397829 -6.81364953373658 0)
(24.08648265283743 -4.635053448128171 0)
(24.89651626129496 -1.125728914700384 0)
(25.00123542284028 -0.1079245283734556 0)
(14.37828601676089 -6.976689646683706 0)
(23.02531696032788 -4.048537120230328 0)
(24.65192835322715 -0.7359026096364502 0)
(24.97081087404953 -0.04913485507201167 0)
(14.33666618605905 -5.861279266694174 0)
(22.80033648730105 -3.600459934032629 0)
(24.67303728952853 -0.6014502068200426 0)
(24.97608504302577 -0.03607891655363687 0)
(14.22228639228984 -0.6632616440310551 0)
(20.3430576823154 -0.1132445714387048 0)
(23.64827028638747 0.01057993290236512 0)
(24.85559628800359 0.001982425600922429 0)
(14.20387834468641 -1.755769631554685 0)
(20.33969881671399 -0.5377908542660882 0)
(23.66318230589663 0.0006323794036259549 0)
(24.8525392765032 0.004365044345275951 0)
(14.41819775590585 -3.256097594510304 0)
(20.34761247830697 -0.9878915122421507 0)
(23.70250227418084 -0.0717542057838049 0)
(24.85178901399513 0.0002503608578267155 0)
(14.47001490332163 -4.649569917491771 0)
(20.55621057500524 -1.352419539954918 0)
(23.802234994804 -0.1947139162501986 0)
(24.8601749230439 -0.01139014576375045 0)
(14.33666618607571 5.861279266674622 0)
(22.80033648732601 3.600459934024899 0)
(24.67303728964137 0.601450206772955 0)
(24.97608504313533 0.03607891653427021 0)
(14.37828601678839 6.976689646657103 0)
(23.0253169604062 4.048537120282047 0)
(24.65192835328142 0.7359026096210007 0)
(24.97081087413284 0.04913485511813576 0)
(15.43323622402931 6.813649533759522 0)
(24.08648265286983 4.635053448169232 0)
(24.89651626128478 1.125728914744616 0)
(25.00123542287983 0.10792452842385 0)
(18.0852578479822 4.760166013868916 0)
(25.72427248657037 4.391146209207894 0)
(25.48600874640265 1.289819145958814 0)
(25.1802144617248 0.2156662292713662 0)
(25.69370772822277 0.5467466111585302 0)
(26.94232167583435 -0.3554895725965771 0)
(29.13039077709234 1.417301513673699 0)
(34.01925266615927 7.327998549228011 0)
(25.62904848736398 0.4720508307141844 0)
(26.64810171030724 0.1001429439040885 0)
(28.2464564841145 1.936566799590261 0)
(25.63439566373378 3.215009430352444 0)
(25.50626189521227 0.359284893811368 0)
(26.39348945500271 0.5594296341492792 0)
(27.75005249572892 2.841726195251982 0)
(23.08903715744903 3.612742881806304 0)
(25.38979188372161 0.2751017421317983 0)
(26.04929946573247 0.9532363217399686 0)
(26.97782164548884 3.450133412084802 0)
(19.9031027785282 3.659479896258412 0)
(37.77918658547081 9.251845587910156 0)
(30.31234821813431 0.3107737078801956 0)
(27.22444483861329 -1.02279184220162 0)
(25.65368734690524 0.5437340937365742 0)
(36.34819706643599 4.253959402528583 0)
(30.83475294778593 -1.256058706190616 0)
(27.54995033711693 -1.64731723072508 0)
(25.54326897384772 0.5425552876537569 0)
(34.0025093376352 -0.7046139627883805 0)
(30.11083545064701 -3.390622110642285 0)
(27.49765259050691 -2.601741194379505 0)
(25.30046434972833 0.4989503965412872 0)
(30.68346209218833 -4.759023758230737 0)
(29.04979027747924 -4.804325040815822 0)
(26.92925564829445 -3.62809357271054 0)
(24.88419321019073 0.3075654101036608 0)
(22.91099509494343 -0.8509499006628921 0)
(22.04904469713947 -7.091136688568503 0)
(21.12108396500046 -8.80665582386983 0)
(18.96385660228448 -9.897794551619265 0)
(23.45622865554603 -0.6463723397322031 0)
(23.50851364994981 -6.648117482277969 0)
(23.10797947719916 -8.415245628964909 0)
(20.90706237799654 -9.810493052618813 0)
(24.04000852475111 -0.3441059797144327 0)
(24.93162788569237 -5.87507185483143 0)
(25.19364567853183 -7.620152330055845 0)
(23.44735497512125 -9.238274794383718 0)
(24.51868674258489 0.2494478928133942 0)
(26.06332298297912 -4.60684920768298 0)
(27.16638954470706 -6.226687677787696 0)
(26.40059756533698 -7.616384039801602 0)
(17.54806126902175 -9.756793267498484 0)
(19.39761248286875 -8.854131632368141 0)
(20.8760923552287 -7.035953838233789 0)
(23.19629974546568 -0.7228990908710461 0)
(16.37658714051987 -9.684273340128774 0)
(18.11055371053741 -8.754313286708799 0)
(20.70757576771382 -5.995887690986835 0)
(23.69390527334553 -0.2364065360691137 0)
(15.13572783703807 -9.393302249270397 0)
(17.24088739632457 -8.219366477055251 0)
(21.21732986336604 -4.641902567720828 0)
(24.19846142761678 0.07130418067857953 0)
(14.04754490202323 -8.855735946861836 0)
(16.96793381893407 -7.293785505989198 0)
(22.43005975144082 -3.156595305502291 0)
(24.51832658433882 0.1864963194426786 0)
(24.95452866481674 0.06679401774485323 0)
(25.21733499569003 -0.7182178507971431 0)
(22.05150874916878 -2.269337323064406 0)
(12.48987362975716 -3.860292834825324 0)
(24.83136698957045 0.08882771700685128 0)
(24.99460129530463 -0.808229728968237 0)
(20.60603946802807 -3.314540273320752 0)
(12.79859967828823 -5.640545767053261 0)
(24.78950930964494 0.1158495250384416 0)
(24.47445977293998 -1.156886716604303 0)
(18.82501268393655 -4.649454979052314 0)
(12.64754233468941 -7.078641850617346 0)
(24.69832205091734 0.1634649468426947 0)
(23.5993658343968 -1.928789847941319 0)
(17.5877981840216 -6.058350535133074 0)
(13.13583567275849 -8.144182873527697 0)
(24.94896491710092 0.09185050274729047 0)
(24.91621898284184 0.08053379444490351 0)
(24.90333253754367 0.09618220875780097 0)
(24.89607486828869 0.1212252127777885 0)
(25.27712018371619 -0.7747374997454627 0)
(25.25814789344289 -0.7517582436165126 0)
(25.1434055332843 -0.8617760566067544 0)
(24.99916118712504 -0.9127368048637748 0)
(23.70235652326231 -1.628788244104798 0)
(25.15905631445652 -1.297210965508361 0)
(25.34338623174835 -1.289314158588519 0)
(25.24435250433156 -1.453728927311838 0)
(14.12717875690956 -2.095951518626638 0)
(19.15451053034004 -1.728676790455624 0)
(24.54807251706663 -1.559491450239759 0)
(25.42831629663966 -1.377467982779777 0)
(24.88832779990543 0.1379809977281105 0)
(24.87669288473914 -0.8925671786710332 0)
(25.09323392494121 -1.555464647991693 0)
(25.36345416727771 -1.778074721400418 0)
(24.8828469034148 0.1445270542848342 0)
(24.76092379487561 -0.8382234798972705 0)
(24.94052761748627 -1.627181305072793 0)
(25.29112400032245 -2.094356934317851 0)
(24.88771164755531 0.131131627457325 0)
(24.67445831578269 -0.7120246084651806 0)
(24.75258019460912 -1.654944146708422 0)
(25.17872851140721 -2.489597280400976 0)
(24.90149157038646 0.1010172521947261 0)
(24.63263834038695 -0.5574752194355749 0)
(24.54954081638419 -1.608773379597461 0)
(24.99115112877837 -2.90579069846762 0)
(24.9878737727632 0.01055568427784226 0)
(24.87564113007022 -0.03529360898618968 0)
(24.07886042475785 -0.7463987872186433 0)
(23.3856774821791 -4.323112936857671 0)
(24.9723629898468 0.02426009620573744 0)
(24.77190342013707 -0.1155045414041725 0)
(24.09385870799535 -1.104402764323141 0)
(24.11422488074354 -4.173020788685722 0)
(24.95024714009631 0.04404392428119486 0)
(24.67954049121634 -0.2412732853158312 0)
(24.19611954749607 -1.349488389478753 0)
(24.4580991920406 -3.766265681256792 0)
(24.92405155164965 0.0705620884082365 0)
(24.63421527530377 -0.3945569569243628 0)
(24.38213454256266 -1.475561459205675 0)
(24.8173298308393 -3.316633264104627 0)
(22.33926101746871 -3.758408199200441 0)
(24.31834801636341 -0.4062576916231178 0)
(24.95441960333591 -0.008911099272749197 0)
(24.9974757119364 0.004522221881835081 0)
(21.88512445150325 -3.317361254390655 0)
(24.4616521981755 -0.2785198947616678 0)
(24.97715037653238 -0.005493418440147321 0)
(24.99925375981227 0.00152904797920937 0)
(21.98732905941632 -2.779770980978313 0)
(24.63017862599467 -0.09839487637526337 0)
(24.99019684058258 0.0003535415517965818 0)
(24.99960661936353 0.0003640877017421026 0)
(21.98167510523631 -2.340707374473384 0)
(24.7558612658821 0.0108019596948906 0)
(24.99801877066849 0.0006930992546560093 0)
(24.99988402748123 6.197865173932654e-06 0)
(22.24430529651687 -1.746228078617325 0)
(24.91407805030656 0.06683431794247661 0)
(25.00017477358061 0.001107682235579112 0)
(24.99999314123308 1.184373875576183e-05 0)
(22.26855778662296 -1.335026550878764 0)
(24.92414677562864 -0.01073100814023176 0)
(24.99985589111789 -1.067292391908357e-05 0)
(24.99999953209123 9.298544109698637e-07 0)
(22.69017598088907 -0.6348500765658917 0)
(24.95164306783602 0.006360408147543642 0)
(24.99996304616225 1.867014237928193e-05 0)
(24.99999998004261 -8.824502789413562e-09 0)
(23.40264365455669 0.09542228940137804 0)
(24.9717107839981 0.01019834198125497 0)
(24.99999376814667 4.448676041241634e-06 0)
(25.00000001114298 4.117493044769532e-09 0)
(25.00000000000002 5.954748022573796e-12 0)
(24.99999998201898 1.215747917165101e-08 0)
(24.99829024420666 0.0005554042222611978 0)
(24.71736335506488 -0.007624592972716811 0)
(24.99999999997173 4.18236206901792e-11 0)
(24.99999994453042 7.037406455477169e-08 0)
(24.99747958396062 0.001722083205843411 0)
(24.63269710953802 0.1593358930305613 0)
(24.99999999962681 2.564856074940017e-10 0)
(24.99999976109916 2.871881453076651e-07 0)
(24.99514554903473 0.003584468988773034 0)
(24.51360340970407 0.2644844133976402 0)
(24.99999999828481 -1.026222609109269e-09 0)
(24.99999881823999 1.167856583990204e-06 0)
(24.98908581468854 0.007016767760731737 0)
(24.13724714976509 0.4137218638053264 0)
(24.52527680772822 1.09873701923307e-10 0)
(24.35979968114342 0.1495547726104278 0)
(23.97405264391066 0.1736329833828671 0)
(23.03856040050167 0.0187177532887372 0)
(24.35979968135972 -0.1495547723934258 0)
(24.08844166294282 4.096552265839939e-11 0)
(23.40958233334721 -0.06031076454131857 0)
(21.96067648632092 -0.4863793282653497 0)
(23.97405264435771 -0.1736329832899699 0)
(23.4095823336921 0.06031076461721654 0)
(22.12862916256865 6.328576134903043e-11 0)
(20.03097265762483 -0.581975109961113 0)
(23.03856040091553 -0.01871775330939656 0)
(21.96067648684803 0.4863793282070408 0)
(20.03097265792524 0.5819751099154364 0)
(17.78919958280357 -2.400788023111765e-10 0)
(17.25879534678385 2.521585638824497 0)
(17.89936214665882 2.917351061411077 0)
(19.54340782948427 2.655844463906483 0)
(21.08694789805407 1.887814744705444 0)
(18.24492073491659 4.246789372162739 0)
(18.30813545639212 4.203004280839648 0)
(19.04066910921712 4.114782941686362 0)
(20.07398791298706 3.952548146303442 0)
(17.68386835068186 5.193203328315881 0)
(18.85058381151134 4.491074297429831 0)
(19.52793316081506 4.691880063953596 0)
(20.05234617879988 4.56375032281224 0)
(18.33526390390788 5.754222147697853 0)
(19.70556433369446 4.717195846923337 0)
(20.20572463111006 4.891234469095301 0)
(20.4907094306855 4.805575869351157 0)
(20.79097345262665 4.932707153684397 0)
(21.02926444255577 5.06173158787662 0)
(21.40435720380848 5.120580408638061 0)
(22.16085237716326 5.280349159361215 0)
(20.72901040658138 4.994248803916709 0)
(21.03869537365322 5.101570879018454 0)
(21.53837261594837 5.117414278900924 0)
(22.65128964654232 5.500672372699091 0)
(20.47285479216806 4.931260425080102 0)
(20.97344389666123 5.105924004793368 0)
(21.55537083904938 5.158192062602344 0)
(24.10137227618896 5.943007466437069 0)
(18.97617806544311 5.851121627508348 0)
(19.59933639248665 5.875950517186423 0)
(20.50317834071198 5.734761384476021 0)
(25.83119123274168 7.125898817186938 0)
(25.81525734958835 3.187582000631104 0)
(26.40945317184619 0.8090346729494253 0)
(25.72185805344616 0.4870784747481291 0)
(25.59509914734725 0.3820583951217394 0)
(28.37610893179736 2.198782255273654 0)
(28.69592289777839 0.3397473898903501 0)
(27.56801905874576 0.2832496422163138 0)
(26.89269681761828 0.3137580192351779 0)
(31.54902382782209 1.904714928012838 0)
(30.14994948617414 0.04577632116419773 0)
(28.75773521199923 0.05144590604778947 0)
(27.77933149287627 0.09386644496175056 0)
(25.07990689779163 1.987934814766652 0)
(24.21747304420451 0.6522671610876962 0)
(24.07232385428772 0.08970442173939019 0)
(24.15978576985822 -0.2164444891065921 0)
(25.66542570600175 0.3867736836728908 0)
(25.71343775536731 0.3198137371785323 0)
(25.7009556516008 0.2051401673469499 0)
(25.65343211769751 0.1716703857795631 0)
(26.53712128598119 0.3417383098947569 0)
(26.22459749013542 0.2915146327064017 0)
(25.94663165381038 0.1915962366056818 0)
(25.72127226492882 0.1306876025852067 0)
(27.1502991968644 0.1478464427376292 0)
(26.59224303386146 0.1471935448286498 0)
(26.09880765380882 0.09830469537954029 0)
(25.66598063517246 0.08514270075761518 0)
(24.13123601504847 -0.4622499864848528 0)
(23.90331663567923 -0.620733382850669 0)
(23.70231909742897 -0.7154381706302526 0)
(23.36993865443411 -0.6662471097663002 0)
(25.20555545354977 0.7716956867628764 0)
(20.09250056079002 5.098262964617268 0)
(13.72001729452101 3.92456199594882 0)
(9.345241784805355 1.059336378096595 0)
(24.62764269234779 1.255335218192838 0)
(16.07238656212012 4.951598201399158 0)
(8.863876749368004 2.740861528585977 0)
(4.471062584489514 -0.1764308146844397 0)
(23.43575058481703 1.295024274019936 0)
(11.69347608086838 3.634451309272047 0)
(3.13973995982102 2.029166360030715 0)
(-0.7690115509144158 0.2418298660517548 0)
(19.41406117768981 -0.7286085444787226 0)
(7.302941193239115 -0.7958029148602073 0)
(0.2337609226959526 0.5429862534739316 0)
(-2.595578769009892 0.1744004107567511 0)
(8.569175116537489 2.693904127576693 0)
(10.58535608263002 4.559496727768685 0)
(11.49759691895444 6.280340542249938 0)
(12.44951300469051 7.625631439438402 0)
(6.136711591615345 1.993701548348881 0)
(9.511381003911806 4.411055444621534 0)
(11.20127831969172 6.226215205092324 0)
(12.40430273408118 7.672156772872227 0)
(2.933344360617546 0.01199343532603731 0)
(7.44250859687769 3.331979225531074 0)
(10.26714874738256 6.036198445081484 0)
(12.02122135020689 7.596920661174291 0)
(0.2395690798637314 -0.1062414247911394 0)
(3.470311570012222 2.476000581822206 0)
(7.538074100655552 3.976212178329229 0)
(10.63465270458981 5.463991456116081 0)
(13.63848599259835 8.986475669197976 0)
(14.77053393478567 10.00814246615234 0)
(15.91944650317697 10.5657883829608 0)
(16.81353210677377 10.85599401087066 0)
(13.55815810124065 8.920995687666915 0)
(14.71381141110195 9.954787119884193 0)
(15.82396449424002 10.54167515815773 0)
(16.6964028629058 10.88142499182852 0)
(13.23585880288588 8.764170852498872 0)
(14.51737754628112 9.775725931506878 0)
(15.74209641735854 10.47463300055271 0)
(16.62307804023128 10.96198674326023 0)
(13.11736755259722 6.748236305638188 0)
(14.67200956603302 8.448588399511751 0)
(15.76612157015053 10.30181501095036 0)
(16.64566727720905 10.93921940124723 0)
(17.82792547018613 11.2756878817461 0)
(19.42338018588875 11.76985152814889 0)
(21.77504476879845 11.69322113926172 0)
(24.77797646481771 10.42095526154163 0)
(17.6227872500097 11.27976982177267 0)
(19.07492802063032 11.72985834337672 0)
(21.21153538877145 11.74952218657444 0)
(24.97582203189551 12.47346880036684 0)
(17.47371250685874 11.36886532656128 0)
(18.72297905637963 11.78346592355036 0)
(21.34547613464634 12.58553913973165 0)
(31.48514991537576 18.45883333758768 0)
(17.43736431922924 11.39313030140673 0)
(18.64012366233232 11.79211798360986 0)
(22.06807070427336 13.17484077606595 0)
(43.24393216119023 25.51572994861496 0)
(30.59387272808012 5.261202267284161 0)
(32.03810310510849 -3.582405573344258 0)
(12.65433191504588 8.691319730325612 0)
(7.857804286136025 30.84076622672599 0)
(32.2313448441137 4.900225334231672 0)
(26.46678445318794 -1.95238089191996 0)
(8.976537938079426 17.41679452716628 0)
(8.448244449566324 29.02678632851923 0)
(31.97400399683653 3.292516678275076 0)
(17.20844794467709 -4.302843573675104 0)
(3.828924079610279 21.32884527972875 0)
(4.611980317577535 29.02649822527187 0)
(20.30819261366903 -8.299024266311807 0)
(7.328049850441992 -0.571619722460205 0)
(2.08828981468051 24.81802307149531 0)
(2.648152525864805 28.73388151426374 0)
(7.017717026652283 24.62059545470717 0)
(2.699465660344127 17.69691699936461 0)
(-0.7734441130978318 14.87146528839423 0)
(-2.833117507032185 9.937925489723774 0)
(6.712162364519521 23.57246822674135 0)
(1.91497236094804 19.24735942153397 0)
(-0.4568698701099534 14.98164969855293 0)
(-1.253599776309679 7.687148115508963 0)
(3.278178656176415 22.61471747198165 0)
(1.430371527580304 18.10663604916299 0)
(-0.3154288625359657 12.35857155550689 0)
(-0.815926619278396 4.90041732327933 0)
(0.7861685398477953 22.03870390106351 0)
(-0.4547271447292884 17.36654504704726 0)
(-1.909240732389605 10.96801077509863 0)
(-1.738852355932291 3.285178661261294 0)
(-6.073772875624394 3.289717784116723 0)
(-2.016644074676909 0.2621064408104602 0)
(2.429063844134854 -2.420546382887771 0)
(4.45704855605431 -6.632218925465032 0)
(-6.81237820803184 3.051090269253794 0)
(-5.955668188994054 0.3486922765286618 0)
(-1.266669152744048 -0.7974073681970022 0)
(2.679199287730547 -5.575540647018621 0)
(-6.212840673098362 2.12667194616268 0)
(-7.806334386184243 0.6686853937591941 0)
(-4.517809824293878 0.3046335915887794 0)
(0.03254478263602081 -4.08623897899366 0)
(-4.585713746083602 2.184268153857327 0)
(-7.13658579168497 2.668533347824719 0)
(-5.22937870125055 3.072702647270183 0)
(-0.6497740553709591 -1.052237659738349 0)
(2.361423375375056 -6.935591943844333 0)
(2.293332582822832 -7.541108458243115 0)
(3.156960564616033 -7.215789743422913 0)
(4.463017708267369 -6.469202789379576 0)
(1.46579092155969 -6.803536419598661 0)
(1.926674873636337 -6.27527437162632 0)
(3.127070385184961 -5.840729243944699 0)
(3.899713922107967 -4.924434029622682 0)
(0.4567828681578877 -4.750816647238564 0)
(0.6585570345703461 -3.491346029909312 0)
(1.655389575970726 -3.003674850596494 0)
(2.137373131760407 -1.92368891827115 0)
(1.658964897650732 -1.986450916863896 0)
(1.311166691623328 -0.7525413979600211 0)
(1.877101983481876 -0.3122947079573546 0)
(1.653214919163392 0.6367290903601496 0)
(0.780067919195698 1.147332476746028 0)
(-0.03301268951710509 1.284724699424237 0)
(-0.6587342626569122 0.9682906030628707 0)
(-0.9813289281208438 0.3366281354495935 0)
(1.587019121168096 -0.980466168412525 0)
(0.5863206271695803 -0.4815443311919863 0)
(-0.2570360736785244 -0.05723853590972646 0)
(-0.6750766269326792 -0.02422751342692688 0)
(3.363777305120434 -3.806048991330967 0)
(2.444091871477053 -2.796901549754635 0)
(1.338069839110043 -1.704898242166953 0)
(0.6067526792490689 -0.6385277203040101 0)
(5.107047645725017 -4.816732173166123 0)
(4.969914840526397 -3.302436134210403 0)
(4.187939679465964 -2.022011800664195 0)
(3.720976471634236 -0.729366305208381 0)
(-0.9813289281231331 -0.3366281354267119 0)
(-0.67507662693292 0.02422751343671282 0)
(0.6067526792490731 0.638527720298393 0)
(3.720976471635554 0.729366305188884 0)
(-0.6587342626605872 -0.9682906030431339 0)
(-0.2570360736793302 0.05723853591922851 0)
(1.338069839114252 1.704898242164225 0)
(4.187939679494898 2.02201180064588 0)
(-0.03301268952092896 -1.284724699411186 0)
(0.5863206271679908 0.4815443311990509 0)
(2.444091871478171 2.796901549754881 0)
(4.96991484054641 3.302436134210916 0)
(0.7800679191934253 -1.147332476735657 0)
(1.587019121171056 0.9804661684178626 0)
(3.363777305114388 3.806048991336936 0)
(5.107047645725878 4.816732173172918 0)
(4.463017708252194 6.469202789359079 0)
(3.156960564621123 7.215789743415476 0)
(2.293332582825981 7.541108458233074 0)
(2.361423375391121 6.935591943834959 0)
(3.899713922107475 4.924434029622601 0)
(3.127070385193758 5.84072924393843 0)
(1.926674873651179 6.275274371614127 0)
(1.465790921581033 6.803536419587161 0)
(2.137373131762776 1.923688918270187 0)
(1.655389575975232 3.003674850591141 0)
(0.6585570345808751 3.491346029907865 0)
(0.4567828681715619 4.750816647232635 0)
(1.653214919165892 -0.6367290903565753 0)
(1.877101983489498 0.3122947079617106 0)
(1.311166691633002 0.7525413979674109 0)
(1.658964897659321 1.986450916871809 0)
(-0.6497740553534194 1.052237659740468 0)
(-5.229378701215274 -3.072702647242858 0)
(-7.136585791648177 -2.668533347793816 0)
(-4.585713746056257 -2.184268153848877 0)
(0.03254478265133376 4.086238978991509 0)
(-4.517809824268359 -0.3046335915660633 0)
(-7.806334386127292 -0.6686853937418258 0)
(-6.212840673039612 -2.126671946133925 0)
(2.679199287743865 5.575540647010271 0)
(-1.266669152711386 0.7974073682208184 0)
(-5.95566818892322 -0.3486922765028631 0)
(-6.812378207983047 -3.051090269203572 0)
(4.457048556066939 6.632218925460139 0)
(2.429063844159175 2.420546382909175 0)
(-2.016644074590257 -0.2621064407894684 0)
(-6.07377287553056 -3.289717784050272 0)
(-2.833117507026162 -9.937925489610681 0)
(-0.773444113155823 -14.8714652884039 0)
(2.699465660383599 -17.69691699962803 0)
(7.017717026386344 -24.62059545484169 0)
(-1.253599776305518 -7.687148115445332 0)
(-0.4568698701210587 -14.98164969852756 0)
(1.914972361037063 -19.24735942162108 0)
(6.712162364555684 -23.5724682267499 0)
(-0.8159266192800272 -4.900417323254919 0)
(-0.3154288625408232 -12.35857155548984 0)
(1.430371527605082 -18.1066360491862 0)
(3.278178656194403 -22.61471747199348 0)
(-1.738852355927324 -3.285178661269245 0)
(-1.909240732394698 -10.96801077511089 0)
(-0.4547271447308107 -17.36654504705629 0)
(0.7861685398584147 -22.03870390109385 0)
(7.857804285777829 -30.8407662267704 0)
(12.65433191478358 -8.691319730635277 0)
(32.03810310504014 3.582405573390086 0)
(30.59387272805966 -5.261202267266606 0)
(8.448244449427669 -29.02678632856047 0)
(8.976537938023879 -17.41679452736383 0)
(26.46678445318832 1.952380891892258 0)
(32.231344844082 -4.900225334208007 0)
(4.611980317594941 -29.02649822535283 0)
(3.828924079555827 -21.32884527983957 0)
(17.20844794465319 4.302843573624411 0)
(31.974003996786 -3.292516678264928 0)
(2.64815252586988 -28.73388151432777 0)
(2.088289814658324 -24.81802307161667 0)
(7.328049850464764 0.5716197223959217 0)
(20.30819261369113 8.2990242662972 0)
(24.7779764648064 -10.42095526152133 0)
(21.77504476879709 -11.69322113924164 0)
(19.42338018592697 -11.76985152814491 0)
(17.82792547018749 -11.27568788174487 0)
(24.97582203191439 -12.473468800362 0)
(21.21153538878512 -11.74952218655875 0)
(19.07492802063268 -11.72985834336161 0)
(17.62278725004556 -11.27976982178789 0)
(31.4851499153515 -18.45883333756273 0)