/*--------------------------------*- C++ -*----------------------------------*\
  =========                 |
  \\      /  F ield         | OpenFOAM: The Open Source CFD Toolbox
   \\    /   O peration     | Website:  https://openfoam.org
    \\  /    A nd           | Version:  11
     \\/     M anipulation  |
\*---------------------------------------------------------------------------*/
FoamFile
{
    format      ascii;
    class       surfaceScalarField;
    location    "7.675";
    object      phi;
}
// * * * * * * * * * * * * * * * * * * * * * * * * * * * * * * * * * * * * * //

dimensions      [0 3 -1 0 0 0 0];

internalField   nonuniform List<scalar> 
8667
(
15.89023
1.7975065
0.090041069
13.994491
1.6609379
0.23480161
12.091918
1.5401337
0.36243877
10.189578
1.4943145
0.40802583
8.2918593
1.4279617
0.46975694
6.4059052
1.3965999
0.48935426
4.5077633
1.3683246
0.52981736
2.6661014
1.3395629
0.50209897
1.3652161
0.44685956
0.85402579
15.889228
3.6860565
13.992427
3.5577395
12.085323
3.4472368
10.180806
3.3988319
8.2879961
3.3207716
6.3904057
3.2941903
4.5074018
3.2513284
2.6611628
3.1858019
3.1968735
0.82950537
15.889335
5.574499
13.987783
5.4592916
12.083986
5.3510338
10.175127
5.3076915
8.2797133
5.2161852
6.37942
5.1944836
4.495039
5.1357094
2.6506232
5.0302177
5.0364499
0.81104674
15.889408
7.4628692
13.986554
7.3621457
12.080691
7.2568962
10.170829
7.2175534
8.2718833
7.1151313
6.3706354
7.0957314
4.4782498
7.028095
2.623196
6.8852715
6.8736395
0.78600643
15.889305
9.3513404
13.986993
9.2644571
12.077419
9.1664702
10.167768
9.1272045
8.2656849
9.0172147
6.3612848
9.0001316
4.4702815
8.9190983
2.6081176
8.7474354
8.7153215
0.76643565
15.888894
11.240225
13.987581
11.16577
12.077565
11.076486
10.167463
11.037306
8.2615609
10.923117
6.3500646
10.911628
4.4512822
10.817881
2.5783073
10.62041
10.547463
0.74616567
15.888479
13.129524
13.987162
13.067087
12.078198
12.98545
10.166297
12.949207
8.258476
12.830938
6.3463966
12.823707
4.4447422
12.719535
2.5600367
12.505116
12.380254
0.72724618
15.888123
15.019179
13.987633
14.967577
12.079592
14.893491
10.169035
14.859764
8.2553126
14.744661
6.33507
14.74395
4.4265736
14.628031
2.5260273
14.405662
14.205253
0.70102781
15.888362
16.908595
13.989722
16.866217
12.082123
16.801089
10.170164
16.771723
8.2563791
16.658446
6.3339568
16.666372
4.4189922
16.542996
2.4995201
16.325134
16.038303
0.66647046
18.735537
15.950836
20.561437
15.951879
22.386847
15.952373
24.212048
15.95258
26.036774
15.953033
27.860366
15.954189
29.682305
15.955841
31.501442
15.958643
15.961736
33.317486
18.700677
14.116377
20.534969
14.117587
22.368152
14.11919
24.199608
14.121124
26.029134
14.123507
27.856571
14.126752
29.685341
14.127071
31.516735
14.127249
14.124486
33.353984
18.645194
12.272272
20.487084
12.275696
22.328259
12.278015
24.16774
12.281644
26.007534
12.283712
27.843891
12.290395
29.673896
12.297067
31.496407
12.304738
12.311811
33.309083
18.622375
10.42162
20.474147
10.423924
22.324181
10.427981
24.173527
10.432298
26.022042
10.435197
27.875436
10.437002
29.742324
10.430178
31.609069
10.437993
10.437559
33.483321
18.522852
8.5572132
20.387625
8.5591512
22.260471
8.5551344
24.131274
8.5614951
26.003539
8.5629317
27.86667
8.5738712
29.717764
8.5790847
31.569907
8.5858498
8.5947672
33.412698
18.545206
6.6783798
20.432982
6.6713752
22.333276
6.6548398
24.246184
6.6485878
26.171186
6.6379292
28.110259
6.6347986
30.056192
6.6331517
32.010199
6.6318426
6.6324688
33.972497
18.417638
4.8037382
20.313375
4.7756384
22.219102
4.7491119
24.145818
4.7218718
26.075997
4.7077502
28.019769
4.6910267
29.956362
4.6965585
31.904063
4.6841419
4.7039436
33.832588
18.248413
2.8804595
20.239356
2.7846949
22.282155
2.7063133
24.381706
2.6223206
26.502749
2.5867072
28.647644
2.5461319
30.800679
2.5435242
32.978957
2.5058634
2.5069256
35.175975
17.931986
0.98677644
20.013604
0.70307641
22.281377
0.4385401
24.603672
0.30002586
26.906549
0.28383029
29.192811
0.25986985
31.551534
0.1848007
33.978579
0.078818694
36.442779
0.042725912
33.191842
0.12564423
33.067252
0.12458968
32.94322
0.12403211
32.821214
0.12200608
32.700251
0.12096323
32.582832
0.11741925
32.466793
0.11603876
32.35623
0.11056231
0.10903914
32.247191
33.239971
0.23965665
33.128934
0.23562704
33.019975
0.23299067
32.915584
0.22639733
32.81379
0.22275716
32.718512
0.21269712
32.625985
0.20856592
32.541522
0.19502535
0.19096494
32.459596
33.199508
0.34923101
33.09671
0.33842526
32.997526
0.3321746
32.90586
0.31806313
32.819595
0.30902234
32.737635
0.29465756
32.66525
0.28095083
32.594911
0.26536416
0.25155724
32.534319
33.402377
0.43017502
33.329289
0.41151323
33.260457
0.40100679
33.197972
0.38054825
33.138168
0.3688257
33.084619
0.34820695
33.033309
0.33226108
32.988816
0.309857
0.2935287
32.946844
33.351326
0.49154716
33.299138
0.46370172
33.251865
0.44827967
33.2121
0.42031329
33.175851
0.40507491
33.149837
0.37422089
33.122872
0.35922538
33.107899
0.32483041
0.31127486
33.090153
33.954194
0.50985023
33.942511
0.47538464
33.931614
0.45917704
33.924259
0.42766849
33.917652
0.41168204
33.912134
0.3797384
33.906392
0.36496709
33.898357
0.33286542
0.32082533
33.888807
33.849868
0.49257078
33.871758
0.45349495
33.904337
0.42659752
33.940443
0.39156243
33.983154
0.3689712
34.021776
0.34111648
34.059638
0.32710497
34.084724
0.30777987
0.30031477
34.105234
35.354952
0.31359326
35.523324
0.28512339
35.681119
0.26880227
35.807401
0.26528084
35.911768
0.2646038
35.973545
0.27933947
35.9998
0.30085066
35.976823
0.33075616
0.3552507
35.921887
36.712974
0.043398632
36.901991
0.096105766
36.992376
0.17841732
36.977165
0.28049154
36.879797
0.36197185
36.722277
0.43685972
36.582529
0.44059866
36.394615
0.51867016
36.18131
0.56855583
36.135881
0.63448857
-0.58905981
36.00701
0.61724592
-0.488375
35.823139
0.59842624
-0.41455499
35.606118
0.5863337
-0.36931291
35.359601
0.57404024
-0.3275227
35.090815
0.55737322
-0.28858754
34.784315
0.54075081
-0.23425058
34.453069
0.52637881
-0.19513296
0.52034028
34.121235
-0.18850645
35.970784
0.58559147
35.988025
0.60000502
35.976538
0.60991407
35.940487
0.62238434
35.884598
0.62992926
35.802646
0.63932545
35.695933
0.64746318
35.566323
0.65598956
0.66401945
35.422643
34.234703
0.45612225
34.356156
0.47855272
34.459181
0.50688889
34.553181
0.52838453
34.626591
0.55651924
34.690387
0.57552892
34.734487
0.60336292
34.767944
0.62253319
0.65142481
34.780538
34.000345
0.34458387
34.115659
0.36323901
34.222869
0.39967923
34.333192
0.41806123
34.433308
0.45640359
34.534131
0.47470521
34.622759
0.51473534
34.711338
0.5339536
0.57546475
34.787299
33.203936
0.23080031
33.320092
0.24708331
33.438011
0.28176059
33.557469
0.29860243
33.678763
0.33510956
33.800659
0.35280938
33.922364
0.39303091
34.04459
0.41172767
0.45419816
34.165856
33.034779
0.14286574
33.126988
0.15487435
33.225428
0.18332011
33.328024
0.1960067
33.436764
0.22636941
33.546439
0.24313448
33.665744
0.27372563
33.781944
0.29552822
0.32417367
33.911968
32.604175
0.073008978
32.681087
0.077963203
32.765031
0.099375558
32.856561
0.1044771
32.953451
0.12947932
33.059216
0.13736963
33.172052
0.16088967
33.291088
0.17649181
0.19665404
33.418608
32.508665
0.023940653
32.562059
0.024569051
32.625012
0.036422518
32.690461
0.039027816
32.766733
0.053207472
32.849389
0.05471394
32.940199
0.070079324
33.043565
0.073126061
0.089739639
33.150479
32.271132
32.295701
32.332124
32.371151
32.424359
32.479073
32.549152
32.622278
32.712018
32.804527
-0.092509688
32.916721
-0.11219337
33.03481
-0.11808935
33.17188
-0.13706974
33.315426
-0.14354651
33.484883
-0.16945679
33.657929
-0.17304617
33.859451
-0.20152167
-0.20845269
34.067904
33.275615
-0.217645
33.401912
-0.238491
33.550328
-0.26650547
33.697219
-0.28396023
33.869284
-0.31561167
34.041625
-0.34179794
34.23683
-0.36825069
34.436396
-0.40108802
-0.43142978
34.659373
33.555271
-0.35430792
33.696995
-0.38021502
33.845721
-0.41523214
34.004161
-0.44240033
34.168291
-0.47974107
34.335197
-0.5087039
34.519191
-0.55224467
34.699713
-0.58161072
-0.63198132
34.900265
34.033156
-0.47549575
34.172096
-0.51915461
34.297933
-0.54106984
34.445803
-0.59026944
34.57929
-0.61322848
34.736894
-0.66630765
34.883299
-0.6986499
35.053469
-0.75178107
-0.79259996
35.214088
34.285195
-0.59483452
34.405472
-0.63943173
34.524717
-0.66031439
34.643702
-0.70925515
34.763327
-0.73285346
34.885158
-0.78813802
35.003239
-0.81673076
35.130502
-0.8790442
-0.91219825
35.2501
34.864311
-0.67184704
34.928942
-0.70406317
34.997033
-0.72840468
35.051828
-0.76405037
35.112787
-0.79381243
35.158556
-0.83390667
35.212788
-0.87096305
35.25176
-0.91801626
-0.96173169
35.301293
34.787318
-0.67862681
34.778194
-0.69493868
34.76726
-0.71747058
34.744162
-0.74095228
34.718538
-0.76818887
34.680994
-0.79636235
34.640005
-0.82997481
34.585158
-0.86316851
-0.90343316
34.526859
35.271866
-0.52784922
35.122426
-0.54549878
34.968681
-0.56372539
34.809534
-0.58180562
34.636879
-0.59553334
34.447331
-0.60681477
34.231535
-0.61417937
33.992806
-0.62443877
-0.64019292
33.729566
33.814666
-0.22127977
33.507936
-0.23876873
33.193376
-0.24916624
32.840134
-0.22856296
32.45201
-0.2074096
32.013244
-0.16804882
31.585331
-0.18626665
31.151643
-0.19075001
30.757776
-0.2463259
0.66673036
30.350565
-0.25951966
0.94423837
33.452058
1.0181962
34.452901
0.9839279
35.335562
0.85399245
35.380035
0.66545662
35.402624
0.46431153
35.10141
0.23646472
34.88722
34.304368
0.70814884
29.970465
-0.32804875
0.99289868
33.167308
1.0675906
34.378209
1.0209082
35.382244
0.896041
35.504903
0.71651357
35.582151
0.50059836
35.317325
0.24943746
35.138381
34.553806
0.75940114
29.555325
-0.34426145
1.0499199
32.876789
1.135981
34.292148
1.1023091
35.415916
0.97104921
35.636163
0.76247818
35.790722
0.53548731
35.544316
0.27538356
35.398485
34.82919
0.83449024
29.156453
-0.43561864
1.1102171
32.601062
1.1911386
34.211227
1.143577
35.463478
1.012079
35.767661
0.81166226
35.991139
0.57661519
35.779363
0.29351582
35.681584
35.122705
0.90729289
28.676981
-0.42782061
1.1905417
32.317813
1.2760747
34.125694
1.2372929
35.502259
1.100879
35.904074
0.86782531
36.224193
0.61395192
36.033237
0.32049397
35.975042
35.443199
0.99307554
28.233877
-0.5499712
1.2580554
32.052833
1.3367503
34.046999
1.2811372
35.557872
1.1420328
36.043179
0.91888478
36.447341
0.66199388
36.290127
0.34378067
36.293255
35.78698
1.0701329
27.703468
-0.53972435
1.3559626
31.767004
1.439443
33.963519
1.3866612
35.610654
1.2401981
36.189642
0.97979146
36.707747
0.69676143
36.573157
0.3682742
36.621742
36.155254
1.1605155
27.25579
-0.71283754
1.4272601
31.500259
1.5029576
33.887821
1.433575
35.680037
1.2847378
36.338479
1.0376871
36.954798
0.75599577
36.854849
0.3981136
36.979624
36.553368
1.2633518
26.632449
-0.6400104
1.548258
31.215353
1.6303205
33.805759
1.5554107
35.754947
1.3945302
36.49936
1.1016583
37.24767
0.7858694
37.170638
0.42023656
37.345257
36.973604
-0.080952749
37.054557
-0.087856093
37.352161
-0.046922606
37.129704
0.065149107
37.135598
0.19844667
36.366062
0.40308892
35.550304
0.62076345
33.588084
0.92499284
30.911123
26.538033
1.0194085
-0.085194311
37.139751
-0.086897166
37.353864
-0.081722267
37.124529
-0.015482512
37.069358
0.091285518
36.259294
0.27804055
35.363549
0.4611542
33.40497
0.6953976
30.67688
26.498369
0.73506242
-0.11072062
37.250472
-0.14562833
37.388771
-0.12013157
37.099033
-0.021935015
36.971162
0.084101388
36.153258
0.26551248
35.182138
0.43704128
33.233442
0.66399515
30.449926
26.431167
0.73119712
-0.11428734
37.364759
-0.14491066
37.419395
-0.16532819
37.11945
-0.12083092
36.926665
-0.027487369
36.059914
0.14121855
35.013432
0.28966689
33.084993
0.48379693
30.255796
26.407127
0.50783679
-0.13688536
37.501645
-0.19444676
37.476956
-0.18512923
37.110133
-0.10535803
36.846893
-0.019967245
35.974523
0.14807708
34.845388
0.29164101
32.941429
0.48113767
30.066299
26.342723
0.54554168
-0.14129516
37.64294
-0.1954313
37.531092
-0.23760874
37.15231
-0.20556792
36.814853
-0.1236821
35.892638
0.026461583
34.695244
0.15450085
32.81339
0.32749744
29.893303
26.294101
0.3761187
-0.16170653
37.804646
-0.23169861
37.601084
-0.2388138
37.159425
-0.17851545
36.754554
-0.10443841
35.818561
0.048783161
34.542023
0.17517442
32.686999
0.34429262
29.724184
26.210384
0.42801046
-0.16451873
37.969165
-0.23787682
37.674442
-0.29224404
37.213792
-0.26928301
36.731593
-0.20733613
35.756614
-0.07859821
34.413285
0.042939794
32.565461
0.20253711
29.564587
26.119512
0.29340897
-0.18357914
38.152744
-0.26050569
37.751369
-0.28055769
37.233844
-0.2332023
36.684238
-0.17008943
35.693501
-0.036308552
34.279504
0.07962342
32.449529
0.23742211
29.406788
25.989794
0.36713959
-0.11271479
25.855901
0.24660856
0.046077562
29.247996
0.16197112
32.333635
0.27079047
34.170685
0.31525797
35.649033
0.32457114
36.674925
0.26006181
37.298354
0.17894793
37.832483
38.331692
-0.16710884
25.695608
0.3274019
-0.0041091594
29.084996
0.10024707
32.229279
0.2134208
34.057511
0.2656046
35.596849
0.3021149
36.638414
0.26820268
37.332266
0.19137539
37.90931
38.523068
-0.058394009
25.531856
0.22214537
0.10423295
28.922369
0.2116541
32.121858
0.30367563
33.965489
0.33137196
35.569153
0.32810549
36.641681
0.25979167
37.40058
0.18277534
37.986326
38.705843
-0.12672094
25.34956
0.30901749
0.03268271
28.762966
0.12912119
32.025419
0.22757073
33.86704
0.27324081
35.523483
0.30252095
36.612401
0.2591254
37.443975
0.1859972
38.059455
38.89184
-0.033857636
25.169243
0.21417414
0.12443378
28.604674
0.22243042
31.927423
0.30144306
33.788027
0.31773975
35.507186
0.31081407
36.619326
0.24447686
37.510313
0.17124587
38.132686
39.063086
-0.11911326
24.986502
0.30185447
0.031028248
28.454533
0.1184787
31.839972
0.20684104
33.699665
0.23820381
35.475824
0.25778244
36.599748
0.2212869
37.546808
0.1633375
38.190635
39.226424
-0.039113712
24.814297
0.21131848
0.10307996
28.312339
0.19225335
31.750799
0.26235336
33.629565
0.27423813
35.463939
0.26676734
36.607219
0.20416938
37.609406
0.14335301
38.251451
39.369777
-0.14195715
24.665397
0.29085689
-0.010597616
28.18098
0.066495939
31.673705
0.14834193
33.547719
0.16585354
35.446427
0.1815011
36.591571
0.16081621
37.630091
0.12126472
38.291003
39.491041
-0.07622363
24.537913
0.20370807
0.041572713
28.063183
0.12151066
31.593767
0.18663735
33.482592
0.18976058
35.443304
0.18092377
36.600408
0.13488488
37.67613
0.093705344
38.332182
39.584747
0.079871101
39.504875
0.17984595
38.232207
0.27568468
37.580291
0.36750883
36.508584
0.4270808
35.383732
0.49615613
33.413517
0.54952528
31.540398
0.53541049
28.077298
24.604707
0.46861616
0.12360485
39.381271
0.23533565
38.120477
0.31298468
37.502642
0.38520927
36.436359
0.42941798
35.339523
0.48348245
33.359452
0.53807758
31.485803
0.49871923
28.116656
24.754817
0.34860942
0.17963565
39.201635
0.32721468
37.972898
0.45958852
37.370268
0.56986005
36.326088
0.63446544
35.274918
0.69581364
33.298104
0.76445852
31.417158
0.74376367
28.137351
25.002313
0.49626807
0.23139589
38.970239
0.39240104
37.811892
0.51159146
37.251078
0.61328776
36.224391
0.6686588
35.219547
0.71326585
33.253497
0.79194336
31.338481
0.79716955
28.132125
25.409737
0.38974546
0.29295219
38.677287
0.50754182
37.597303
0.68288564
37.075734
0.82218499
36.085092
0.89724734
35.144485
0.94964209
33.201102
1.0343807
31.253742
1.1128246
28.053681
25.927543
0.59501852
0.34847537
38.328812
0.57668036
37.369098
0.74499459
36.90742
0.88614437
35.943942
0.95784176
35.072787
0.99087547
33.168069
1.0833214
31.161296
1.2210365
27.915966
26.549786
0.59879296
0.41570017
37.913111
0.70747426
37.077324
0.93885843
36.676036
1.1133437
35.769457
1.2149625
34.971168
1.2456921
33.137339
1.2931656
31.113823
1.5846113
27.62452
27.173617
0.96078033
0.47798893
37.435122
0.78402935
36.771283
1.0109094
36.449156
1.1955277
35.584839
1.3047558
34.86194
1.3130109
33.129084
1.3459526
31.080881
1.73561
27.234863
27.542491
1.3667365
0.53231546
36.902807
0.91947183
36.384127
1.221649
36.146978
1.4764284
35.330059
1.6367266
34.701642
1.6662158
33.099595
1.634088
31.113009
2.0934129
26.775538
27.407869
2.2280344
-1.2602895
38.163097
-2.6820122
37.80585
-4.182021
37.646987
-5.6748647
36.822903
-7.023358
36.050135
-8.2450839
34.32132
-9.0438137
31.911739
-9.2978088
27.029533
27.98142
-9.8713589
-1.2187193
39.381816
-2.6367924
39.223923
-4.120145
39.13034
-5.6717775
38.374535
-7.1130262
37.491384
-8.342264
35.550558
-9.1838034
32.753278
-9.1301604
26.97589
26.831743
-7.9804839
-1.1641527
40.545969
-2.5897073
40.649477
-4.1284157
40.669048
-5.7352001
39.98132
-7.226183
38.982367
-8.4595857
36.783961
-9.2737537
33.567446
-8.5380662
26.240203
21.138762
-2.8450855
-1.1135455
41.659514
-2.5434136
42.079346
-4.0469245
42.172559
-5.7016339
41.636029
-7.3059852
40.586718
-8.5725503
38.050526
-9.1967173
34.191613
-7.876754
24.920239
13.486059
-0.22405104
-1.0392766
42.698791
-2.4612389
43.501308
-4.0128264
43.724147
-5.7421906
43.365393
-7.3706451
42.215173
-8.6792522
39.359133
-9.1507364
34.663097
-6.9148873
22.68439
6.5957588
-0.024586796
-0.97778247
43.676573
-2.4091101
44.932635
-3.9283913
45.243428
-5.6872029
45.124205
-7.4271212
43.955091
-8.7964899
40.728502
-8.8746785
34.741286
-4.9839043
18.793616
0.90284077
0.70901374
-0.89214211
44.568715
-2.298702
46.339195
-3.8606423
46.805368
-5.7008163
46.964379
-7.4858957
45.74017
-8.8045645
42.047171
-8.121568
34.058289
-2.8536728
13.525721
-2.5914548
0.64062277
-0.82592134
45.394637
-2.2180166
47.731291
-3.7610754
48.348427
-5.6296577
48.832961
-7.4967703
47.607283
-8.7531861
43.303587
-7.2116755
32.516779
-2.0374101
8.3514554
-5.2356336
0.60676874
-0.74180673
46.136443
-2.0928664
49.08235
-3.6732276
49.928788
-5.6150171
50.774751
-7.5075926
49.499858
-8.5816875
44.377681
-5.9619494
29.897041
-0.90721244
3.2967184
-7.0076141
0.86476798
0.16930339
-7.6821442
0.50522672
3.0610849
0.40493693
5.1386925
27.819433
4.3692467
45.147127
3.0775165
50.791589
1.8057237
52.046544
0.86067429
50.873837
0.14476145
49.798263
46.281205
-0.079021946
-8.1790382
0.57591594
2.6988146
-2.3728996
5.0245704
25.493677
4.2861161
45.885582
2.9655637
52.112141
1.6704389
53.341668
0.71708337
51.827193
0.064338421
50.451008
46.345543
-0.2109179
-8.5636504
0.5955301
2.4838924
-5.0677099
4.9013041
23.076265
4.2193188
46.567567
2.8611783
53.470282
1.5475828
54.655264
0.62493158
52.749844
0.026240277
51.049699
46.371783
-0.17716582
-8.9771987
0.5907141
2.4506141
-7.6954898
4.7574951
20.769384
4.1168731
47.208189
2.7461391
54.841016
1.4262942
55.975109
0.49350481
53.682634
-0.051393712
51.594598
46.32039
-0.07933767
-9.4131231
0.51526207
2.50019
-10.275017
4.6457669
18.623807
4.0398419
47.814114
2.6260465
56.254811
1.2799005
57.321255
0.39142902
54.571105
-0.081284916
52.067312
46.239105
-0.00037317611
-9.8820345
0.46928456
2.4863404
-12.761731
4.5072452
16.602903
3.9164795
48.40488
2.4947426
57.676548
1.1552233
58.660774
0.2638737
55.462455
-0.15568024
52.486866
46.083425
0.036677698
-10.240606
0.3218936
2.4044141
-15.129467
4.3670316
14.640285
3.829591
48.94232
2.3589278
59.147211
1.0017874
60.017914
0.16556837
56.298674
-0.17459822
52.827032
45.908826
0.088143217
-10.770872
0.44212316
2.389657
-17.430981
4.1913291
12.838613
3.6764985
49.457151
2.2177848
60.605925
0.87889213
61.356807
0.042860996
57.134705
-0.24551186
53.115405
45.663315
0.15691349
-10.939302
0.011516742
2.3049742
-19.579042
4.032495
11.111092
3.6070708
49.882575
2.0724278
62.140568
0.7239574
62.705277
-0.046479233
57.905142
-0.24827968
53.317206
45.415035
2.6829495
-13.931828
0.30957617
5.0217855
-21.917878
3.3896726
12.743205
0.26908353
53.003164
-2.2404793
64.650131
-3.5232906
63.988089
-3.4553734
57.837224
-2.1820476
52.04388
43.232987
3.4061791
-17.559262
0.22125508
5.0028711
-23.51457
2.5235357
15.22254
-0.93992119
56.466621
-3.7143075
67.424517
-4.5162841
64.790065
-3.8465338
57.167474
-2.1327504
50.330097
41.100237
3.7656543
-21.459391
0.13447488
4.735485
-24.4844
1.3993311
18.558694
-2.1218103
59.987763
-4.2635913
69.566298
-4.8534532
65.379927
-4.1502219
56.464243
-2.1190206
48.298895
38.981216
4.0389449
-24.595522
-0.90281376
4.5867874
-25.032243
0.73639645
22.409085
-3.1584606
63.88262
-5.5225048
71.930342
-5.8019867
65.659409
-4.3400395
55.002295
-2.1203236
46.079179
36.860893
4.128062
-26.427885
-2.2956994
4.2688131
-25.172994
-0.32698493
27.004883
-4.2094738
67.765109
-5.8528988
73.573767
-5.512042
65.318552
-4.0519077
53.542161
-2.3016035
44.328875
34.559289
4.0770567
-27.795741
-2.7092003
4.0379656
-25.133903
-0.93738759
31.980236
-5.0288529
71.856574
-6.7026728
75.247587
-6.2054422
64.821322
-4.490371
51.82709
-2.3558765
42.194381
32.203413
3.9096997
-29.526144
-2.1792972
3.4889742
-24.713177
-2.1378448
37.607055
-6.0387991
75.757528
-6.9109935
76.119781
-5.8746013
63.784929
-3.647401
49.59989
-1.3992499
39.94623
30.804163
3.7681067
-31.559616
-1.7346349
3.0387336
-23.983804
-2.683233
43.329022
-6.6618913
79.736186
-7.4920937
76.949984
-6.2827381
62.575574
-3.8793419
47.196493
-1.3165427
37.38343
29.48762
3.6200799
-1.708946
-33.47075
2.2146269
-22.578351
-4.1996794
49.743328
-7.8523475
83.388855
-7.5812758
76.678912
-5.5160554
60.510353
-2.7560117
44.43645
-0.15151136
34.77893
29.336109
-1.3392146
20.237499
0.58372975
-19.482014
-1.0193392
59.660326
-59.980202
1.4952765
44.596854
-47.11147
4.8809859
-20.097022
16.711313
6.8289498
-46.230817
44.282854
7.7267369
-54.783538
53.885751
7.9441575
-57.494895
57.277474
7.6137332
-38.359186
38.689611
5.0240955
-5.4009548
-1.4415295
21.108253
0.57077582
-1.0461315
59.264928
1.8906655
41.660057
5.3571013
-23.563458
7.3427722
-48.216488
8.212643
-55.653408
8.2825905
-57.564843
7.6582352
-37.734831
4.6551127
-1.5480598
22.077542
0.57877048
-1.0740501
58.790919
2.3045306
38.281476
5.8272033
-27.086131
7.8679417
-50.257227
8.8047853
-56.590252
8.7887614
-57.548819
7.9103775
-36.856447
4.2656207
-1.6492667
23.152053
0.5747557
-1.0840964
58.225749
2.7719406
34.425439
6.3553564
-30.669547
8.4558021
-52.357672
9.474569
-57.609019
9.3800311
-57.454281
8.3015989
-35.778015
3.8136876
-1.7368835
24.317928
0.57100807
-1.0597988
57.548664
3.2597301
30.10591
6.9010597
-34.310876
9.097564
-54.554177
10.214733
-58.726188
9.9819016
-57.221449
8.7504162
-34.54653
3.1905455
-1.7788049
25.534527
0.5622054
-0.93963703
56.709496
3.7655465
25.400727
7.4197898
-37.96512
9.6740915
-56.808478
10.855475
-59.907572
10.410456
-56.77643
9.0930132
-33.229087
2.2428967
-1.8262079
26.805903
0.55483234
-0.80593263
55.689221
4.3008757
20.293918
7.9704818
-41.634726
10.214659
-59.052655
11.365381
-61.058295
10.681074
-56.092123
9.3567422
-31.904755
0.85895921
-1.8761328
28.128499
0.55353688
-0.67917243
54.49226
4.8385026
14.776243
8.5202388
-45.316462
10.710482
-61.242898
11.744845
-62.092658
10.770992
-55.11827
9.5260351
-30.659798
-1.00522
-1.8662512
0.56203931
29.432711
-0.43870134
53.064711
5.3574134
8.9801285
9.0603999
-49.019449
11.221455
-63.403952
12.105822
-62.977026
10.775977
-53.788425
9.711335
-29.595155
-3.4353049
-5.4816285
-20.44002
-1.1146313
27.03628
-9.2238027
-71.384825
75.126999
-6.2166203
-65.682426
62.675244
0.24077337
-29.531638
23.074244
6.4066269
-1.4292043
-4.7366492
8.6817631
-5.5257837
3.2506475
5.4111434
-31.497003
34.767623
0.20635076
-53.472161
58.676954
-64.460984
64.667334
-4.4440369
-12.756589
-3.2393943
-8.6804809
-67.148381
-7.0743831
-67.288524
-1.2695713
-35.33645
5.8205551
-8.5193307
9.0829935
-8.7882221
6.9181595
-29.332169
1.7271738
-48.281175
-62.73381
-4.1380303
-4.4112754
-4.2072837
-8.5160907
-62.77032
-7.0143582
-68.790257
-1.404829
-40.945979
5.2076969
-15.131857
8.489646
-12.070171
6.6091781
-27.451701
2.1549129
-43.82691
-60.578897
-3.3294543
3.1618724
-4.2436936
-8.085189
-58.014586
-7.4805472
-69.394899
-1.8476674
-46.578859
4.9854438
-21.964968
8.1595664
-15.244294
7.4759108
-26.768046
3.2552839
-39.606283
-57.323613
-2.9303028
10.201374
-4.1091988
-7.7637291
-53.18116
-7.9248804
-69.233747
-3.3632048
-51.140534
3.2744385
-28.602611
6.7094871
-18.679342
6.3793185
-26.437877
3.326943
-36.553908
-53.99667
-2.299612
15.849338
-3.3483527
-7.1997568
-48.281015
-8.0493966
-68.384107
-4.6918442
-54.498087
0.81341367
-34.107869
5.2361625
-23.102091
6.2185354
-27.42025
3.882978
-34.21835
-50.113692
-1.9780609
19.268269
-1.4408698
-6.6130489
-43.646027
-8.0807946
-66.916362
-5.7181268
-56.860754
-0.76476836
-39.061227
3.2771405
-27.144
4.6445478
-28.787657
3.6254034
-33.199206
-46.488289
-1.5029897
20.480824
0.29043404
-6.080208
-39.068809
-7.8607048
-65.135865
-6.0951417
-58.626318
-2.0957959
-43.060573
1.8347012
-31.074497
3.7964251
-30.749381
3.2473642
-32.650145
-43.240924
-0.92222969
20.779363
0.62369022
-5.1141648
-34.876874
-7.1754239
-63.074606
-6.3992475
-59.402494
-3.256756
-46.203065
0.16072111
-34.491974
2.2912844
-32.879945
2.7388398
-33.0977
-40.502085
-0.42361372
33.098014
-32.6744
-0.41316161
33.279353
-33.289805
-0.39576955
34.953015
-34.970407
-0.3771411
37.810414
-37.829043
-0.96161922
44.556211
-43.971733
-2.0663969
52.153303
-51.048525
-3.1322696
56.299189
-55.233317
-1.8945305
43.897483
-45.135222
-7.2694952
5.8382209
-0.46325628
-0.5342248
33.632239
-0.48054983
33.225678
-0.41905881
34.891524
-0.34938421
37.74074
-0.83298076
45.039808
-1.866823
53.187145
-2.8879549
57.320321
-1.8356325
42.845161
-8.4366586
-0.6684691
-0.6077805
34.240019
-0.56482639
33.182723
-0.44100505
34.767703
-0.25204394
37.551779
-0.71862952
45.506393
-1.7533258
54.221841
-2.7161057
58.283101
-1.6960673
41.825122
-9.8284774
-0.30424851
-0.75940507
34.999424
-0.67268591
33.096004
-0.50535556
34.600373
-0.2605004
37.306923
-0.59965064
45.845543
-1.5645394
55.18673
-2.4801271
59.198689
-1.464269
40.809264
-11.703623
0.41087684
-0.84492888
35.844353
-0.7949539
33.046029
-0.5589429
34.364362
-0.1827062
36.930687
-0.48636941
46.149207
-1.4447596
56.14512
-2.3067256
60.060655
-1.197558
39.700097
-13.689711
0.78852995
-0.98164508
36.825998
-0.93413636
32.998521
-0.64941562
34.079641
-0.20804147
36.489313
-0.37084104
46.312006
-1.2511752
57.025455
-2.0692787
60.878759
-0.96352676
38.594344
-15.576609
0.92337085
-1.0848661
37.910865
-1.0837176
32.997372
-0.73688437
33.732808
-0.1688968
35.921325
-0.25997267
46.403082
-1.1222745
57.887756
-1.9060633
61.662548
-0.71234291
37.400624
-17.450722
1.1617697
-1.2379198
39.148784
-1.2480887
33.007541
-0.85046243
33.335181
-0.19747908
35.268342
-0.15269541
46.358298
-0.9369209
58.671982
-1.6745197
62.400147
-0.4360398
36.162143
-19.235532
1.3487692
-1.3533004
-1.4434598
-0.98822299
-0.21185555
-0.056621932
-0.78713395
-1.4615927
-0.17632339
1.3675081
3.5535135
1.2149698
1.0697376
6.9542499
-48.535959
5.3621761
-53.641243
3.4420865
-49.128436
2.1847787
-42.714425
1.6012646
-37.245529
1.1383967
-34.50754
0.76268283
-32.914091
-31.911718
6.2878603
-5.8758407
0.80295014
7.5625231
-49.810622
5.600325
-51.679044
3.5516021
-47.079713
2.249035
-41.411858
1.6255388
-36.622032
1.1203157
-34.002317
0.68892813
-32.482703
-31.222789
8.1225543
-14.072219
0.073824128
7.7930655
-49.481133
5.7327161
-49.618695
3.7183303
-45.065327
2.417479
-40.111007
1.6786617
-35.883215
1.1021898
-33.425845
0.64886316
-32.029376
-30.573926
8.7242211
-22.86829
0.071849877
7.9980007
-48.754912
5.8838107
-47.504505
3.8449615
-43.026478
2.4933723
-38.759417
1.7245326
-35.114375
1.1122006
-32.813513
0.61353478
-31.530711
-29.960391
9.5514349
-32.456571
0.0368464
8.1170677
-47.320545
5.9363773
-45.323815
3.9837765
-41.073877
2.6471638
-37.422805
1.7922865
-34.259498
1.121746
-32.142972
0.59263132
-31.001596
-29.36776
10.052643
-41.616562
-0.89265226
8.3772395
-45.645142
6.0092885
-42.955864
4.0853668
-39.149955
2.7260486
-36.063486
1.8522707
-33.38572
1.1532165
-31.443918
0.56980371
-30.418183
-28.797956
10.560781
-45.743232
-6.4341113
8.4091606
-43.493521
5.9914115
-40.538115
4.1861858
-37.34473
2.8674732
-34.744774
1.9294579
-32.447705
1.1828453
-30.697305
0.5576283
-29.792966
-28.240328
10.809011
-44.593862
-11.958381
8.2192412
-40.903751
5.9927529
-38.311626
4.2543419
-35.606319
2.9414811
-33.431913
1.9881489
-31.494373
1.2210806
-29.930237
0.55149054
-29.123376
-27.688838
10.718769
-42.019341
-13.29329
8.0451168
-38.230098
5.9549587
-36.221468
4.3404831
-33.991843
3.0595435
-32.150974
2.056047
-30.490876
1.2517066
-29.125897
0.553909
-28.425579
-27.134929
0.64571073
33.464055
-34.109765
1.1908494
33.87537
-34.420509
1.679258
34.525816
-35.014224
2.0892211
35.389696
-35.799659
2.3816669
36.306141
-36.598587
2.432012
37.336985
-37.38733
2.1217271
37.424187
-37.113902
1.3324971
35.586063
-34.796833
28.798203
-28.000987
0.5352816
0.6941933
32.769861
1.2700195
33.299544
1.8092487
33.986586
2.2527421
34.946202
2.560808
35.998075
2.6859974
37.211795
2.3874558
37.722728
1.5366561
36.436863
29.785619
0.54924014
0.72702264
32.042839
1.3457564
32.68081
1.9184612
33.413882
2.421791
34.442872
2.8255521
35.594314
3.0433788
36.993969
2.8572443
37.908863
1.9712071
37.3229
31.158485
0.59834141
0.77407087
31.268768
1.4146191
32.040262
2.040745
32.787756
2.5741126
33.909505
2.9959393
35.172487
3.2934538
36.696454
3.2068474
37.995469
2.4237947
38.105953
33.03271
0.54956896
0.79116243
30.477605
1.4733663
31.358058
2.1318454
32.129277
2.7321014
33.309249
3.2522257
34.652363
3.6341346
36.314545
3.7257229
37.903881
3.0629566
38.768719
35.29595
0.79971654
0.82292805
29.654677
1.5236978
30.657288
2.2317299
31.421245
2.8517699
32.689209
3.3862436
34.117889
3.8685849
35.832204
4.0849863
37.687479
3.6984689
39.155237
37.706776
1.2876434
0.83443666
28.820241
1.5590756
29.932649
2.294813
30.685507
2.9902927
31.993729
3.6073546
33.500827
4.1563323
35.283226
4.5195228
37.324289
4.40864
39.26612
39.511897
2.603519
0.84464939
27.975591
1.5915653
29.185733
2.3584462
29.918626
3.0687293
31.283446
3.6976561
32.8719
4.3185171
34.662365
4.7552724
36.887534
5.0353344
38.986058
41.110642
3.4365891
0.84066268
1.6008175
2.3935471
3.1861168
3.9070437
4.5775658
5.2436313
5.9995905
5.0908916
-0.62235706
-27.722406
0.34377598
-1.1304437
-34.288747
-1.455274
-36.789071
-1.5228586
-37.319745
-1.4249983
-36.696447
-1.1958369
-36.02882
-0.86787392
-35.342187
-0.47691316
-34.81147
-34.586679
-0.59248098
-27.506361
0.37643559
-1.034215
-33.847013
-1.3199168
-36.50337
-1.4015436
-37.238118
-1.2933773
-36.804613