/*--------------------------------*- C++ -*----------------------------------*\
  =========                 |
  \\      /  F ield         | OpenFOAM: The Open Source CFD Toolbox
   \\    /   O peration     | Website:  https://openfoam.org
    \\  /    A nd           | Version:  11
     \\/     M anipulation  |
\*---------------------------------------------------------------------------*/
FoamFile
{
    format      ascii;
    class       volScalarField;
    location    "0.359205";
    object      Ma;
}
// * * * * * * * * * * * * * * * * * * * * * * * * * * * * * * * * * * * * * //

dimensions      [0 0 0 0 0 0 0];

internalField   nonuniform List<scalar> 
880
(
1.118016635923817
1.118016634794702
1.117913324812384
1.101705889563916
1.118016635922823
1.118016632484913
1.117870597017754
1.096273070848959
1.118016635905757
1.118016621517188
1.117737786425083
1.089044171335781
1.118016635824109
1.11801656677805
1.117400523943386
1.069561182881765
1.118016636535324
1.118016634946737
1.118016603654253
1.118016146246906
1.118016282344518
1.118014696363182
1.118008387820339
1.118021818626134
1.116457957393117
1.115369868530591
1.113825134708132
1.113110404880157
1.031325411119676
0.994348455256531
0.9723463135219812
0.9700858075908035
1.118010993317717
1.117995267628806
1.117968951061352
1.117859356646767
1.117902586171307
1.117468237932378
1.116771238052946
1.115508311117188
1.104435887752862
1.097438172519496
1.088278360408646
1.079908785496005
0.9590772790566816
0.959142681387908
0.9575207193297285
0.9810590726722692
1.040057423315935
1.075626502791719
1.089971261646866
1.104394209638866
1.06563695490641
1.065223860849567
1.06933198888842
1.077711919461245
1.111150521386495
1.105555342091388
1.10043618639767
1.097676941287189
1.117316962190025
1.116401489007336
1.115079341005829
1.113441877368092
1.111891794444774
1.110738034633773
1.109987706266527
1.109842325575388
1.097065475583711
1.098716308385493
1.102519094684955
1.107806472046505
1.086129207881749
1.096167959624087
1.105649760479602
1.113538650008508
1.111645489411734
1.119221475251052
1.123416382541832
1.126391238962176
1.128795011771856
1.120908767181923
1.113440341808652
1.10995391121059
1.079530934076981
1.125825115942342
1.120190429663853
1.110315584932425
0.8047162994301209
1.115062597891727
1.125648747467669
1.111387397943679
0.5734510229591581
1.038003360046653
1.125575565381126
1.113026520997318
1.113321200405317
1.121413283664272
0.954265595111454
0.5178142935263178
1.108806272799887
1.108881819855175
0.8849147035189595
0.5549608836387173
1.106529578181864
1.080263165197832
0.8075547139066422
0.5746322713331593
1.100904717571221
1.033540824380235
0.7627936670537463
0.6140918254170058
0.6624746787653897
0.7509996041111657
0.9749368515694276
1.089478957696466
0.7143567193212151
0.7749447396810423
0.9219525267274945
1.069271672991928
0.7674910165223285
0.8176027611197947
0.9053699039147834
1.037961498192132
0.815170899954596
0.8746708995515644
0.9234579107501719
1.006114454469673
0.985449064672086
0.975603727808258
0.9503614612650798
0.8753647989960308
1.009941477801848
1.039763381670105
1.036589113975884
0.9571021324357907
1.038633682700222
1.101929651980085
1.127946909356194
1.064393254158592
1.064428816423571
1.149823740526621
1.21599947444655
1.193053126038611
1.08429434615373
1.191052741967515
1.305711930535439
1.394825311409671
1.109063519979261
1.221495663714827
1.366076687875172
1.585957571571559
1.124969163098214
1.226876426791981
1.411551792018336
1.774922049480089
1.134429974794614
1.212791428120763
1.386906276142937
1.944843290003582
1.717403436262116
1.321757056325204
1.201058785920345
1.140465643632899
1.181572084492334
1.275049475542872
1.188859719990974
1.14045305991776
1.027486534781867
1.252821655910713
1.179554158110431
1.136948348660779
0.8788169890444021
1.215775139780138
1.165441877551842
1.132914784629957
0.8054654107317341
1.162000450660882
1.142378602957822
1.125669403864878
0.7301776224267722
1.092222953624187
1.117132974328784
1.118951962708064
0.6969746656685561
1.041869532260057
1.105958189983584
1.117614218637258
0.6807351250776316
1.033199644798182
1.106961116691405
1.117614747136001
0.6500472233529382
0.9389826924581578
1.069484057759918
1.113031739224609
0.6572400847961579
0.9372525261414163
1.069622582163446
1.112894963662536
0.6853497426569016
0.9362850912887858
1.070416962323591
1.11284535429739
0.7090757192941904
0.9439916982191472
1.073798036467801
1.113120835114151
0.6807351250780526
1.033199644799688
1.106961116695171
1.117614747141132
0.6969746656697803
1.041869532264083
1.105958189985291
1.117614218640219
0.7301776224293536
1.092222953627551
1.117132974329716
1.118951962711404
0.8054654107325928
1.162000450665199
1.142378602958577
1.125669403866367
1.140465643631108
1.201058785921447
1.321757056324573
1.717403436261575
1.14045305991726
1.188859719991342
1.275049475542912
1.181572084495761
1.136948348658912
1.179554158110108
1.252821655916279
1.02748653478039
1.132914784627826
1.165441877548765
1.215775139782686
0.878816989045715
1.944843290010042
1.386906276144233
1.212791428123473
1.134429974794151
1.77492204948028
1.411551792019406
1.226876426793186
1.124969163096663
1.58595757157059
1.366076687873658
1.22149566371652
1.10906351997439
1.394825311408189
1.305711930537051
1.191052741970776
1.084294346148933
0.9854490646699476
0.9756037278052463
0.9503614612631366
0.8753647989961315
1.009941477801451
1.039763381670113
1.036589113974093
0.9571021324351682
1.038633682704075
1.101929651981836
1.127946909354882
1.064393254157853
1.064428816422379
1.149823740529023
1.215999474446042
1.193053126037034
0.8151708999548977
0.8746708995511208
0.9234579107481223
1.006114454462458
0.7674910165229478
0.8176027611201161
0.9053699039142586
1.037961498190797
0.7143567193214946
0.7749447396818337
0.9219525267272417
1.069271672989163
0.662474678766061
0.7509996041105966
0.9749368515651952
1.089478957695112
1.113321200405819
1.121413283664491
0.9542655951131863
0.5178142935277145
1.108806272794368
1.108881819853409
0.8849147035198028
0.5549608836401937
1.106529578173232
1.080263165191884
0.8075547139063316
0.5746322713339818
1.10090471756879
1.033540824382194
0.7627936670550693
0.6140918254174492
1.113026520996856
1.111387397944348
1.110315584928864
1.10995391121002
1.125575565385834
1.125648747470417
1.120190429662857
1.113440341808019
1.038003360051412
1.115062597892259
1.125825115945635
1.120908767183363
0.5734510229612784
0.804716299433161
1.07953093407649
1.128795011771579
1.109842325573067
1.107806472044101
1.113538650007162
1.126391238961227
1.109987706269007
1.102519094681542
1.105649760478803
1.123416382541362
1.110738034633523
1.098716308385047
1.096167959627604
1.119221475254347
1.111891794447693
1.097065475584247
1.086129207880243
1.111645489412177
1.117316962190473
1.111150521391337
1.065636954904639
1.040057423313612
1.116401489010419
1.105555342095658
1.065223860848845
1.075626502791968
1.11507934100236
1.100436186401193
1.069331988890502
1.089971261651772
1.113441877370453
1.097676941288636
1.077711919460911
1.104394209641724
0.9810590726729765
1.079908785496105
1.115508311121539
1.117859356643422
0.9575207193307598
1.08827836040799
1.116771238055606
1.117968951063232
0.9591426813877976
1.09743817252114
1.117468237940341
1.117995267631493
0.959077279057167
1.104435887755662
1.117902586175178
1.118010993314928
0.9700858075898876
1.113110404880411
1.118021818626485
1.11801614624495
0.9723463135201384
1.113825134708816
1.118008387823894
1.118016603651768
0.9943484552507791
1.115369868532007
1.118014696366676
1.118016634948005
1.031325411110871
1.116457957395452
1.118016282346983
1.118016636532613
1.118016635923625
1.118016634794065
1.11791332481215
1.101705889562913
1.118016635921967
1.118016632488202
1.117870597018592
1.096273070838051
1.118016635905015
1.11801662152036
1.117737786425086
1.089044171319916
1.118016635822621
1.118016566780603
1.11740052394386
1.069561182869885
1.090027388145707
1.079816048922706
1.058243437788538
1.008466780190571
1.079816048931664
1.064158842947362
1.027806518289673
0.952945237887753
1.058243437808109
1.027806518304031
0.9622196598533592
0.859121049892384
1.008466780209205
0.9529452379094955
0.8591210499058979
0.7515552483478187
0.7259663497928862
0.7634821866951356
0.8354239267266328
0.9069166349841917
0.7808924572501716
0.7857232955250208
0.815695566400561
0.8610133322044952
0.7683464355843316
0.8085985305774078
0.8384460056059674
0.8598239390147767
0.8035143152530301
0.8475412252201597
0.8694793329045429
0.8807863438878999
0.8966597299457387
0.9095215616947532
0.9296298627273328
0.9684942093334944
0.894999236767265
0.9106222577405784
0.9352897126131018
0.9903499850678213
0.8839140268018043
0.9081271090675824
0.9366028581549121
1.054095415442649
0.8334758112913502
0.8610037360655071
0.8995115783786448
1.141563440780152
1.149105687318385
1.190192041270981
1.162245389254126
1.155848392598232
1.270486252086853
1.298131086048665
1.245477804323448
1.213593279667838
1.425519108920312
1.363575931246126
1.297057194493034
1.251309960303207
1.160550816006551
1.101032815970973
1.087574503432043
1.089676048663012
1.158616349693474
1.15953981740146
1.157136334624823
1.153217304228892
1.197673022007652
1.182966735691619
1.168747288818043
1.156238135131141
1.223628412235474
1.198448464827518
1.175095242683807
1.153888304147736
1.088926132030863
1.078618523252376
1.068256583165815
1.050970708166479
1.122147057546288
0.8701129018301248
0.5644371105726639
0.3648651736627031
1.090974645673093
0.6977402490680864
0.3662456754860676
0.174162572308948
1.0329223023025
0.5044830393391957
0.1476217954801084
0.03134025621215
0.8518800591331869
0.3005879345574806
0.02333300032685789
0.1011458508456572
0.3409160052801805
0.4415025122587575
0.5060595744140253
0.5696073470017003
0.2434236675710438
0.3991356074327095
0.4925511849812815
0.5666145288768445
0.110208189407741
0.3087794954146919
0.455717473898907
0.550174487996583
0.009860035813795746
0.1609985060214012
0.3251239295948386
0.4612686994084098
0.6437743955845912
0.7091121035685498
0.7653418648005048
0.8044281448296462
0.6371928312014409
0.7037826469527927
0.7599591205477056
0.7996831661810646
0.6207826968693694
0.6914741703563246
0.7536191175677779
0.7976450489130154
0.5749155555578869
0.6672976324796798
0.7485599102272684
0.7963545213671004
0.8505565552017004
0.921317605882236
1.016676481238586
1.1308247292978
0.8424538142165997
0.9072247219706246
0.9950875883678196
1.146741021492881
0.8386835667885859
0.895591346721667
1.009279773808788
1.465236912658097
0.8367112499082218
0.8901378549540013
1.035243401602155
2.043021442030308
1.357993139581772
1.502719874447135
0.7467998908511567
1.54144718850669
1.440675973595994
1.291861489723976
1.121032430645578
1.900780020153896
1.484621759602782
0.9244904663396417
1.364544240431536
1.930041070118205
1.143591509803201
0.4372166647485258
1.649920685150285
1.864066424518933
1.320381962799995
0.8904284664285879
0.6860074340614112
0.4518736651923277
1.399943082851833
0.9916110542957626
0.71300518402762
0.3512154777330715
1.337919190153578
0.9695303182416641
0.6147064083851741
0.2354458140138011
1.275383472021984
0.926658691781171
0.5551408125179426
0.1789952243248154
0.3129228387602069
0.08992578008914789
0.1520499201375277
0.3539916783775002
0.3574837940479038
0.2739348393948098
0.06738075652794308
0.2738313023079051
0.3252793311022734
0.3764536375813196
0.208619355104166
0.1802368579743289
0.256334679867371
0.3769829273929394
0.2873732132660147
0.05452134504285008
0.330373498671213
0.3633518001710691
0.3675124101864074
0.3666402398049071
0.3127904089094187
0.297810587843032
0.3018250946053714
0.2880234170942857
0.2126060276882524
0.1577787511397384
0.1531801752940829
0.1301320431852954
0.1154788946155277
0.06711674716512372
0.08527176322770691
0.0805414242842703
0.06428149507395095
0.06055310260373401
0.05570909273002162
0.04949087929906065
0.08593814895511587
0.0355597436173543
0.01249822941792568
0.03218335826332201
0.2344291224259422
0.1730080070003774
0.1019206745256925
0.04159591843979145
0.3264062630141796
0.278230071188994
0.2179703953279294
0.1783111568837414
0.04949087929881248
0.0321833582633502
0.04159591843960119
0.1783111568836099
0.05570909272935004
0.012498229418059
0.1019206745257164
0.2179703953287341
0.06055310260312079
0.03555974361753631
0.1730080070005267
0.2782300711897011
0.06428149507356548
0.08593814895534589
0.2344291224260803
0.3264062630142598
0.3666402398040421
0.3675124101862813
0.3633518001706072
0.3303734986709967
0.2880234170942157
0.3018250946052804
0.2978105878425287
0.3127904089091108
0.1301320431854477
0.1531801752941206
0.1577787511397059
0.2126060276880217
0.08054142428435328
0.08527176322808375
0.06711674716567041
0.1154788946160443
0.05452134504251915
0.2873732132638981
0.3769829273904097
0.2563346798657407
0.1802368579742206
0.2086193551026801
0.376453637578262
0.3252793310992136
0.2738313023077809
0.06738075652724997
0.2739348393913367
0.3574837940444442
0.3539916783775854
0.152049920138938
0.08992578008512137
0.312922838755186
0.4518736651877546
0.6860074340620738
0.8904284664433317
1.320381962788501
0.3512154777302147
0.7130051840265383
0.9916110543017128
1.399943082853051
0.2354458140126003
0.6147064083844238
0.96953031824275
1.337919190155175
0.1789952243249693
0.5551408125177929
0.9266586917812368
1.275383472024939
1.54144718846732
0.7467998908476419
1.502719874443131
1.357993139578833
1.900780020144106
1.1210324306534
1.291861489722403
1.440675973595476
1.9300410701239
1.364544240438566
0.9244904663382003
1.484621759601246
1.864066424522401
1.64992068515946
0.4372166647491187
1.143591509804222
1.1308247292969
1.016676481238318
0.9213176058824938
0.8505565552021994
1.146741021492489
0.995087588366717
0.9072247219702008
0.8424538142171297
1.465236912657591
1.009279773808415
0.8955913467208821
0.8386835667886632
2.043021442027551
1.035243401601562
0.8901378549529112
0.8367112499085816
0.8044281448307786
0.7653418648017215
0.7091121035685047
0.6437743955848557
0.7996831661821279
0.7599591205478001
0.7037826469537791
0.6371928312015125
0.7976450489127876
0.7536191175683524
0.6914741703565769
0.6207826968695699
0.7963545213675842
0.7485599102274173
0.6672976324796553
0.5749155555571339
0.5696073470024421
0.5060595744159468
0.4415025122587641
0.3409160052808
0.5666145288772672
0.4925511849831692
0.3991356074333859
0.2434236675719146
0.5501744879969367
0.4557174738996701
0.3087794954154794
0.110208189408521
0.4612686994077529
0.3251239295939554
0.1609985060216042
0.009860035814018495
0.3648651736636913
0.5644371105752132
0.8701129018309079
1.12214705754407
0.1741625723098239
0.3662456754885239
0.6977402490705722
1.090974645671136
0.03134025621155458
0.1476217954817269
0.5044830393417505
1.032922302300339
0.1011458508454503
0.02333300032696715
0.3005879345583071
0.8518800591300485
1.153217304227755
1.157136334628164
1.159539817407609
1.158616349697628
1.156238135129106
1.168747288819453
1.182966735696647
1.19767302201111
1.153888304145278
1.175095242684371
1.19844846483228
1.223628412239361
1.050970708162216
1.068256583167052
1.078618523255336
1.088926132033958
1.155848392603091
1.162245389261067
1.19019204126973
1.149105687317379
1.21359327967404
1.245477804330382
1.29813108604752
1.270486252086442
1.251309960309785
1.297057194499951
1.363575931244491
1.425519108920866
1.08967604866366
1.087574503437598
1.101032815970004
1.160550816009005
0.9684942093335729
0.9296298627271663
0.9095215616918185
0.8966597299434934
0.9903499850683339
0.9352897126103709
0.9106222577370227
0.8949992367635298
1.054095415443375
0.9366028581539083
0.9081271090636095
0.8839140267967781
1.141563440779747
0.8995115783767972
0.8610037360627435
0.8334758112873318
0.8807863438862698
0.8598239390119489
0.8610133322016825
0.9069166349724769
0.8694793329024425
0.8384460056014488
0.8156955663954603
0.8354239267134547
0.8475412252141021
0.8085985305700188
0.7857232955175436
0.7634821866859504
0.8035143152487118
0.7683464355775426
0.7808924572425302
0.7259663497894614
0.6232947842547741
1.002718550692858
1.099025414264173
1.116674025205621
0.6574280221246469
0.97854080293495
1.091861974041441
1.115851735387983
0.6902999013054706
0.9705419691907624
1.085827786394782
1.114841908727071
0.7063094306914379
0.9574663281365512
1.07944362216735
1.113854965450465
1.113031739222605
1.06948405775977
0.9389826924569726
0.6500472233510004
1.112894963662908
1.069622582163466
0.9372525261402609
0.6572400847970722
1.112845354297875
1.07041696232451
0.9362850912877916
0.685349742657286
1.113120835115139
1.073798036469853
0.9439916982185917
0.7090757192932975
1.113854965450771
1.114841908724805
1.115851735388449
1.116674025209946
1.079443622170869
1.085827786396526
1.091861974044056
1.099025414267002
0.9574663281374612
0.970541969192196
0.9785408029357918
1.002718550692937
0.7063094306911617
0.6902999013056934
0.6574280221245311
0.623294784254676
)
;

boundaryField
{
    back
    {
        type            empty;
    }
    inlet
    {
        type            calculated;
        value           nonuniform List<scalar> 
16
(
1.118016635923818
1.118016635923328
1.118016635921992
1.118016635900154
1.118016636034887
1.118016635839753
1.118016624565738
1.118016452925215
1.118016452924368
1.118016624565142
1.118016635840121
1.118016636034292
1.118016635923624
1.118016635923231
1.118016635921705
1.118016635899328
)
;
    }
    front
    {
        type            empty;
    }
    top
    {
        type            calculated;
        value           uniform 0;
    }
    outlet
    {
        type            calculated;
        value           nonuniform List<scalar> 
16
(
1.111563203380687
1.111426389050882
1.111392533778375
1.111767079428761
1.116098355353543
1.115121501934614
1.113892190540402
1.112675458660118
1.111563203378253
1.111426389050846
1.111392533778888
1.111767079429876
1.112675458660313
1.113892190537954
1.115121501935469
1.116098355358037
)
;
    }
    bottom
    {
        type            calculated;
        value           uniform 0;
    }
    wall
    {
        type            calculated;
        value           uniform 0;
    }
}


// ************************************************************************* //
