/*--------------------------------*- C++ -*----------------------------------*\
  =========                 |
  \\      /  F ield         | OpenFOAM: The Open Source CFD Toolbox
   \\    /   O peration     | Website:  https://openfoam.org
    \\  /    A nd           | Version:  11
     \\/     M anipulation  |
\*---------------------------------------------------------------------------*/
FoamFile
{
    format      ascii;
    class       volScalarField;
    location    "0.359205";
    object      T;
}
// * * * * * * * * * * * * * * * * * * * * * * * * * * * * * * * * * * * * * //

dimensions      [0 0 0 1 0 0 0];

internalField   nonuniform List<scalar> 
880
(
500.0000000000027
500.000000292027
500.0240492908
503.3402185246518
500.0000000004407
500.0000008563778
500.0298536920197
504.8863900207549
500.0000000016356
500.0000033355405
500.0553246798926
506.7147673290361
500.0000000211684
500.0000146103835
500.1147323288287
509.4273527940668
499.9999999006574
500.0000000751931
500.0000101591357
500.000163681509
500.0000671207391
500.0002568990381
500.001614129365
500.002356024891
500.2633037449922
500.434615921705
500.7185309367472
500.9605332289286
514.9166438654688
521.1112435440346
526.3727902969157
529.0276929990493
500.0004089790951
500.0033838716793
500.0128200402366
500.0397664739062
500.0227864546175
500.0985391239922
500.2004541827223
500.4219058871698
502.4152510907003
503.6979301193193
505.2854999405453
507.2298609863203
531.2558850174769
533.8970918497662
534.3914853007499
533.1633673753145
522.8397943565381
517.6387628085752
515.4441260694194
513.9697784720593
511.0465542216725
512.6631286346766
513.5769584980774
513.7066728617341
501.1769817326222
502.0598697897807
503.0077158272883
503.765875461469
500.1411058817147
500.3405131351776
500.6411116683634
501.0636942153653
501.5571017225363
502.0494293870515
502.5349905829258
502.8864706994182
504.3920288048521
504.7481472968244
504.9496373439945
504.8997518625298
513.0671346453381
512.168693982617
510.9864031967695
509.7489748889932
512.2218392254299
511.0326801734327
510.2808703975762
509.5134183178867
508.9395955982444
508.8783612525379
504.7590286956863
503.0943199407373
519.1914301864252
508.0399374580594
504.3855660438223
503.0549885038164
571.2977547597925
510.4316633367349
503.9285740151598
502.6023469881493
620.3317535107426
523.8899856953138
504.7795199429079
502.4440524362521
502.3948866746388
506.0657395388982
539.6699782472875
637.4045815659861
501.5146299114488
508.5874695351478
556.2929122580615
635.1856875094595
501.8904971853558
514.4367272766442
576.5988259062379
636.1930714101048
503.3225505685025
524.8579324883463
594.7383011517743
633.4399994942351
628.3209457786403
604.8006480994574
539.8028625268884
506.4827847870053
621.8178007481579
607.4541062293371
554.9847138302734
512.1577868009368
614.5034779540545
605.2854270075671
566.9844760138858
521.1495924047753
606.6456196055603
594.2612254138221
569.0799070876342
532.077131523398
541.2806532529759
563.5976146785328
579.7617369266089
597.1546715685778
539.8226565246717
552.0532461145322
562.8302879235888
582.2098228489359
535.8265875213157
540.3192106489614
544.513136396615
560.578652009866
530.6300850338088
529.8338158227964
525.3144273241106
530.4078538475077
526.746570305428
520.449155106193
508.4984265673671
495.5339196302921
520.5867178224737
511.2767588527906
491.9722933505518
459.8377697673723
515.7591831834401
506.0166012892606
477.941802389202
425.1144128392147
511.5852182023942
504.5828352746522
477.6945787386647
399.8378388750234
410.5873742012981
486.8407918965219
503.2605456632206
507.7662460656148
477.9673119014012
493.0448772711699
502.4041675968056
505.1678344026192
517.2733232921723
495.7410625830231
500.8740911825566
503.3580318442846
530.1861525292232
500.413383476565
500.2277661249196
502.2889287454856
539.0037568765546
504.3306032783379
498.9656780941673
500.3920781119023
533.7893732775246
504.2979736717625
497.6632937382661
499.2218245996127
525.7820156177228
503.4825287136906
497.2757205999464
499.1945442351138
517.6933132700816
499.1118588512506
497.0799310584684
499.4042921681344
479.7620186055584
469.4038825784103
488.9396551293119
498.6814688225492
474.242937444727
471.2953355470027
489.4285232412284
498.6812720920766
465.2165273784301
473.4200315378746
490.3299371240122
498.6953513493844
459.4908792149023
476.2521132408054
491.3814138178109
498.7845591986237
517.693313270152
499.1118588509441
497.0799310588575
499.4042921678767
525.7820156178492
503.4825287130609
497.2757205999613
499.1945442344015
533.7893732775767
504.2979736710398
497.6632937371127
499.2218245986543
539.0037568766346
504.330603277613
498.9656780939879
500.3920781113168
507.7662460658576
503.2605456634655
486.8407918968502
410.5873742003731
505.1678344025361
502.4041675968538
493.0448772717943
477.9673119005316
503.3580318442366
500.8740911826222
495.7410625821728
517.273323291981
502.2889287453128
500.2277661253075
500.4133834759352
530.1861525295711
399.8378388763593
477.6945787384919
504.5828352746601
511.5852182025274
425.1144128392466
477.9418023892441
506.0166012896594
515.7591831834312
459.8377697675899
491.9722933509643
511.2767588527909
520.5867178226199
495.5339196306477
508.4984265671173
520.4491551057185
526.7465703055359
541.2806532529758
563.597614679122
579.7617369272701
597.154671569039
539.822656524224
552.0532461142152
562.8302879237822
582.2098228494906
535.826587520532
540.3192106486795
544.513136396546
560.5786520102083
530.630085033574
529.8338158223992
525.3144273239175
530.4078538478963
606.6456196059014
594.261225414194
569.0799070879248
532.0771315243439
614.5034779544998
605.285427007938
566.9844760139948
521.1495924046924
621.8178007486661
607.4541062296324
554.9847138299627
512.1577868009239
628.3209457791052
604.8006480998184
539.802862527333
506.4827847869244
502.3948866745434
506.0657395388611
539.6699782471525
637.4045815659623
501.5146299121988
508.5874695355736
556.2929122581669
635.1856875095774
501.8904971864134
514.4367272776469
576.5988259065894
636.1930714099556
503.3225505685346
524.8579324881371
594.7383011523106
633.4399994944669
502.4440524360724
502.6023469880068
503.0549885043536
503.0943199408865
504.7795199421714
503.9285740148654
504.3855660437383
504.7590286955518
523.8899856945836
510.431663336717
508.0399374575386
508.8783612523837
620.3317535104862
571.2977547593902
519.1914301864834
508.9395955981176
502.8864706998974
504.8997518628441
509.7489748894002
509.5134183183729
502.5349905827521
504.9496373444438
510.9864031971921
510.2808703978426
502.0494293870718
504.7481472970294
512.1686939825477
511.0326801728306
501.5571017221043
504.3920288047192
513.0671346457282
512.221839225612
500.1411058812631
501.1769817322966
511.0465542222649
522.8397943569573
500.3405131345266
502.0598697893383
512.6631286353179
517.6387628087175
500.6411116686695
503.0077158270445
513.5769584984798
515.4441260686679
501.063694214947
503.7658754613853
513.7066728622993
513.9697784716165
533.1633673753538
507.2298609864559
500.4219058870269
500.0397664743418
534.3914853008614
505.2854999407216
500.2004541824757
500.0128200400827
533.8970918501717
503.6979301192672
500.0985391227847
500.0033838710659
531.2558850175907
502.4152510904744
500.0227864542388
500.0004089797596
529.027692998827
500.9605332291954
500.0023560251435
500.000163682267
526.3727902964212
500.7185309367732
500.0016141290135
500.0000101596682
521.1112435434052
500.434615921646
500.0002568986336
500.0000000748641
514.9166438649345
500.2633037448981
500.0000671204385
499.999999901189
500.0000000001753
500.0000002921706
500.0240492907387
503.3402185244273
500.0000000005271
500.0000008560802
500.0298536919728
504.8863900208173
500.0000000018922
500.0000033353427
500.0553246799909
506.7147673295311
500.0000000219066
500.0000146102128
500.1147323288918
509.4273527942978
506.2244165355131
508.926586707785
513.2475839894292
521.8935788417454
508.9265867082774
512.3852277220273
518.7536797028594
531.3298994503355
513.2475839896967
518.7536797029491
528.878476101464
544.0747009302852
521.8935788418191
531.3298994501845
544.0747009308034
560.2577191610333
577.240291011215
564.2342759870537
557.3525371887217
544.9477492199654
575.4546409038942
571.5440637153123
570.3297803530219
564.6269873807325
575.3911593770221
574.3206265072017
573.7600836806949
572.0557978016003
571.9790518418037
571.5440680748427
571.6829208798925
570.9785131461082
567.897817853051
565.5530306091372
560.4609539400697
553.2867470018981
567.5573179264496
565.1527448196547
560.2392592766449
553.9646870335403
567.5737382091895
564.992095582515
559.982282220374
554.5586293103279
567.6361116996891
564.7354358025491
560.1857802290283
550.9725651220751
512.3819210154555
492.8106089749456
489.9510233398487
490.4513284160603
501.8271314977731
488.7090849297117
489.9717094433946
491.0979583946385
491.5804951321623
488.8784400491837
491.5606488710507
492.8386512275515
469.9270753905379
484.1241513433617
489.9026777717252
491.6000125608792
490.7944111234042
491.8119232665413
493.3340017238727
494.8480535734996
491.0054010569844
491.4824678374575
492.8641234688965
494.8627826615747
492.3181042125924
492.3403929734156
493.2688493870773
494.7372654779884
491.2499858637892
491.4212841768796
492.7272846790903
494.8419073529938
505.0162495505849
567.6573402453843
639.3435943264649
664.5368517119396
510.9326525057306
581.1450626619376
641.9938460788055
660.2436686315671
516.4097264762974
589.4773561186078
641.9639597680404
660.9429851903703
520.2169626023285
597.746696573441
642.1712791462205
661.3548116284354
694.2996726280544
681.448259056949
670.1474580253276
656.8832702422401
702.7497143304463
690.0099611369229
676.903870737995
662.5573383884929
708.7278973858927
697.4752731393628
683.0191831562447
668.0468866916007
706.6514768324815
701.2971971638781
687.196981928284
671.8398438022115
643.6273497908568
633.0361203089996
623.2225619732366
618.9687000848563
648.7276431555159
637.1233809933366
625.9554227257122
621.067873346222
653.8898905885372
640.6343599115324
629.5140443767585
623.1786157806055
658.307344682746
643.7029759288716
633.003474604253
625.6002454719518
615.0672279561555
607.6471876010289
590.9817886727345
565.0089761862411
616.8438261306345
609.2346782825186
593.7798278535926
592.6517182124197
617.8374601886419
610.1530288228362
602.7699919659771
620.4163322785955
619.731951464024
614.0031955615618
616.348745834573
603.9814584255402
522.5302538945322
460.2004669537556
422.6106138661704
426.2581193279843
512.0692229883605
421.9812566097408
305.5020966951462
252.933281800104
468.7331058692462
368.099224735523
252.1735533261587
231.8557691410289
368.0088234073147
282.587597556828
227.8297641468937
239.5952530269425
375.9133805207441
403.9678506851374
471.1014406094234
522.9339386668621
306.4848927064685
380.3806475249398
441.8254630188947
491.7058169705852
291.6757495200741
350.9105328885702
404.3962373218714
445.1195140409178
298.9413388353472
351.4306795837913
402.1107497847034
431.1346602370515
487.0558207745215
510.3415690010041
509.2689563775133
509.6738021128591
435.7699245117388
473.9291801087119
492.6666521233897
510.5549031161048
407.3466366177581
432.9137302330166
470.5501312067273
514.1652744502244
392.4868537253667
408.2753461044049
445.0626180100572
512.9431053805374
491.8158430285412
470.6060036473738
459.386629995051
459.6913894021984
495.1681557299672
486.013028891696
482.0125565330686
475.8920191341556
504.2290048426227
507.4054192170435
501.610248484911
488.6196541014432
503.5910545838088
508.6057246885787
498.7243206057196
484.0940644553908
465.9354622216235
450.632843725453
442.2430884328084
439.9019317010875
471.5333515298731
455.693409564757
444.4241872684102
441.0609507114181
469.7965386534325
461.3020990459814
452.6230648862189
449.0068522809572
462.7940558620703
460.2252453578312
455.4921945398443
452.3569557434853
439.901931701052
441.0609507113923
449.0068522809727
452.3569557435779
442.2430884326363
444.4241872682467
452.6230648862147
455.492194540104
450.6328437251665
455.6934095644951
461.3020990459157
460.2252453580199
465.9354622212349
471.533351529664
469.796538653381
462.7940558622051
459.6913894023523
459.3866299950943
470.6060036476949
491.8158430288058
475.89201913418
482.0125565331628
486.013028891947
495.1681557302092
488.619654101326
501.6102484848631
507.4054192170466
504.2290048426864
484.0940644551845
498.7243206056285
508.6057246885395
503.5910545837763
512.943105380627
445.0626180104865
408.2753461050169
392.4868537259745
514.1652744503316
470.5501312071324
432.9137302336074
407.3466366184253
510.5549031162778
492.6666521236863
473.9291801092553
435.7699245126275
509.6738021129968
509.2689563777074
510.3415690014133
487.0558207752772
522.933938666702
471.101440609339
403.967850683662
375.9133805294602
491.7058169705811
441.8254630191248
380.3806475242576
306.4848927066503
445.1195140412138
404.3962373224057
350.9105328884016
291.6757495198274
431.13466023744
402.1107497852955
351.4306795840989
298.9413388351451
426.2581193493575
422.6106138680568
460.2004669538839
522.5302538951477
252.9332818030787
305.5020966952131
421.9812566097624
512.0692229884486
231.8557691410699
252.1735533258571
368.0992247359633
468.7331058696421
239.5952530271463
227.8297641464595
282.5875975574298
368.0088234076663
565.0089761865981
590.9817886731319
607.647187601527
615.0672279565656
592.6517182127909
593.7798278537257
609.2346782827794
616.8438261309846
620.4163322787963
602.7699919659922
610.153028822829
617.8374601888679
603.9814584259776
616.3487458345128
614.0031955614378
619.7319514642651
618.9687000853982
623.2225619736387
633.0361203089453
643.6273497907021
621.0678733467091
625.9554227258266
637.1233809929785
648.7276431551328
623.1786157808601
629.5140443769008
640.634359911176
653.8898905883203
625.6002454722795
633.0034746044647
643.7029759287865
658.3073446823302
656.8832702419641
670.1474580250635
681.448259056642
694.2996726279312
662.5573383881315
676.9038707379456
690.0099611366844
702.7497143302378
668.0468866913834
683.0191831559542
697.4752731388645
708.7278973857609
671.8398438019932
687.1969819280907
701.2971971635405
706.651476832243
664.5368517119323
639.3435943262105
567.6573402453439
505.0162495510467
660.2436686314272
641.9938460785189
581.1450626618376
510.9326525062891
660.9429851901356
641.9639597677079
589.4773561184052
516.4097264768716
661.3548116282923
642.1712791458833
597.7466965732217
520.2169626028953
494.8480535741523
493.3340017238385
491.8119232658094
490.7944111230605
494.8627826622247
492.8641234687177
491.4824678364914
491.005401056576
494.7372654786339
493.2688493866964
492.3403929724278
492.3181042120508
494.8419073536244
492.7272846787179
491.4212841758241
491.2499858631716
490.4513284152776
489.9510233392258
492.8106089753182
512.3819210158218
491.0979583938927
489.9717094425498
488.7090849302349
501.8271314980623
492.8386512267803
491.5606488700759
488.8784400496348
491.5804951323772
491.60001256008
489.9026777705598
484.1241513437383
469.9270753907511
553.2867470021185
560.4609539403629
565.5530306097171
567.8978178529342
553.9646870336092
560.2392592768606
565.1527448201629
567.557317926324
554.5586293102987
559.9822822205132
564.9920955828565
567.5737382088955
550.9725651220447
560.1857802290785
564.7354358027842
567.6361116994565
570.9785131451897
572.0557978004693
564.6269873798695
544.947749220088
571.6829208788965
573.7600836792676
570.3297803513766
557.3525371881865
571.5440680737589
574.3206265054968
571.544063712565
564.2342759851157
571.9790518408802
575.3911593751541
575.4546409004587
577.2402910075658
505.1239425480425
497.2510014912513
496.814043789544
499.4846110378722
485.4175780408539
492.0341718485518
495.3933894932005
499.3457961382663
470.3736755027253
486.3981861307557
493.9802139738492
499.1484768796041
460.1356461793425
480.4295179832711
492.4972334828485
498.9416195888962
498.6814688221609
488.9396551292981
469.4038825783845
479.7620186056469
498.6812720917114
489.4285232413852
471.2953355469506
474.2429374450797
498.69535134941
490.3299371244081
473.4200315376607
465.2165273787246
498.7845591987394
491.3814138179927
476.2521132406315
459.4908792150246
498.9416195887965
499.1484768794397
499.3457961386148
499.4846110380249
492.4972334826061
493.9802139736519
495.3933894929025
496.8140437897138
480.4295179833699
486.3981861310675
492.034171849094
497.2510014916408
460.1356461791628
470.3736755024761
485.417578040863
505.1239425481709
)
;

boundaryField
{
    back
    {
        type            empty;
    }
    inlet
    {
        type            zeroGradient;
    }
    front
    {
        type            empty;
    }
    top
    {
        type            zeroGradient;
    }
    outlet
    {
        type            fixedValue;
        value           uniform 500;
    }
    bottom
    {
        type            zeroGradient;
    }
    wall
    {
        type            zeroGradient;
    }
}


// ************************************************************************* //
