/*--------------------------------*- C++ -*----------------------------------*\
  =========                 |
  \\      /  F ield         | OpenFOAM: The Open Source CFD Toolbox
   \\    /   O peration     | Website:  https://openfoam.org
    \\  /    A nd           | Version:  11
     \\/     M anipulation  |
\*---------------------------------------------------------------------------*/
FoamFile
{
    format      ascii;
    class       volVectorField;
    location    "0.1165";
    object      U;
}
// * * * * * * * * * * * * * * * * * * * * * * * * * * * * * * * * * * * * * //

dimensions      [0 1 -1 0 0 0 0];

internalField   nonuniform List<vector> 
880
(
(25 -7.768126373978579e-16 0)
(25 1.282135074080331e-16 0)
(25.00000000000002 -1.193752161554488e-11 0)
(24.99999490031255 -9.065449879308655e-06 0)
(25 1.210301178234613e-15 0)
(25 -2.576598680909502e-15 0)
(25.00000000011925 -1.71399767161582e-10 0)
(24.99988516808012 -0.0002917382895110014 0)
(25 0 0)
(25.00000000000001 2.535613030115412e-15 0)
(25.00000000192697 -2.59685967193579e-09 0)
(25.00000041180312 -0.0006686629559197054 0)
(25 0 0)
(25 -1.641563820136911e-15 0)
(25.00000006701039 -4.191526016399662e-08 0)
(24.99861040990651 -0.006261089956885066 0)
(25 -5.105057788631764e-16 0)
(25 -1.613899454230934e-15 0)
(25.00000000000001 -4.406192287059755e-12 0)
(24.99999999950603 1.46837989913725e-09 0)
(25 -6.710555260960774e-15 0)
(25 1.04065357638537e-14 0)
(25.00000000000003 4.253839415928415e-13 0)
(25 -2.482226657500625e-12 0)
(25.00000456571395 -3.621454887759812e-06 0)
(24.99998178441968 1.524513930049899e-05 0)
(25.00065242542681 0.005610129267115085 0)
(25.00175881506238 -0.01170123775301061 0)
(24.86452882331403 0.05026514371719248 0)
(24.53324814421616 0.3292808859933415 0)
(24.36035378353185 0.6933128731501131 0)
(24.31899325631862 0.9366263397749124 0)
(24.99999962345301 -8.809456033594273e-07 0)
(24.9999988730459 -1.591874946248739e-06 0)
(24.99999270858565 -8.102214807620972e-06 0)
(24.99999500864326 -3.18184594988455e-06 0)
(24.99997993287165 7.880553113985917e-06 0)
(24.99995605079397 5.022720854509222e-05 0)
(24.99996802968293 0.000154018277596437 0)
(24.99996987574544 9.942892268849763e-05 0)
(24.98784471346218 0.006825347423794631 0)
(24.98527373694474 0.01954233579721026 0)
(24.98818176392798 0.03513783903751019 0)
(24.98561636848382 0.03404227432401277 0)
(24.32025906565718 1.156098416516362 0)
(24.26557484161476 1.453501434899657 0)
(24.39506918134838 1.585861277221376 0)
(24.23972450703879 1.869258234442123 0)
(24.66287587221585 2.056501615845482 0)
(25.07515485729244 1.927644832673082 0)
(25.41020434342872 1.528257799192952 0)
(25.5670115305043 1.016088464111566 0)
(24.97862991056775 0.06104313224258576 0)
(24.93933039203117 0.1193658621747273 0)
(24.98967532662346 0.1749487237893943 0)
(25.02615306060432 0.1608645422468508 0)
(24.99990079882329 0.0003013862496873843 0)
(24.99953384781221 0.0008267515203016459 0)
(24.99941982105592 0.001892253445385873 0)
(24.99996491648862 0.002183448549681683 0)
(24.99998770570133 -1.078061566465064e-05 0)
(24.9999719057827 -2.738948749927641e-05 0)
(24.99993377650812 -5.794388906193332e-05 0)
(24.99991617160565 -6.282811333539694e-05 0)
(24.99992265066381 -5.005840001325763e-05 0)
(24.99995257384598 -2.499414973621791e-05 0)
(24.99998495665216 -6.86502248365393e-06 0)
(24.99999792934235 -8.614327100969825e-07 0)
(25.00029524479582 0.001918368619815777 0)
(25.00043525892925 0.001166679260123624 0)
(25.00022685021657 0.0003802503902627058 0)
(25.00004189464489 5.293533659806761e-05 0)
(25.04523348588713 0.1275651399347251 0)
(25.04466489923421 0.08087340829324102 0)
(25.02593633526122 0.03608364742840214 0)
(25.0083170694503 0.00895070806913411 0)
(25.54436898940974 0.6294831287763558 0)
(25.44250453256863 0.3921016295703946 0)
(25.31302724631555 0.237740972797094 0)
(25.17619122658617 0.1188747119188809 0)
(25.06510572527524 0.03823338031017703 0)
(25.00118846462346 0.001110438566253438 0)
(25.00000248996693 2.920891918352048e-06 0)
(24.99999989957838 -3.877133353904364e-08 0)
(25.01165405097041 0.007366149201697926 0)
(25.00008195772603 0.0001018950007911425 0)
(25.00000016337146 3.054519757887065e-07 0)
(24.99999999109129 -3.042264648650173e-09 0)
(25.00091141237526 -0.0003830940535856642 0)
(25.00001926207191 -4.971935236103303e-05 0)
(25.00000033010395 -1.562711686123894e-06 0)
(24.99999995623479 -2.250906516282825e-09 0)
(24.75449827229253 0.2218629606911367 0)
(24.99898927767054 0.001777898219475607 0)
(25.00003088489901 -1.227755910774244e-05 0)
(25.00000458767482 -3.105226460309497e-06 0)
(25.00000009253356 -5.259995437955508e-06 0)
(25.00001306836131 -3.858510610042816e-05 0)
(24.98937762821932 0.003509336779445455 0)
(22.73449426523184 0.8380782622068953 0)
(24.99999817420154 -2.713106489238431e-06 0)
(24.9998877437109 3.0442315247282e-05 0)
(24.94718591910758 0.02609458814197925 0)
(21.33041816857325 2.079334811678436 0)
(24.9999923433034 -1.466948349556813e-05 0)
(24.99957863120794 0.0003223158380083726 0)
(24.88566599039835 0.08477760130334511 0)
(20.53538243499379 3.478363928379934 0)
(24.9999536607682 -4.187706803059124e-05 0)
(24.99951281459889 0.0009698287663457953 0)
(24.84575824200333 0.1610503764316356 0)
(20.28180268554193 4.746058556323321 0)
(20.10353993492032 5.950298532383003 0)
(24.7905908805394 0.2766732590849086 0)
(24.99902438812964 0.001582720737571916 0)
(24.99994322770482 -6.810679161334108e-05 0)
(20.27729143835203 6.574872884995028 0)
(24.77596613293247 0.3768906745400159 0)
(24.99920449224836 0.003033039891212243 0)
(24.99986718568575 -0.0001195655356198731 0)
(20.21646310689773 7.183983669924817 0)
(24.71366399949658 0.4756230142559786 0)
(24.99839383497389 0.003267411990510945 0)
(24.99986804318771 -0.0001392096870166024 0)
(20.21303943186168 7.498760164223134 0)
(24.65554683926306 0.6106917183643934 0)
(24.99825927693223 0.005853256342935429 0)
(24.99974112080238 -0.0002351912622244492 0)
(24.99970125960696 -0.000288391739205977 0)
(24.99759166162194 0.006459617421090087 0)
(24.55916428629715 0.7364407525389037 0)
(19.72561293036202 8.034401657315046 0)
(24.99958150676716 -0.0004294710671731982 0)
(24.99557102764069 0.01033220895097966 0)
(24.4385528409204 0.9835746523611472 0)
(20.01198367770605 8.327110183801359 0)
(24.99947534994741 -0.0008097729420081473 0)
(24.99597871230825 0.01472643967999678 0)
(24.52028146630964 1.040978251628013 0)
(20.93323158170736 7.837126010960804 0)
(24.99951687811991 -0.0001178839784818595 0)
(24.99331657281195 0.007008022779803336 0)
(24.61753653744803 0.7220323118431006 0)
(22.80735144108293 6.325359716187157 0)
(24.99877001620624 -0.000704049427021461 0)
(25.00422310397385 0.03614906343710347 0)
(25.19471207701205 0.8930095631607591 0)
(26.02153699017045 3.952793003563184 0)
(24.99762187474026 -0.0003029617502253732 0)
(25.03437240578929 0.03152671606704672 0)
(25.43061508695846 0.3579927193042075 0)
(27.77159198484506 1.388039922605014 0)
(24.99991584457116 -5.310047148576936e-05 0)
(25.02226575601733 0.003917703302174978 0)
(25.30711459289167 -0.1095142400469309 0)
(26.56362621796979 -1.393081262175923 0)
(24.9999767657004 -0.0002496469739511704 0)
(24.99754611206142 -0.01386695606368586 0)
(24.86896353540409 -0.4321877454260232 0)
(23.11599487545949 -3.077064776943557 0)
(20.51503933930945 -3.472025603851124 0)
(24.61424899532635 -0.485847441580964 0)
(24.9910586367489 -0.01604951614174084 0)
(24.99992899699934 -0.0001220123813302136 0)
(19.09691421285054 -3.287946624421158 0)
(24.44178295464413 -0.4704301265852696 0)
(24.98557356317603 -0.01546064094901854 0)
(24.99992107855265 -9.757900843575583e-05 0)
(18.70842147788744 -2.126942359923778 0)
(24.38978942778558 -0.3495904932274126 0)
(24.98962187060033 -0.008945005652268807 0)
(24.99997932039591 -3.847093825129436e-05 0)
(17.62339584359861 -1.116089339222445 0)
(24.28668605030264 -0.2930286068642434 0)
(24.98852597865889 -0.008453717702322333 0)
(24.99997185058411 -3.804506598811846e-05 0)
(19.13675635707681 0.1474929337478614 0)
(24.54867705283909 -0.1255101038831344 0)
(24.99511077646737 -0.002893682297174672 0)
(24.99998858172953 -1.207269291452751e-05 0)
(21.13761469524249 0.7514468200314626 0)
(24.7907918844054 -0.06051194162201302 0)
(24.99864621232203 -0.0008535755675451428 0)
(24.99999725539197 -2.84931182061668e-06 0)
(22.74343293871836 0.6760676709750681 0)
(24.91332356284379 -0.03305636272468126 0)
(24.99963169372033 -0.0002946607791175422 0)
(24.9999994300143 -8.701010656309635e-07 0)
(23.97227810034948 0.4578403585487221 0)
(24.98325432190565 -0.03166317822454612 0)
(25.00002146006968 -0.0002025552859182503 0)
(24.99999990974904 -5.807939825785878e-07 0)
(23.47955705320008 -0.1107269598592034 0)
(24.90335036588825 -0.00286143766472372 0)
(24.99799160335999 -2.336400997543346e-05 0)
(24.99998507085015 -7.15552259827456e-08 0)
(23.56687394469911 -0.3685504366268895 0)
(24.9069002317112 -0.007988946909962122 0)
(24.99801392082085 -5.770233862091475e-05 0)
(24.99998511808183 -1.659589071003491e-07 0)
(23.52626622738849 -0.696221331413328 0)
(24.90467425769654 -0.01790700184105683 0)
(24.99797635980358 -0.0001139107520427117 0)
(24.99998495093065 -3.180782174931905e-07 0)
(23.50029611212123 -0.7261211165134455 0)
(24.90932420624705 -0.02731080168975249 0)
(24.99792447217148 -0.0002802405955419888 0)
(24.99998473930466 -1.177014366759934e-06 0)
(23.97227810044714 -0.457840358606489 0)
(24.98325432196387 0.03166317824373069 0)
(25.00002146017596 0.0002025553483193318 0)
(24.99999990959787 5.809867682945366e-07 0)
(22.74343293876646 -0.6760676708465546 0)
(24.91332356293074 0.03305636273135941 0)
(24.99963169393727 0.0002946608459794231 0)
(24.99999942998815 8.700367572349818e-07 0)
(21.13761469520317 -0.7514468198412293 0)
(24.79079188434179 0.06051194179085047 0)
(24.9986462123082 0.0008535757049784328 0)
(24.99999725538322 2.849307157972588e-06 0)
(19.13675635696307 -0.1474929338603844 0)
(24.54867705264771 0.125510103798543 0)
(24.99511077642716 0.002893682242006515 0)
(24.99998858178783 1.207267873349328e-05 0)
(24.99992899677352 0.0001220123046819795 0)
(24.99105863654813 0.0160495160638603 0)
(24.61424899527684 0.4858474414733385 0)
(20.51503933927702 3.472025603778894 0)
(24.99992107834952 9.757914724073983e-05 0)
(24.98557356305088 0.01546064104753117 0)
(24.44178295462701 0.4704301265235992 0)
(19.09691421284353 3.287946624263386 0)
(24.99997932052084 3.847095509817149e-05 0)
(24.9896218704616 0.008945005591623287 0)
(24.38978942774865 0.3495904932379826 0)
(18.70842147779215 2.126942359832281 0)
(24.99997185059315 3.804503397693582e-05 0)
(24.98852597859715 0.008453717739724982 0)
(24.28668605011369 0.2930286067261006 0)
(17.62339584359148 1.116089339353384 0)
(23.11599487556386 3.077064777054789 0)
(24.86896353552456 0.4321877454463611 0)
(24.99754611231847 0.01386695577174312 0)
(24.99997676586283 0.000249646831519043 0)
(26.56362621812668 1.393081262303596 0)
(25.30711459303435 0.109514240062317 0)
(25.02226575619822 -0.003917703126964918 0)
(24.99991584488178 5.310037722452801e-05 0)
(27.77159198484703 -1.388039922626609 0)
(25.43061508711363 -0.3579927192581194 0)
(25.03437240579411 -0.0315267160436439 0)
(24.99762187486655 0.0003029621443732096 0)
(26.0215369901454 -3.952793003569365 0)
(25.19471207708181 -0.8930095631967322 0)
(25.00422310406888 -0.03614906327292332 0)
(24.99877001583864 0.0007040493785658705 0)
(24.99970125968787 0.0002883917482386312 0)
(24.99759166156547 -0.006459617494988097 0)
(24.55916428629181 -0.7364407524261352 0)
(19.72561293025309 -8.034401657233193 0)
(24.99958150676511 0.0004294710364712554 0)
(24.99557102745352 -0.01033220904490016 0)
(24.43855284084745 -0.983574652334804 0)
(20.01198367770098 -8.327110183772461 0)
(24.99947534969639 0.0008097729025013506 0)
(24.99597871228447 -0.01472643960772532 0)
(24.5202814664005 -1.040978251560152 0)
(20.93323158171518 -7.837126010950503 0)
(24.99951687802156 0.0001178839170540926 0)
(24.99331657279014 -0.007008022656097977 0)
(24.61753653751132 -0.7220323117725496 0)
(22.80735144109902 -6.325359716197471 0)
(20.21303943161634 -7.498760164219653 0)
(24.65554683916848 -0.6106917183502187 0)
(24.99825927655563 -0.005853256465215239 0)
(24.99974112079765 0.0002351913036215015 0)
(20.21646310666978 -7.183983669906719 0)
(24.7136639990812 -0.4756230143501928 0)
(24.99839383496268 -0.0032674120010982 0)
(24.99986804313359 0.0001392096820850242 0)
(20.27729143835628 -6.574872885030466 0)
(24.77596613296393 -0.3768906744486328 0)
(24.99920449212084 -0.003033039985103846 0)
(24.99986718576091 0.0001195655301892877 0)
(20.10353993488436 -5.950298532394658 0)
(24.79059088087155 -0.2766732591602095 0)
(24.9990243882391 -0.001582720740647673 0)
(24.99994322775058 6.810679103282232e-05 0)
(25.00000009241363 5.26000989560308e-06 0)
(25.00001306825497 3.858510409333677e-05 0)
(24.98937762830447 -0.00350933671899558 0)
(22.7344942652853 -0.8380782622205495 0)
(24.99999817429163 2.713101276474182e-06 0)
(24.99988774386352 -3.044231385450215e-05 0)
(24.9471859188962 -0.02609458826209431 0)
(21.33041816882095 -2.079334811664367 0)
(24.99999234342854 1.466947920041565e-05 0)
(24.99957863124827 -0.0003223157521850958 0)
(24.88566599036007 -0.08477760110683791 0)
(20.53538243472389 -3.478363928491023 0)
(24.99995366091985 4.187707039193037e-05 0)
(24.99951281438753 -0.0009698288762097098 0)
(24.84575824197936 -0.161050376614829 0)
(20.28180268561605 -4.746058556184663 0)
(25.00000458765946 3.105224177407447e-06 0)
(24.99999995615914 2.25744094531138e-09 0)
(24.99999999108132 3.034586489837822e-09 0)
(24.99999989959389 3.878804897246483e-08 0)
(25.00003088504312 1.227759089342626e-05 0)
(25.00000033007331 1.562685627901773e-06 0)
(25.00000016321984 -3.05444102244556e-07 0)
(25.00000249004261 -2.920848528264106e-06 0)
(24.99898927763066 -0.001777898231135725 0)
(25.00001926203054 4.971937439625418e-05 0)
(25.00008195785243 -0.0001018949705722782 0)
(25.00118846467894 -0.001110438651468339 0)
(24.7544982723071 -0.2218629606445383 0)
(25.00091141240348 0.000383094150652703 0)
(25.01165405087797 -0.007366149307548532 0)
(25.0651057253043 -0.03823338028395115 0)
(24.99999792945905 8.614276878589219e-07 0)
(25.00004189466141 -5.293539474495752e-05 0)
(25.00831706930578 -0.008950708173523387 0)
(25.17619122653252 -0.1188747118580277 0)
(24.99998495672462 6.865006337066318e-06 0)
(25.000226850262 -0.000380250369141796 0)
(25.02593633501084 -0.03608364732672188 0)
(25.31302724630785 -0.2377409727154083 0)
(24.99995257371279 2.49941465370084e-05 0)
(25.00043525894917 -0.001166679266070649 0)
(25.04466489934654 -0.08087340828081739 0)
(25.44250453258599 -0.3921016295786736 0)
(24.99992265063309 5.005845325304314e-05 0)
(25.00029524478936 -0.001918368715034347 0)
(25.04523348578633 -0.1275651399349463 0)
(25.54436898949356 -0.6294831287004616 0)
(24.99998770589463 1.078053735702755e-05 0)
(24.9999007989572 -0.0003013863159359812 0)
(24.97862991037895 -0.06104313248165487 0)
(24.66287587220809 -2.05650161592061 0)
(24.99997190597381 2.738945946810764e-05 0)
(24.99953384785028 -0.0008267514372068441 0)
(24.93933039203866 -0.1193658622090544 0)
(25.07515485738631 -1.927644832741481 0)
(24.99993377658069 5.794391245498264e-05 0)
(24.99941982086706 -0.001892253378533214 0)
(24.98967532669152 -0.1749487237828395 0)
(25.41020434351066 -1.528257799199648 0)
(24.99991617166983 6.282813481159951e-05 0)
(24.99996491634437 -0.002183448608883674 0)
(25.02615306065069 -0.1608645421962102 0)
(25.56701153056822 -1.016088464177531 0)
(24.23972450704316 -1.869258234347432 0)
(24.98561636815517 -0.0340422742790963 0)
(24.99996987586776 -9.942896876227297e-05 0)
(24.99999500873157 3.181775973640725e-06 0)
(24.39506918127688 -1.585861277291162 0)
(24.98818176357801 -0.03513783888688106 0)
(24.99996802972691 -0.0001540183057621693 0)
(24.9999927084832 8.102364351831613e-06 0)
(24.26557484149034 -1.453501434797294 0)
(24.98527373730349 -0.01954233541319799 0)
(24.99995605074963 -5.022722737481011e-05 0)
(24.99999887314421 1.591782548131865e-06 0)
(24.3202590656582 -1.156098416592664 0)
(24.9878447142956 -0.006825347535460635 0)
(24.99997993290729 -7.880501966372854e-06 0)
(24.99999962339929 8.809467353461226e-07 0)
(24.31899325624359 -0.9366263398029765 0)
(25.00175881447211 0.01170123727236926 0)
(25 2.643779128232849e-12 0)
(24.99999999947628 -1.458626456818327e-09 0)
(24.36035378353892 -0.6933128731602091 0)
(25.0006524257895 -0.005610128876181154 0)
(25 -4.431848298543125e-13 0)
(25.00000000000001 4.471616263756677e-12 0)
(24.53324814410429 -0.3292808859271534 0)
(24.99998178447097 -1.524513398768927e-05 0)
(25 -2.013654524977841e-15 0)
(25.00000000000001 1.31032726568408e-15 0)
(24.86452882325982 -0.05026514370493797 0)
(25.00000456575209 3.621453802604564e-06 0)
(25 -2.045950643399943e-15 0)
(25.00000000000002 -7.136417563421114e-15 0)
(25 1.420908939734042e-15 0)
(25 2.370669190924073e-15 0)
(24.99999999999525 1.159373507313406e-11 0)
(24.99999490146057 9.065601214827001e-06 0)
(24.99999999999999 -2.843418720158383e-19 0)
(25 3.55510972586035e-15 0)
(25.00000000011592 1.726423545731077e-10 0)
(24.99988516908402 0.0002917380247527124 0)
(25 -1.366459512028481e-15 0)
(25 -2.936338939497933e-15 0)
(25.0000000019157 2.59244762146536e-09 0)
(25.00000041184096 0.0006686629161722357 0)
(25 -2.571550237194613e-15 0)
(25 -1.310623009388677e-15 0)
(25.0000000670997 4.189240227190274e-08 0)
(24.99861040996816 0.006261090065747075 0)
(24.99998430716862 -8.352152290648883e-10 0)
(24.99989532523253 0.0003012984574067357 0)
(24.99919124248893 0.0009218274334453698 0)
(24.97755122927067 0.001514913260339562 0)
(24.9998953230159 -0.0003013074137899166 0)
(24.99989116522783 -7.23396337894681e-09 0)
(24.99886712156631 -0.001508436844781916 0)
(24.8813096728686 -0.05237790336248513 0)
(24.99919124185394 -0.0009218239084968841 0)
(24.99886711918285 0.001508435973052186 0)
(24.94860975620989 8.739111210244583e-09 0)
(24.23174560774374 -0.1731728383789605 0)
(24.97755122860747 -0.001514915020742044 0)
(24.8813096728098 0.05237789829575208 0)
(24.23174561314671 0.1731728489724405 0)
(21.70706412637594 -3.893563038772665e-09 0)
(19.33271019213912 2.479620852303537 0)
(20.35655549560957 3.132904800477245 0)
(22.84381060762665 2.271999563349755 0)
(24.11585583450591 1.046585147441177 0)
(19.83436141112829 4.477278301987965 0)
(20.09344505723131 4.623228969555437 0)
(21.15233889087761 4.407093834135109 0)
(22.39570945906292 3.613119327846287 0)
(20.37203988416956 5.538094167194835 0)
(20.98208619809676 4.899777949301707 0)
(21.69224748608092 5.074510090762542 0)
(22.56541030228481 4.793585361874971 0)
(21.02171726738267 6.062252018497494 0)
(21.64192478474052 5.21209425971374 0)
(22.23801109282391 5.345282468284643 0)
(22.8760863868416 5.126781862013874 0)
(23.06232816282202 5.159410625499651 0)
(23.14173937980352 5.357419882585894 0)
(23.29166954302506 5.465478202720057 0)
(23.24566942614859 5.765217825164028 0)
(22.77041964750104 5.409021298237901 0)
(23.03982632211463 5.521280934422806 0)
(23.19928873187396 5.590321806558196 0)
(23.66562861717871 6.047964767620581 0)
(22.34963144564927 5.418562752594534 0)
(22.87022283767535 5.577624246109202 0)
(23.0550750918073 5.668289004379251 0)
(25.15580421371209 6.447899973900011 0)
(20.95797355804885 5.916600175077492 0)
(21.32548608926403 5.65309419580587 0)
(21.59239174952902 5.50222379566596 0)
(26.99275938223373 7.589844824692785 0)
(25.27482865872594 4.247385994677005 0)
(27.298925192903 1.621696975696559 0)
(26.80231996100444 0.4220182716017167 0)
(26.22152945948853 0.167771512601037 0)
(26.73939479827744 3.397246270684648 0)
(28.59513952959568 0.6284036688270002 0)
(27.70902323178952 -0.0263533654770966 0)
(26.92703829601755 0.08292010716710004 0)
(29.59042928798864 2.683906053477203 0)
(29.99727680708146 0.03097308444680797 0)
(28.34516487599156 -0.1372789386909973 0)
(27.21932042221891 -0.07164537411357942 0)
(21.53608826777455 1.911658787381854 0)
(22.13888912129888 0.4575971492106157 0)
(22.05960238752691 0.1149824412766041 0)
(22.35275194452016 0.01738979125851658 0)
(25.85528492901896 0.0941029191015776 0)
(25.59737884574943 0.09696877352230532 0)
(25.47042285469836 0.05110813426646668 0)
(25.36619637536785 0.04702768259145707 0)
(26.34528501215994 0.07892737591916307 0)
(25.93263728176903 0.06762071991599856 0)
(25.6925320932212 0.03208928136422815 0)
(25.51787394514619 0.01132576381734456 0)
(26.59665792549697 -0.1046053887665258 0)
(26.17840249267483 -0.0908656093672443 0)
(25.88257741099872 -0.04610392603083015 0)
(25.64906025817659 -0.03884564346260623 0)
(23.02710942379055 -0.3008716540738128 0)
(23.80163970547331 -0.4674476844633182 0)
(24.44924717237667 -0.3735020902944033 0)
(24.70968624483683 -0.2775127547313143 0)
(25.19109043426466 0.05277454730773741 0)
(25.05793417340637 0.02401555517942265 0)
(25.00734345367925 0.001832984032474746 0)
(22.51371057212843 2.708131520304519 0)
(25.29082794269818 0.01494660096027987 0)
(25.10040885613128 0.01558482972640971 0)
(25.01540663864192 -0.001353136143217412 0)
(20.18441271934572 3.144414079643649 0)
(25.38618357357275 -0.0323390403015474 0)
(25.14733308049691 -0.01522186512029164 0)
(25.02416836967862 -0.0134236142593295 0)
(17.77485972857746 2.207393496880095 0)
(24.84053292651015 -0.2025245625756791 0)
(24.94075274591781 -0.08249320609260256 0)
(24.97055121248473 -0.005693166848580336 0)
(13.08844082963983 0.6811129058416718 0)
(15.35613413551532 7.662899301222949 0)
(15.58282803980548 7.963837336405104 0)
(15.76694975773548 8.944487656829001 0)
(16.19077186494519 9.928791918163524 0)
(13.00272345849038 7.87932841030446 0)
(14.59808689280563 8.2338947020984 0)
(15.43284744141845 9.274022904136354 0)
(16.04152347161225 10.09018556124999 0)
(10.56622572836709 6.802877811099664 0)
(12.88197577295148 7.965139698194695 0)
(14.58140074829747 9.32490182714303 0)
(15.67119895948526 10.08379014276083 0)
(7.730672155432583 2.919580716724286 0)
(10.68809990449282 4.69543006277891 0)
(12.36169517116796 7.068704860238469 0)
(13.672037928047 9.112902388495327 0)
(16.35652450871488 10.76815970753114 0)
(16.58877881681143 11.07998263439577 0)
(16.74369193694353 11.36161778057389 0)
(16.91051402704533 11.39128956228385 0)
(16.31321012003781 10.72547374484995 0)
(16.55549505991077 10.94691360966099 0)
(16.76230363909381 11.19058436980361 0)
(16.96835241247329 11.23772189707048 0)
(16.14571705936795 10.61486428853179 0)
(16.40761673836457 10.87375151509527 0)
(16.67137583183376 11.12628441272617 0)
(16.88029650712293 11.21472654945918 0)
(14.65895503489406 10.22392695986101 0)
(15.11517502913192 10.7469454807094 0)
(15.55226238511996 10.79464805620806 0)
(15.7233593877443 10.80151507019277 0)
(16.9853517983721 11.42925233066781 0)
(17.5189472712551 11.35656107423741 0)
(18.75609762318222 10.83720400520701 0)
(21.07287289529368 9.732202036135515 0)
(17.06129611348461 11.26554666801128 0)
(17.54776631385187 11.20567633543249 0)
(18.80632892514086 10.90494824655725 0)
(22.00494172573387 11.46594929520968 0)
(16.9804236541016 11.27789585701835 0)
(17.33544053166826 11.22454454151725 0)
(19.13571090038854 11.4257987686538 0)
(27.08737596223571 16.73135066871833 0)
(16.13786320511434 10.91603821704132 0)
(16.71610496915741 10.75129124526466 0)
(19.37952616140388 11.76392059085244 0)
(37.13004635422498 22.10956817428774 0)
(26.04838972071401 5.284936712825963 0)
(29.32638237514454 -2.26971077498411 0)
(8.309386406279826 -4.989528240516966 0)
(5.2206528055776 -1.25296759220778 0)
(27.25950997911144 4.580342989560175 0)
(24.39492925392656 -1.976989068317876 0)
(4.218963227583325 -5.451880676707171 0)
(2.298379750036963 -0.6577755447978869 0)
(26.86902846231314 4.046333857421676 0)
(16.57744861636971 -5.17175801343931 0)
(1.844099511112117 -2.705633733356648 0)
(1.255434057379011 -0.1431983238920053 0)
(17.47806695428335 -6.754051217234947 0)
(6.084170339838755 -5.579091620508946 0)
(-0.2962844230630348 -0.4646452859804577 0)
(0.4320964872258045 -0.480125807668539 0)
(2.784891751330111 -0.6737300326067283 0)
(1.262987771865874 -0.5376708270606986 0)
(0.4960619741789217 -0.1839542790788651 0)
(-0.8678458679286181 1.197828501303323 0)
(0.9381869060187953 0.7536591877999995 0)
(-0.2652005635480955 1.129381170905498 0)
(-0.7983090228083261 1.368113914309107 0)
(-0.3638623709678926 2.883547800630175 0)
(0.4823097926881781 0.5061037930474011 0)
(-0.2014144934330178 1.423738485253789 0)
(-0.01708618689695827 2.655291701072658 0)
(-0.5533340565019169 4.715197689308308 0)
(0.267940595113517 0.1476253330336767 0)
(0.2892135772491551 1.335842842774822 0)
(0.03896351943395585 3.662944552153149 0)
(-1.207436559117039 5.222753557197652 0)
(8.682903111567361 -3.914667916666092 0)
(16.11388765467131 -4.638272904572991 0)
(20.45256768266162 -4.648619689468384 0)
(23.19091024024878 -3.678785628247183 0)
(4.464475826876208 -0.8526564033470119 0)
(12.44986886629326 -2.467905942869367 0)
(18.01004250709869 -3.789220471715895 0)
(21.73934916266447 -4.03617792949435 0)
(-0.4898364655989749 -0.9901326244786404 0)
(5.701564180994094 -2.231928916268555 0)
(13.05622647712828 -3.62693326943097 0)
(20.66776211156219 -3.163506467506536 0)
(-2.067364849593527 1.577869471201439 0)
(1.794691594147081 1.334893280618215 0)
(9.442708677300518 1.995984756392891 0)
(23.4731000206444 -1.248741993712597 0)
(24.31473137070325 -7.702057567546452 0)
(24.41288206870456 -13.38564618444655 0)
(26.72730223103336 -22.80560144386274 0)
(23.40483152487484 -20.41250591020469 0)
(22.98654341973574 -9.016591256001918 0)
(23.48290621959083 -14.42661533031001 0)
(22.6785756896967 -21.55824663819593 0)
(17.2122982081553 -11.24284960339143 0)
(22.36557787794276 -9.621461980062151 0)
(22.24159207607907 -17.39342480350789 0)
(14.96793385816256 -16.48287486860094 0)
(8.870715172978375 -0.338431000870714 0)
(15.25024141522095 -13.06641938404811 0)
(11.5681932540014 -14.4242051142909 0)
(2.264520487336433 -1.455675373992511 0)
(0.7536310337647903 5.517090491782328 0)
(-0.4046257252005051 5.975901844824905 0)
(-1.661925663539817 5.703090326226159 0)
(-2.478854149434917 3.988160505219729 0)
(-2.506045616379168 1.328100212091498 0)
(2.335074557460858 3.474933664535184 0)
(-1.126605932615318 4.175185469526391 0)
(-2.872979202425468 2.820673720061046 0)
(-2.766194010870667 0.9738477835726286 0)
(8.309981096862574 -2.549352828254797 0)
(1.43981625489789 -0.9721427613836042 0)
(-2.024394655775693 -0.6991504221461906 0)
(-2.554161380357605 -0.2716552195702687 0)
(17.74803341338039 -9.521331994886568 0)
(10.3034309241122 -5.088521870232534 0)
(5.83505580212312 -3.671199521776164 0)
(4.739707026504241 -1.208454955510826 0)
(-2.50604561637415 -1.328100212089498 0)
(-2.766194010858443 -0.9738477835989366 0)
(-2.554161380357979 0.2716552195188053 0)
(4.739707026446269 1.208454955392904 0)
(-2.478854149419663 -3.98816050521788 0)
(-2.872979202417437 -2.820673720078397 0)
(-2.024394655774986 0.6991504220880314 0)
(5.835055802116528 3.671199521660792 0)
(-1.661925663534183 -5.703090326230724 0)
(-1.126605932615575 -4.175185469513288 0)
(1.43981625490436 0.9721427613511261 0)
(10.30343092411507 5.088521870129872 0)
(-0.4046257252021434 -5.975901844829917 0)
(2.335074557459592 -3.47493366450969 0)
(8.309981096869494 2.549352828239124 0)
(17.74803341339624 9.521331994795466 0)
(23.40483152491496 20.41250591012688 0)
(26.72730223115964 22.8056014438263 0)
(24.41288206882928 13.38564618443583 0)
(24.31473137081496 7.702057567558437 0)
(17.21229820816812 11.24284960335433 0)
(22.67857568968914 21.55824663811034 0)
(23.48290621964608 14.42661533027292 0)
(22.98654341981477 9.016591256005396 0)
(8.870715172984507 0.3384310008551525 0)
(14.96793385816635 16.48287486852788 0)
(22.24159207611112 17.39342480352738 0)
(22.36557787797726 9.621461980053862 0)
(0.7536310337613517 -5.517090491788597 0)
(2.264520487335008 1.455675373957859 0)
(11.56819325398266 14.42420511428832 0)
(15.2502414152335 13.06641938404156 0)
(23.47310002068504 1.248741993706952 0)
(9.442708677295087 -1.995984756407643 0)
(1.794691594126631 -1.334893280646047 0)
(-2.06736484960539 -1.577869471233197 0)
(20.66776211159709 3.163506467504847 0)
(13.05622647711828 3.626933269447902 0)
(5.701564180913739 2.23192891624039 0)
(-0.489836465640491 0.9901326244172751 0)
(21.73934916272012 4.036177929479388 0)
(18.01004250707738 3.789220471765832 0)
(12.44986886619459 2.467905942800706 0)
(4.464475826802592 0.8526564032279004 0)
(23.19091024032525 3.678785628221203 0)
(20.45256768260899 4.648619689564974 0)
(16.11388765457284 4.638272904571958 0)
(8.682903111520847 3.914667916512167 0)
(-0.8678458678539307 -1.197828501272361 0)
(0.4960619741139265 0.1839542791230664 0)
(1.262987771809218 0.5376708269437595 0)
(2.784891751306724 0.673730032459101 0)
(-0.3638623708883 -2.88354780063194 0)
(-0.7983090228505947 -1.368113914239378 0)
(-0.2652005635958634 -1.129381170976306 0)
(0.9381869060342228 -0.7536591879473241 0)
(-0.5533340564535939 -4.715197689274803 0)
(-0.01708618692409886 -2.655291701007334 0)
(-0.2014144934603752 -1.423738485323884 0)
(0.4823097926735387 -0.5061037931683339 0)
(-1.20743655908726 -5.222753557165859 0)
(0.03896351944675963 -3.662944552094415 0)
(0.2892135772221403 -1.335842842845595 0)
(0.2679405950974937 -0.1476253331243995 0)
(5.220652805633887 1.252967592181296 0)
(8.309386406193218 4.989528240553377 0)
(29.32638237514233 2.269710774997178 0)
(26.04838972073513 -5.284936712849145 0)
(2.298379750099953 0.6577755447062841 0)
(4.218963227592344 5.451880676702584 0)
(24.39492925395414 1.976989068266168 0)
(27.25950997919476 -4.580342989598402 0)
(1.255434057393853 0.1431983237636156 0)
(1.844099511103339 2.70563373335437 0)
(16.57744861639885 5.171758013467654 0)
(26.86902846239616 -4.046333857497933 0)
(0.4320964872019545 0.4801258075565586 0)
(-0.2962844230646702 0.4646452859587758 0)
(6.084170339902641 5.579091620547946 0)
(17.47806695436035 6.754051217205449 0)
(21.07287289530569 -9.732202036123654 0)
(18.7560976231467 -10.83720400519976 0)