/*--------------------------------*- C++ -*----------------------------------*\
  =========                 |
  \\      /  F ield         | OpenFOAM: The Open Source CFD Toolbox
   \\    /   O peration     | Website:  https://openfoam.org
    \\  /    A nd           | Version:  11
     \\/     M anipulation  |
\*---------------------------------------------------------------------------*/
FoamFile
{
    format      ascii;
    class       volVectorField;
    location    "0.315";
    object      U;
}
// * * * * * * * * * * * * * * * * * * * * * * * * * * * * * * * * * * * * * //

dimensions      [0 1 -1 0 0 0 0];

internalField   nonuniform List<vector> 
880
(
(25 -8.430050770010555e-14 0)
(24.99999999350458 4.895876176536642e-09 0)
(24.99918017904522 -0.0004448099040653027 0)
(24.80306914409027 0.003304754326995521 0)
(24.99999999999937 -5.3040039443636e-12 0)
(24.99999998562942 -1.783379582726185e-08 0)
(24.99862670721181 -0.001067785835694814 0)
(24.73462616728437 -0.1512231527567259 0)
(24.99999999989552 -6.980793340491319e-11 0)
(24.99999995388304 -9.528355207090383e-08 0)
(24.99702416951162 -0.002400837364564072 0)
(24.63955957881143 -0.2572198287852792 0)
(24.99999999929463 3.843906513578812e-10 0)
(24.99999976778536 -5.003119471121499e-07 0)
(24.99263364476026 -0.004930170468440725 0)
(24.29352103160518 -0.409873136770057 0)
(25.0000000053363 -4.789125489100247e-09 0)
(24.99999998381829 2.043562536799837e-08 0)
(24.9999995334214 -1.868002591516447e-07 0)
(24.99999625856553 2.907441751326357e-06 0)
(24.99999820660238 -2.063891684437514e-06 0)
(24.99997407168971 -1.333297724070474e-05 0)
(24.9998899954371 6.472263726548307e-05 0)
(25.00015166235044 -0.0008090169485119516 0)
(24.97949809114591 -0.007842644161803062 0)
(24.9635161443731 -0.003528103243963963 0)
(24.94282359679167 0.01310587397608698 0)
(24.94064967615625 -0.05399852492012364 0)
(23.58885995875746 -0.1128249037238306 0)
(22.90416993588374 0.5948377103625065 0)
(22.52549831598766 1.264703124855532 0)
(22.47644368001152 1.679002365539346 0)
(24.99992768032616 -3.02717314901242e-05 0)
(24.99981131600351 -0.000280578267837036 0)
(24.99968405246805 -0.0007501490466035164 0)
(24.9985647829055 -0.002969508765398623 0)
(24.99866699056113 -0.0003323637924060467 0)
(24.99323493659973 0.0004505782585690988 0)
(24.98471069569007 0.004730520432657028 0)
(24.9701449230969 0.008084167009359941 0)
(24.80407194237636 -0.004985256668180857 0)
(24.69929352293982 0.08795565619599517 0)
(24.55986880809382 0.2505088804376303 0)
(24.44412289939337 0.3582069172728111 0)
(22.23930371116464 2.253282273650576 0)
(22.23978228827644 2.654144807691016 0)
(22.12754764882675 3.204108141378202 0)
(22.54574790481287 3.59278310625733 0)
(23.55853773692305 4.162370028799389 0)
(24.2323475991088 3.990525186919057 0)
(24.57265581466564 3.583166490345946 0)
(24.84280297184356 3.167662108371701 0)
(24.21826206494156 0.6845550393404202 0)
(24.23066410770227 1.045249068869777 0)
(24.35050805437712 1.259220825570698 0)
(24.50901060018126 1.401291738230384 0)
(24.91230338776202 0.02931784986424156 0)
(24.83957833885496 0.0956315768125645 0)
(24.76956397532001 0.2013996669108527 0)
(24.73428798129902 0.3312782679009968 0)
(24.99251921345143 -0.00698216059424837 0)
(24.98251815472246 -0.01746356726786782 0)
(24.96827334203797 -0.03464010555781811 0)
(24.95259557567495 -0.05695528217045222 0)
(24.93954752373671 -0.08129324230822546 0)
(24.93211869273296 -0.0972515514531939 0)
(24.92782575039698 -0.0956168666603246 0)
(24.92404962088126 -0.08736026320229524 0)
(24.73969413681906 0.4698703957072897 0)
(24.78860058022963 0.587651788551406 0)
(24.87430638632705 0.6676760537947882 0)
(24.97395920738109 0.6920616580112776 0)
(24.68601748146226 1.493400218278961 0)
(24.88470347369938 1.509527455488592 0)
(25.03964925141996 1.454926039485778 0)
(25.18835186426265 1.364357912764157 0)
(25.03934856493831 2.752378166349759 0)
(25.25573928284756 2.359858831810968 0)
(25.32119030880525 1.968426783149018 0)
(25.46168125313819 1.656591901869011 0)
(25.49450093620831 1.265505346270605 0)
(25.33672202368031 1.227337230164895 0)
(25.08141322624779 0.6880023337606032 0)
(24.92137624382494 -0.07537433987508312 0)
(25.26795524175021 1.234350468641088 0)
(25.41713543770194 1.069722072445579 0)
(25.19178639114055 0.6204818830580471 0)
(24.92249028477448 -0.0564314517035078 0)
(22.07296491957834 1.605713400186018 0)
(25.38102101850783 1.015245372391218 0)
(25.25097749764156 0.5427682517960991 0)
(24.92976486354985 -0.04820987509560007 0)
(16.08894327561182 1.804289398565776 0)
(24.44459108577193 1.230943827284194 0)
(25.28803915555758 0.4994585853833771 0)
(24.96295301661966 -0.04567561106796694 0)
(24.92090046894501 -0.03143317987970706 0)
(25.21813204728166 0.4058290389436206 0)
(23.07721979998457 1.69747748685636 0)
(13.59975622548105 3.455118772026393 0)
(24.9156203048865 -0.03928103667617915 0)
(25.05532784399981 0.4138605492153624 0)
(21.91959713664331 2.505044888542744 0)
(13.72469100318473 5.314246580776962 0)
(24.90908533835097 -0.0546023671325952 0)
(24.73212655512859 0.582146938123528 0)
(20.39458705937248 3.668462994466049 0)
(13.50668984759099 6.898704635491362 0)
(24.87596588987757 -0.08980217294846106 0)
(24.22710100855772 1.010939436631289 0)
(19.04601731790603 5.088665246919057 0)
(13.61453908522637 8.214827161336855 0)
(14.12202126480143 9.148808194621541 0)
(17.98206818135457 6.513398145236009 0)
(23.43814322790099 1.82894850027568 0)
(24.79612506617634 -0.1420993175354147 0)
(14.91236766891795 9.780931045688353 0)
(17.74794945721129 7.659295168890819 0)
(22.52704570648256 3.029095352853438 0)
(24.62620455933495 -0.1732936158025264 0)
(15.96199293667091 10.07635764174441 0)
(18.01226206220664 8.635019847274485 0)
(21.78909586876594 4.412218934309218 0)
(24.36073397480783 -0.1120098194051825 0)
(17.12786481984777 10.13643816289821 0)
(19.07506063960565 8.981291282859505 0)
(21.43698843916 5.784269896465327 0)
(24.01456579412606 0.09489614703565581 0)
(23.66847398335183 0.2471400256416168 0)
(22.3773300082608 6.475032997339441 0)
(20.8472857057074 8.855013401808289 0)
(18.64983835324379 10.14514700719362 0)
(23.8971090494015 0.08873949846880677 0)
(23.6032083318894 6.074652137235414 0)
(22.91034253811281 8.412128487703258 0)
(20.71403697207076 9.897938323080771 0)
(24.28891394589575 -0.06227621490418354 0)
(24.94449549268798 5.397044290828149 0)
(25.0918061995884 7.557863897502562 0)
(23.27293552024032 9.189021918264459 0)
(24.51205002950601 -0.4830644787063978 0)
(25.80687327195841 4.277017380228872 0)
(27.00035858896592 6.132608057737478 0)
(26.20531568039945 7.489904718549486 0)
(24.75063567394904 -0.3689570338417677 0)
(26.56559972593802 3.41476190971588 0)
(28.57059205412357 4.670938092002748 0)
(30.37489565721545 4.551126578229305 0)
(25.06176346705667 -0.4130536495770937 0)
(27.03964559871336 2.391202289873762 0)
(29.44030341008918 3.084203074672352 0)
(33.60106543634501 0.5051035197450922 0)
(25.26778127063096 -0.3685861934586218 0)
(26.99326396021037 1.460348407834384 0)
(29.83228314161483 1.091275086914024 0)
(36.66744979985175 -4.44337806883301 0)
(25.35626444971738 -0.3211620555132492 0)
(26.69294612009787 0.8503487555592909 0)
(29.1597481300898 -0.1720691478536343 0)
(34.20725837318531 -6.852639222798436 0)
(28.0618956450905 -3.349859209858471 0)
(28.42700094383819 -1.175020790346847 0)
(26.45803671373223 0.2473257709219883 0)
(25.37604751955843 -0.2939182703116826 0)
(23.96821573938969 -2.034429771588857 0)
(27.8038281252972 -1.865942524900006 0)
(26.15594967631515 -0.114007609747478 0)
(25.32179554555432 -0.2269193547106132 0)
(22.13554925334867 -3.724993768225875 0)
(27.2237090445763 -2.702762381428651 0)
(25.91098675559081 -0.5140667013120149 0)
(25.22548421890197 -0.138269006857785 0)
(18.97790899121617 -3.907525056144104 0)
(26.29466441598808 -3.441422670836259 0)
(25.58467754039693 -0.8602888214062805 0)
(25.13751035983086 -0.1007115316376521 0)
(16.2093724500894 -5.873244772701439 0)
(24.74792032684183 -4.287919790114745 0)
(25.11247182421709 -0.9786434752873125 0)
(25.03776772128868 -0.0798438340938394 0)
(14.44807185860202 -7.873235103554347 0)
(23.59800027013828 -4.111681566731063 0)
(24.76587178603469 -0.7303381903843491 0)
(24.98488476051568 -0.04317602617982778 0)
(14.30639111148061 -7.618301682341857 0)
(22.82140152877887 -3.375121551455149 0)
(24.68022379375485 -0.424509282461016 0)
(24.98064330977927 -0.02087872246040024 0)
(15.22458923852761 -6.221353900246806 0)
(23.07958138451145 -2.689793178190663 0)
(24.76159802455129 -0.3476268435200316 0)
(24.98917650611814 -0.01367234657573605 0)
(15.41862715238699 -0.8381453770584294 0)
(21.42869966325295 0.0395882308357472 0)
(24.28824886887576 0.01697469824371904 0)
(24.95023764665592 0.0005058826090535266 0)
(15.57276620383291 -2.302752267081124 0)
(21.41497580095319 0.008480493332095669 0)
(24.26822596842494 0.04081644871628223 0)
(24.94749825595414 0.001956974867193474 0)
(15.79523892496023 -3.219820308067644 0)
(21.38819736254321 -0.1740713734786837 0)
(24.25178227771782 0.0245174407506566 0)
(24.94410489230443 0.001238112835900242 0)
(15.90326877055971 -3.431728848332429 0)
(21.50917751181628 -0.4790057000943507 0)
(24.27015119602088 -0.0380769807946147 0)
(24.94335383098884 -0.001509610648644898 0)
(15.22458923853196 6.221353900244715 0)
(23.07958138453942 2.689793178189742 0)
(24.76159802460273 0.3476268434896483 0)
(24.98917650617445 0.01367234656256727 0)
(14.30639111148506 7.618301682339626 0)
(22.82140152880339 3.375121551476232 0)
(24.68022379376648 0.4245092824567242 0)
(24.98064330980141 0.02087872248899786 0)
(14.44807185860896 7.873235103572386 0)
(23.59800027015712 4.111681566753317 0)
(24.76587178603728 0.7303381904111863 0)
(24.98488476053632 0.04317602619830398 0)
(16.20937245007941 5.873244772708446 0)
(24.74792032686936 4.287919790137752 0)
(25.11247182422319 0.9786434753000434 0)
(25.03776772129213 0.07984383411392673 0)
(25.3760475195476 0.2939182702818205 0)
(26.45803671373327 -0.2473257709222967 0)
(28.42700094384209 1.175020790358067 0)
(28.06189564514588 3.349859209953368 0)
(25.32179554554379 0.2269193546920138 0)
(26.15594967631216 0.1140076097518338 0)
(27.80382812530769 1.86594252490818 0)
(23.96821573935943 2.03442977166564 0)
(25.22548421887844 0.1382690068444459 0)
(25.91098675558312 0.5140667013178309 0)
(27.22370904461921 2.702762381489427 0)
(22.13554925331561 3.724993768266484 0)
(25.13751035981431 0.1007115316378423 0)
(25.58467754037576 0.8602888213867556 0)
(26.29466441602056 3.441422670871253 0)
(18.97790899121119 3.907525056171246 0)
(34.20725837325618 6.852639222907644 0)
(29.15974813009867 0.1720691478587987 0)
(26.69294612011679 -0.8503487555508032 0)
(25.35626444972272 0.3211620554719952 0)
(36.66744979986061 4.443378068881565 0)
(29.83228314163957 -1.091275086893795 0)
(26.99326396021219 -1.460348407837631 0)
(25.26778127063934 0.3685861934302291 0)
(33.60106543635353 -0.5051035197082774 0)
(29.44030341010145 -3.084203074668956 0)
(27.03964559872274 -2.391202289857701 0)
(25.06176346702864 0.4130536495766676 0)
(30.37489565721548 -4.551126578205547 0)
(28.57059205414668 -4.67093809197927 0)
(26.56559972595451 -3.414761909685515 0)
(24.75063567390039 0.3689570338819151 0)
(23.6684739833142 -0.2471400256290399 0)
(22.37733000822161 -6.475032997357301 0)
(20.84728570567103 -8.855013401824783 0)
(18.64983835324197 -10.14514700719217 0)
(23.89710904939194 -0.0887394984512406 0)
(23.60320833190492 -6.074652137245545 0)
(22.91034253809356 -8.412128487703809 0)
(20.7140369720633 -9.897938323079334 0)
(24.28891394593399 0.06227621493777594 0)
(24.9444954927061 -5.397044290831507 0)
(25.09180619958436 -7.557863897485892 0)
(23.27293552024285 -9.189021918257959 0)
(24.5120500294705 0.4830644787674741 0)
(25.80687327197658 -4.277017380196852 0)
(27.00035858896924 -6.132608057707874 0)
(26.20531568039798 -7.48990471853595 0)
(17.12786481985126 -10.13643816289884 0)
(19.07506063959712 -8.981291282876098 0)
(21.43698843913342 -5.784269896488 0)
(24.01456579404131 -0.09489614704819149 0)
(15.96199293667911 -10.07635764174936 0)
(18.01226206220416 -8.635019847289108 0)
(21.78909586876687 -4.412218934336269 0)
(24.36073397479214 0.1120098194052069 0)
(14.91236766892673 -9.780931045695059 0)
(17.74794945721935 -7.659295168890533 0)
(22.52704570650129 -3.029095352858044 0)
(24.62620455930632 0.1732936158045901 0)
(14.12202126481509 -9.148808194623582 0)
(17.98206818134123 -6.513398145230622 0)
(23.43814322784807 -1.828948500274573 0)
(24.79612506615963 0.1420993175377689 0)
(24.92090046894184 0.03143317988286297 0)
(25.21813204729958 -0.4058290389313779 0)
(23.07721979999506 -1.697477486865629 0)
(13.59975622549557 -3.455118772030379 0)
(24.91562030483007 0.03928103667238057 0)
(25.05532784398742 -0.413860549190288 0)
(21.91959713665592 -2.505044888540156 0)
(13.72469100318098 -5.314246580785975 0)
(24.90908533827868 0.05460236713209512 0)
(24.73212655506783 -0.5821469380979433 0)
(20.39458705937984 -3.668462994448945 0)
(13.50668984760924 -6.898704635498287 0)
(24.87596588984647 0.08980217295186965 0)
(24.22710100857557 -1.010939436604297 0)
(19.0460173179226 -5.088665246920798 0)
(13.61453908522622 -8.21482716134436 0)
(24.96295301661491 0.04567561106838637 0)
(24.92976486355378 0.04820987509691538 0)
(24.92249028477269 0.0564314517172154 0)
(24.92137624388496 0.07537433989448777 0)
(25.28803915561523 -0.4994585853868241 0)
(25.25097749764987 -0.5427682517939916 0)
(25.19178639111745 -0.6204818830256793 0)
(25.08141322611772 -0.6880023337433658 0)
(24.44459108581492 -1.230943827295411 0)
(25.3810210185256 -1.015245372393674 0)
(25.41713543774257 -1.069722072462149 0)
(25.33672202370272 -1.227337230174029 0)
(16.08894327563416 -1.804289398563953 0)
(22.07296491959547 -1.605713400179771 0)
(25.26795524174319 -1.234350468629774 0)
(25.494500936215 -1.265505346254865 0)
(24.92404962096387 0.08736026323633726 0)
(24.97395920716491 -0.6920616579402032 0)
(25.18835186424522 -1.364357912747755 0)
(25.46168125312873 -1.656591901841783 0)
(24.92782575057644 0.09561686664866048 0)
(24.87430638612066 -0.6676760537007219 0)
(25.03964925140779 -1.454926039446781 0)
(25.32119030880413 -1.96842678312857 0)
(24.93211869287003 0.09725155140268887 0)
(24.78860058011132 -0.5876517884241347 0)
(24.88470347370981 -1.509527455432953 0)
(25.25573928288735 -2.359858831812518 0)
(24.93954752376575 0.08129324206163559 0)
(24.73969413683731 -0.4698703956169475 0)
(24.68601748143041 -1.493400218177033 0)
(25.03934856496968 -2.752378166323845 0)
(24.99251921356369 0.00698216073204147 0)
(24.91230338787363 -0.02931784995310978 0)
(24.21826206494766 -0.6845550392662182 0)
(23.55853773690572 -4.162370028740201 0)
(24.98251815462692 0.01746356741206442 0)
(24.83957833896974 -0.09563157702442852 0)
(24.23066410767469 -1.045249068857672 0)
(24.23234759910849 -3.990525186870562 0)
(24.96827334186568 0.03464010553734229 0)
(24.76956397544655 -0.2013996671152599 0)
(24.35050805434689 -1.259220825528076 0)
(24.57265581471653 -3.58316649032233 0)
(24.95259557559577 0.05695528187611383 0)
(24.73428798143055 -0.3312782679174801 0)
(24.50901060013118 -1.401291738095999 0)
(24.84280297190138 -3.167662108340838 0)
(22.54574790479667 -3.592783106231439 0)
(24.44412289942441 -0.3582069171760427 0)
(24.97014492311019 -0.008084166953678326 0)
(24.99856478277714 0.002969509293173627 0)
(22.12754764885064 -3.204108141440133 0)
(24.55986880796176 -0.2505088806496882 0)
(24.98471069544457 -0.004730520595744196 0)
(24.99968405282452 0.0007501486867039463 0)
(22.23978228830153 -2.654144807694795 0)
(24.69929352304575 -0.08795565621383294 0)
(24.99323493668269 -0.0004505782992496135 0)
(24.9998113161946 0.0002805779937338553 0)
(22.23930371117505 -2.253282273629179 0)
(24.80407194235305 0.004985256693399024 0)
(24.99866699054746 0.0003323638266933585 0)
(24.99992768028432 3.027174089587675e-05 0)
(22.47644368003272 -1.679002365523146 0)
(24.94064967615773 0.05399852494775621 0)
(25.00015166235338 0.0008090169887464628 0)
(24.99999625852477 -2.907417816367957e-06 0)
(22.52549831598846 -1.264703124872407 0)
(24.94282359679734 -0.01310587397275991 0)
(24.9998899954663 -6.47226340551576e-05 0)
(24.99999953341061 1.868120628943667e-07 0)
(22.90416993587332 -0.5948377104072126 0)
(24.96351614438639 0.003528103239840626 0)
(24.99997407170791 1.333297002042072e-05 0)
(24.99999998383305 -2.043916794016037e-08 0)
(23.58885995868362 0.112824903660463 0)
(24.9794980911634 0.007842644158012018 0)
(24.99999820662451 2.063898047838046e-06 0)
(25.00000000530318 4.776268725847674e-09 0)
(25.00000000000001 -1.341243172213809e-13 0)
(24.99999999350317 -4.907572762866276e-09 0)
(24.99918017904654 0.0004448098962335187 0)
(24.80306914402692 -0.003304754378821494 0)
(24.99999999999902 9.684186562580683e-12 0)
(24.99999998566227 1.78204678307872e-08 0)
(24.99862670721398 0.001067785825678493 0)
(24.73462616694703 0.1512231530205733 0)
(24.99999999989004 7.383844444116044e-11 0)
(24.99999995390871 9.528802378021198e-08 0)
(24.9970241695163 0.002400837357852776 0)
(24.63955957850765 0.257219828799034 0)
(24.99999999928212 -3.760081105330478e-10 0)
(24.99999976781172 5.003178470564644e-07 0)
(24.99263364477045 0.004930170462397273 0)
(24.29352103143213 0.409873136803291 0)
(24.66711231099822 -1.972757207868275e-10 0)
(24.5329589970505 0.1492395263435135 0)
(24.20983134453177 0.1826228281618706 0)
(23.33329567189527 0.04636443917360238 0)
(24.53295899775664 -0.149239526819318 0)
(24.30240931579217 -2.000689396130177e-10 0)
(23.69143380393294 -0.04617168279503676 0)
(22.2984070030482 -0.4608228230512596 0)
(24.20983134556329 -0.182622828443911 0)
(23.69143380459531 0.04617168247502689 0)
(22.45063428058418 -5.256026940617231e-11 0)
(20.37450634098014 -0.5772706199694188 0)
(23.33329567221116 -0.04636443946627868 0)
(22.29840700344106 0.4608228228193066 0)
(20.37450634123122 0.5772706197878704 0)
(18.09956669767499 -1.383698627203039e-10 0)
(17.52260398856604 2.54971483496331 0)
(18.18298925290055 2.960850569565476 0)
(19.86298068573803 2.673314357144648 0)
(21.4045169898585 1.857906057953589 0)
(18.50997178397565 4.291254465777136 0)
(18.57845517661237 4.255866951185043 0)
(19.32239964710182 4.169452025837671 0)
(20.37517558425967 3.976733699484846 0)
(17.99424599720475 5.285270866772072 0)
(19.10939668638673 4.527311066434978 0)
(19.81105784453619 4.730462393830911 0)
(20.36436196591238 4.588825223975045 0)
(18.63076805042649 5.814811754972132 0)
(19.94367745972774 4.762609849331486 0)
(20.4501862596232 4.932181148131186 0)
(20.74545173107359 4.845339109165947 0)
(21.03538964522503 4.990003595555682 0)
(21.23929288947675 5.077931202991738 0)
(21.58062824957004 5.16522617448905 0)
(22.27049051298406 5.305536900397125 0)
(20.94328415607965 5.057768253415885 0)
(21.22331711685 5.141258479744969 0)
(21.67863607338062 5.168802370445658 0)
(22.75849583288755 5.535177242389281 0)
(20.66910909664643 4.976109064155269 0)
(21.11797280381347 5.142362056399948 0)
(21.68567433752988 5.211738620299997 0)
(24.19981468797742 5.961551159199562 0)
(19.28375576977449 5.934883387300029 0)
(19.81483890826714 6.020486081221525 0)
(20.62431312094872 5.869923890070942 0)
(25.89078611126026 7.172622548190593 0)
(25.94364909246916 3.191631101600312 0)
(26.50406603855528 0.7970156828043505 0)
(25.7760705215412 0.4433284819607299 0)
(25.60666004124912 0.4083552097987514 0)
(28.47470207710552 2.19806236351664 0)
(28.70756548101644 0.3368358483609636 0)
(27.54392882768365 0.2606938315312811 0)
(26.85723851505961 0.3417771100255606 0)
(31.66769645048685 1.896986237009028 0)
(30.092601123396 0.046419182983671 0)
(28.67218697199916 0.03476559021025774 0)
(27.70779369780665 0.1133970512861034 0)
(25.14695799660534 1.937797740107736 0)
(24.146848743198 0.6061928473842442 0)
(24.02872840219079 0.1364009193978132 0)
(24.07789557692059 -0.2397331646705088 0)
(25.53630615390024 0.3651284523880103 0)
(25.57884283150166 0.2982857773503674 0)
(25.57949497225505 0.2604243004400942 0)
(25.56290755631668 0.2178912663120958 0)
(26.38961051498134 0.3327447069594991 0)
(26.05810576867923 0.2847746652696468 0)
(25.79158406796988 0.2288231796451508 0)
(25.54296681453017 0.1887899700136815 0)
(26.9754828082344 0.1357802477912811 0)
(26.38122097663946 0.1297800359839904 0)
(25.92001465104094 0.1258683417065197 0)
(25.4706815921527 0.1037554441682414 0)
(23.9027581771625 -0.4440514495155454 0)
(23.67628071900297 -0.6146225446759019 0)
(23.45883121310851 -0.6384013020331117 0)
(23.1205183440522 -0.5628352704248251 0)
(25.55247098372494 0.2249796918804155 0)
(22.74879376609884 3.28408760980973 0)
(16.22215858854417 4.953381332888676 0)
(10.91086915141849 1.74705735153422 0)
(25.38934000096682 0.3718239460188026 0)
(20.15549387844398 3.677494280425773 0)
(11.69916153184453 4.025323441026341 0)
(5.969035587840141 0.3563425119767796 0)
(24.91400935427858 0.486708952050817 0)
(16.74145729996798 2.980795361865384 0)
(6.394549399889983 2.894855822336385 0)
(0.5124091239043893 0.5194373746319234 0)
(21.84931188739133 -0.5397322883528562 0)
(11.62357733460947 -1.11343568885482 0)
(2.633557353698587 -0.08152367453495175 0)
(-1.530637702396596 0.4505841869995364 0)
(9.558099268592429 3.056597021614243 0)
(11.01579716852999 4.602470908093485 0)
(11.75508877634782 6.065377437065402 0)
(12.56421534049143 7.454372746879667 0)
(7.460568663984525 2.516535103154217 0)
(10.3800916971939 4.761347220040768 0)
(11.55705799513315 6.302901569832741 0)
(12.50204344781401 7.562034164389844 0)
(4.265611564432495 0.660417957593848 0)
(8.675036083600595 4.083792587472031 0)
(10.80100420446328 6.371323917520261 0)
(12.11369182515626 7.614435184932887 0)
(0.7866332718882894 0.5404689959873359 0)
(4.504357250595813 3.013611178233129 0)
(8.124740550765786 4.477804357155946 0)
(10.31640789206297 5.751165775417926 0)
(13.51054663679316 8.581567104979797 0)
(14.48847063406209 9.469927579852373 0)
(15.65853071030752 10.51267488071186 0)
(16.7797088433562 11.10250963903465 0)
(13.53091242790616 8.625078626376608 0)
(14.50449595929745 9.503901624736237 0)
(15.57355541809922 10.47632565578143 0)
(16.7493334606687 11.13992585269935 0)
(13.37639909036333 8.594347289283673 0)
(14.39882624302754 9.462619588688449 0)
(15.47418140085431 10.39170514720912 0)
(16.69587716188951 11.15090671748361 0)
(12.46132364124819 6.893316399380884 0)
(14.65115987967648 8.179428713671438 0)
(15.52608865150879 10.07797213161134 0)
(16.76251853676341 11.02492693044631 0)
(17.9482967922054 11.48944930771746 0)
(19.61442979697991 11.78092852070003 0)
(21.85990812256606 11.45392099551616 0)
(24.75221619020033 10.11139051200522 0)
(17.80326524343712 11.53218795220238 0)
(19.22340056745573 11.80332127444046 0)
(21.31306283299624 11.6257680684362 0)
(24.91203017856619 12.18969479908949 0)
(17.7057235888516 11.61946613302273 0)
(18.85391428404165 11.86114196129019 0)
(21.40306517170512 12.54216626593998 0)
(31.16607949387129 18.11211175616496 0)
(17.7006763531616 11.56921022455457 0)
(18.77725747214394 11.83336156812391 0)
(22.10094296401276 13.1724999974335 0)
(42.75388560797481 25.13509511012719 0)
(30.32273827261382 4.990574762907412 0)
(31.71767269229996 -3.689871047376131 0)
(12.27109073270836 8.551950679046055 0)
(9.627633409459092 26.82692625785424 0)
(32.04188287962689 4.635520372304068 0)
(25.84936468259723 -1.637667693837389 0)
(9.340441948091289 16.54880554442547 0)
(8.635819324357877 26.46574092883825 0)
(31.76140580533912 3.163032006851317 0)
(16.34518228363916 -3.563866685013391 0)
(4.17933028895385 19.35835345079821 0)
(4.353160885881532 26.49724734587858 0)
(20.20768108601195 -8.371145973847854 0)
(6.595275910433543 0.05442429074890054 0)
(2.484292579591363 21.79868604235934 0)
(2.361090141209441 26.17445578358739 0)
(5.929841874753275 18.20078649759069 0)
(1.487046672739124 13.87957875661019 0)
(-0.8363562149213624 12.2334986077134 0)
(-2.249044538216977 8.548058821926132 0)
(4.508228065423626 21.20687856917414 0)
(1.157229773564237 16.93829057801849 0)
(-0.7165600924977992 13.21908358791878 0)
(-1.119192198562792 6.839516404692444 0)
(2.827943040527483 21.08614059771739 0)
(1.348615377600996 16.98199735456613 0)
(-0.3593167308309137 11.51460763327647 0)
(-0.7013980126164675 4.612908009181103 0)
(0.6948704683120717 20.52239515192531 0)
(-0.258632658789212 16.51815163749071 0)
(-1.637870087560351 10.45237464498567 0)
(-1.434512995520386 3.314110215338125 0)
(-4.080349910465451 2.88885695295206 0)
(0.7666558935376532 -0.7305688290857814 0)
(4.757900332107344 -4.06523050351305 0)
(6.602524762593933 -8.031893885754048 0)
(-5.055770064437661 2.585360617026433 0)
(-3.020213650912801 -0.04350916686638567 0)
(2.073346562708075 -1.937267532864821 0)
(5.631589732804283 -7.041020539675091 0)
(-4.590833522059749 1.740387280525426 0)
(-5.101872279228067 0.4255508902405049 0)
(-0.9122107176800419 -0.7867860644442004 0)
(4.258981666181856 -5.192410115769882 0)
(-3.377547933615733 1.938561692537338 0)
(-5.219903172707397 1.442166019946789 0)
(-1.364418312977044 2.155822090808716 0)
(4.88579794246206 -2.710961600029395 0)
(5.197386112362413 -7.674637561337134 0)
(5.059118738626982 -7.962740055069119 0)
(5.356017513000902 -7.944561115964821 0)
(5.712369424444537 -7.494809531020808 0)
(4.61847746780142 -8.234021547852439 0)
(4.486306661151784 -8.248165607964498 0)
(4.695264639805357 -8.339206540644378 0)
(4.606413903184942 -8.050884631701189 0)
(4.047677025518957 -7.536703692996133 0)
(3.719349712309223 -6.280458132078491 0)
(3.751620202068216 -5.39048122127227 0)
(2.774394674581952 -4.493387608149069 0)
(6.762344657756922 -6.668112303321015 0)
(5.808961058284398 -3.372335144976486 0)
(4.458713142000534 -0.9660661902807227 0)
(2.075644203564681 0.2555870763636909 0)
(0.2780508585779176 1.166552183282175 0)
(-0.811190738752619 1.393806293220096 0)
(-1.495659596951465 1.083991659403949 0)
(-1.783196808625213 0.3433529013182664 0)
(1.681164296233881 -2.531025559115007 0)
(-0.1035763392474886 -1.494640435185004 0)
(-1.26766375895963 -0.4810659995953935 0)
(-1.861891810775941 -0.2034379672811984 0)
(4.009404295323236 -6.708520229293668 0)
(2.908516177704446 -5.174741261658417 0)
(1.570727304693474 -3.244947375556457 0)
(0.5807824946647386 -1.17962539051331 0)
(6.209735670163268 -6.534846064762771 0)
(6.291202713920137 -5.007718045087581 0)
(5.688623884422049 -3.157925166368436 0)
(5.060783923254412 -1.160030054428487 0)
(-1.783196808627962 -0.3433529013155558 0)
(-1.861891810775475 0.2034379672690642 0)
(0.5807824946638717 1.179625390474823 0)
(5.060783923255266 1.160030054385667 0)
(-1.495659596955504 -1.083991659402175 0)
(-1.267663758960234 0.4810659995811057 0)
(1.570727304690924 3.244947375521674 0)
(5.688623884433008 3.157925166327852 0)
(-0.8111907387565852 -1.393806293219064 0)
(-0.1035763392537323 1.494640435170704 0)
(2.90851617770312 5.174741261627303 0)
(6.291202713931059 5.007718045056404 0)
(0.2780508585747078 -1.166552183282884 0)
(1.681164296227494 2.531025559099206 0)
(4.009404295319865 6.708520229268355 0)
(6.209735670166016 6.534846064741012 0)
(5.712369424438485 7.494809531008275 0)
(5.356017512986791 7.944561115956379 0)
(5.059118738608922 7.962740055058964 0)
(5.197386112343922 7.674637561331256 0)
(4.60641390318138 8.050884631680365 0)
(4.695264639799293 8.339206540627554 0)
(4.486306661142828 8.24816560794882 0)
(4.618477467783477 8.234021547843302 0)
(2.774394674582843 4.493387608130076 0)
(3.751620202067004 5.390481221259329 0)
(3.71934971230162 6.280458132065293 0)
(4.047677025506219 7.536703692979958 0)
(2.075644203559603 -0.2555870763660742 0)
(4.458713141992257 0.9660661902782632 0)
(5.808961058268125 3.372335144972708 0)
(6.762344657736986 6.66811230331628 0)
(4.88579794244811 2.71096160003238 0)
(-1.364418312981763 -2.155822090794869 0)
(-5.219903172700207 -1.44216601994124 0)
(-3.377547933607475 -1.938561692530891 0)
(4.258981666165922 5.192410115761434 0)
(-0.9122107176860554 0.7867860644511381 0)
(-5.101872279220158 -0.4255508902361017 0)
(-4.590833522048592 -1.740387280515559 0)
(5.631589732784795 7.041020539666255 0)
(2.073346562696643 1.937267532865783 0)
(-3.020213650903361 0.04350916686849591 0)
(-5.055770064428936 -2.585360617012127 0)
(6.602524762574215 8.031893885747522 0)
(4.757900332088711 4.065230503518578 0)
(0.7666558935502634 0.7305688290903521 0)
(-4.080349910462749 -2.888856952931721 0)
(-2.249044538236334 -8.548058821884617 0)
(-0.836356214978251 -12.23349860775724 0)
(1.487046672707629 -13.87957875676387 0)
(5.929841874795631 -18.2007864978678 0)
(-1.119192198569888 -6.83951640466846 0)
(-0.7165600925195788 -13.21908358791705 0)
(1.157229773578669 -16.93829057806676 0)
(4.508228065503141 -21.20687856924873 0)
(-0.7013980126211962 -4.612908009168001 0)
(-0.3593167308429268 -11.51460763326364 0)
(1.348615377599908 -16.98199735456055 0)
(2.82794304053821 -21.08614059773053 0)
(-1.434512995518629 -3.314110215326024 0)
(-1.637870087570712 -10.45237464496879 0)
(-0.2586326587985705 -16.51815163746891 0)
(0.6948704683139046 -20.5223951519296 0)
(9.627633409442923 -26.82692625805639 0)
(12.27109073253516 -8.551950679363012 0)
(31.71767269223063 3.689871047416194 0)
(30.32273827260525 -4.9905747628824 0)
(8.635819324377257 -26.46574092890552 0)
(9.340441948090247 -16.54880554456541 0)
(25.84936468256182 1.637667693812503 0)
(32.04188287961262 -4.635520372289707 0)
(4.353160885890068 -26.49724734592466 0)
(4.179330288936251 -19.35835345089981 0)
(16.34518228363649 3.563866684967925 0)
(31.76140580533448 -3.163032006846385 0)
(2.361090141218603 -26.17445578364279 0)
(2.484292579585181 -21.79868604244971 0)
(6.595275910460949 -0.05442429080582858 0)
(20.2076810860377 8.37114597383221 0)
(24.75221619020521 -10.11139051199425 0)
(21.85990812257064 -11.45392099551403 0)
(19.61442979698331 -11.78092852069949 0)
(17.94829679220894 -11.48944930772912 0)
(24.91203017856725 -12.18969479908311 0)
(21.31306283299852 -11.62576806843475 0)
(19.22340056745626 -11.80332127444376 0)
(17.80326524343183 -11.53218795220704 0)
(31.16607949386458 -18.11211175615657 0)