/*--------------------------------*- C++ -*----------------------------------*\
  =========                 |
  \\      /  F ield         | OpenFOAM: The Open Source CFD Toolbox
   \\    /   O peration     | Website:  https://openfoam.org
    \\  /    A nd           | Version:  11
     \\/     M anipulation  |
\*---------------------------------------------------------------------------*/
FoamFile
{
    format      ascii;
    class       volScalarField;
    location    "0.1925";
    object      p;
}
// * * * * * * * * * * * * * * * * * * * * * * * * * * * * * * * * * * * * * //

dimensions      [0 2 -2 0 0 0 0];

internalField   nonuniform List<scalar> 
880
(
79.99999999999999
80.00000000431456
80.00044132065132
80.22406611402113
80.00000000000001
80.00000001601302
80.00099018543504
80.49090286081741
80
80.00000010670739
80.00294604077938
81.05563967298767
80.00000000000423
79.99999994660968
80.00929580179775
82.04979098875442
79.99999999948842
80.00000000035341
79.99999998266523
80.00000893138298
80.00000013819354
80.00000234767215
80.00011041839473
80.00010715131437
80.03082046073209
80.05865538044685
80.12885311798149
80.06035012690339
84.45445603359104
87.02627758463164
88.99849608370175
89.94542345907546
80.00004654472336
80.00020124232687
80.00115407623417
80.00200115864415
80.00213458211736
80.00592820749544
80.0138952569099
80.02248737579916
80.39235610536672
80.67039806856754
80.99602827473888
81.36626171424587
91.09625948668678
92.69530750283701
93.90454201803404
94.19375299078374
89.82845858783271
87.58922362255271
86.97348858208727
86.40569499552117
82.63802111906206
83.11842273015768
83.52160527864979
83.67664765961362
80.08705509551254
80.17513955521494
80.26946752094663
80.36317000126391
80.00716706569195
80.01942005446612
80.04087339007116
80.06015014337703
80.0694895952454
80.06606494842472
80.05474031033724
80.03952188815785
80.44927420356437
80.49465041393178
80.46682671504165
80.41244841801742
83.69506417500713
83.60424676823062
83.34196053840412
82.99771410646818
85.86917140334558
85.61495703455975
85.59554167662981
85.39443161739435
85.00590136815163
82.63210199269723
80.33815849672105
80.02402372729794
84.24781837034398
82.12109649359458
80.24847333937751
80.01209416112597
87.10013809896915
81.58722960498535
80.13224410285352
80.00247914017568
104.7776465155104
81.76393940301176
80.05790175886997
80.00048002010675
80.00121158693126
80.04083592436719
83.48459042122242
135.1017742116517
80.00463711442566
80.09023326796236
85.62541770765461
139.6280515954317
80.01348862641925
80.20950005684936
89.16910290843218
145.8453918832015
80.03581325290595
80.48100013495556
93.90444280118777
150.2894421701615
154.5855903254168
99.8363485173782
80.9374360270632
80.07763987585747
156.8817435078822
106.7179878999358
81.7457474482558
80.15782259760199
158.4053085960462
114.3316431444001
82.97734549465592
80.27961863299488
157.9209426828327
120.6614858263682
84.87524205455118
80.49204342627291
80.80712829165194
87.14534695754722
124.6618819667956
153.1649725569323
81.05866306839727
87.22578100060187
116.413805280661
138.9034998832166
81.21904238318652
85.39872857990849
106.1374448091661
122.2915279134408
80.5931407749691
83.19836601200059
94.92257543049261
102.5272267543665
80.79542607159506
83.43605475659997
87.72694926303551
78.69866586237977
80.67824801824611
81.82735056314279
81.70281576017341
55.37195356947406
80.34444567031856
81.04242828657078
79.21019332171127
43.70227584829568
80.10853883889591
80.55301099492837
76.83286215716278
42.42172511030468
43.07033318432975
74.996577645004
80.03272365034266
79.98248815012161
41.81631306292082
74.01275585158973
79.60079382757397
79.96980861042043
42.80686822009702
73.36985672821287
79.348056242067
79.96558748275011
40.97623645323138
71.78620114791541
79.12529597352533
79.96740464223893
44.87344948329397
72.0677304730203
79.24441975677004
79.98160689661067
48.38455008779691
73.28773462429986
79.53927296619462
79.99272848697356
49.84489197982669
74.48176090455028
79.73435247312375
79.99707001629508
53.53788266740428
76.3093439919577
79.91784132389844
79.9989496974446
64.24577652208987
76.94312796604522
79.71753010065703
79.99153292407462
61.77715159022338
76.71561769280923
79.73455326810053
79.99279233677079
59.08188320348042
76.26418555516369
79.74406671081465
79.99401513367513
56.63885737141565
75.78983389096868
79.74649663679773
79.99501886532677
53.53788266734854
76.30934399187187
79.91784132402624
79.9989496971257
49.84489197984823
74.48176090442044
79.73435247293926
79.99707001607062
48.38455008774541
73.28773462417286
79.53927296596851
79.99272848677811
44.87344948328286
72.06773047280869
79.2444197567692
79.98160689658634
79.98248815025075
80.03272365045628
74.99657764505562
43.07033318405954
79.9698086103747
79.60079382762382
74.01275585156488
41.81631306273157
79.96558748287863
79.34805624214637
73.36985672793649
42.80686821996187
79.96740464230049
79.12529597378401
71.78620114775943
40.97623645321453
42.42172511020641
76.8328621571558
80.55301099482443
80.10853883903749
43.70227584822116
79.21019332166925
81.04242828651017
80.3444456704264
55.37195356931621
81.70281576021051
81.82735056313288
80.67824801849139
78.69866586237653
87.72694926286623
83.43605475614149
80.79542607169429
80.80712829149689
87.14534695796191
124.6618819675643
153.1649725571629
81.05866306832125
87.22578100056472
116.4138052810248
138.9034998834076
81.21904238280032
85.3987285802303
106.1374448091124
122.2915279134258
80.59314077474113
83.19836601159103
94.92257543057632
102.5272267543921
157.920942682986
120.6614858264638
84.8752420541559
80.49204342686797
158.4053085963031
114.3316431447172
82.97734549554413
80.27961863279918
156.8817435078637
106.7179879004819
81.7457474486062
80.15782259778354
154.5855903253761
99.8363485168265
80.93743602650829
80.07763987590978
80.0012115869831
80.04083592438056
83.48459042110673
135.1017742115514
80.00463711477212
80.09023326827095
85.62541770751325
139.6280515951526
80.01348862687237
80.20950005684929
89.16910290831751
145.8453918828397
80.03581325295208
80.48100013556103
93.90444280167705
150.2894421703655
80.00048002011027
80.00247914012796
80.01209416132198
80.02402372731679
80.05790175846937
80.13224410269768
80.2484733392854
80.33815849663347
81.76393940287342
81.58722960505308
82.12109649343699
82.63210199254883
104.7776465153714
87.10013809900134
84.24781837038351
85.00590136813601
80.03952188827172
80.41244841815745
82.99771410660651
85.39443161753606
80.05474031025044
80.46682671522755
83.34196053854396
85.59554167663235
80.06606494840956
80.49465041400991
83.6042467681105
85.61495703422344
80.06948959509624
80.44927420348039
83.69506417515309
85.86917140339671
80.00716706564326
80.0870550952672
82.63802111915955
89.82845858797613
80.01942005419281
80.17513955525909
83.11842273036055
87.58922362252773
80.04087339020873
80.26946752074838
83.52160527859235
86.97348858187534
80.06015014326783
80.36317000117658
83.67664765978539
86.40569499523589
94.19375299069192
81.36626171415186
80.02248737561614
80.00200115881614
93.90454201794205
80.99602827481782
80.01389525668871
80.00115407615893
92.69530750287865
80.67039806870099
80.00592820699578
80.00020124220161
91.09625948659561
80.3923561052459
80.00213458197916
80.00004654503307
89.94542345898702
80.06035012705594
80.00010715134292
80.00000893162567
88.99849608365766
80.12885311793538
80.00011041826755
79.99999998268675
87.02627758460928
80.0586553803864
80.0000023475487
80.00000000034169
84.45445603355012
80.03082046060904
80.00000013813532
79.9999999996644
79.99999999999999
80.00000000431328
80.00044132069361
80.22406611375384
80
80.00000001588951
80.00099018542276
80.49090286082644
80
80.00000010656447
80.00294604072656
81.05563967294037
80.00000000000679
79.99999994647639
80.00929580173671
82.04979098864595
80.50863954563668
81.06690133931231
82.20999213512798
85.67359468030968
81.06690133936279
81.86352391988281
84.30510172736756
90.32849407184526
82.20999213515096
84.30510172737702
89.36111428707564
98.06211570793677
85.67359468037938
90.32849407191647
98.06211570804039
108.9496067949848
120.8094637682538
111.0652793523288
106.5423441483963
98.2245441910454
118.3251971127425
115.5930461307405
115.5440268826927
110.9828435065649
118.4881035935289
117.6021836139673
117.2688877781312
115.3695032184779
117.8006502774685
117.3554430175993
117.195553859688
115.8978821726633
114.447611360727
114.0228298116661
113.038938820331
110.4677927413582
115.2995237897548
114.2912018012122
113.215630840438
110.6436104094497
115.4474102991207
114.3691035287426
113.3397982043625
110.9322349001942
115.8218668464237
114.4858882437206
113.3756252542629
108.240735025238
85.42629469575179
75.36168753800447
75.90863132071594
77.07904693290089
77.97279496233976
72.72183184811152
75.29896231559457
76.73383706481501
71.49939459738491
72.7627469624548
75.88843299185466
77.29273625123606
62.19190143577624
70.52955809863312
74.89499421822558
76.43233594100646
77.99372476586369
78.92428550547876
79.99531556278022
80.84841462712329
77.70882854684997
78.73564027629362
79.85257159146033
80.75842591968865
78.07350374396937
78.89555941289254
79.75998558848698
80.7719395943992
77.39261315347099
78.59553565111989
79.79337399528517
80.76750349451362
81.3905528632496
82.68208861905966
108.7646900071121
147.6756196173901
81.36366957891173
83.50303943985905
116.0290394413859
146.6796677222071
81.39926816207698
84.37504751122047
120.1970835441807
143.7229800918255
81.47853624449907
84.68368116199322
124.545084374993
146.2902662458789
198.4625840760227
189.3466928807868
184.3221699837553
179.3474592305066
200.2715134825103
191.7907449920784
185.599381876706
179.9884633844814
199.7452090752668
193.4210326749111
186.6389229366086
180.3955935206255
197.2929875400988
194.975168065436
188.1787216755708
181.2870616507129
178.7842285223483
182.158199458477
181.383503899784
179.9585105790076
179.1619207861924
182.2041894895497
183.4788843924715
182.100187598461
178.7685434714624
181.5639202210521
183.607767479806
183.1626439759483
179.2332755603555
182.5595722521949
185.4484505607404
184.1252641431806
168.6253260111532
151.8911255144064
135.4823878646678
114.0909406517015
171.1825252130906
154.6877440810684
136.1092457240857
122.3819774013992
174.6743946928178
158.2177270794148
139.1483566637436
127.245531470046
175.2598192327723
162.8120548056044
144.2301603436743
142.8967718323125
69.67306331700661
16.41175326055965
4.570953236434661
5.596383759094617
54.96589895868574
10.81960892421511
4.589587085612622
5.407682824475482
37.60100910960005
6.667522927929766
4.727590796746696
6.044975867601478
21.11900505168375
3.837513362283017
4.995712481536748
6.26492480225431
8.872909643526413
12.22848289239014
16.06294762392315
18.80145415468311
8.781790057849459
12.82744312851105
16.87809949410888
20.1330218102779
9.240167886499867
13.26338303072946
17.20618336916644
21.71778491498444
9.524017200043492
14.06518921990458
18.71555696140652
23.76400069223737
29.00789721769646
31.44576700176964
31.68272331558362
33.00195117410082
28.78112398630904
32.92870492545708
33.0461507835481
34.41578833755657
27.86048755031277
33.06380415736737
33.83514677139642
35.0110573173252
25.78365967521947
31.99128248401127
34.12577992659883
37.67065049471535
27.73725463126879
26.99137048513629
29.96004245808703
29.48339177552368
25.22155165508301
22.87324162425332
24.17571512990883
23.91860548728205
22.50573992598141
21.41939999764964
22.63072310085851
22.7341184584764
17.13319279360185
18.74073028894002
20.56497272078452
20.83493623323442
21.01397404936304
20.87086674802096
20.73817339006081
20.56427554199608
22.46353704945263
21.82709953758954
21.33109666575314
21.04861669429835
22.95875073988113
22.42521470150791
22.06180202010579
21.92554305044405
27.63870344631826
26.10244688639926
24.74069045238096
24.06273112318877
20.56427554199657
21.04861669429645
21.92554305044573
24.06273112318087
20.73817339005826
21.3310966657529
22.06180202011471
24.74069045237999
20.87086674801685
21.82709953758811
22.4252147015218
26.10244688641108
21.01397404936084
22.46353704945047
22.9587507398953
27.63870344633964
29.48339177553622
29.96004245810497
26.99137048515313
27.73725463128098
23.91860548729172
24.17571512992696
22.87324162427226
25.22155165508684
22.73411845847858
22.63072310085409
21.41939999765686
22.50573992599493
20.83493623323843
20.56497272078227
18.74073028892931
17.1331927936007
37.67065049472274
34.12577992661556
31.9912824840339
25.78365967530768
35.01105731734237
33.83514677141142
33.06380415737458
27.8604875503768
34.415788337563
33.04615078356397
32.92870492546168
28.78112398635641
33.00195117410762
31.68272331560303
31.44576700175989
29.00789721771345
18.80145415480423
16.06294762399789
12.22848289241867
8.872909643509805
20.13302181040173
16.87809949420053
12.82744312857458
8.781790057854611
21.71778491509594
17.2061833692526
13.26338303079287
9.240167886504917
23.76400069234088
18.71555696150341
14.06518921998471
9.524017200055971
5.596383759112753
4.570953236417669
16.41175326043764
69.67306331693989
5.407682824491274
4.589587085611777
10.81960892418554
54.96589895864113
6.044975867609903
4.727590796749539
6.667522927930174
37.60100910956037
6.264924802273258
4.995712481543037
3.83751336228335
21.11900505167288
114.0909406516791
135.4823878646395
151.8911255143897
168.6253260111119
122.3819774013775
136.1092457239891
154.6877440809704
171.1825252129401
127.2455314699962
139.1483566636238
158.2177270792205
174.6743946925594
142.8967718322332
144.2301603434999
162.8120548052871
175.2598192324607
179.9585105791912
181.383503899972
182.1581994583718
178.78422852282
182.100187598515
183.4788843924895
182.2041894895196
179.1619207866867
183.1626439757952
183.6077674797446
181.5639202210474
178.7685434719478
184.1252641429732
185.4484505605162
182.5595722522149
179.2332755608343
179.3474592302361
184.3221699833779
189.3466928803041
198.4625840758262
179.9884633841525
185.599381876361
191.7907449915847
200.2715134823167
180.3955935202149
186.6389229363009
193.4210326744408
199.7452090750955
181.287061650213
188.1787216752868
194.9751680649618
197.292987539924
147.6756196172022
108.764690007
82.68208861908991
81.39055286328092
146.6796677220244
116.0290394412433
83.50303943985472
81.36366957895831
143.7229800916809
120.1970835440117
84.3750475112127
81.3992681621426
146.2902662457084
124.5450843748203
84.68368116199076
81.47853624455833
80.84841462731738
79.99531556277465
78.92428550521046
77.99372476589305
80.75842591989861
79.85257159143535
78.73564027601402
77.70882854687801
80.77193959462575
79.75998558845026
78.89555941261465
78.07350374399617
80.76750349473512
79.79337399523094
78.59553565080411
77.39261315350217
77.07904693267956
75.90863132053875
75.36168753805454
85.4262946958921
76.73383706456133
75.29896231542817
72.72183184821959
77.97279496246639
77.29273625097623
75.88843299168951
72.76274696259308
71.49939459749561
76.43233594075075
74.89499421801898
70.52955809878813
62.19190143592339
110.4677927413416
113.0389388202348
114.0228298117712
114.447611360712
110.6436104093918
113.2156308404007
114.2912018013561
115.2995237897241
110.9322349001164
113.3397982043301
114.3691035288875
115.4474102990748
108.2407350251415
113.3756252542619
114.4858882438812
115.8218668463529
115.8978821724361
115.3695032184336
110.9828435065881
98.22454419111567
117.1955538594994
117.2688877780931
115.5440268826594
106.5423441483929
117.3554430174245
117.6021836138492
115.5930461306968
111.0652793522481
117.8006502773324
118.4881035934327
118.3251971126496
120.8094637680967
55.01952038398568
76.42023638115106
79.83761920693286
79.99803723241142
53.41424060885056
75.8333578740345
79.77396823145506
79.99678454584115
54.02926867536999
75.5335139484759
79.75544394031056
79.99626660756275
54.23485087386405
75.51752964842936
79.7494078506558
79.99575199154197
79.99153292422872
79.71753010050453
76.94312796603931
64.24577652198758
79.9927923367634
79.73455326797101
76.71561769280791
61.77715159021162
79.99401513380037
79.74406671069997
76.26418555514032
59.08188320354512
79.99501886535234
79.74649663673932
75.78983389095626
56.63885737142975
79.99575199139839
79.99626660755536
79.9967845458677
79.99803723224605
79.74940785052587
79.75544394023316
79.77396823130238
79.8376192068863
75.51752964840475
75.53351394845045
75.83335787412155
76.42023638116846
54.23485087380991
54.02926867528708
53.41424060877767
55.0195203838999
)
;

boundaryField
{
    back
    {
        type            empty;
    }
    inlet
    {
        type            zeroGradient;
    }
    front
    {
        type            empty;
    }
    top
    {
        type            zeroGradient;
    }
    outlet
    {
        type            fixedValue;
        value           uniform 80;
    }
    bottom
    {
        type            zeroGradient;
    }
    wall
    {
        type            zeroGradient;
    }
}


// ************************************************************************* //
