/*--------------------------------*- C++ -*----------------------------------*\
  =========                 |
  \\      /  F ield         | OpenFOAM: The Open Source CFD Toolbox
   \\    /   O peration     | Website:  https://openfoam.org
    \\  /    A nd           | Version:  11
     \\/     M anipulation  |
\*---------------------------------------------------------------------------*/
FoamFile
{
    format      ascii;
    class       surfaceScalarField;
    location    "0.35923705";
    object      phi;
}
// * * * * * * * * * * * * * * * * * * * * * * * * * * * * * * * * * * * * * //

dimensions      [0 3 -1 0 0 0 0];

internalField   nonuniform List<scalar> 
1652
(
1.706212168242977
0.5337381654478366
-1.763034163104749e-13
1.172474003768359
0.5337381584212459
9.350298313393068e-13
0.6387445850813942
0.5335571548456057
5.031530747601209e-13
0.5291695198006943
-8.919753824443433e-12
0.105711133740521
1.706212168247671
1.067476330876201
1.172474005829479
1.067476302840251
0.6387502464338275
1.06710550793859
1.053469952152394
0.1085008298315405
1.706212168244342
1.601214496297513
1.172474013702345
1.601214386895699
0.638806871127312
1.600473899767799
1.575038116963584
0.1089061387410858
1.706212168319533
2.134952661525119
1.172474043756399
2.134952228726412
0.6388942761021847
2.133493278655261
2.097351317103447
0.1052259084531561
2.651191214816916
1.723711780177983
3.167429763782201
1.72371177912578
3.683668090047894
1.72371185120746
1.723712858919712
4.19990697164177
2.651189460776765
1.207473399363975
3.167421594036581
1.207473287096494
3.683647048421612
1.207475968346821
1.207511808076526
4.199820705337171
2.649581364039972
0.6899954904940158
3.166040557308347
0.6888415059150477
3.682702430844169
0.6872903341015353
0.6887247580757279
4.194525734618617
2.650874518405678
0.1168378768953986
3.273932074838174
0.04172461463730348
3.912955165393847
0.01811962018836194
4.554446555117713
0.01129148385241208
4.164891486874425
0.035016396880302
4.129861133695103
0.0350048163948985
4.094845354465189
0.03485880918060902
0.0347832817268402
4.059707999381938
4.16498993329591
0.06971402143914462
4.130355905748232
0.06893656173752089
4.096344159403255
0.06750053025790476
0.06567961060193511
4.062546347307272
4.174765260049583
0.08242249454945705
4.160204203268651
0.07410490740634307
4.152940711062415
0.06155647530682334
0.05298174658122429
4.147974874429731
4.603056328400096
0.00622920626714385
4.647547450134816
0.005264136032503863
4.68068391639251
0.006631573775790267
4.712916959107273
0.007741204714618422
4.670365420939619
0.1044175513426404
-0.06872497320389245
4.585724730306306
0.1015336178649275
-0.0183818847780759
4.50368035319693
0.09666918568582372
-0.00894176925174206
0.0878584639237614
4.431572633105283
-0.006796809935275844
4.220096413447775
0.01360744180953993
4.275163107292935
0.02651446270534208
4.31433990600353
0.03726915566087619
0.04540991550866325
4.338142577069183
4.06884478168772
0.001073230667566372
4.081319793205686
0.002963614614802546
4.098854801278953
0.005655621963683188
0.009950139399605762
4.118433424157875
4.059561396801079
4.059934642350334
4.061254174661713
4.064432384623637
4.069795853051137
-0.01554494073760515
4.077679542713048
-0.02162148058349656
4.087623567323333
-0.0280178469015443
-0.03210802933073875
4.096917199929177
4.138847538308695
-0.05369594161661928
4.158817405202639
-0.06003539061058166
4.17699746994858
-0.06321996968914878
-0.06156523899619121
4.190974755840444
4.347633801604087
-0.07864942493559413
4.345713665376259
-0.06822783723667697
4.333663750106995
-0.05402393142818174
-0.04809067240540904
4.319208263963566
4.365059685985435
-0.007518742421695618
4.316425475938848
-0.00596074650571729
4.273216010713517
-0.003535215022323512
4.244284409607219
-0.002871867037009646
0.04263141171783724
4.228675035372451
-0.01747978549296147
0.05775056564068898
4.308730571040261
0.03447598601743063
4.19983204977602
4.101808974790195
0.04041921374170887
4.249423133907014
-0.1456634227516993
0.04760738764427075
4.301615578528644
0.03368348056137382
4.206144167406608
4.102832873151191
0.07818241449761526
3.985004092132733
-0.1400052799419796
0.04627166264592253
4.30888537104314
0.02810072999562074
4.211434336043259
4.098034232811011
0.1746612694383901
3.682273374147671
-0.04233660806388345
0.0656579417419928
4.316411013726118
0.02803776145321146
4.226445643515158
4.100476959952195
0.0703322187561114
3.979814569919211
0.1235562907554956
4.132435384023434
0.08027899578099773
4.217518886605443
3.560891491836397
0.1473565492028394
0.06627751923742953
3.876833091914929
0.08925335147421715
4.042792571560947
0.008554863686485947
4.094876477313064
3.434666053076095
0.111799997570755
0.0527980567945715
3.784938190506233
0.01845248304799996
3.955720010819083
-0.07013762759550823
3.93466823886842
3.332936099894832
0.05847372312452148
0.02148964943140763
3.70544248355457
-0.08849343004446042
3.861474587967133
-0.1185520314795991
3.745428988390369
3.239256473768739
0.02716046213640355
0.1401539097424296
3.155192181125543
0.002272587476326859
0.1880860649713525
3.584086455503423
0.03402724595655127
3.734484163633845
3.642165300501379
0.1485179646979757
3.077803209554488
-0.006619685101502792
0.2559949519288532
3.472521908086303
0.1028856413463118
3.584916128845162
3.592148616011056
0.1404619042324196
2.995520736021709
0.002475201490101497
0.2945974503153014
3.346351864247373
0.1909921069160589
3.4500914780539
3.557359064616166
0.1099859402885328
2.890871286109131
0.01568640669685351
0.2666314393577585
3.221602186535684
0.251098255873753
3.30425677486436
3.515472173153621
-0.2198605522847252
3.464405067869685
-0.1874176569182084
3.230011809915957
-0.04683126344545874
3.107244405081232
2.789610702914862
0.04415746259800479
-0.1620750969825834
3.40243311224902
-0.1271062920953283
3.139808465291259
0.001551387094788637
3.004997775182175
2.707307157314736
0.06647366022489209
-0.1025098720810653
3.328925083889783
-0.05274304439318733
3.057281203939424
0.06928482558973564
2.911615024074589
2.641312191952427
0.1219614298232105
-0.03597123997300267
3.224303903478539
0.03387164080157778
2.967053513455071
0.155689011087064
2.819841905081472
2.569307872995879
0.2296405046127354
-0.3468343316587457
3.454813415778316
-0.5764961564758815
3.185793535214695
-0.71532415912935
3.000044325805559
2.633113865528699
-0.7690707792400355
-0.3002087292364732
3.659651188511577
-0.5257819533245711
3.407276943545715
-0.6286982610134001
3.176610719067717
2.281262311042156
-0.2632236234371484
-0.2736585270994824
3.844644930634378
-0.4821409263356963
3.621430143309793
-0.5140375414322184
3.331024082378903
1.803007113623659
-0.02966563391528011
-0.240258958518664
4.011168716699622
-0.4394777107722584
3.827813682759286
-0.3630689165939842
3.438904595480518
1.41772808257231
-0.01228119989392431
0.1576808780131257
1.459265898976314
-0.01047808796982449
0.2075842757776876
3.529869059999275
0.10421196568396
3.938194273969427
4.062976579067215
0.1656292245318731
1.439675314440876
-0.007978914498849986
0.1877443083325017
3.625674924547981
0.0947237193658173
4.050909849461624
4.108049460989183
0.1503822139822252
1.343317253692439
-0.003393873478300533
0.1686297945687059
3.723211455904159
0.08924767342662154
4.160213172242286
4.149924696487295
0.1199113082752927
1.254281853322848
0.002202906298871075
0.1500456233894971
3.816528859407127
0.08903418631888665
4.257715723723948
4.196625938033769
-0.2359525142600664
1.570202391356609
-0.01567253310263819
-0.184587983695693
3.985441276395651
-0.04698245167959625
4.197996833350399
4.097717827932424
-0.2649895622901137
1.927847610986342
0.005973867858280205
-0.1781055418450382
4.069002694696204
-0.03211445995626905
4.113303771107232
4.060050832419522
-0.2623645725546685
2.245155140481808
0.0335871685714151
-0.134445658227295
4.102206430337616
-0.02063087834564192
4.067476133733886
4.056535985881968
-0.2321306982908473
0.08786583065844195
2.498257131301417
-0.1113841877517786
4.099524527396921
-0.0164877780163617
4.039832516739423
4.056691365120357
0.3370436376207918
-0.4386171095898397
-0.01287169682188557
5.615063969344192e-12
0.8928677927496225
-0.413066000584362
-3.312905505481467e-13
1.633809591941997
-0.4646876974852336
7.500666754367558e-13
-0.5171011870526407
-1.260858084606298e-11
0.3341160685226154
-0.8918369397763686
-0.01277407801431948
0.9068204874093814
-0.8655164639451121
1.634735430726659
-0.9425089161603557
-1.035759117142116
0.3307524795616
-1.351360528562757
-0.01558024530050306
0.9266016813124786
-1.343380525936343
1.638842786855699
-1.451593491278857
-1.556743732648244
0.3240813622858177
-0.01607249161123408
-1.703816984469277
0.9567804362016209
-1.851429244815431
1.647526474249617
-1.983871158100419
-2.082285656190849
-0.2321306982912468
-2.245155140485569
0.08786583065845811
2.49825713129644
-0.1113841877479628
-4.102206430339661
4.099524527398098
-0.01648777801259094
-4.067476133731317
4.039832516738577
-4.056535985874235
4.056691365116094
-0.2623645725530467
-1.927847610989572
0.03358716857214437
-0.1344456582302808
-4.069002694707914
-0.02063087834724198
-4.113303771112015
-4.060050832424461
-0.2649895622914131
-1.570202391362433
0.005973867858603585
-0.1781055418475367
-3.985441276401103
-0.03211445996129303
-4.197996833351565
-4.097717827929166
-0.2359525142597524
-1.254281853324794
-0.01567253310241441
-0.1845879836998559
-3.816528859419505
-0.04698245168438375
-4.257715723724459
-4.196625938026473
-0.1042119656791306
4.062976579085933
-4.011168716724814
-0.2075842757654099
3.938194273991656
-3.827813682789452
-0.1576808780068461
3.529869059976351
-3.438904595450776
1.459265898948077
-1.417728082550122
-0.01047808797005294
-0.09472371936004009
4.108049460992576
-0.1877443083180586
4.050909849475429
-0.1656292245268865
3.625674924535306
1.439675314430533
-0.007978914498972714
-0.08924767342116585
4.149924696481352
-0.1686297945510944
4.160213172251972
-0.150382213977211
3.723211455901912
1.34331725369091
-0.003393873478036179
-0.08903418631189369
-0.1500456233734497
-0.119911308270231
0.002202906298755275
0.3630689165977637
-1.803007113610509
-0.0122811998939244
0.4394777107872395
-3.331024082365166
0.2402589585339118
-3.62143014333601
-3.84464493065367
0.5140375414363237
-2.281262311029698
-0.02966563391452329
0.4821409263502028
-3.176610719063097
0.2736585271109342
-3.407276943567552
-3.659651188526878
0.6286982610206648
-2.633113865525619
-0.2632236234359207
0.5257819533395095
-3.000044325803348
0.3002087292466777
-3.18579353522605
-3.454813415784576
0.7153241591366331
-2.569307872996394
-0.7690707792419897
0.5764961564882665
-2.819841905082767
0.3468343316617491
-2.967053513461449
-3.224303903477681
-0.2198605522836637
3.464405067881622
-3.515472173168773
-0.1874176569116273
3.230011809931326
-3.304256774887121
-0.04683126344022248
3.107244405070433
-3.221602186516833
2.789610702905287
-2.890871286097447
0.04415746259444642
-0.1620750969751373
3.402433112255455
-0.1271062920872438
3.139808465299615
0.001551387101370372
3.004997775173228
2.70730715730699
0.06647366022497392
-0.1025098720785934
3.328925083892567
-0.0527430443855158
3.05728120394609
0.06928482559401478
2.911615024070235
2.641312191949396
0.12196142982255
-0.0359712399684794
0.03387164081093275
0.1556890110901842
0.2296405046131177
0.1099859402913616
-2.995520736010485
0.01568640669770949
0.266631439362913
-3.346351864238711
0.2510982558769969
-3.450091478068406
-3.557359064627362
0.1404619042350899
-3.077803209549718
0.002475201489831047
0.2945974503218263
-3.472521908083082
0.1909921069208725
-3.58491612885253
-3.592148616018345
0.1485179647010738
-3.155192181118244
-0.006619685102761563
0.2559949519345572
-3.584086455506935
0.1028856413458777
-3.734484163637357
-3.642165300503554
0.1401539097445287
-3.239256473771068
0.002272587475924182
0.1880860649792154
-3.745428988391367
0.03402724596045137
-3.861474587967803
-3.705442483552422
0.07033221875739315
3.97981456992021
-4.100476959950496
0.1235562907560572
4.1324353840243
-4.226445643513139
0.0802789957842226
4.217518886609148
-4.316411013728574
3.560891491840117
-3.682273374150296
0.1473565492014542
0.0662775192394307
3.876833091916433
0.08925335147524688
4.04279257156299
0.008554863688553294
4.09487647731679
3.434666053075644
0.1117999975687792
0.05279805679606653
3.784938190508027
0.01845248305580627
3.955720010822721
-0.07013762759549658
3.934668238875169
3.332936099894393
0.05847372312394106
0.02148964943372444
-0.08849343003868271
-0.1185520314788295
0.02716046213708345
-4.098034232810541
-0.02803776145238368
-4.102832873152759
-0.02810072999471869
-4.101808974791614
-0.03368348056076342
-0.03447598601771917
-4.096917199930316
-4.21143433604469
-0.06565794174458472
-4.206144167405339
-0.04627166264646998
-4.199832049770896
-0.04760738764333516
-0.05775056564037029
-4.1909747558357
-4.308885371046578
-0.1746612694356356
-4.30161557853219
-0.07818241449631191
-4.308730571039985
-0.04041921374288732
-0.04263141171766949
-4.319208263964704
-3.985004092140958
-0.04233660806413642
-4.249423133908255
-0.1400052799427081
-4.228675035371356
-0.1456634227488389
-4.244284409607747
-0.01747978549283905
-0.03210802932929369
-4.087623567321877
-0.06156523899483751
-4.176997469943774
-0.04809067240404935
-4.333663750111448
-4.273216010713847
-0.002871867037801845
-0.02801784690262354
-4.077679542713633
-0.06321996968715982
-4.158817405197401
-0.05402393142628564
-4.345713665382324
-4.316425475937
-0.003535215020326221
-0.02162148058173652
-4.069795853052666
-0.06003539061125318
-4.138847538302367
-0.06822783723562414
-4.347633801612741
-4.365059685985024
-0.005960746506045306
-0.01554494073468049
-4.064432384629872
-0.05369594161767471
-4.11843342415094
-0.07864942493534111
-4.338142577080826
-4.431572633106526
-0.007518742420022595
-0.001073230669368153
4.059561396801794
-4.059707999376258
-0.01360744181162632
4.068844781670792
-4.06254634728745
-0.1044175513462072
4.22009641346448
-4.147974874447568
4.670365420948845
-4.712916959119141
-0.06872497320382517
-0.002963614616793175
4.059934642350392
-0.02651446271044189
4.081319793192343
-0.1015336178682763
4.27516310730651
4.585724730313851
-0.01838188477915489
-0.005655621969621216
4.061254174663305
-0.03726915567016975
4.09885480126697
-0.09666918568993577
4.314339906016034
4.503680353201235
-0.008941769253547616
-0.009950139401656455
-0.04540991551249679
-0.08785846392658792
-0.006796809935047859
-0.05298174658625715
-4.680683916400501
0.007741204714204031
-0.06567961061544841
-4.152940711069521
-0.03478328173189127
-4.096344159394936
-4.09484535446442
-0.06155647531244657
-4.647547450139816
0.006631573775394806
-0.06750053027088532
-4.160204203267823
-0.03485880918382056
-4.130355905752212
-4.129861133703339
-0.0741049074135155
-4.603056328402012
0.005264136031513655
-0.06893656174933205
-4.174765260043292
-0.03500481639560282
-4.164989933314351
-4.164891486872475
-0.08242249455360301
-4.554446555100691
0.006229206269003806
-0.06971402145174538
-4.194525734604809
-0.03501639688376301
-4.199820705363998
-4.199906971647897
-0.6887247580738828
-3.912955165363698
0.01129148385275358
-1.207511808068694
-3.682702430832711
-1.72371285892513
-3.683647048439166
-3.683668090047854
-0.6872903340994838
-3.273932074805051
0.01811962019165775
-1.207475968339361
-3.166040557304084
-1.72371185120901
-3.167421594050948
-3.167429763785865
-0.6888415059146694
-2.650874518377917
0.04172461463338345
-1.20747328709277
-2.649581364039129
-1.723711779126115
-2.651189460780161
-2.651191214823021
-0.6899954904940054
-2.097351317091646
0.1168378768886109
-1.207473399364148
-2.133493278660582
-1.723711780188847
-2.134952228731157
-2.134952661529125
1.706212168246033
0.5337381654428739
1.172474003772975
0.5337381584278971
0.6387445850846275
0.5335571548465901
0.5291695197893256
0.1057111337440825
1.706212168248594
1.067476330870286
1.172474005829724
1.067476302839586
0.6387502464344232
1.067105507946033
1.053469952141739
0.1085008298329081
1.706212168246498
1.601214496294725
1.17247401370223
1.601214386893444
0.6388068711265666
1.600473899770229
1.575038116963675
0.108906138740285
1.706212168319974
1.172474043754007
0.6388942760992549
0.1052259084515439
0.1054762316656323
0.105476231669774
0.1054653913322183
0.1079721219871633
0.105922513233374
0.1078287804986122
0.1026793084636498
0.1077871446262266
0.107972121984595
0.1054653913365555
0.1076782117322894
0.1076782117347461
0.1081688402897065
0.1066956980536029
0.09903951170816164
0.1111325200544812
0.1078287804997487
0.1059225132367315
0.1066956980540701
0.1081688402923958
0.1063680711483612
0.1063680711484738
0.09589779291269593
0.1089243882582872
0.1026793084681933
0.1077871446280774
0.09903951171080934
0.1111325200562293
0.09589779291726999
0.108924388257796
0.09567817286626
0.09567817287123011
-0.03916483176669594
0.134042485653499
-0.06253203706551203
0.1313125581375841
-0.08851461805683547
0.1359908537468608
0.1348760670320213
-0.005682164966262837
0.1388609404363975
-0.01617533448686193
0.1408669283091974
-0.02705987925697678
0.1458977462559065
0.1484336088024356
-0.0009897370296808594
0.1391851993174866
-0.007344034020407841
0.1464985131082906
-0.01313439843279085
0.1509051671174385
0.1525076666154141
-0.00121871842173582
0.1398031457116775
-0.006135057698824775
0.1507758060739033
-0.00921935895926862
0.1533082252773988
0.1538215424436801
0.153303120968377
0.006169574147896706
0.1533720883514632
0.004948541065792733
0.152620096710068
0.007183191680530665
0.006669560881627346
0.1537744816823683
0.1535206746259464
0.005391474702434729
0.1538379638598333
0.004325676851400617
0.1539161475805167
0.006914479517344196
0.003199577391982233
0.1574316261616933
0.1528814117667971
0.002725278467419379
0.1538629276018312
0.003033506037014966
0.1547047624435943
0.005885408288881511
-0.009752648663213292
0.1676840160484216
0.1419776322728594
0.144651553738965
0.1502910753608635
0.1404652901554082
0.1402988976708752
-0.0551008915582008
0.1310927778875467
-0.008870380458635169
0.1296687719325452
-0.006961207049276497
-0.006209408291895785
0.1296550939062644
0.1446496195455783
-0.04222971158108829
0.1388102775447974
-0.002739833509602496
0.1356409904774026
-0.003209404056255694
-0.003925130727092802
0.1339572701278548
0.1511964630352921
-0.02570026163933473
0.1456023049939858
0.003129661013076462
0.141637275178776
0.001326783405941639
8.870905238433924e-05
0.1382175639613214
0.1147562605888336
0.1181759127351418
0.1201040516230633
0.1208093849661128
0.1299200916561189
-0.006882544572464733
0.130844161166143
-0.005824216955232636
0.1320144082585051
-0.003767084559213041
-0.003038495777238193
0.1331207481071475
0.1327149617403043
-0.004747775870856036
0.1322448648913327
-0.004284424757782401
0.1322700944821277
-0.002830342071474007
-0.002528171968212423
0.132695107622738
0.1355128497036535
-0.001149127414154405
0.1336078611072455
-0.001296574046689841
0.1325487268451156
-0.0007878359785684075
-0.001115502701709958
0.1321948613871587
0.1205604472162393
0.1203303048105305
0.1204691470638092
0.1203652588466242
0.137788576948513
-0.02482861699171199
0.134882613223439
-0.1505003033485041
0.1107596114081876
-0.1229659119472882
-0.01104203169305379
0.08051134964979922
0.1322027929253124
-0.02831627214935506
0.1023250311096097
-0.1270273373594122
0.05610817741686741
-0.08144737828943754
-0.002616593016117386
0.04679670080159744
0.1239353247108441
-0.02441158126061571
0.05391263408748828
-0.06299658078696835
0.002564393471872928
-0.03524052036791409
-0.006634808051368235
0.004849225615753489
0.0909562866705963
0.02205304983922576
-0.01732386201277153
-0.02687792244760996
0.1047430152133627
0.1254178718809575
0.1177022142164911
0.1030275578242754
0.1245918865959435
0.05756171834340229
0.02675348219426332
0.129844016940026
0.08613653022390634
0.08814309143606724
0.1121676654548662
0.08104227562873834
0.1233710881837556
0.05040375538416875
0.02496199600765237
0.1295953356030669
0.05318276484558424
0.04164876313153809
0.09764520948748402
0.04051989515208898
0.1175439077448843
0.03378396246188142
0.02014569727327287
0.1261442152360035
0.01606348794533768
0.06047012806359421
0.09669638871665384
0.1200202723819647
0.1350665423727833
0.003068119681068016
0.140024881723439
-0.006417240870295493
0.1434898131382893
0.001381615889350152
0.01112159986554817
0.1477709655651168
0.1347762556486775
0.005054683797783288
0.1395686357122699
-0.002603033789101317
0.1424688054105048
0.001754751357502804
0.006795053223027536
0.1464998309058169
0.1319895594242062
0.006205203975743312
0.1376969777436909
0.0001345786271456095
0.1417125600963584
0.001461557584516049
0.00311975938508946
0.1452932551136088
0.1330968782026885
0.1388412848635679
0.1429866792739778
0.1462795166674044
0.1586638437820111
0.031787538386578
0.1726591542597089
0.05121754404562795
0.1922475750504236
0.1023173267090339
0.1805134811735053
0.2412399796850249
0.1566728699199572
0.01993621296938397
0.1704612045029423
0.03610930568138349
0.1914989033982617
0.08113531213360231
0.1229080004632814
0.2492073384422279
0.1538903215174924
0.009770580732075929
0.1672302618200187
0.02142000631416308
0.1942631670263681
0.05345213890416289
0.03428843532124481
0.2830991298835807
0.1546647510482546
0.1746625484242005
0.2273712672850905
0.2615308844851897
0.1220014365550981
-0.6494854596834381
0.01214932256032018
-0.1526509236293777
-0.002597117608400804
-0.01384694073488485
-0.009765699787068581
-0.003860732135146932
0.08463896700059377
-0.4845211019037
0.001807035152202776
-0.06912179374149244
-0.004315326102622589
-0.006798988985704096
-0.006316592884083101
-0.006748279705650523
0.04503313666556329
-0.2463298424291019
-0.002596041930336387
-0.02080254693428929
-0.005881487701447909
-0.00257686405652356
-0.003320583795828466
-0.008045774494745814
0.0151795712819016
-0.004926151355398461
-0.006659501444154777
-0.009082462100422696
-0.005367082331113048
-0.007899557220256849
-0.006842745571158111
-0.005047369968313993
-0.008519324466679537
-0.000810534965939063
0.003538114987989293
-0.009128794692863089
-0.008192575671055751
-0.005611308206403487
-0.009147305011187899
-0.002763164351270435
-0.009653890001813561
0.0007065994765995676
0.003168501433956077
-0.008476746962147452
-0.009688784112968894
-0.002882236079574465
-0.009469025530388531
-0.001545643678116743
-0.008702839277378274
0.0009290551154534712
0.002634956552168721
-0.007328877396867006
-0.01079235839578527
-0.01094988555444663
-0.009120765602879716
-0.00572327763016608
-0.008421292098364296
-0.01576928086885619
0.00194300523551541
-0.002849618011441124
0.02247359117674193
0.01462015876074647
0.07047381506620898
0.04243662968604133
-0.009509145335383756
-0.0139620910497791
-0.00705386661363603
-0.003681894593178484
0.008908844738405662
4.062410442831621e-05
0.04770557002226627
0.03388580919136606
-0.01176764176353123
-0.008575111258407701
-0.01145457608487426
-0.002555921211439355
-0.003607507144689499
-0.006446029165810344
0.02557343801401556
0.02032655385945711
-0.0130920166738068
-0.01388672325204226
-0.01901302142780568
0.008975715059479347
0.04129057830388509
-0.006356748409732479
0.01063478513503201
0.03999944584564978
-0.00744538692062964
0.01126597378301569
0.03677228506002173
-0.01237317722824721
0.017040456551047
-0.01696910038233103
0.0281797514954168
0.02546623958634322
0.03266453922905613
-0.003783825578184026
0.03078333224774738
-0.004784093700565595
0.02748561715128987
-0.008732170116745555
-0.01083077455016808
0.02109979769060672
0.01849755339108154
-0.001709152493735433
0.01641337659018571
-0.002220638488881845
0.01257206240100282
-0.004436968360205341
-0.005015149653068401
0.006837814227742343
0.006533080645813191
0.004582742343738871
0.0002902131569741603
-0.004408732119723299
-0.00641108811019394
0.002584395829177955
-0.006056236414983505
0.0007783965434179467
-0.003634251806686917
-0.0008802492538878444
-0.001874214899856657
-6.215167269729704e-14
0.003495845080346068
0.006009688492047617
0.00102796681277724
0.003639476299224599
-4.024650905484067e-05
0.0009232198423138535
-0.0009164625394475732
-2.717270852770071e-14
0.01669110468045448
0.01018020966069826
0.01132018526032506
0.008928099284159257
0.005680765964333048
0.006652521989293784
0.00507296427730284
1.684069550478284e-14
0.02173989231143288
0.01431331790078748
0.007707621234116807
5.65381075290361e-14
-0.001874214899862614
0.003634251806579537
-0.0009164625394503072
4.024650902847288e-05
0.00507296427730371
-0.005680765964300338
-0.007707621233997111
0.01287169682178804
-0.0008802492538857419
0.006056236414916025
0.0009232198423092218
-0.001027966812877451
0.006652521989331469
-0.01132018526042216
-0.01431331790074637
0.01277407801443209
0.0007783965433897921
0.006411088110046474
0.003639476299222948
-0.003495845080297613
0.008928099284280372
-0.0166911046804721
-0.02173989231143707
0.01558024530032637
0.002584395829250501
0.004408732119772357
0.00600968849204583
-0.006837814227821613
0.01018020966078648
-0.02109979769057428
-0.02817975149562833
0.01607249161105643
-0.03677228505994553
-0.01696910038212665
0.02546623958658189
-0.03999944584565827
-0.01237317722821824
0.01704045655101202
-0.04129057830389567
-0.007445386920603786
0.01126597378307831
-0.006356748409809036
-0.04243662968607874
0.01063478513501976
-0.02748561715132881
-0.0108307745501918
-0.03078333224768713
-0.00873217011679854
-0.03266453922911449
-0.00478409370060421
-0.00378382557824801
-0.03388580919144411
-0.01257206240107121
-0.005015149653028367
-0.01641337659015876
-0.004436968360123122
-0.01849755339123529
-0.002220638488937172
-0.001709152493762595
-0.02032655385953796
-0.000290213156983396
-0.004582742343788512
-0.006533080645844985
-0.008975715059573272
0.01901302142767016
-0.02557343801407817
0.01388672325202535
0.006446029166135903
0.01309201667379222
0.002555921211381526
0.008575111258189223
0.005723277630184848
0.003607507144678966
-0.04770557002231954
0.01145457608479443
-4.062410466464106e-05
0.01176764176341722
0.003681894593084462
0.01396209104988494
0.007328877396880809
-0.008908844738538549
-0.07047381506624029
0.00705386661352966
-0.01462015876098251
0.00950914533528285
0.002849618011464869
0.01576928086854174
0.00847674696212997
-0.0224735911769305
-0.001943005235593615
0.008421292098179713
0.009128794692867852
0.008519324466684599
0.003538114988000156
0.006842745571232628
-0.0008105349658976482
0.005367082331169008
-0.005047369968451265
-0.007899557220310108
0.003860732135102201
0.009653890001804956
0.003168501433945405
0.009147305011226068
0.0007065994765759129
0.008192575671067128
-0.002763164351342495
-0.00561130820644508
0.006748279705656986
0.00870283927733935
0.002634956552181621
0.009469025530419775
0.0009290551155781979
0.009688784112975656
-0.001545643678190167
-0.002882236079615521
0.008045774494745269
0.009120765602940133
0.0109498855544813
0.0107923583958102
0.009082462100423567
0.002597117608373749
-0.009765699786993954
-0.01214932255980232
-0.01384694073462478
-0.1220014365541383
-0.1526509236286945
-0.6494854596840368
-0.2412399796842224
0.004315326102664973
-0.006316592884007267
-0.00180703515201765
-0.006798988985604355
-0.0846389669999258
-0.06912179374124851
-0.4845211019036627
-0.2492073384422107
0.005881487701476781
-0.003320583795816352
0.002596041930405621
-0.002576864056477448
-0.04503313666526634
-0.02080254693415818
-0.2463298424290491
-0.2830991298835804
0.006659501444160821
0.004926151355430283
-0.01517957128184273
-0.2615308844853883
-0.1922475750505137
0.1805134811744971
-0.1726591542594974
0.102317326710809
-0.1586638437821498
0.05121754404777357
0.03178753838804038
-0.1477709655651506
-0.1914989033980554
0.1229080004619403
-0.1704612045030646
0.08113531213289776
-0.1566728699197597
0.03610930568294402
0.01993621296807968
-0.1464998309057869
-0.1942631670260343
0.03428843532153814
-0.1672302618201806
0.05345213890514855
-0.1538903215171494
0.02142000631738095
0.009770580732654577
-0.1452932551137646
-0.2273712672844854
-0.17466254842481
-0.1546647510480538
-0.146279516667447
-0.143489813138348
0.01112159986550876
-0.1400248817233328
0.001381615889102128
-0.1350665423722113
-0.006417240869413643
0.003068119680787573
-0.1298440169399442
-0.1424688054106421
0.006795053221468561
-0.1395686357118231
0.001754751360705686
-0.1347762556483427
-0.002603033789063347
0.00505468379740126
-0.1295953356029203
-0.1417125600961271
0.003119759387124055
-0.1376969777434069
0.001461557583814166
-0.1319895594237988
0.0001345786270967597
0.006205203976523355
-0.1261442152359609
-0.1429866792740673
-0.1388412848634428
-0.1330968782024153
-0.1200202723817977
-0.1245918865961324
0.02675348219416807
-0.1177022142164954
0.05756171834323254
-0.1047430152135534
0.1030275578236185
0.1254178718812198
-0.08051134964993821
-0.1233710881837984
0.02496199600696503
-0.1121676654548788
0.05040375538277175
-0.08613653022423146
0.08104227562676758
0.08814309143738741
-0.04679670080170714
-0.1175439077448084
0.02014569727341875
-0.09764520948779348
0.03378396246160242
-0.0531827648456641
0.04051989515380283
0.04164876312936749
-0.004849225616269132
-0.09669638871630536
-0.0604701280632023
-0.01606348794561702
0.02687792244813503
-0.1107596114086598
-0.01104203169307499
-0.1348826132238952
-0.1229659119479336
-0.1377885769487122
-0.1505003033474606
-0.02482861699136238
-0.1331207481074232
-0.05610817741722149
-0.002616593016984192
-0.1023250311102605
-0.08144737828985299
-0.132202792925575
-0.1270273373589601
-0.02831627214906873
-0.1326951076229355
-0.002564393472085466
-0.00663480805116401
-0.05391263408809789
-0.03524052036795355
-0.1239353247111208
-0.06299658078689113
-0.02441158126045864
-0.1321948613872986
0.01732386201276279
-0.022053049839281
-0.09095628667072758
-0.120365258846586
-0.1320144082585788
-0.003038495776566952
-0.1308441611659478
-0.003767084558964462
-0.1299200916561771
-0.005824216955407857
-0.006882544572853755
-0.1296550939061069
-0.1322700944821922
-0.002528171967682097
-0.1322448648911904
-0.002830342071004965
-0.132714961740206
-0.004284424758040195
-0.004747775870792281
-0.1339572701278349
-0.1325487268449957
-0.001115502701478283