/*--------------------------------*- C++ -*----------------------------------*\
  =========                 |
  \\      /  F ield         | OpenFOAM: The Open Source CFD Toolbox
   \\    /   O peration     | Website:  https://openfoam.org
    \\  /    A nd           | Version:  11
     \\/     M anipulation  |
\*---------------------------------------------------------------------------*/
FoamFile
{
    format      ascii;
    class       volScalarField;
    location    "3.075";
    object      p;
}
// * * * * * * * * * * * * * * * * * * * * * * * * * * * * * * * * * * * * * //

dimensions      [0 2 -2 0 0 0 0];

internalField   nonuniform List<scalar> 
4455
(
5777.926
5786.2674
5802.9458
5830.2631
5870.8014
5924.8485
5998.4898
6100.0734
6252.7529
5821.048
5825.4153
5839.9922
5866.3955
5907.9514
5967.7694
6049.4381
6163.1962
6322.2006
5858.3684
5859.4266
5872.695
5898.6318
5941.4528
6004.6541
6089.0728
6207.6087
6364.2654
5889.0167
5888.619
5900.6163
5926.6175
5971.1913
6038.506
6128.682
6259.4676
6425.194
5913.3521
5912.3232
5923.7382
5950.3376
5997.2125
6069.5202
6168.3356
6313.5645
6484.3963
5931.4589
5931.0192
5942.3362
5969.5305
6019.4028
6096.988
6205.9736
6368.2319
6549.6936
5944.0916
5945.0638
5956.6273
5984.5935
6037.4953
6119.8504
6239.1645
6424.3112
6617.5111
5951.7813
5954.9409
5967.0856
5995.5725
6051.0889
6138.5173
6267.0798
6482.3294
6693.0682
5955.1027
5960.5083
5973.4541
6003.3739
6060.7199
6153.406
6289.8535
6541.7812
6781.9572
5954.6331
5951.2318
5946.0782
5940.263
5934.3887
5928.9646
5924.4835
5921.2378
5919.1636
5962.0958
5960.7507
5957.0704
5951.6397
5945.2287
5938.3622
5931.3676
5924.9243
5919.2331
5976.4043
5976.275
5973.4617
5968.4488
5961.6617
5953.6183
5944.6656
5935.3849
5926.3703
6008.8724
6010.4659
6008.1418
6002.8511
5995.1926
5985.7197
5974.8725
5963.1816
5950.942
6067.3444
6069.7476
6068.1838
6063.3024
6055.384
6045.0501
6032.7056
6019.1262
6005.2066
6167.024
6177.2516
6182.6218
6182.5118
6177.0129
6166.7681
6152.5309
6135.7831
6118.0553
6311.4008
6329.3957
6345.226
6356.6932
6360.0378
6355.0634
6341.9468
6323.3462
6301.3787
6611.567
6679.0668
6726.1942
6753.6744
6760.1907
6751.1084
6729.6663
6700.4796
6666.1718
6921.9927
7141.8922
7299.839
7328.6725
7297.0793
7241.8703
7166.3843
7077.561
6979.5716
5918.7211
5917.518
5915.4317
5912.7848
5909.5705
5905.7377
5901.0397
5895.4873
5888.8598
5915.2254
5911.5781
5907.6604
5903.4114
5898.3878
5892.3228
5885.1345
5876.8454
5867.2908
5920.4828
5918.0864
5915.6954
5912.3009
5907.7343
5902.3866
5896.0819
5888.431
5879.4151
5940.9207
5936.648
5934.473
5932.7125
5930.4159
5926.7171
5921.2017
5913.5999
5903.7834
5994.0688
5992.9799
5995.0962
5997.1094
5997.2314
5994.9391
5990.2235
5983.3949
5974.3131
6104.0212
6102.7974
6106.2692
6109.362
6109.4521
6105.8389
6098.4442
6088.0545
6075.4307
6283.5289
6281.9139
6285.8402
6287.9038
6284.9764
6276.9358
6264.2472
6247.7069
6228.4903
6632.7214
6607.0515
6583.0575
6555.0084
6520.5374
6480.5471
6436.009
6388.4726
6341.4763
6893.4074
6817.8467
6740.6474
6659.9443
6576.4008
6493.5214
6414.1116
6341.0309
6278.3223
6233.9597
6192.5253
6168.923
6171.7453
6199.447
6246.7559
6306.3149
6372.2851
6442.3583
6300.6579
6266.3364
6236.6786
6213.0186
6195.3959
6182.6323
6175.104
6173.0371
6175.7253
6209.1476
6190.9119
6173.4113
6157.3945
6142.1013
6126.9152
6111.9427
6097.5727
6084.6858
6061.2433
6047.1448
6032.5213
6016.8162
6000.035
5982.324
5963.7766
5944.4156
5924.2177
5963.4325
5952.1283
5939.5716
5925.8473
5910.5394
5893.1202
5873.7625
5852.4967
5829.3596
5892.7694
5880.9647
5867.1883
5852.6826
5835.9249
5817.1971
5797.965
5775.7595
5751.3626
5869.2516
5857.5074
5844.4451
5829.3007
5812.2351
5793.4949
5772.5828
5749.1442
5723.7349
5856.301
5844.3175
5830.7497
5815.096
5797.8005
5778.9747
5757.7316
5733.8723
5707.7523
5880.6093
5870.6056
5859.1358
5846.3573
5831.8026
5815.3081
5796.6769
5775.8884
5752.7591
5727.205
5698.9884
5667.4731
5632.3158
5593.3836
5550.951
5504.7735
5454.7201
5400.4569
5679.4019
5648.0091
5613.6492
5576.4034
5535.7407
5492.0612
5444.1851
5393.1337
5338.1481
5696.2855
5666.4979
5633.5585
5598.539
5560.0397
5518.1593
5474.6087
5427.0266
5375.013
5724.6917
5695.6573
5664.3994
5630.782
5594.5763
5555.3521
5513.6705
5468.3794
5419.4169
5804.4731
5777.933
5750.0661
5720.4868
5688.9633
5655.1099
5619.0096
5580.3525
5538.6701
5902.9443
5880.7582
5858.1691
5835.1936
5811.754
5787.2231
5761.0958
5732.444
5701.0774
6074.4722
6066.6384
6060.0819
6054.0567
6048.3609
6042.7255
6037.8922
6031.6928
6024.0583
6183.206
6196.7676
6213.8669
6233.4626
6256.8969
6279.0467
6302.9644
6324.4589
6340.1333
6516.6102
6591.9813
6671.8931
6754.6399
6835.4643
6924.8559
7014.4834
7098.5363
7199.2324
7288.128
6356.0799
6013.1509
5665.9133
5493.7477
5366.355
5320.2617
5279.5758
5341.4414
7366.377
6360.6085
5998.3291
5626.6537
5445.2293
5309.0081
5261.4548
5216.6182
5277.239
7461.1257
6354.4598
5980.2338
5582.2186
5392.2828
5246.4704
5197.8584
5149.0621
5207.9034
7482.7519
6341.87
5955.4373
5532.018
5334.4503
5180.5083
5130.4804
5076.6585
5132.9669
7497.4859
6310.2961
5923.0807
5474.8485
5271.0498
5108.2915
5056.6048
5000.0293
5052.8244
7492.1624
6238.2982
5885.3092
5410.1029
5201.4467
5028.9575
4979.3591
4918.0369
4966.6157
7385.8934
6160.6732
5836.0421
5337.4156
5124.7569
4945.6232
4895.9235
4830.9367
4875.5635
7352.8701
6099.7704
5776.3012
5255.8159
5040.6684
4855.2566
4805.2646
4738.7264
4779.1188
7420.4504
6092.869
5704.6706
5163.7395
4948.1189
4755.3127
4709.8204
4642.3271
4679.0835
4580.5741
4539.8275
4606.5733
4647.9827
4843.0024
5057.8004
5619.2475
6098.9474
7674.645
4483.2263
4431.7506
4494.0266
4533.1275
4723.4774
4932.9389
5509.6735
6015.4964
7757.3852
4366.0299
4317.6714
4373.2364
4407.9632
4590.3664
4787.1781
5372.0123
5872.2884
7605.1051
4235.8159
4198.2353
4246.7413
4272.8406
4444.2308
4622.9314
5202.3818
5699.9974
7371.4024
4097.0061
4072.0231
4112.3791
4130.3422
4285.7735
4443.9482
5007.1626
5510.8197
7128.3917
3954.4696
3940.8386
3971.4471
3982.0546
4117.4963
4254.3632
4793.8675
5303.0587
6856.7702
3805.8995
3803.9876
3824.4025
3826.7434
3939.9689
4053.3296
4564.7621
5073.6523
6571.0354
3655.2256
3663.8268
3671.5059
3666.177
3754.6044
3841.725
4317.4984
4818.6786
6274.1263
3500.3986
3520.5386
3519.2856
3501.6477
3562.2612
3619.9761
4051.6069
4540.2171
5963.4646
5639.1138
4234.3631
3772.3224
3388.2781
3365.507
3334.3373
3364.0987
3376.0139
3345.8056
5308.917
3908.5789
3476.318
3150.5584
3166.2603
3165.1664
3204.655
3230.2225
3187.7515
4961.5163
3560.4995
3167.266
2904.7747
2962.7093
2995.8608
3050.7374
3084.3496
3032.7393
4603.9823
3188.935
2845.435
2657.798
2763.3283
2828.6868
2898.7712
2939.8271
2878.1437
4225.1616
2792.2469
2517.5586
2412.5749
2568.6479
2665.3335
2746.6188
2798.5144
2728.2665
3828.6971
2373.7813
2183.6774
2170.9406
2376.5091
2508.5703
2601.1346
2658.9296
2580.7297
3401.0817
1930.5113
1849.2701
1937.6657
2196.9993
2359.3337
2465.3569
2523.9609
2441.2407
2942.3179
1468.7378
1520.8795
1721.2488
2031.4421
2221.6521
2336.0779
2395.6448
2304.8251
2445.2075
988.31584
1207.0581
1523.9081
1877.7665
2095.7834
2212.1363
2272.1901
2176.5659
2051.3588
2154.2663
2097.9537
1981.1351
1740.6272
1340.8366
898.79307
464.54739
1853.1117
1931.8439
2043.4163
1993.2405
1880.1006
1628.0474
1191.0481
623.75858
-103.0712
1102.5851
1811.8439
1938.3176
1896.8852
1796.7478
1542.252
1081.5903
411.99898
-636.55363
230.42634
1699.4109
1838.091
1808.847
1730.5663
1482.0672
1011.9786
280.05062
-1099.1622
-804.98185
1584.2394
1739.2777
1727.911
1673.2291
1442.8252
985.01086
241.9701
-1416.3862
-2057.4075
1476.3545
1641.4454
1647.417
1623.4519
1425.5845
993.87773
308.16062
-1549.4511
-3510.708
1362.1767
1542.5967
1574.5488
1580.678
1424.9823
1038.4762
440.51146
-1444.3222
-5125.5263
1256.0893
1440.2207
1497.993
1537.0819
1434.1086
1096.4167
625.56032
-1038.2187
-6436.3938
1088.7933
1336.3325
1418.7885
1493.2472
1448.4608
1148.035
789.14996
-297.03086
-7248.3651
906.56952
1228.1263
1329.7555
1442.1221
1440.4779
1151.2547
861.07056
448.12762
-7949.1101
745.41664
1120.294
1233.3133
1385.6724
1402.3476
1135.8017
813.0983
48.478008
-9543.6348
608.07089
1007.6497
1134.4263
1330.5775
1358.5802
1125.325
693.14842
-601.94986
-11808.847
473.25584
889.84715
1035.6793
1274.9011
1315.4725
1130.3234
611.33118
-1332.3686
-11890.13
334.72794
770.15415
938.54312
1222.8393
1287.8533
1158.3754
572.6305
-2310.9183
-9514.6584
186.27986
645.18204
839.00342
1172.9625
1282.6512
1192.5139
583.62672
-3232.8121
-8885.3985
36.952623
509.30753
729.0542
1117.318
1297.0543
1230.4322
599.37613
-4081.8753
-9766.0775
-115.15837
368.05247
609.14048
1047.1282
1324.8034
1301.4493
519.42419
-4737.1293
-10411.299
-262.65612
218.82196
477.83774
956.78061
1353.6303
1404.4227
434.43439
-4955.953
-10795.146
-10706.154
-4771.7314
422.44018
1533.4605
1369.0366
852.70095
343.57436
64.695225
-403.30941
-10607.054
-4692.9208
470.90792
1662.6059
1366.9384
739.72984
208.13463
-90.476268
-534.11014
-10500.844
-4738.2503
524.68939
1795.3313
1347.1031
609.73272
65.594081
-248.10107
-654.09107
-10361.07
-4762.2194
592.26926
1929.694
1309.589
461.9319
-82.516109
-405.53909
-762.05504
-10203.321
-4777.2827
627.48926
2044.035
1246.5094
297.4337
-232.51758
-560.85639
-860.64769
-10055.954
-4802.0711
677.04394
2152.1084
1167.8551
124.04264
-382.67483
-710.01815
-945.78487
-9890.5449
-4832.9987
716.141
2244.0018
1071.1052
-57.879745
-532.91537
-853.59319
-1006.093
-9498.061
-4856.5431
668.57126
2300.8936
948.94034
-252.90779
-685.48662
-992.26905
-1051.2087
-9122.7998
-4944.105
593.6014
2332.8584
800.07766
-456.51516
-841.29395
-1119.5346
-1094.6696
-8752.7509
-4831.6534
682.16032
2367.4198
501.66004
-814.6218
-1100.9344
-1307.6641
-1147.9915
-8304.5694
-4391.4985
872.80022
2250.8079
-142.38988
-1350.185
-1424.6325
-1493.5675
-1129.0289
-8092.2056
-4014.7433
802.28499
2010.2656
-904.23473
-1884.9192
-1707.4938
-1587.733
-1012.2295
-8061.5333
-3743.3941
685.76038
1707.4804
-1724.2131
-2359.1215
-1897.0752
-1568.1786
-825.21297
-8060.0856
-3423.8338
342.99347
1373.9168
-2583.217
-2716.382
-1991.8267
-1429.9853
-618.24563
-8041.2907
-3107.8009
-95.758473
892.89226
-3468.3296
-2944.7551
-1958.2873
-1207.1384
-435.38863
-8115.9066
-2887.6848
-684.14922
626.82903
-4354.0429
-3028.8039
-1837.8804
-967.5677
-257.24359
-8168.8804
-2748.6533
-1069.8876
63.173537
-5219.8118
-2956.1457
-1654.1321
-715.22065
-125.84991
-8118.9512
-2658.2022
-1027.8523
-286.95069
-5911.6804
-2703.7737
-1460.4602
-484.41288
-76.732073
-10305.911
-9619.1768
-7509.1334
-5441.3651
-4490.3865
-4395.6886
-3057.6959
-1784.6525
-83.032014
-10241.111
-9367.2815
-7361.6833
-5439.0758
-4869.8673
-4923.9136
-3356.4893
-1873.9298
-201.66314
-10167.599
-9104.1812
-7185.6391
-5392.5584
-5221.2065
-5441.3685
-3602.748
-1927.7897
-304.25056
-10086.817
-8831.8578
-6984.2622
-5307.5227
-5531.2189
-5903.8847
-3792.3571
-1946.8943
-388.27998
-10002.016
-8550.79
-6752.8241
-5178.4009
-5801.0893
-6277.9004
-3915.1539
-1920.553
-458.68665
-9917.8836
-8256.1133
-6492.8691
-5002.1551
-6036.6721
-6535.6384
-3966.302
-1844.5808
-521.63395
-9827.1222
-7942.7018
-6206.4811
-4787.1585
-6236.4978
-6671.0528
-3950.089
-1722.6443
-584.0023
-9710.7873
-7622.6
-5890.9598
-4540.061
-6394.8322
-6689.8496
-3872.5686
-1556.9373
-647.21504
-9585.301
-7289.8576
-5556.3672
-4271.1872
-6522.0772
-6590.5747
-3736.3851
-1349.3909
-711.46015
-10574.87
-14018.546
-5710.1221
-914.35505
662.7945
1348.8493
2295.9329
2818.5428
2359.7959
-11004.631
-14484.03
-6454.0581
-1398.253
510.38892
1269.4812
2119.9807
2682.4234
2666.4625
-11099.203
-14846.084
-7193.0783
-2032.4898
285.51942
1179.0305
1917.1352
2583.1506
2729.3301
-11200.452
-15084.331
-7876.3562
-2727.1693
-33.590197
992.6927
1659.1047
2363.5695
2689.9136
-11438.696
-15195.448
-8507.1089
-3442.915
-426.60647
780.65325
1426.6446
2171.7951
2552.6201
-11876.27
-15224.033
-9092.5732
-4146.4473
-927.14175
539.11945
1220.8796
1878.4647
2378.2376
-12444.48
-15203.918
-9609.9006
-4831.8722
-1496.9461
210.07475
1008.9473
1618.5179
2167.073
-12886.833
-15112.862
-10035.598
-5374.8158
-2014.9684
-179.78027
764.87884
1346.1399
1969.1091
-12968.272
-14915.028
-10387.265
-5785.4652
-2478.1867
-540.8939
502.35404
1060.8785
1755.2025
595.36725
-274.92684
-612.3597
-1823.8896
-3311.2819
-5770.6957
-9383.714
-13386.275
-11648.22
763.58819
-137.23136
-508.67604
-1736.4549
-3316.9968
-5892.1436
-9702.5389
-13670.408
-11738.996
909.19785
5.929835
-394.40057
-1623.4553
-3284.9587
-5966.902
-9965.8929
-13907.844
-11827.45
1036.1437
150.90403
-274.87058
-1496.9018
-3226.2963
-6009.3788
-10180.914
-14104.246
-11925.407
1157.8812
292.2798
-154.42535
-1361.4068
-3153.8022
-6038.3127
-10357.15
-14316.81
-12047.914
1275.5911
431.22043
-34.691575
-1225.1887
-3068.5337
-6058.7357
-10497.669
-14478.119
-12203.82
1388.2359
567.34186
81.157768
-1088.6807
-2979.5955
-6067.9398
-10604.823
-14643.071
-12422.071
1494.7187
700.88974
194.75135
-949.47435
-2877.6182
-6059.0484
-10680.658
-14760.002
-12778.774
1595.1235
833.9855
306.96394
-807.43357
-2762.4886
-6016.2461
-10720.431
-14918.542
-13001.294
-11521.056
-13004.783
-8931.3858
-5573.1984
-3274.6581
-1893.5041
-714.48211
-407.0103
412.85919
-11557.391
-12836.256
-8296.7038
-5307.9778
-3212.1417
-1944.0369
-815.68791
-530.23005
244.69764
-11219.215
-12618.48
-7627.1486
-5016.1369
-3131.463
-1974.3761
-908.16733
-644.63308
97.661438
-9630.1193
-11488.336
-6986.8598
-4713.4872
-3035.8567
-1985.2785
-992.99043
-748.73181
-46.460884
-9080.0088
-10161.298
-6399.128
-4416.0589
-2928.5462
-1976.1479
-1061.0869
-839.56069
-193.47105
-10603.645
-8930.8933
-5814.5752
-4099.2033
-2800.1411
-1946.5864
-1116.4071
-913.5602
-334.56803
-12150.499
-7774.6392
-5193.3672
-3782.4266
-2653.2598
-1901.4946
-1158.3038
-972.91571
-471.06837
-11627.204
-6630.0122
-4586.9937
-3506.898
-2541.3388
-1866.4803
-1209.6523
-1023.2472
-585.07831
-10408.247
-5834.0438
-4221.4709
-3321.0504
-2473.5644
-1855.1602
-1272.9034
-1069.0608
-671.61914
-742.20803
-742.01245
-874.61949
-1085.4655
-1345.2066
-1625.1079
-1730.7727
-1391.3804
480.98383
-844.45306
-875.09014
-1033.2572
-1285.0831
-1607.0166
-1971.5253
-2228.5734
-2118.8164
-256.18952
-921.00648
-981.44187
-1166.8098
-1458.0763
-1836.8263
-2288.4671
-2702.1269
-2878.5106
-1081.5775
-966.94881
-1058.5399
-1271.7955
-1599.5393
-2036.0851
-2569.5817
-3131.5973
-3632.4568
-2023.1156
-979.66117
-1111.7187
-1345.461
-1709.7783
-2195.8395
-2805.2603
-3503.4037
-4360.3413
-3089.1951
-962.90735
-1144.5099
-1386.0083
-1788.0559
-2314.8484
-2987.4753
-3800.8604
-5002.2118
-4345.927
-918.1531
-1155.3871
-1397.0591
-1838.5476
-2396.0462
-3115.7429
-4002.0424
-5501.8914
-5836.2099
-849.17133
-1143.6694
-1379.5136
-1861.3643
-2444.4686
-3192.836
-4094.3876
-5794.0314
-7513.3967
-759.77202
-1112.5101
-1338.6215
-1863.6693
-2460.508
-3241.6151
-4112.585
-5822.2991
-9008.5057
1057.0694
-752.62582
-1241.511
-1266.7146
-1069.7809
-869.80425
-695.10432
-585.66721
-609.93188
1547.5183
-188.21907
-781.68832
-911.91894
-786.91313
-641.06709
-499.28128
-412.94063
-456.29054
1999.6041
343.76208
-326.37072
-550.02328
-491.95361
-400.42094
-292.0202
-225.70901
-281.21966
2426.5549
844.50765
114.62622
-190.23357
-195.32297
-151.95878
-71.684504
-26.995118
-89.638729
2822.8465
1314.4038
543.09728
167.77089
107.69822
100.57764
157.05606
181.49977
117.49856
3198.2466
1754.4581
950.79339
518.24318
406.7314
358.03215
389.23385
396.48481
333.47306
3557.0177
2168.6963
1342.428
860.34353
703.2797
615.36532
624.37755
615.14148
558.91229
3903.1791
2557.5802
1712.4816
1187.4259
990.71981
867.51291
861.70141
835.11414
787.06869
4239.0993
2923.9955
2063.4373
1499.4067
1271.9805
1116.2716
1093.9362
1054.8864
1019.5109
2815.2248
2747.2513
2864.027
2907.5423
3207.8114
3545.8367
4275.5547
5238.6178
6848.5084
2666.6452
2594.2871
2710.1426
2756.9271
3059.5242
3402.5342
4140.5917
5114.6742
6643.1693
2504.3999
2432.5166
2540.5693
2593.5713
2890.866
3231.6967
3958.0961
4916.6322
6345.9498
2318.0054
2261.2743
2363.8693
2417.5009
2703.427
3036.3372
3745.0551
4682.5616
6056.0642
2113.3949
2080.1726
2173.897
2227.7359
2499.1949
2819.7101
3509.0036
4431.9435
5768.6984
1901.3064
1889.0503
1972.7172
2025.9294
2279.9786
2588.0937
3257.0929
4168.4671
5479.97
1687.1972
1690.4671
1765.3519
1812.2867
2046.5866
2340.8702
2987.9822
3888.0042
5184.7339
1471.3039
1483.2112
1549.1577
1590.5625
1800.5983
2077.3359
2700.9822
3588.6137
4880.5546
1248.4007
1271.164
1323.1418
1356.1736
1542.7041
1795.9133
2391.8312
3267.1159
4564.8009
2966.0914
3113.2361
3253.1099
3384.983
3509.2355
3625.9805
3735.2033
3837.6659
3933.732
2892.9407
3031.3789
3161.6928
3285.9553
3402.2231
3511.6008
3615.9187
3712.455
3804.8419
3004.074
3135.6189
3258.0613
3371.1588
3479.2228
3580.4568
3673.8577
3764.3818
3848.0846
3044.9036
3173.3148
3291.8034
3400.2802
3502.5084
3595.6903
3682.8733
3764.4677
3840.7304
3332.9431
3441.709
3540.4572
3628.6144
3710.3143
3784.3949
3851.4957
3914.5566
3972.8653
3661.3324
3756.7383
3839.5577
3908.7121
3969.9154
4021.9558
4066.5309
4105.5031
4139.671
4362.1553
4422.9363
4466.6387
4497.4858
4518.0017
4529.675
4534.8283
4534.5786
4530.2719
5283.7599
5295.3318
5285.4991
5258.9852
5218.8134
5169.0891
5111.8622
5049.6882
4984.4636
6855.4638
6817.6398
6741.1483
6646.2721
6531.5996
6406.4482
6275.3975
6143.052
6009.5501
4023.4256
3892.3566
3926.9545
3912.4533
4026.1389
4170.5877
4523.4438
4917.3651
5877.6529
4107.4261
3973.0902
4003.2177
3981.2545
4077.9605
4198.7162
4515.6986
4849.8656
5747.796
4186.5879
4051.6954
4073.3539
4045.5629
4127.1772
4225.738
4507.6828
4784.0371
5618.138
4260.0546
4125.2199
4140.9856
4108.2301
4173.795
4252.2211
4499.5235
4720.4543
5491.589
4329.3311
4194.3312
4205.4323
4167.6488
4220.3456
4279.2857
4492.4375
4659.5804
5365.8263
4393.7438
4261.0601
4265.6167
4225.1328
4265.7624
4306.6466
4487.4928
4600.7163
5242.4125
4454.0066
4324.0986
4324.8671
4280.846
4309.6698
4334.6233
4486.6995
4544.4327
5122.2405
4510.8002
4383.4675
4380.5864
4334.4555
4354.0809
4362.9901
4489.1888
4492.6181
4997.4512
4564.0837
4439.9576
4433.061
4386.4378
4397.275
4392.1657
4495.5951
4446.8526
4871.9988
4897.7574
4822.7341
4803.3614
4777.6003
4769.3319
4719.5466
4735.6244
4453.8103
4219.0915
4867.5188
4790.4759
4770.6369
4741.7265
4730.2467
4681.4546
4696.0828
4417.3706
4202.613
4836.8328
4755.7347
4735.705
4703.2167
4690.4703
4642.1595
4659.0202
4385.0295
4204.4332
4805.664
4717.9388
4698.6328
4662.6109
4649.784
4602.4395
4624.8405
4360.0226
4241.9685
4773.5759
4677.672
4659.6766
4620.5438
4608.3945
4562.9437
4593.6426
4345.1198
4315.7924
4738.9147
4635.4117
4618.799
4576.8184
4566.4103
4524.659
4565.5494
4343.8802
4412.612
4701.0469
4590.8494
4575.8069
4531.6311
4524.1748
4488.4992
4540.9778
4356.046
4518.4345
4659.2571
4543.2737
4530.6069
4484.8243
4482.1777
4454.6582
4520.9479
4377.8851
4631.6414
4613.5838
4493.039
4483.1074
4436.2412
4439.4969
4422.554
4505.8637
4408.3036
4748.9312
4240.4255
4491.3424
4778.5325
4757.1948
4808.2621
4811.0923
4834.3775
4852.7196
4922.4264
4298.0903
4535.2107
4824.717
4794.8231
4846.6713
4842.7003
4863.7358
4880.1602
4941.611
4368.1422
4585.5303
4870.4378
4831.8442
4882.3944
4872.8137
4890.86
4905.3102
4957.5234
4432.7657
4643.007
4915.6527
4868.1276
4915.8048
4901.4916
4915.6714
4929.169
4972.0309
4494.3849
4705.39
4961.8767
4902.9452
4947.4634
4928.39
4938.453
4950.2358
4983.5795
4560.9228
4767.763
5010.258
4935.7207
4978.1294
4953.331
4959.4514
4968.1657
4993.7705
4629.1654
4826.8209
5059.7035
4966.9363
5007.7947
4976.2653
4978.9678
4983.9202
5001.5974
4702.7492
4882.7627
5107.7229
4998.0727
5035.7575
4997.7105
4997.2601
4997.1491
5007.297
4782.4216
4937.2964
5152.5661
5030.9579
5061.2192
5018.7955
5014.0469
5007.5738
5009.4441
4881.6432
4996.6426
5196.6264
5074.5955
5088.9842
5046.6641
5033.4455
5018.4797
5010.6833
5006.3793
5066.0196
5241.7876
5132.2931
5126.7461
5085.8338
5063.0268
5037.8266
5018.9728
5157.8485
5139.0731
5286.102
5186.3552
5165.8156
5125.561
5094.879
5061.2401
5033.3432
5318.8107
5216.4082
5333.4804
5241.7899
5207.535
5166.2744
5129.5706
5088.4243
5053.1105
5497.5074
5299.5801
5383.7605
5297.6714
5252.096
5208.3702
5166.6748
5120.1076
5077.9192
5692.4461
5390.8849
5437.5846
5353.2583
5298.9354
5252.2034
5206.245
5155.9129
5107.5679
5905.6836
5489.3406
5493.3151
5408.408
5347.311
5297.8522
5248.3068
5195.0198
5142.2415
6136.5902
5585.7971
5549.6634
5463.0685
5397.1178
5345.0572
5292.9792
5237.4802
5181.9408
6293.4714
5677.9152
5604.9136
5517.3237
5447.7741
5393.5901
5340.0042
5282.9823
5226.3854
5729.8812
5742.2764
5764.0668
5795.2574
5837.8616
5892.7863
5968.9706
6071.7988
6227.4108
5677.3129
5694.5229
5721.5614
5758.2177
5803.7723
5861.787
5943.7792
6057.0393
6260.7823
5620.7828
5643.6406
5677.1661
5718.1002
5766.2674
5827.0362
5911.2771
6032.3941
6280.0463
5561.5048
5591.3488
5630.8298
5675.2422
5725.5667
5788.8381
5874.6183
6002.977
6295.7541
5501.3124
5538.3467
5582.6761
5630.748
5682.2712
5747.2119
5834.2604
5968.0858
6312.7892
5441.549
5484.9708
5533.9788
5584.5069
5637.0015
5704.0975
5791.4097
5925.6211
6329.3569
5383.2411
5432.2357
5484.9563
5536.9768
5590.5138
5659.3814
5746.4184
5876.1369
6342.5133
5327.5254
5380.5215
5436.0532
5489.0761
5543.3872
5613.59
5699.8901
5818.774
6348.1731
5275.1022
5330.6797
5387.7358
5441.5728
5496.3341
5567.0535
5653.9155
5754.6779
6334.695
6465.8511
6497.1269
6524.3855
6549.2733
6572.9363
6580.9792
6557.7995
6486.3625
6328.6983
6524.4539
6552.3955
6576.4305
6599.4112
6620.5743
6626.4379
6599.213
6520.2621
6356.6897
6581.922
6612.6158
6637.7346
6662.2899
6682.8772
6686.3692
6657.6375
6564.1948
6385.0567
6658.1743
6691.6263
6718.0893
6743.5625
6765.0865
6766.2735
6735.7901
6626.401
6423.989
6743.4806
6783.4502
6817.0233
6845.7524
6868.9833
6868.4621
6832.8347
6712.6431
6475.0395
6846.9316
6893.116
6939.1041
6977.854
7006.9501
7009.4328
6963.7668
6838.3034
6600.4377
7002.129
7053.8033
7110.637
7161.8887
7197.3308
7199.3653
7137.3935
6974.4661
6685.5943
7227.1732
7284.6554
7354.1382
7425.6016
7489.5891
7532.0861
7537.3398
7441.2525
7201.5047
7545.4397
7604.0147
7684.4374
7775.0846
7857.1977
7920.3958
7941.6931
7873.1583
7485.1606
10666.931
10136.263
9767.7056
9321.7653
8961.0483
8645.3904
8407.0797
8233.0727
8120.2522
9293.0295
9404.0907
9340.7519
9259.614
9133.7836
8988.8416
8826.8673
8667.235
8538.6343
8920.6008
8938.0935
8911.9381
8874.1342
8815.8342
8746.1222
8663.7193
8568.278
8471.3766
8503.2106
8552.5893
8529.826
8524.4323
8497.6044
8467.7342
8431.2724
8384.7226
8321.5141
8181.5908
8218.3986
8205.3293
8214.0283
8200.9882
8187.9956
8171.5889
8152.2316
8114.7253
7926.0687
7945.6054
7932.8561
7941.1239
7930.6348
7923.1919
7910.6542
7901.3206
7876.9978
7718.4094
7723.5326
7712.1228
7711.2842
7701.5986
7694.1753
7681.767
7675.0559
7657.5035
7529.591
7529.5212
7514.9489
7514.5456
7500.6391
7495.0195
7480.8308
7473.8966
7459.3666
7364.6363
7355.9627
7344.6041
7336.9177
7324.7007
7315.6264
7302.7015
7293.4579
7279.7738
7116.4354
6962.4808
6802.0609
6624.769
6428.9115
6187.0711
5900.5912
5558.0717
5299.6766
7129.6503
6974.8055
6812.0105
6631.5425
6428.9744
6183.3922
5888.4113
5550.0925
5244.115
7136.4815
6980.927
6813.835
6630.9101
6419.7733
6170.4152
5863.0241
5522.8231
5167.1019
7149.4399
6990.4431
6822.0627
6633.9775
6420.0518
6161.525
5844.9923
5482.0705
5074.7382
7156.287
6998.1137
6826.6043
6638.367
6419.0865
6156.3945
5827.0251
5434.0627
4976.7939
7170.4755
7007.5837
6836.6527
6644.7969
6423.0696
6155.2211
5813.7523
5387.3168
4878.3579
7176.0654
7016.5426
6842.6389
6653.8041
6428.2861
6162.3016
5808.0875
5359.4416
4799.9123
7189.4148
7025.3352
6851.9954
6659.0821
6436.5927
6162.3918
5810.5057
5331.8156
4780.0359
7201.4169
7040.5422
6866.7105
6677.983
6454.7538
6190.7825
5830.6969
5361.6781
4702.9239
5294.6194
5452.8592
5703.7469
5905.6651
6042.2867
6146.1883
6247.0836
6359.4165
6474.0652
5205.5156
5373.7389
5669.2329
5891.5254
6030.7153
6137.7136
6242.6479
6357.9393
6476.4917
5092.3497
5290.434
5643.0491
5882.041
6019.6511
6128.5537
6237.494
6355.7721
6476.3152
4955.7804
5202.3725
5615.3676
5869.5377
6008.1517
6124.966
6239.9224
6360.311
6482.9559
4786.6299
5116.8412
5584.4473
5844.7339
5982.8569
6104.4536
6226.6917
6351.3502
6476.9065
4536.6793
5065.9782
5597.9148
5852.7558
5990.3789
6115.9501
6239.2708
6363.1355
6487.7508
4172.8296
4913.8622
5543.1111
5804.9556
5952.07
6089.0855
6221.4381
6349.729
6477.9526
3825.5394
4968.0295
5594.2012
5821.9907
5968.4995
6104.2533
6234.3259
6360.5749
6486.904
2877.3461
4817.8128
5563.438
5789.5125
5949.189
6093.1241
6227.1641
6354.8509
6482.5111
6587.7317
6708.862
6827.1311
6954.8338
7099.0644
7257.5531
7422.2243
7618.9836
7815.5966
6591.9881
6713.8717
6835.949
6964.5793
7108.7636
7272.3026
7438.3267
7637.4333
7840.9497
6594.841
6717.2222
6843.4911
6973.1889
7118.764
7286.0679
7454.9842
7656.0947
7868.3922
6600.6918
6723.943
6852.4154
6982.0177
7130.3667
7299.3928
7471.693
7675.2311
7892.2197
6598.1589
6721.4007
6854.4842
6985.9277
7134.526
7307.2688
7481.7178
7691.7244
7911.5735
6607.65
6731.8798
6864.2848
6996.5398
7145.2396
7319.7195
7495.6036
7706.6875
7930.3515
6599.5004
6724.6192
6861.101
6993.8037
7145.9815
7317.4186
7502.4613
7712.3257
7939.496
6608.0499
6732.7302
6867.4217
7002.1305
7151.576
7327.2545
7508.7835
7721.7975
7950.6137
6604.6149
6730.0609
6865.9092
7000.3279
7152.4606
7324.6362
7510.6803
7721.864
7952.7906
8008.8567
8207.7827
8341.3035
8587.0408
8080.954
6667.5223
4670.5768
4725.963
5181.203
8041.8466
8258.741
8387.2614
8678.0197
8193.1568
6691.3939
4620.1646
4608.7768
4976.0827
8076.4555
8312.639
8447.4464
8770.534
8294.3818
6745.1322
4680.6551
4620.7329
5018.8095
8108.8487
8361.4259
8530.3238
8872.721
8410.9249
6858.3307
4838.6821
4617.3182
4980.1194
8137.2916
8402.9397
8622.7513
8961.9491
8553.0956
7022.7412
5055.461
4741.5126
5001.0001
8165.691
8440.5492
8705.6432
9038.5441
8691.788
7165.2572
5291.6315
4858.4396
5093.3246
8183.1674
8471.9627
8768.5812
9104.1105
8806.3727
7278.2697
5531.0814
5040.298
5247.1076
8196.6265
8496.0792
8814.0495
9190.363
8923.0672
7365.7871
5644.0185
5122.2297
5276.9121
8203.3519
8504.0051
8835.9656
9208.6302
8957.8201
7422.0522
5745.9544
5196.8549
5851.2871
7407.9635
8433.0807
8553.5124
8411.3424
8136.9127
7783.6705
7426.71
7060.8493
6694.4263
7338.4957
8452.9111
8617.3503
8491.5024
8211.745
7855.6102
7491.4325
7118.3999
6748.9635
7229.4487
8435.5934
8655.1319
8557.8088
8280.2764
7928.0022
7555.1824
7177.0938
6803.8654
7117.5797
8406.4869
8684.5916
8621.0435
8348.2333
8001.3905
7618.7368
7237.2574
6855.2729
7004.7239
8369.0152
8708.6115
8680.4296
8412.1779
8071.5566
7682.814
7300.2
6915.4077
6908.9578
8325.4641
8726.5677
8733.2923
8471.141
8137.307
7734.637
7348.8033
6954.7766
6812.2407
8259.8258
8724.9681
8774.6038
8528.7302
8208.245
7806.6737
7420.1682
7027.4604
6708.9762
8190.4343
8721.1112
8802.0697
8564.7579
8247.1551
7836.1852
7449.033
7046.1483
6521.6716
8051.8639
8668.9488
8819.4519
8619.3723
8322.4378
7919.4803
7533.086
7130.6209
6329.0674
5964.344
5602.0813
5234.8999
4860.565
4468.5804
4065.1577
3642.9506
3203.4533
6381.6954
6012.4561
5648.5082
5277.1316
4903.0664
4510.0894
4107.2593
3682.0324
3243.8508
6435.654
6064.5697
5699.2785
5326.9885
4953.2346
4562.0215
4160.669
3738.3674
3303.7473
6486.3532
6110.244
5746.8681
5370.437
4999.0705
4606.278
4207.7408
3785.4373
3353.3024
6542.25
6165.3377
5798.2653
5424.064
5049.5653
4660.3922
4261.0347
3841.8452
3411.1175
6583.8537
6199.712
5836.1485
5456.1186
5084.671
4694.457
4296.5614
3880.5404
3448.0555
6654.088
6271.1009
5904.8199
5526.1536
5152.8536
4765.2194
4366.2232
3955.0533
3520.6682
6673.7993
6284.7479
5920.2525
5538.7371
5166.842
4779.486
4380.8508
3972.8863
3536.7972
6758.0869
6368.8668
6003.3852
5622.8486
5250.119
4866.0814
4467.2723
4066.3258
3627.4077
2692.1344
2117.6847
1485.7973
957.04805
389.77775
-168.0598
-1043.5256
-2767.7386
-5343.2693
2731.3429
2180.2669
1565.9884
1053.2795
511.522
3.9837996
-735.22631
-2390.4206
-4991.2945
2799.015
2263.7719
1667.3933
1126.2852
562.38017
-9.9998142
-671.48791
-2176.4158
-4494.4768
2858.0092
2336.3301
1761.2442
1209.0006
645.38711
74.88018
-567.48228
-1910.9478
-3879.2446
2922.7394
2409.7063
1859.0606
1310.3363
751.3593
183.82391
-435.63111
-1582.9336
-3105.2379
2976.7534
2471.111
1944.0253
1400.297
841.86277
270.75656
-329.52878
-1289.5714
-2201.5575
3058.3244
2562.0434
2063.2856
1529.674
987.14305
394.13389
-145.61756
-1118.9955
-1048.096
3090.4069
2598.9364
2111.2882
1593.1504
1051.207
468.89775
-171.85246
-830.60564
-1365.4264
3195.2063
2724.1821
2269.6468
1772.9658
1275.9202
718.96715
197.3463
-1262.3418
2883.4579
-7667.3337
-10199.054
-12204.873
-11327.372
-11327.25
-11207.207
-11267.989
-11833.283
-9757.9075
-7598.1402
-10450.909
-12192.502
-11225.124
-11135.257
-10975.36
-11006.762
-11607.561
-9651.7303
-7647.9245
-10766.566
-12019.101
-11094.177
-11260.337
-11152.379
-11193.942
-11474.32
-9507.1853
-7834.7074
-11046.409
-11767.309
-11040.572
-11135.518
-10976.056
-10962.855
-11320.002
-9379.8545
-8103.2246
-11259.425
-11345.022
-11001.891
-11198.992
-11051.971
-11102.413
-11145.513
-9249.8803
-7933.3541
-11178.878
-11156.88
-11043.274
-11094.617
-10967.065
-10955.416
-11003.25
-9085.3627
-7022.6403
-10902.069
-11010.441
-11006.598
-11118.882
-10967.636
-10961.358
-10827.145
-8890.7938
-7671.8354
-11405.147
-10856.549
-11080.768
-11056.24
-10944.344
-10920.759
-10707.043
-8701.5357
-18333.506
-9376.6945
-11178.525
-11055.142
-11026.982
-10913.211
-10861.881
-10544.323
-8559.7764
-7295.6593
-6797.1314
-6423.8833
-6232.4353
-6179.4389
-6388.4183
-6613.3665
-6817.8792
-6226.5518
-7404.7181
-6737.5361
-6320.841
-6108.7968
-6064.4422
-6251.4478
-6433.4908
-6635.303
-6141.9748
-7416.9505
-6706.3337
-6303.3877
-6106.4403
-6076.8074
-6226.8822
-6393.0699
-6447.4706
-6048.4846
-7368.393
-6649.8961
-6251.664
-6064.5952
-6049.569
-6186.9461
-6321.0799
-6290.9843
-5969.958
-7287.1762
-6578.2437
-6185.1462
-6001.945
-6004.4536
-6125.2762
-6253.5591
-6165.4523
-5903.3887
-7188.2407
-6512.7556
-6122.9792
-5952.391
-5961.5565
-6071.3395
-6192.2228
-6053.8677
-5844.1572
-7093.3946
-6461.5343
-6069.6529
-5916.727
-5932.0144
-6048.721
-6145.1927
-5958.7562