/*--------------------------------*- C++ -*----------------------------------*\
  =========                 |
  \\      /  F ield         | OpenFOAM: The Open Source CFD Toolbox
   \\    /   O peration     | Website:  https://openfoam.org
    \\  /    A nd           | Version:  11
     \\/     M anipulation  |
\*---------------------------------------------------------------------------*/
FoamFile
{
    format      ascii;
    class       surfaceScalarField;
    location    "2.4";
    object      phi;
}
// * * * * * * * * * * * * * * * * * * * * * * * * * * * * * * * * * * * * * //

dimensions      [0 3 -1 0 0 0 0];

internalField   nonuniform List<scalar> 
10792
(
0.069677379
-0.04241134
-0.070167922
0.042901882
0.069076024
-0.040216176
0.040817531
0.06842291
-0.038084029
0.038737142
0.067683722
-0.035808701
0.036547889
0.066899725
-0.033497828
0.034281824
0.066111226
-0.031156076
0.031944575
0.065273858
-0.028786004
0.029623371
0.064462752
-0.026277729
0.027088835
0.06358924
-0.023752712
0.024626224
0.062871693
-0.021168752
0.021886298
0.062143226
-0.018692001
0.019420468
0.061465918
-0.015904612
0.01658192
0.060861245
-0.013380412
0.013985084
0.060392752
-0.010539868
0.011008361
0.059815765
-0.0079738644
0.0085508517
0.05943744
-0.0049342415
0.0053125659
0.059130279
-0.0023914059
0.0026985663
0.059021097
0.00053726125
-0.00042807923
0.0033986875
0.059060651
-0.0034382419
0.073961704
-0.041869449
-0.074503595
0.073338369
-0.039592841
0.07261523
-0.037360889
0.071823696
-0.035017167
0.071015316
-0.032689448
0.070205171
-0.030345931
0.069371074
-0.027951906
0.06854656
-0.025453216
0.067795252
-0.023001404
0.067116189
-0.020489689
0.066331703
-0.017907515
0.065734665
-0.015307575
0.06508884
-0.012734587
0.064581093
-0.010032121
0.064007481
-0.0074002524
0.063753902
-0.0046806629
0.063462352
-0.0020998557
0.063200529
0.00079908315
0.0034118282
0.063187388
0.07852789
-0.041300422
-0.079096917
0.077929062
-0.038994013
0.077186138
-0.036617965
0.076460134
-0.034291163
0.075735849
-0.031965164
0.074952905
-0.029562987
0.074120127
-0.027119129
0.073379999
-0.024713088
0.072623676
-0.022245081
0.071830525
-0.019696538
0.071078986
-0.017155976
0.070421726
-0.014650315
0.069735086
-0.012047946
0.069179195
-0.0094762299
0.068679406
-0.0069004637
0.068317211
-0.004318468
0.067914381
-0.0016970259
0.067772
0.00094146356
0.0035662298
0.067617598
0.083394638
-0.040666298
-0.084028762
0.082752373
-0.038351748
0.082058639
-0.035924232
0.081354196
-0.033586719
0.08049624
-0.031107207
0.07964993
-0.028716677
0.078892791
-0.02636199
0.078070653
-0.02389095
0.077196257
-0.021370685
0.07640433
-0.01890461
0.075671919
-0.016423565
0.074972741
-0.013951137
0.074327883
-0.011403089
0.073805996
-0.0089543434
0.073325325
-0.006419793
0.07297426
-0.0039674032
0.072687024
-0.0014097895
0.072576538
0.0010519486
0.0036499388
0.072492829
0.088633812
-0.040116651
-0.089183458
0.087957251
-0.037675187
0.087281658
-0.035248638
0.086464141
-0.032769203
0.085703345
-0.030346411
0.085001271
-0.028014603
0.084148328
-0.025509047
0.083312572
-0.023055194
0.082504786
-0.020562899
0.081766763
-0.018166587
0.08101114
-0.015667942
0.080323191
-0.013263188
0.07968211
-0.010762008
0.079146122
-0.0084183552
0.078640278
-0.0059139492
0.078285542
-0.0036126675
0.078003733
-0.001127981
0.077812173
0.0012435094
0.003722421
0.07773969
0.09427695
-0.039376077
-0.095017525
0.093547049
-0.036945286
0.092744915
-0.034446504
0.09197339
-0.031997677
0.091213588
-0.029586609
0.090261136
-0.027062151
0.089404263
-0.024652174
0.088628979
-0.02227991
0.0878164
-0.01975032
0.087030654
-0.017380841
0.086293383
-0.014930671
0.085668448
-0.012638253
0.085094556
-0.010188116
0.084593985
-0.0079177847
0.084146715
-0.0054666794
0.083789291
-0.0032552434
0.083533023
-0.00087171295
0.083410764
0.0013657685
0.0037524737
0.083380711
0.10010791
-0.03865107
-0.10083291
0.099412601
-0.03624998
0.098667661
-0.033701564
0.097990647
-0.031320663
0.097186799
-0.028782761
0.096400835
-0.026276187
0.095646839
-0.023898177
0.09475591
-0.021388981
0.093955016
-0.018949426
0.093160739
-0.016586564
0.092478494
-0.014248427
0.0918089
-0.011968659
0.091216007
-0.0095952229
0.090676995
-0.0073787727
0.090200411
-0.0049900956
0.089843942
-0.0028987747
0.089556489
-0.00058425982
0.089392204
0.0015300529
0.0037771526
0.089367526
0.10681166
-0.037795976
-0.10766675
0.1060321
-0.035470427
0.1052163
-0.032885766
0.10432834
-0.030432698
0.10340636
-0.027860783
0.1026477
-0.025517523
0.1017508
-0.023001275
0.10095852
-0.020596706
0.10015202
-0.018142924
0.099347709
-0.015782254
0.098621654
-0.013522372
0.097871686
-0.011218691
0.097327797
-0.0090513342
0.096749842
-0.0068008175
0.09637517
-0.0046154238
0.095928338
-0.0024519426
0.095732108
-0.00038803013
0.095593538
0.0016686232
0.0037886637
0.095582027
0.11356237
-0.0369161
-0.11444225
0.1126185
-0.03452655
0.11181609
-0.032083361
0.11105343
-0.029670037
0.11025647
-0.027063822
0.10945456
-0.024715609
0.10865452
-0.022201237
0.10792498
-0.019867164
0.1070748
-0.017292753
0.10634175
-0.015049205
0.10554538
-0.012725997
0.10487135
-0.010544666
0.1042435
-0.0084234796
0.1036802
-0.0062375226
0.10325627
-0.0041914926
0.10285983
-0.0020555047
0.10269798
-0.00022617248
0.10249539
0.0018712079
0.0036639858
0.10262007
0.12138638
-0.035978958
-0.12232352
0.12042102
-0.033561195
0.11949858
-0.031160918
0.11857447
-0.028745929
0.11777766
-0.026267012
0.11688306
-0.023821007
0.11595718
-0.02127536
0.11501316
-0.018923149
0.11417089
-0.016450485
0.11336235
-0.014240655
0.11252103
-0.011884684
0.11189158
-0.009915212
0.11116729
-0.007699189
0.11072997
-0.0058002067
0.1101934
-0.0036549195
0.10989477
-0.0017568793
0.10963406
3.4535799e-05
0.1095507
0.0019545678
0.0036454527
0.10956924
0.12930911
-0.035039027
-0.13024904
0.1282105
-0.032462584
0.12722947
-0.030179889
0.12623046
-0.027746922
0.12533031
-0.025366859
0.12443668
-0.022927379
0.12362665
-0.020465332
0.12272081
-0.018017313
0.12191807
-0.015647745
0.12106754
-0.013390122
0.1203542
-0.011171345
0.11963361
-0.0091946233
0.11900256
-0.0070681361
0.11854153
-0.0053391786
0.11811935
-0.0032327395
0.11795844
-0.0015959697
0.11764552
0.00034745922
0.11771144
0.0018886442
0.0037260902
0.11763081
0.13816948
-0.03398287
-0.13922564
0.13709932
-0.031392423
0.13604915
-0.029129715
0.1348776
-0.02657537
0.13389818
-0.024387441
0.13288467
-0.021913872
0.13205816
-0.019638819
0.13119073
-0.017149881
0.13041515
-0.01487217
0.12957589
-0.012550861
0.12885372
-0.010449175
0.12805115
-0.0083920516
0.12742856
-0.0064455436
0.1267437
-0.0046543232
0.12633446
-0.0028235005
0.12595917
-0.0012206824
0.1258186
0.00048803195
0.12579584
0.0019114024
0.0036704293
0.1258515
0.14729666
-0.032699637
-0.14857989
0.14619183
-0.030287591
0.14505841
-0.027996296
0.14398737
-0.025504332
0.14288815
-0.023288225
0.14179285
-0.020818565
0.14085307
-0.018699039
0.1399038
-0.016200616
0.1391352
-0.014103572
0.13832087
-0.011736527
0.13765467
-0.0097829713
0.13691995
-0.0076573315
0.13639295
-0.005918545
0.13573272
-0.0039941013
0.13537971
-0.0024704837
0.13494368
-0.00078465021
0.13483222
0.00059948517
0.13467875
0.0020648791
0.003478461
0.13487071
0.15762249
-0.031241944
-0.15908018
0.15638987
-0.029054973
0.15509572
-0.026702142
0.1539847
-0.024393316
0.15280347
-0.022106994
0.15175099
-0.019766084
0.15065847
-0.017606525
0.14971138
-0.015253525
0.14881782
-0.013210011
0.14795687
-0.010875573
0.1471801
-0.0090062062
0.14644001
-0.0069172408
0.14587624
-0.0053547728
0.14534835
-0.0034662104
0.14508257
-0.0022047057
0.1447595
-0.0004615828
0.14470304
0.00065594994
0.1445599
0.0022080209
0.0032773376
0.14476102
0.16791238
-0.029773394
-0.16938093
0.16666608
-0.027808672
0.16534533
-0.025381397
0.16421564
-0.023263629
0.16299939
-0.020890739
0.16194822
-0.01871491
0.16082649
-0.016484797
0.15991122
-0.014338254
0.15899124
-0.012290035
0.1582107
-0.010095032
0.15739781
-0.0081933233
0.15667246
-0.0061918835
0.15597272
-0.0046550346
0.15546824
-0.0029617333
0.15506915
-0.0018056125
0.15481302
-0.00020545867
0.15472865
0.00074032171
0.15465639
0.0022802873
0.0031062899
0.15482743
0.18020843
-0.028260637
-0.18172119
0.17866443
-0.026264665
0.17723751
-0.023954478
0.1759578
-0.021983924
0.17466226
-0.019595199
0.17350636
-0.017559006
0.17234104
-0.015319478
0.17136608
-0.013363297
0.17038065
-0.011304606
0.16962156
-0.0093359396
0.1688102
-0.0073819622
0.16814695
-0.0055286334
0.16741568
-0.0039237665
0.16693739
-0.0024834438
0.16642498
-0.0012931952
0.16622199
-2.4722132e-06
0.16603893
0.00092338321
0.16608509
0.002234129
0.0029767139
0.16621466
0.19191023
-0.026849798
-0.19332107
0.19031121
-0.024665637
0.18894597
-0.022589238
0.18757057
-0.020608532
0.18633399
-0.018358621
0.18511653
-0.016341546
0.18393937
-0.014142317
0.18284347
-0.012267392
0.18183721
-0.010298348
0.18101435
-0.0085130784
0.18022496
-0.006592579
0.17959333
-0.0048969998
0.17893996
-0.0032703996
0.17847574
-0.0020192175
0.17795719
-0.00077464353
0.17778196
0.00017275469
0.17755634
0.0011490043
0.17768488
0.0021055921
0.0028392263
0.17782236
0.20576232
-0.025239013
-0.2073731
0.20408621
-0.022989527
0.20264363
-0.021146657
0.20112608
-0.019090986
0.19988413
-0.017116664
0.19855531
-0.015012727
0.19738459
-0.012971603
0.19618647
-0.01106927
0.19516261
-0.0092744812
0.19417494
-0.0075254088
0.1933638
-0.0057814454
0.19264179
-0.0041749841
0.19202998
-0.0026585879
0.1914949
-0.0014841419
0.19104954
-0.00032927942
0.19074201
0.00048027684
0.19049872
0.0013922977
0.19056758
0.0020367334
0.0027757807
0.19063102
0.2191958
-0.023583013
-0.2208518
0.21756611
-0.021359836
0.21599879
-0.019579344
0.21439971
-0.017491904
0.21305359
-0.01577054
0.21175843
-0.01371757
0.21068048
-0.011893653
0.20956235
-0.0099511371
0.20860515
-0.0083172822
0.20761277
-0.0065330347
0.20683771
-0.0050063848
0.20613146
-0.0034687296
0.20562149
-0.0021486154
0.20516228
-0.0010249361
0.20485856
-2.5557844e-05
0.20460364
0.00073519665
0.20447938
0.0015165534
0.20449888
0.0020172317
0.0026442322
0.20463043
0.23480042
-0.021726695
-0.23665674
0.23322733
-0.019786744
0.23167063
-0.018022645
0.23008502
-0.015906288
0.22850326
-0.014188781
0.22695802
-0.012172335
0.22561703
-0.010552659
0.22442435
-0.0087584547
0.22340703
-0.0072999643
0.22243105
-0.0055570534
0.22160969
-0.0041850329
0.22082291
-0.0026819446
0.22027357
-0.0015992784
0.21981276
-0.00056412744
0.21949806
0.0002891436
0.21926605
0.00096721039
0.21922513
0.0015574759
0.21921699
0.0020253698
0.0024525003
0.21940872
0.25042546
-0.019599675
-0.25255248
0.24856835
-0.01792964
0.24697199
-0.016426282
0.24559709
-0.014531392
0.24426652
-0.01285821
0.24289787
-0.010803679
0.24159749
-0.0092522881
0.24042811
-0.0075890718
0.23938331
-0.0062551652
0.23852118
-0.0046949176
0.23776169
-0.0034255419
0.23706015
-0.0019804104
0.23648486
-0.001023989
0.23601761
-9.687551e-05
0.23574832
0.00055843736
0.23555361
0.0011619132
0.2355363
0.0015747928
0.23559657
0.0019650988
0.0022714835
0.23577758
0.26884032
-0.017323832
-0.27111616
0.26660035
-0.015689677
0.26445051
-0.014276438
0.26265099
-0.012731875
0.26103074
-0.011237957
0.25962192
-0.0093948537
0.25832763
-0.0079580044
0.25707306
-0.0063345011
0.25595824
-0.0051403382
0.2550701
-0.0038067839
0.25434413
-0.0026995724
0.2538302
-0.0014664789
0.25336397
-0.00055775717
0.25293076
0.00033633386
0.25266783
0.00082136923
0.25250889
0.0013208554
0.25247828
0.0016054011
0.25260639
0.0018369899
0.0019834233
0.25289445
0.28747831
-0.015087107
-0.28971504
0.28542243
-0.013633796
0.28340276
-0.012256768
0.281515
-0.010844112
0.27977282
-0.0094957764
0.2783514
-0.0079734364
0.27706791
-0.0066745176
0.27588601
-0.005152599
0.27481851
-0.0040728406
0.2739232
-0.0029114769
0.27311331
-0.0018896765
0.27252912
-0.00088229082
0.27211235
-0.0001409878
0.27188594
0.00056274538
0.27174054
0.00096676392
0.27165583
0.0014055652
0.27170415
0.0015570828
0.27178137
0.0017597681
0.0017939909
0.27197081
0.3079179
-0.012094844
-0.31091017
0.30527639
-0.010992288
0.30292485
-0.0099052223
0.30081837
-0.0087376377
0.29893087
-0.0076082765
0.29735997
-0.0064025346
0.29597863
-0.0052931735
0.29491648
-0.0040904489
0.29398986
-0.0031462241
0.29324468
-0.0021662992
0.29266112
-0.0013061125
0.29220012
-0.00042128884
0.29179479
0.00026433918
0.29160307
0.00075446567
0.29151091
0.0010589244
0.29159612
0.0013203512
0.29179204
0.0013611697
0.29204892
0.0015028856
0.0015145715
0.29232834
0.33116471
-0.008609396
-0.33465016
0.32805801
-0.0078855823
0.32531271
-0.0071599259
0.3228799
-0.0063048262
0.32073473
-0.0054631099
0.31889071
-0.0045585115
0.31726639
-0.0036688499
0.31601449
-0.0028385575
0.31497016
-0.0021018949
0.31419745
-0.0013935817
0.31369168
-0.00080034149
0.31350222
-0.00023183121
0.31350232
0.00026423688
0.31352365
0.0007331317
0.31361696
0.00096561622
0.31377455
0.0011627651
0.31390985
0.001225871
0.31414695
0.0012657859
0.0011683308
0.31449319
0.35602052
-0.0045281208
-0.3601018
0.3523138
-0.0041788623
0.34899944
-0.0038455597
0.34611126
-0.0034166458
0.34363595
-0.0029878039
0.34157932
-0.0025018812
0.33992419
-0.0020137194
0.33864583
-0.0015601942
0.33765252
-0.0011085845
0.33697321
-0.00071427583
0.33654923
-0.00037635957
0.3363488
-3.1401548e-05
0.33643793
0.00017509986
0.33675423
0.00041683346
0.33712544
0.00059440436
0.33753527
0.00075294197
0.33796476
0.00079637999
0.33847352
0.00075702026
0.0007365673
0.33890529
0.38397408
-0.38850221
0.37979522
0.37594966
0.37253302
0.36954521
0.36704333
0.36502961
0.36346942
0.36236083
0.36164656
0.3612702
0.3612388
0.3614139
0.36183073
0.36242513
0.36317808
0.36397446
0.36473148
0.36546804
0.058854399
0.0064376253
-0.006231373
0.058996001
0.0093800191
-0.0095216217
0.059271135
0.012270453
-0.012545588
0.059688794
0.015236556
-0.015654215
0.060301185
0.018225459
-0.01883785
0.061195964
0.021109445
-0.022004224
0.062220485
0.024267022
-0.025291543
0.063437972
0.027255632
-0.02847312
0.06483539
0.030306323
-0.031703741
0.0664277
0.033364236
-0.034956545
0.068243827
0.036362232
-0.03817836
0.07016972
0.039610272
-0.041536165
0.072323585
0.042618253
-0.044772117
0.074634284
0.045698033
-0.048008732
0.077245425
0.04890238
-0.051513521
0.080184998
0.051772629
-0.054712202
0.083582844
0.054908413
-0.05830626
0.08727471
0.058000768
-0.061692634
0.060874897
0.091391943
-0.064992131
0.06296724
0.0066577736
0.06317229
0.0091749688
0.063569185
0.011873558
0.0641742
0.014631541
0.065016094
0.017383565
0.06606394
0.020061599
0.067305556
0.023025406
0.068698093
0.025863096
0.070317675
0.02868674
0.072067602
0.031614308
0.074052452
0.034377382
0.076209927
0.037452796
0.078626117
0.040202063
0.081204526
0.043119623
0.084245698
0.045861208
0.087465116
0.048553211
0.091324033
0.051049496
0.095435282
0.053889519
0.055878928
0.10043125
0.067500626
0.0067747462
0.067627969
0.0090476256
0.068001693
0.011499834
0.068595618
0.014037616
0.069515234
0.016463949
0.070594362
0.018982471
0.071971029
0.021648738
0.073500272
0.024333853
0.07538195
0.026805062
0.077304663
0.029691595
0.079614441
0.032067604
0.082116317
0.03495092
0.084860872
0.037457508
0.088010568
0.039969927
0.091503965
0.042367811
0.095232785
0.044824391
0.0997228
0.046559481
0.10447733
0.049134992
0.050302783
0.11005347
0.072480959
0.0067866161
0.072667511
0.0088610731
0.073122921
0.011044424
0.073863321
0.013297216
0.074858282
0.015468987
0.076061483
0.01777927
0.077484008
0.020226213
0.079218314
0.022599547
0.081131591
0.024891786
0.083235133
0.027588052
0.085750106
0.02955263
0.088410203
0.032290824
0.091566762
0.034300948
0.095050337
0.036486352
0.098995882
0.038422266
0.10326533
0.040554946
0.10823438
0.041590429
0.11365802
0.043711353
0.044377722
0.11958308
0.077712755
0.0068135517
0.07788351
0.0086903178
0.078381226
0.010546708
0.07921385
0.012464593
0.080277015
0.014405822
0.081564516
0.01649177
0.083137761
0.018652968
0.084994346
0.020742962
0.087027454
0.022858677
0.089458204
0.025157302
0.092113946
0.026896887
0.095082024
0.029322745
0.098541193
0.030841779
0.10215363
0.032873912
0.10640696
0.034168941
0.11103041
0.035931494
0.11615854
0.036462298
0.12175222
0.038117676
0.038113741
0.1280162
0.083374142
0.006820121
0.083622212
0.008442247
0.084196663
0.0099722574
0.085076674
0.011584581
0.0861699
0.013312596
0.08761577
0.015045899
0.089299907
0.016968831
0.091298922
0.018743947
0.093523532
0.020634067
0.096129147
0.022551687
0.098918216
0.024107817
0.10223269
0.026008276
0.10580397
0.027270491
0.10974731
0.028930576
0.11419205
0.029724199
0.11893078
0.031192768
0.12400574
0.031387334
0.1295287
0.03259472
0.032232001
0.13541044
0.089357294
0.0068303525
0.089720128
0.0080794135
0.090313751
0.0093786344
0.091312235
0.010586097
0.092485752
0.012139078
0.094096581
0.01343507
0.095797481
0.01526793
0.098076487
0.01646494
0.10032416
0.018386392
0.10328047
0.019595377
0.10617313
0.021215154
0.1096907
0.022490707
0.11328326
0.023677929
0.11743499
0.024778855
0.12157474
0.025584443
0.12628974
0.026477773
0.13098609
0.026690983
0.13590066
0.027680146
0.027163069
0.14096959
0.095620174
0.0067922053
0.096062602
0.0076369852
0.096726312
0.0087149239
0.097729803
0.0095826063
0.099024886
0.010843995
0.10072087
0.011739084
0.10263007
0.013358731
0.10504945
0.014045558
0.10743265
0.016003193
0.11060969
0.016418339
0.11345849
0.018366353
0.11723805
0.018711143
0.12062457
0.020291415
0.12484016
0.020563258
0.12871116
0.021713451
0.13316451
0.022024415
0.13706624
0.022789257
0.1414629
0.02328349
0.023298141
0.14532782
0.10260705
0.0068052266
0.1031892
0.0070548322
0.1038746
0.0080295308
0.10503435
0.0084228508
0.10642094
0.0094574095
0.10811073
0.010049286
0.11012531
0.011344156
0.11241007
0.011760797
0.11499896
0.013414297
0.11790147
0.013515829
0.12092327
0.015344554
0.12449868
0.015135731
0.12770248
0.017087619
0.13169249
0.016573249
0.13479421
0.018611726
0.13863274
0.018185884
0.14146686
0.019955143
0.14467897
0.020071378
0.021286184
0.14669093
0.10969538
0.0066790823
0.11025493
0.006495284
0.11094823
0.0073362287
0.11233504
0.0070360407
0.11375785
0.0080346052
0.11578304
0.0080240872
0.11793374
0.0091934613
0.12028673
0.0094077988
0.12305589
0.010645142
0.12585044
0.010721275
0.12888386
0.012311135
0.13205009
0.011969505
0.13501122
0.014126486
0.13798923
0.013595244
0.14038954
0.01621141
0.14307188
0.015503544
0.14438962
0.018637405
0.14604388
0.01841712
0.021403107
0.14592696
0.11804687
0.0062630164
0.11829653
0.0062456226
0.11931823
0.0063145349
0.12050927
0.0058449989
0.12199245
0.0065514214
0.12402157
0.0059949728
0.12590202
0.007313003
0.12844531
0.0068645153
0.13081823
0.0082722156
0.13351152
0.0080279897
0.13632449
0.0094981596
0.13873993
0.0095540616
0.14111707
0.011749351
0.14322984
0.011482473
0.14459935
0.014841899
0.14544447
0.014658431
0.14524625
0.018835622
0.14459597
0.019067397
0.024417425
0.14158165
0.1262644
0.0058501214
0.12654432
0.0059656987
0.12792234
0.0049365203
0.12879296
0.0049743746
0.13084925
0.0044951278
0.13244211
0.0044021139
0.13477638
0.0049787331
0.13720024
0.0044406574
0.13936188
0.0061105772
0.14198215
0.0054077162
0.14385107
0.0076292391
0.14577752
0.0076276055
0.14717647
0.010350404
0.14767103
0.010987919
0.14760971
0.014903218
0.14647891
0.01578923
0.14377464
0.021539887
0.1400039
0.022838144
0.030116411
0.13430491
0.13503774
0.0056830941
0.13580775
0.0051956934
0.13689407
0.0038501989
0.13796838
0.00390006
0.13993457
0.0025289352
0.14119029
0.0031464027
0.14390312
0.0022659027
0.14532445
0.0030193186
0.14776437
0.0036706622
0.14927429
0.0038977962
0.15060514
0.0062983914
0.15166696
0.0065657855
0.15141364
0.010603723
0.15067276
0.011728792
0.14864772
0.016928264
0.1448425
0.019594448
0.13967647
0.026705912
0.13316868
0.029345934
0.039294962
0.12399013
0.14481619
0.005627922
0.14589978
0.0041121022
0.14668038
0.0030696007
0.14812297
0.0024574744
0.1495304
0.0011214984
0.15123002
0.0014467863
0.15330422
0.00019169702
0.15447009
0.0018534506
0.1567913
0.0013494564
0.15701344
0.0036756509
0.15819846
0.0051133715
0.1571233
0.007640948
0.15574631
0.011980714
0.15274192
0.014733183
0.14793408
0.021736102
0.14202824
0.025500285
0.13442765
0.034306503
0.12439234
0.039381249
0.054128529
0.10955877
0.15496736
0.0054879908
0.15602146
0.0030580083
0.15670574
0.0023853174
0.15840164
0.00076157906
0.15962327
-0.00010013274
0.16144623
-0.0003761719
0.1625946
-0.00095667527
0.16391665
0.00053139791
0.16486624
0.00039986955
0.16453973
0.0040021589
0.16445624
0.0051968606
0.16171337
0.01038382
0.15927667
0.014417408
0.15337847
0.020631386
0.14686737
0.028247204
0.13727088
0.035096772
0.12464671
0.046930678
0.10734099
0.056686964
0.078188692
0.083280829
0.16653954
0.0051631123
0.16722768
0.0023698641
0.1678756
0.0017374051
0.16946781
-0.00083063381
0.17037259
-0.0010049111
0.17201224
-0.0020158248
0.17271227
-0.0016567067
0.17369048
-0.00044681367
0.17324512
0.00084523111
0.17236846
0.0048788194
0.17009044
0.0074748842
0.16584816
0.014626095
0.16112653
0.019139039
0.15271105
0.029046869
0.14372925
0.037229002
0.1280995
0.050726523
0.11041286
0.064617321
0.08557559
0.081524232
0.10500648
0.058757803
0.17852357
0.0044619059
0.17903565
0.0018577792
0.17998761
0.00078545037
0.18121237
-0.002055399
0.18193116
-0.0017236975
0.18318244
-0.0032671057
0.18330699
-0.0017812514
0.1836349
-0.00077472283
0.18221663
0.002263497
0.18046074
0.0066347075
0.17605324
0.011882388
0.17068625
0.019993086
0.16264108
0.027184209
0.15146923
0.040218717
0.13815461
0.050543621
0.11905473
0.069826405
0.10202307
0.081648978
0.081063627
0.10248368
0.11415147
0.071918639
0.19133502
0.0037579123
0.19161104
0.0015817613
0.19274924
-0.00035275926
0.19337104
-0.0026771938
0.19419673
-0.0025493837
0.19488012
-0.0039505013
0.19434253
-0.0012436556
0.19366995
-0.00010214616
0.19107359
0.0048598553
0.18794609
0.0097622137
0.18196263
0.017865847
0.1754149
0.026540811
0.16469568
0.037903429
0.15302906
0.051885344
0.13887669
0.064695984
0.12610988
0.082593215
0.1189984
0.088760466
0.1184842
0.10299787
0.09520049
0.13743518
0.20509719
0.0032911507
0.20553666
0.001142292
0.20659704
-0.0014131325
0.20686827
-0.0029484315
0.20775354
-0.0034346527
0.20741607
-0.0036130219
0.20653083
-0.00035841503
0.20491043
0.0015182497
0.20122015
0.0085501378
0.1966998
0.014282564
0.1894315
0.025134149
0.18157494
0.034397364
0.17080843
0.048669944
0.1619903
0.060703468
0.15382626
0.072860025
0.15456829
0.081851188
0.16186471
0.081464051
0.183957
0.080905571
0.061926159
0.21723133
0.21978963
0.0029102429
0.22035766
0.00057426156
0.22092435
-0.0019798225
0.22118178
-0.0032058697
0.22155312
-0.0038059897
0.22051946
-0.0025793624
0.21963213
0.00052891823
0.21678178
0.0043686
0.2127193
0.012612621
0.20739362
0.019608242
0.20016477
0.032362999
0.19311923
0.0414429
0.18618903
0.055600146
0.18407072
0.062821784
0.18684984
0.070080898
0.20056249
0.068138541
0.22012454
0.061902007
0.25041197
0.050618133
0.03426585
0.27807228
0.23611005
0.0025777733
0.2367135
-2.9184837e-05
0.23697
-0.0022363177
0.23708089
-0.0033167629
0.23656686
-0.0032919608
0.23525513
-0.0012676347
0.23341319
0.0023708582
0.22955913
0.0082226607
0.22570004
0.016471716
0.22016154
0.025146745
0.21521699
0.037307545
0.21146686
0.045193027
0.21107854
0.055988466
0.2170124
0.056887925
0.22925875
0.057834547
0.2495055
0.047891798
0.2717118
0.039695708
0.29644022
0.025889705
0.017481383
0.31322469
0.25328511
0.0021871063
0.25370726
-0.00045133274
0.25395182
-0.002480881
0.25400431
-0.0033692445
0.2533165
-0.0026041565
0.25197855
7.0317007e-05
0.24966701
0.0046823988
0.24628896
0.01160071
0.24275144
0.020009238
0.23861516
0.02928302
0.23724893
0.038673781
0.23815624
0.044285717
0.24549227
0.048652432
0.25838341
0.043996789
0.27652002
0.039697938
0.29690664
0.027505176
0.31580658
0.020795766
0.33150094
0.010195343
0.0089653776
0.34001695
0.27231637
0.0018415452
0.27250873
-0.00064369083
0.27230803
-0.0022801837
0.27167188
-0.0027330984
0.27053521
-0.0014674803
0.26893623
0.0016692911
0.26670402
0.0069146093
0.26441092
0.013893815
0.26260166
0.021818495
0.26221292
0.029671759
0.26530087
0.035585834
0.27200789
0.037578701
0.28448781
0.036172508
0.29906683
0.029417767
0.31558207
0.023182693
0.33001295
0.013074304
0.34128548
0.009523229
0.3484792
0.0030016309
0.0063206955
0.35112388
0.29283683
0.0013330563
0.29314846
-0.00095532132
0.2930309
-0.0021626229
0.29244102
-0.0021432193
0.29155016
-0.00057662552
0.29020885
0.0030106065
0.28860117
0.0085222882
0.28739257
0.015102415
0.28745566
0.021755405
0.29027352
0.026853901
0.29714043
0.028718924
0.30790752
0.026811611
0.32190804
0.022171982
0.33600451
0.015321301
0.34951236
0.0096748412
0.3593708
0.003215865
0.36602272
0.0028713147
0.3691234
-9.905413e-05
0.0062376343
0.36920646
0.31491942
0.00090682604
0.3147218
-0.00075770082
0.31399292
-0.0014337467
0.31314085
-0.0012911507
0.31229246
0.00027176607
0.31165977
0.0036432942
0.31213029
0.0080517673
0.3142767
0.012956008
0.31917817
0.016853931
0.32726644
0.018765633
0.33830025
0.017685117
0.35067219
0.01443967
0.36249816
0.010346011
0.37146495
0.0063545096
0.3771181
0.0040216934
0.37896467
0.0013692989
0.37891593
0.0029200523
0.37749028
0.0013265973
0.0070453481
0.37668256
0.33956085
0.00025126822
0.33940572
-0.00060257432
0.33892804
-0.00095607172
0.33851256
-0.00087566666
0.33844317
0.00034115684
0.33895481
0.003131653
0.34057462
0.0064319591
0.3443561
0.0091745313
0.35042128
0.010788745
0.35862298
0.010563931
0.36817194
0.0081361602
0.37717988
0.0054317257
0.38432021
0.0032056832
0.38913414
0.0015405796
0.39205425
0.0011015824
0.39365391
-0.00023035757
0.39570253
0.00087143361
0.3979502
-0.00092107023
0.0027624013
0.40223314
0.36571931
0.36511674
0.36416067
0.363285
0.36362616
0.36675781
0.37318977
0.3823643
0.39315304
0.40371697
0.41185313
0.41728486
0.42049054
0.42203112
0.42313271
0.42290235
0.42377378
0.42285271
0.42561511
0.089810526
0.070185831
-0.068604414
0.088097658
0.073866421
-0.072153553
0.08681215
0.076661681
-0.075376173
0.085782608
0.080561513
-0.079531972
0.085338167
0.083766536
-0.083322095
0.085043461
0.087359308
-0.087064602
0.085652461
0.090411625
-0.091020625
0.086439859
0.094285412
-0.09507281
0.087832727
0.097101575
-0.098494443
0.08883434
0.099807291
-0.1008089
0.088599529
0.1005485
-0.10031368
0.086464617
0.10007551
-0.097940595
0.082706106
0.097176757
-0.093418245
0.07687842
0.091704404
-0.085876718
0.067782177
0.083335841
-0.074239597
0.054545062
0.071587176
-0.058350061
0.037560069
0.057961858
-0.040976865
0.017725571
0.043062084
-0.023227586
0.028689131
-0.0044819073
-0.0064816519
0.099093173
0.07152391
0.098047575
0.074912019
0.097228224
0.077481032
0.097217514
0.080572223
0.097329125
0.083654925
0.098010299
0.086678134
0.099506324
0.0889156
0.10154896
0.092242777
0.10362915
0.095021381
0.10629751
0.097138931
0.10870504
0.098140971
0.11052295
0.098257593
0.11064175
0.09705796
0.10827992
0.094066235
0.10337911
0.088236648
0.094730711
0.080235575
0.082046468
0.0706461
0.065266872
0.059841679
0.048485619
0.045470384
0.10867817
0.072899214
0.10778825
0.075801941
0.10707747
0.078191806
0.10749396
0.080155737
0.10770963
0.083439257
0.10891374
0.085474017
0.11019173
0.087637613
0.11281408
0.089620429
0.11514418
0.092691282
0.11859933
0.093683772
0.12211741
0.094622897
0.12552102
0.094853982
0.12721411
0.095364868
0.12717916
0.094101183
0.12492536
0.090490451
0.12020124
0.084959693
0.11190791
0.078939431
0.099575543
0.072174048
0.064097177
0.083963984
0.11838865
0.074093648
0.11750014
0.076690447
0.11669614
0.078995807
0.11668552
0.080166356
0.1170686
0.083056173
0.11800139
0.084541226
0.11909356
0.086545443
0.12147907
0.087234923
0.12419048
0.089979868
0.1268339
0.091040354
0.12940854
0.092048259
0.13225996
0.09200256
0.13497164
0.092653194
0.13680354
0.092269281
0.13635576
0.090938231
0.13325386
0.088061594
0.12801088
0.084182405
0.12013545
0.08004948
0.075353286
0.10887934
0.12664199
0.075467856
0.12537177
0.077960664
0.12467809
0.079689484
0.12448939
0.080355063
0.12494097
0.082604594
0.12516336
0.084318836
0.12627582
0.085432981
0.12793173
0.085579016
0.1303054
0.087606194
0.13240185
0.088943906
0.13498479
0.089465319
0.13794037
0.089046972
0.14101249
0.089581083
0.14264671
0.090635052
0.14261465
0.090970298
0.14089006
0.089786185
0.13745452
0.087617937
0.1321004
0.085403601
0.083348976
0.12410471
0.13365118
0.077227118
0.13248629
0.079125555
0.13184728
0.080328485
0.13100974
0.081192608
0.13068762
0.08292671
0.13082628
0.084180176
0.13200871
0.084250548
0.13329
0.084297735
0.13509335
0.085802835
0.13704628
0.086990976
0.13871529
0.087796319
0.14045011
0.087312147
0.14228829
0.087742903
0.14373035
0.089192994
0.14445359
0.09024706
0.14478555
0.089454222
0.14323201
0.089171476
0.13943808
0.089197528
0.089474531
0.13331253
0.1388512
0.079345509
0.13733312
0.080643638
0.13639452
0.081267084
0.13535466
0.082232472
0.13507085
0.083210512
0.13560992
0.083641112
0.13599711
0.083863359
0.13630734
0.0839875
0.13705404
0.085056142
0.13878885
0.085256159
0.14113234
0.085452829
0.14389038
0.084554111
0.14654906
0.085084218
0.14866673
0.087075329
0.149967
0.088946787
0.1498199
0.089601329
0.14819767
0.090793706
0.1447893
0.092605896
0.094776219
0.13948761
0.14269081
0.081982527
0.1408024
0.08253205
0.13909325
0.082976225
0.1378305
0.083495227
0.13734984
0.083691166
0.13718605
0.083804906
0.13722952
0.083819884
0.1383281
0.082888924
0.14081413
0.082570109
0.14428936
0.081780932
0.14748091
0.082261283
0.14947477
0.082560247
0.15133789
0.0832211
0.15331818
0.085095033
0.15580866
0.086456309
0.15743278
0.087977215
0.15764398
0.090582504
0.15545777
0.094792099
0.099324155
0.15090984
0.14390071
0.084772744
0.14130576
0.085126996
0.13899017
0.085291818
0.13763338
0.08485202
0.13692078
0.084403768
0.137302
0.083423683
0.13868229
0.082439593
0.14032638
0.081244831
0.14204602
0.080850474
0.14341769
0.080409263
0.14561972
0.080059252
0.14937822
0.078801742
0.15579121
0.076808115
0.16337384
0.077512406
0.17111517
0.078714976
0.17665929
0.082433094
0.17958923
0.087652565
0.1799296
0.09445173
0.10159225
0.1776615
0.14198356
0.088716138
0.13860322
0.08850734
0.13629402
0.087601012
0.13436011
0.086785929
0.13314107
0.085622811
0.13218841
0.084376347
0.13116276
0.083465243