/*--------------------------------*- C++ -*----------------------------------*\
  =========                 |
  \\      /  F ield         | OpenFOAM: The Open Source CFD Toolbox
   \\    /   O peration     | Website:  https://openfoam.org
    \\  /    A nd           | Version:  11
     \\/     M anipulation  |
\*---------------------------------------------------------------------------*/
FoamFile
{
    format      ascii;
    class       volScalarField;
    location    "17.3";
    object      p;
}
// * * * * * * * * * * * * * * * * * * * * * * * * * * * * * * * * * * * * * //

dimensions      [0 2 -2 0 0 0 0];

internalField   nonuniform List<scalar> 
5472
(
98.982907
96.764991
94.547501
92.329113
90.164319
88.041689
85.970441
83.98644
82.103315
80.321327
78.65835
77.102547
75.721401
74.418756
73.315329
72.375123
71.588939
71.06223
70.660022
99.69785
97.642599
95.571827
93.498181
91.442914
89.392451
87.404443
85.471851
83.622348
81.875885
80.225569
78.684649
77.290614
75.986166
74.898401
73.93587
73.137042
72.557921
72.072872
100.34072
98.445847
96.550603
94.616767
92.670451
90.713376
88.795938
86.930492
85.126215
83.410029
81.78746
80.262635
78.845073
77.562146
76.440227
75.460228
74.675326
74.052681
73.60629
100.92253
99.209344
97.461101
95.655816
93.817045
91.972846
90.132825
88.319863
86.577006
84.904627
83.287764
81.78122
80.384642
79.100269
77.965218
76.995653
76.186775
75.555218
75.105962
101.43504
99.896073
98.285826
96.612
94.891854
93.13729
91.387558
89.650044
87.960437
86.325285
84.740733
83.25578
81.860588
80.591508
79.466541
78.481888
77.677398
77.043018
76.588456
101.90803
100.4969
99.009693
97.467549
95.862884
94.230929
92.569262
90.904334
89.284255
87.707723
86.167065
84.690934
83.303746
82.052464
80.924061
79.953806
79.151578
78.506047
78.052977
102.31484
101.01894
99.650644
98.234776
96.750427
95.219465
93.650164
92.081111
90.521284
88.99384
87.501282
86.060361
84.702603
83.458803
82.340932
81.389386
80.587054
79.942695
79.465686
102.65828
101.47745
100.24102
98.934592
97.545798
96.117667
94.658821
93.186825
91.691934
90.215351
88.76469
87.368096
86.053825
84.833178
83.723906
82.773747
81.975607
81.351724
80.907712
102.92424
101.84553
100.74061
99.552332
98.281385
96.951404
95.580392
94.198985
92.78891
91.377881
89.972951
88.611484
87.328928
86.133949
85.055405
84.125046
83.327932
82.689463
82.204093
103.17177
102.19922
101.18739
100.08269
98.918924
97.689141
96.414604
95.118209
93.800436
92.46283
91.114363
89.808588
88.556068
87.384516
86.331052
85.411619
84.634443
84.014915
83.569009
103.37458
102.51591
101.59901
100.59349
99.513125
98.361185
97.186537
95.972008
94.732293
93.449215
92.165782
90.91464
89.709197
88.584605
87.556689
86.653719
85.888039
85.274926
84.824463
103.53983
102.7619
101.9139
101.00958
100.03443
98.981398
97.892494
96.763537
95.602574
94.391999
93.165697
91.956019
90.807151
89.7122
88.713543
87.837564
87.089994
86.492146
86.050745
103.71361
103.00663
102.23992
101.40089
100.47604
99.515148
98.514219
97.469909
96.374948
95.239242
94.087797
92.938205
91.838831
90.78187
89.821382
88.962531
88.227861
87.639892
87.213747
103.80601
103.17081
102.4964
101.75238
100.91856
100.02744
99.082282
98.111901
97.092921
96.024892
94.92461
93.833641
92.782255
91.77746
90.855437
90.025767
89.316019
88.741122
88.319006
103.94813
103.35186
102.71253
102.02413
101.27732
100.46322
99.59466
98.697175
97.748095
96.754509
95.718229
94.684085
93.674451
92.713516
91.821867
91.022662
90.334697
89.785173
89.383524
104.0028
103.50037
102.94732
102.30721
101.60819
100.85518
100.05746
99.218956
98.331558
97.393198
96.424937
95.450446
94.493458
93.583119
92.720957
91.952073
91.283359
90.746451
90.357781
104.07781
103.61761
103.10425
102.52734
101.89482
101.20841
100.48265
99.703301
98.87354
97.988878
97.080543
96.157395
95.25646
94.38747
93.564267
92.825576
92.180992
91.665494
91.282151
104.17225
103.75682
103.28215
102.7477
102.15551
101.51902
100.8492
100.12958
99.352425
98.524675
97.668225
96.798146
95.946657
95.116039
94.333437
93.617003
93.002453
92.509235
92.143255
104.22648
103.85726
103.43372
102.94996
102.4025
101.81145
101.18926
100.52152
99.796669
99.021938
98.21175
97.39122
96.579042
95.789596
95.039005
94.35108
93.756301
93.273209
92.927824
104.31928
103.97501
103.58173
103.12654
102.61897
102.07248
101.48808
100.86204
100.18466
99.458925
98.699451
97.924713
97.154591
96.402266
95.681516
95.030899
94.457771
93.981758
93.634689
104.37535
104.08073
103.7288
103.31243
102.84499
102.33505
101.78359
101.19209
100.54956
99.859077
99.140781
98.401239
97.661756
96.942565
96.25202
95.63041
95.092083
94.649393
94.312415
104.45497
104.17827
103.85401
103.47014
103.03386
102.56105
102.0504
101.49662
100.88939
100.23599
99.55261
98.846513
98.135517
97.424084
96.74147
96.121187
95.58026
95.151159
94.841693
104.54632
104.30706
104.01224
103.65596
103.24675
102.79452
102.30239
101.77018
101.19273
100.57459
99.922805
99.253626
98.589265
97.928601
97.288478
96.700295
96.171133
95.72864
95.391827
104.60597
104.40321
104.14659
103.83277
103.46419
103.04561
102.57765
102.05997
101.49002
100.86795
100.21003
99.526867
98.842171
98.167776
97.525684
96.943022
96.44295
96.051685
95.753721
104.6884
104.51221
104.2866
104.00687
103.67154
103.2887
102.86353
102.3951
101.87854
101.31345
100.70325
100.06102
99.402413
98.735293
98.087895
97.473827
96.924662
96.475245
96.135785
104.74813
104.62085
104.43842
104.18916
103.87149
103.4891
103.04697
102.55065
102.00071
101.40825
100.7755
100.1132
99.435078
98.766571
98.128639
97.54609
97.046337
96.63924
96.326951
104.78767
104.73742
104.63279
104.47135
104.24781
103.957
103.59541
103.16082
102.65869
102.09051
101.46332
100.79209
100.07646
99.337489
98.606147
97.922823
97.335011
96.849388
96.497733
70.386058
70.266484
70.37682
70.562109
71.04854
71.566971
72.215766
72.987922
73.77058
74.65281
75.561673
76.507953
77.483468
78.47761
79.464036
80.483287
81.380327
82.237916
82.980219
71.848335
71.72805
71.880121
72.174488
72.69758
73.267484
74.06689
74.905162
75.836227
76.822039
77.883003
78.948641
80.061318
81.149188
82.250159
83.297156
84.29782
85.223486
86.030223
73.344202
73.235492
73.410511
73.789119
74.309737
75.016241
75.89133
76.819261
77.874973
78.983856
80.15251
81.329732
82.543908
83.736159
84.915345
86.045524
87.144716
88.147178
89.07896
74.811888
74.731552
74.937587
75.328142
75.927703
76.745619
77.668583
78.722226
79.869424
81.080707
82.329059
83.608817
84.88967
86.162779
87.395811
88.622425
89.789
90.917907
91.942786
76.281235
76.213729
76.418657
76.854322
77.55544
78.419514
79.433817
80.586625
81.812471
83.103312
84.415124
85.763746
87.102817
88.436259
89.73861
91.028147
92.291458
93.503357
94.633238
77.729432
77.690884
77.887544
78.401032
79.147392
80.085097
81.185165
82.39653
83.696584
85.04997
86.427481
87.833892
89.224313
90.613465
91.971976
93.325478
94.656442
95.920563
97.138874
79.14203
79.086907
79.332595
79.909818
80.684916
81.71343
82.863391
84.149789
85.512283
86.920138
88.356217
89.799214
91.235234
92.66589
94.059038
95.456838
96.800552
98.093902
99.312983
80.59276
80.511779
80.775412
81.374441
82.215042
83.298746
84.505055
85.860854
87.260045
88.719317
90.18942
91.664831
93.134004
94.57909
95.98843
97.381651
98.692984
99.958945
101.11462
81.859844
81.827983
82.159462
82.793587
83.685351
84.821811
86.090611
87.481731
88.920904
90.413486
91.907173
93.405901
94.873248
96.30916
97.692562
99.022729
100.27313
101.44606
102.45495
83.233848
83.192112
83.551376
84.186249
85.154255
86.29506
87.619726
89.036759
90.50428
92.020332
93.524974
95.012378
96.453991
97.845143
99.154836
100.39748
101.5186
102.51041
103.35934
84.485875
84.477348
84.833793
85.518208
86.514233
87.687339
89.061829
90.483255
91.995477
93.502556
94.991197
96.445302
97.830604
99.142298
100.35187
101.44976
102.39434
103.20226
103.82823
85.710173
85.710422
86.088793
86.817686
87.817828
89.035541
90.427662
91.870992
93.386275
94.853006
96.319028
97.707608
99.008248
100.21031
101.27939
102.21486
102.99014
103.61424
104.07724
86.879873
86.895411
87.297272
88.047204
89.055976
90.315935
91.705613
93.154345
94.631634
96.069623
97.479351
98.774137
99.97535
101.04411
101.97533
102.75008
103.36777
103.86653
104.24626
87.988013
88.024986
88.441385
89.199362
90.22786
91.514206
92.888141
94.32897
95.766475
97.15427
98.471757
99.664313
100.75668
101.68029
102.47094
103.09319
103.60392
104.01579
104.31552
89.057648
89.086618
89.511556
90.286272
91.340281
92.624425
93.976154
95.394988
96.769193
98.084734
99.307698
100.40197
101.36219
102.15294
102.81506
103.30272
103.70906
103.99374
104.19075
90.051392
90.08433
90.522868
91.310349
92.378102
93.634771
94.963779
96.338828
97.637855
98.879131
99.998625
100.97343
101.79388
102.46403
102.98561
103.34961
103.6273
103.73427
103.74518
90.979971
91.011951
91.472329
92.263042
93.326088
94.557671
95.866624
97.176653
98.398546
99.552627
100.5556
101.40888
102.09807
102.64203
103.01196
103.24141
103.35243
103.34054
103.23396
91.845748
91.885982
92.352401
93.131309
94.182596
95.384389
96.650284
97.875229
99.033086
100.08536
100.9662
101.70021
102.26484
102.67412
102.90884
103.0309
103.04635
102.99361
102.9036
92.639203
92.694757
93.146798
93.922851
94.974184
96.144332
97.352324
98.509314
99.588868
100.52792
101.2928
101.90515
102.34947
102.63931
102.78855
102.86443
102.87359
102.87073
102.89778
93.358864
93.4196
93.861376
94.639323
95.654331
96.783966
97.942621
99.032917
100.01896
100.84368
101.5133
102.01761
102.37372
102.58974
102.70978
102.79111
102.8526
102.92114
102.98208
94.023772
94.076743
94.523366
95.298732
96.302329
97.404939
98.49843
99.503569
100.38987
101.12054
101.70957
102.11829
102.40835
102.59162
102.71576
102.82592
102.91707
103.0161
103.09706
94.58241
94.646543
95.087703
95.837396
96.80798
97.869077
98.90395
99.860116
100.67378
101.34405
101.85573
102.20239
102.45565
102.63552
102.78208
102.91061
103.01459
103.09896
103.13497
95.09946
95.16566
95.610301
96.392506
97.376834
98.381373
99.357012
100.2343
100.98111
101.57883
102.01255
102.3178
102.53623
102.70088
102.85245
102.94592
102.9961
103.00586
102.92525
95.495651
95.567345
96.002617
96.748513
97.672091
98.672469
99.643952
100.50169
101.20957
101.75576
102.152
102.44221
102.66134
102.82496
102.90938
102.92288
102.8805
102.73051
102.47997
95.851667
95.934946
96.424209
97.251859
98.246883
99.250957
100.12553
100.89938
101.5362
102.00081
102.33086
102.55975
102.69446
102.74475
102.71054
102.61638
102.42497
102.12622
101.79704
96.064747
96.148656
96.624439
97.411758
98.357269
99.32424
100.25635
101.06827
101.68994
102.1476
102.4798
102.68205
102.77432
102.76498
102.64596
102.40881
102.05142
101.63733
101.20949
96.214927
96.354546
96.981871
97.933871
99.007147
100.04064
100.92922
101.62125
102.12537
102.43674
102.59575
102.62735
102.52505
102.31655
102.01578
101.64179
101.24597
100.86122
100.5248
83.563626
84.06614
84.401765
84.5413
84.517885
84.283957
83.762564
83.041683
82.147644
80.815155
79.171244
77.44559
75.430831
73.168924
71.13403
69.308602
68.337291
68.691939
69.956128
86.675181
87.221199
87.603956
87.799684
87.853155
87.758935
87.483238
86.974909
86.330377
85.458041
84.124547
82.619334
81.001135
79.27709
77.372376
75.51771
74.119038
73.375483
73.741331
89.825942
90.481766
90.897207
91.151697
91.31192
91.306392
91.148572
90.88063
90.47051
89.627812
88.514122
87.333877
85.616973
83.549833
81.231983
78.925165
76.88944
75.092495
73.721952
92.861671
93.589238
94.062981
94.410325
94.638468
94.757772
94.768598
94.678634
94.333533
93.556813
92.536872
90.927558
88.930298
86.638038
83.600878
80.162733
76.765257
73.547843
70.596192
95.687465
96.469919
97.014364
97.373779
97.658994
97.916731
98.008992
97.967589
97.659548
96.829989
95.583836
93.865637
91.682171
88.474444
84.288012
79.691789
74.748851
69.513
64.18159
98.241067
99.049472
99.558593
99.958427
100.31029
100.63289
100.83849
100.82206
100.42982
99.666447
98.377418
96.451944
93.498424
89.232948
83.795462
77.234763
69.400316
60.39322
50.499109
100.4075
101.17929
101.67062
102.12012
102.54703
102.98558
103.23404
103.25704
102.97192
102.1972
100.73258
98.306682
94.330192
88.983682
82.87563
75.848889
67.228276
56.719591
44.167335
102.14387
102.82838
103.32516
103.80993
104.31056
104.77088
105.07906
105.17985
104.87577
104.01978
102.50421
99.79221
95.519105
90.448929
84.829616
78.294611
70.596329
61.620373
51.345968
103.34755
103.93706
104.41054
104.86512
105.35444
105.76025
106.03182
106.05821
105.69366
104.87632
103.49484
101.21258
97.66303
93.553108
88.814321
83.447141
77.418218
70.67399
63.435044
104.04272
104.51025
104.89727
105.24455
105.61029
105.85974
106.00706
105.94556
105.59688
104.98897
104.1643
102.50094
99.968767
96.761886
92.973101
88.693544
84.193582
79.63147
75.041532
104.32874
104.71413
105.00286
105.26126
105.50152
105.63206
105.65593
105.55634
105.50274
105.13859
104.33648
102.89724
100.81797
98.17544
95.251823
92.040106
88.751208
85.815533
83.449508
104.49478
104.81415
105.0436
105.27211
105.46725
105.58532
105.61694
105.44627
105.23038
104.77706
103.76412
102.02154
99.771725
97.165159
94.568997
92.195421
89.981057
88.056724
86.71419
104.60407
104.85499
105.03472
105.21792
105.27758
105.17942
104.8348
104.54091
104.21971
103.1761
101.28737
98.761116
95.86137
92.949334
90.448662
88.634585
87.475319
86.786678
86.644355
104.60215
104.78194
104.9673
105.09717
105.0545
104.82505
104.13563
103.04749
100.88469
98.261989
95.220352
91.681511
88.108329
84.959453
82.859795
81.812402
81.682871
82.445422
84.064856
104.29519
104.42675
104.63298
104.74443
104.69249
104.41081
103.59366
102.02216
98.425709
93.348625
87.721266
81.921875
76.651285
72.002538
67.875864
65.550557
66.325016
69.550137
74.091507
103.62729
103.69206
103.8236
103.82599
103.64774
103.27635
102.52898
101.29567
98.594808
93.841964
86.779709
78.022797
68.538517
59.516705
51.596126
46.275618
45.679829
49.985336
57.858055
102.95229
102.91839
102.89366
102.68912
102.27549
101.60052
100.53314
98.902557
96.182899
91.741269
85.547138
78.009246
69.831715
62.128958
56.024541
52.630749
53.112949
57.55039
64.896039
102.72068
102.69785
102.65082
102.46018
102.07804
101.54717
100.79446
99.702462
98.12348
95.777038
92.54395
88.550758
84.103811
79.621118
75.771929
73.229372
72.416923
73.663025
76.722184
102.90458
102.93453
102.92288
102.8297
102.64951
102.40813
102.09316
101.57103
100.81796
99.802718
98.350783
96.465313
94.221119
91.730719
89.293698
87.079881
85.411802
84.889867
85.385563
103.12514
103.27335
103.33781
103.31881
103.33738
103.33569
103.30127
103.12045
102.83749
102.36418
101.67306
100.70536
99.31355
97.700334
96.065916
94.38553
92.843363
91.510792
90.222964
103.31207
103.46854
103.53193
103.62748
103.78656
103.94851
104.0648
104.09574
104.09446
103.98602
103.62449
102.51296
101.02338
99.863154
98.38383
96.199578
93.58819
90.577496
87.414524
103.27464
103.38463
103.47051
103.6439
103.79818
103.9544
104.0646
104.08431
103.99302
103.45281
102.54229
102.14989
101.81841
100.62838
98.463982
95.670274
92.293389
88.47616
84.839367
102.89878
102.96687
103.13218
103.2967
103.44605
103.55328
103.70887
103.70597
103.65425
103.63329
102.65897
101.81657
101.13771
99.974279
98.43807
96.48509
94.157246
91.629471
89.153965
102.21598
102.28673
102.44751
102.55364
102.66538
102.72713
102.79618
102.70382
102.44674
102.20383
100.32515
98.845178
98.071962
97.389434
96.825073
96.106814
95.227182
94.526816
94.062296
101.46939
101.49473
101.56648
101.62569
101.65308
101.64848
101.68131
101.69043
101.64602
101.70565
101.4472
100.75456
99.281009
97.350801
95.197645
93.48484
92.680626
92.888626
93.953178
100.82877
100.72554
100.69144
100.63956
100.52817
100.39543
100.23363
99.982702
99.676986
99.003455
97.853638
96.282749
94.527385
93.029806
92.050164
91.95827
92.567756
93.480861
94.719526
100.26537
100.24068
100.1932
100.09865
99.978371
99.819948
99.610185
99.336643
98.951419
98.392375
97.587705
96.692125
96.374623
96.253794
96.298101
96.532947
97.001763
97.585724
98.241006
72.392083
76.612032
82.444595
89.501591
97.267057
105.10435
112.23773
117.79676
121.59788
123.92756
124.55458
122.51788
119.87434
117.13919
114.11888
111.27763
108.55126
105.86265
103.41044
75.199923
77.913294
82.03533
87.405196
93.911585
100.83333
107.56528
113.35269
117.9238
121.40135
123.08029
122.66561
120.59944
118.34276
115.65322
113.08981
110.6459
108.25922
106.00568
73.2259
74.167921
76.924768
80.997716
86.29076
92.550459
99.41933
106.09346
112.03744
116.78329
119.60118
120.9267
120.32852
118.88507
116.82738
114.62283
112.43559
110.31236
108.29696
68.298873
67.088765
67.256475
69.322925
73.524667
79.620491
87.058578
95.190373
102.98719
109.29478
113.86474
116.66091
118.17323
117.73181
116.56557
114.9834
113.19308
111.41821
109.6564
59.082978
54.794972
52.2489
52.190588
55.076974
61.305958
70.15182
80.185921
90.191279
99.05602
106.05577
110.34372
112.9428
114.38133
114.12528
113.37887
112.26886
111.04287
109.78058
40.111162
30.546052
24.092195
22.167096
25.84302
34.997507
47.429169
60.449352
73.414411
85.164924
94.764098
102.47318
106.61706
109.05502
109.97539
110.14083
109.83426
109.25616
108.64946
29.885366
15.553827
3.8791077
-2.2239822
-0.5392457
8.5924768
29.062165
45.752294
62.009621
76.502937
86.851478
93.799131
99.300425
102.9428
105.0669
106.19477
106.6439
106.72409
106.69036
39.974614
28.621831
19.292439
14.331451
14.72854
20.928604
32.098107
45.267077
58.67363
70.811438
80.898625
88.671496
94.548059
98.561987
101.23036
102.93827
103.87084
104.3766
104.75864
56.198852
49.633278
44.831044
43.043859
44.56846
48.920839
55.636983
63.542953
71.566373
79.010637
85.414536
90.604371
94.587593
97.626531
99.871579
101.44329
102.43348
102.99462
103.48795
70.853395
67.603754
65.842498
65.96222
68.050087
71.262873
74.985537
79.34299
83.800099
87.919019
91.449967
94.398441
96.731013
98.638964
100.20403
101.36179
102.18373
102.63841
103.00707
81.625259
80.374311
79.67191
79.653637
80.524824
82.680444
85.530922
88.277922
90.923987
93.369453
95.525194
97.361905
98.813611
100.02096
101.06699
101.90173
102.51018
102.89179
103.1192
86.205575
86.350364
86.869678
87.677681
88.821858
90.371238
92.15405
93.946819
95.663513
97.202455
98.505283
99.677609
100.6093
101.36887
102.04586
102.63751
103.06668
103.33843
103.48148
87.160314
88.349668
89.888527
91.461063
92.951931
94.567976
96.142434
97.427693
98.633783
99.757157
100.68577
101.48994
102.11469
102.59727
103.0229
103.41456
103.72784
103.91496
103.93931
86.019184
88.198337
90.584786
92.792711
94.648137
96.348302
98.073144
99.345495
100.38302
101.27375
102.00335
102.63011
103.12972
103.48726
103.80202
104.05724
104.27626
104.43317
104.43071
78.865925
83.464476
87.706906
91.335896
94.175207
96.377408
98.451024
100.07093
101.11289
101.97612
102.7694
103.34472
103.79507
104.09853
104.35595
104.56544
104.70557
104.79804
104.7767
67.077083
75.852745
83.33498
89.180702
93.242713
95.999868
98.629344
100.85896
102.02224
102.80831
103.51746
104.09374
104.50414
104.75802
104.90794
105.03761
105.12762
105.15272
105.08084
72.941585
80.442496
86.982197
92.310071
96.183078
98.986465
100.67774
101.76931
103.12818
104.30157
104.87019
105.13138
105.35673
105.49646
105.55857
105.54813
105.5621
105.53008
105.40129
80.805059
85.270646
89.699385
93.690815
97.026363
99.766383
102.09784
103.75176
104.39093
104.08553
104.58354
105.42972
105.82543
105.92006
105.91207
105.85023
105.77345
105.72437
105.58976
86.551684
88.272008
90.402583
92.69565
94.929572
97.116408
99.07242
100.65284
101.99547
103.41986
104.97329
105.48196
105.71233
105.96351
105.95072
105.87863
105.73989
105.62505
105.53422
89.360825
89.271751
89.852488
90.908739
92.187844
93.692374
95.03572
96.38985
98.472134
101.32867
104.03158
104.76553
105.2816
105.50466
105.53813
105.48179
105.35075
105.19491
105.1151
84.422833
81.833907
80.210771
79.957417
81.525469
85.403656
90.443964
95.32625
99.564091
102.22205
103.7034
104.23449
104.46673
104.56393
104.60959
104.60996
104.54077
104.43469
104.37367
81.770404
79.173385
78.752432
79.58179
81.637555
84.133726
87.195554
91.285911
95.475008
98.861513
100.99204
102.16492
102.79436
103.20732
103.46457
103.63831
103.71368
103.72963
103.76738
87.148835
86.141916
86.461802
87.778081
89.993344
92.747142
95.43836
97.846843
99.82807
101.2203
102.07237
102.588
102.89227
103.11887
103.23244
103.32286
103.34419
103.34367
103.39314
94.065888
94.796771
96.425894
98.549377
100.42207
101.82717
102.66358
103.12517
103.42084
103.49333
103.52092
103.47211
103.36396
103.32417
103.25818
103.22405
103.17936
103.1264
103.10739
95.456621
96.748397
97.658839
98.527956
99.506041
100.42859
101.30806
102.05536
102.75235
103.14748
103.16951
103.14563
103.09274
103.00104
102.94996
102.89841
102.83283
102.76605
102.74651
96.29502
98.228008
99.966413
101.26343
102.2786
102.79571
102.79868
102.88031
103.23333
103.08269
102.97839
102.86562
102.74742
102.62613
102.52423
102.43396
102.33565
102.15339
102.04922
98.960911
99.724944
100.50452
101.25234
102.00822
102.54018
102.9338
102.89173
102.74855
102.43307
102.16775
101.94961
101.7318
101.60858
101.48889
101.42695
101.39097
101.29456
101.21622
101.12779
98.942956
96.894694
94.974261
93.213187
91.599069
90.1243
88.788886
87.585323
86.518309
85.553343
84.727208
83.987417
83.355597
82.833582
82.435663
82.161347
82.003863
82.012237
103.78145
101.63194
99.5605
97.598247
95.761072
94.06729
92.470452
90.987636
89.630371
88.400258
87.280977
86.296276
85.430289
84.668895
84.060492
83.602733
83.290374
83.107599
83.126746
106.21704
104.11584
102.09
100.11586
98.229031
96.443944
94.746566
93.140567
91.641368
90.262626
89.004997
87.868278
86.881466
86.015937
85.311567
84.775906
84.429993
84.219867
84.239958
107.83682
105.93931
104.05163
102.17154
100.31515
98.51922
96.770093
95.108382
93.523828
92.030914
90.669408
89.424437
88.312464
87.352615
86.569663
85.956085
85.563391
85.348113
85.335571
108.40169
106.89078
105.28333
103.62612
101.90788
100.20684
98.503039
96.834606
95.228259
93.685289
92.236935
90.915783
89.716742
88.665971
87.815061
87.139652
86.671166
86.45553
86.430732
107.96515
107.03901
105.87481
104.54641
103.06692
101.5287
99.954527
98.351285
96.760766
95.207801
93.724192
92.344151
91.090844
89.962584
89.030738
88.312646
87.798831
87.541279
87.538559
106.7406
106.47307
105.87122
104.95478
103.83116
102.52653
101.116
99.636786
98.127298
96.599762
95.108317
93.689889
92.38828
91.215995
90.22176
89.449202
88.917332
88.609224
88.609315
105.25033
105.45644
105.3798
104.89987
104.18348
103.18875
102.00943
100.69258
99.297236
97.845833
96.377362
94.960856
93.630587
92.421551
91.391023
90.555424
90.005973
89.684715
89.657783
104.04744
104.45992
104.67587
104.56542
104.18339
103.51409
102.62474
101.50655
100.26076
98.915622
97.514281
96.122995
94.796901
93.558142
92.507315
91.634745
91.049364
90.723759
90.6771
103.45783
103.77813
104.02143
104.14225
103.99523
103.60104
102.97239
102.08856
101.04528
99.820101
98.513818
97.174971
95.877174
94.634322
93.562082
92.678952
92.05447
91.743875
91.688627
103.36568
103.51875
103.67331
103.80182
103.77257
103.57083
103.13788
102.48074
101.63397
100.56349
99.373662
98.109461
96.86205
95.655314
94.556671
93.67249
93.01248
92.705152
92.647561
103.57142
103.58865
103.61995
103.67611
103.64941
103.52492
103.22482
102.75139
102.05726
101.15665
100.10514
98.950172
97.750698
96.593553
95.501819
94.613385
93.933215
93.617161
93.596893
103.89333
103.83233
103.77281
103.72814
103.64882
103.53783
103.29812
102.94036
102.37895
101.6469
100.71248
99.677863
98.553295
97.446096
96.389376
95.5057
94.832873
94.475377
94.486065
104.29092
104.1509
104.0275
103.90912
103.77393
103.6329
103.40169
103.10027
102.64013
102.03248
101.22895
100.31162
99.268809
98.224737
97.202164
96.329705
95.689922
95.295528
95.324137
104.64176
104.50263
104.32446
104.15442
103.96614
103.78965
103.55612
103.27201
102.86343
102.34811
101.67402
100.86347
99.891501
98.906884
97.957037
97.085454
96.483158
96.11656
96.107135
104.88831
104.78771
104.62142
104.42787
104.20524
103.99473
103.73862
103.45928
103.0903
102.63794
102.05827
101.3107
100.45628
99.511665
98.632517
97.795834
97.192025
96.871266
96.841288
105.15016
105.02476
104.85986
104.67787
104.45592
104.22506
103.95726
103.67025
103.32503
102.8955
102.39811
101.701
100.95068
100.07505
99.229043
98.466719
97.848127
97.558789
97.541563
105.33867
105.21229
105.04366
104.8697
104.66812
104.44245
104.18148
103.87842
103.55748
103.13405
102.67313
102.05564
101.35788
100.58403
99.760866
99.055704
98.466399
98.179911
98.186531
105.38886
105.31738
105.17808
105.0134
104.84074
104.62939
104.39587
104.09146
103.77983
103.3956
102.9374
102.39607
101.73747
101.03272
100.26551
99.584295
99.045053
98.75443
98.782886
105.16661
105.21466
105.17789
105.07409
104.94615
104.75514
104.5497
104.28403
103.9616
103.59994
103.1507
102.65512
102.05608
101.39218
100.69851
100.04049
99.54358
99.27055
99.313783
104.6313
104.82069
104.959
104.98332
104.94503
104.83004
104.66229
104.45505
104.17223
103.85613
103.44775
102.96841
102.39553
101.74912
101.09994
100.47801
100.01026
99.761734
99.801861
104.04942
104.31785
104.58324
104.75256
104.81703
104.80386
104.6955
104.52285
104.27055
103.96317
103.57205
103.10859
102.60094
102.00691
101.40419
100.83098
100.37637
100.15277
100.20129
103.59181
103.83478
104.0938
104.35432
104.53162
104.63045
104.64189
104.56387
104.39834
104.14861
103.83293
103.40725
102.89969
102.33125
101.72453
101.17623
100.75025
100.53877
100.59411
103.23083
103.52283
103.79138
104.05523
104.29871
104.47259
104.56192
104.54355
104.43254
104.21862
103.914
103.52222
103.04273
102.50304
101.93132
101.38443
101.00438
100.81013
100.85889
102.8469
103.10967
103.36487
103.60872
103.85434
104.08858
104.27796
104.3858
104.39311
104.29183
104.08762
103.7705
103.33246
102.79303
102.20598
101.6622
101.26462
101.07534
101.13814
102.40448
102.82567
103.18173
103.49558
103.78389
104.03601
104.23208
104.37102
104.4119
104.34799
104.14602
103.84012
103.40858
102.8983
102.32148
101.76722
101.38979
101.23392
101.26908
101.66303
101.98776
102.3415
102.7177
103.09905
103.44813
103.76475
104.03323
104.23048
104.30123
104.27949
104.12315
103.75645
103.23199
102.64284
102.03227
101.56114
101.34121
101.40669
82.154458
82.507331
82.942763
83.535041
84.271767
85.138808
86.163255
87.348976
88.639864
90.04055
91.566843
93.172963
94.852187
96.597909
98.415668
100.26845
102.12553
104.03773
105.95316
83.26403
83.598296
84.078382
84.693346
85.472435
86.367582
87.400276
88.574981
89.852807
91.240794
92.745004
94.311681
95.93768
97.630057
99.348244
101.08395
102.82658
104.61418
106.36949
84.405401
84.729563
85.236915
85.862466
86.652777
87.571544
88.610624
89.780281
91.052245
92.421881
93.895374
95.426531
96.99282
98.604984
100.22454
101.87759
103.53094
105.12298
106.70566
85.542251
85.875506
86.382339
87.026006
87.813905
88.741426
89.79055
90.948926
92.210744
93.565747
94.99698
96.492266
98.00115
99.536583
101.0664
102.60442
104.12064
105.57494
107.042
86.641725
87.000728
87.502314
88.158257
88.960056
89.888055
90.934485
92.092105
93.327958
94.659387
96.053141
97.498404
98.957909
100.39495
101.81605
103.22947
104.62845
105.98069
107.3081
87.74363
88.112211
88.629546
89.295247
90.088601
91.017117
92.042298
93.184824
94.401901
95.691422
97.048175
98.434637
99.829316
101.1841
102.5105
103.7907
105.05774
106.33021
107.55745
88.829578
89.196132
89.708816
90.379652
91.172557
92.098921
93.120555
94.227981
95.424533
96.677743
97.98814
99.304129
100.62838
101.9034
103.1172
104.31377
105.48242
106.59948
107.66503
89.897484
90.265846
90.779277
91.446705
92.242929
93.143052
94.161888
95.237029
96.391823
97.608084
98.864857
100.11507
101.34919
102.536
103.66482
104.73892
105.77369
106.79694
107.78415
90.933557
91.295688
91.812062
92.47849
93.266776
94.142672
95.13711
96.19121
97.31418
98.473774
99.670373
100.86058
102.00799
103.09283
104.11344
105.11807
106.07294
106.99457
107.87629
91.952319
92.304599
92.823433
93.471329
94.237851
95.103222
96.073084
97.093396
98.170189
99.282098
100.40666
101.52519
102.58185
103.59963
104.54436
105.43824
106.30463
107.133
107.91079
92.90986
93.274475
93.77411
94.402756
95.166029
96.023214
96.960872
97.957118
98.970147
100.02425
101.0764
102.12583
103.11698
104.04534
104.90254
105.71648
106.48721
107.22727
107.93911
93.856137
94.216259
94.707166
95.335282
96.069246
96.902717
97.789084
98.741124
99.709051
100.71026
101.70582
102.66917
103.58322
104.43491
105.21748
105.94585
106.63871
107.29607
107.92504
94.74103
95.093995
95.570129
96.181479
96.881378
97.695162
98.560823
99.472713
100.39921
101.33231
102.26372
103.15106
103.99448
104.77298
105.48511
106.14395
106.75924
107.34007
107.89866
95.5837
95.939467
96.407028
96.995478
97.688406
98.465174
99.297262
100.15946
101.03328
101.89916
102.75879
103.57646
104.34749
105.05502
105.70069
106.30268
106.86568
107.38161
107.86332
96.372216
96.723959
97.187385
97.749728
98.415982
99.156372
99.953849
100.768
101.58765
102.3965
103.19485
103.95709
104.67795
105.3308
105.91465
106.44461
106.92755
107.38315
107.80378
97.12142
97.46094
97.919253
98.460048
99.098821
99.806156
100.56657
101.34618
102.11752
102.8685
103.60502
104.30373
104.95211
105.53697
106.05526
106.53401
106.97336
107.37994
107.75633
97.820772
98.153282
98.594916
99.11887
99.732924
100.40944
101.12436
101.85606
102.57561
103.27055
103.93977
104.58004
105.17639
105.72135
106.2079
106.64799
107.03129
107.37849
107.70463
98.46447
98.790219
99.216899
99.724384
100.31031
100.95227
101.62376
102.31232
102.98818
103.64199
104.25989
104.84996
105.40369
105.90605
106.33821
106.71502
107.04689
107.35542
107.6495
99.055797
99.373653
99.787814
100.27586
100.8346
101.442
102.07505
102.72763
103.36152
103.97156
104.54337
105.07641
105.5779
106.03201
106.42681
106.7746
107.0831
107.36707
107.63896
99.583992
99.897223
100.29924
100.76763
101.30161
101.8805
102.4851
103.10445
103.69805
104.25731
104.78372
105.27807
105.74579
106.16947
106.53363
106.85348
107.13563
107.38676
107.61751
100.07227
100.37667
100.76516
101.22248
101.73596
102.29532
102.86576
103.43763
103.99082
104.51101
105.0056
105.47344
105.90697
106.29324
106.62698
106.9142
107.16554
107.38684
107.59137
100.47765
100.78107
101.15594