/*--------------------------------*- C++ -*----------------------------------*\
  =========                 |
  \\      /  F ield         | OpenFOAM: The Open Source CFD Toolbox
   \\    /   O peration     | Website:  https://openfoam.org
    \\  /    A nd           | Version:  11
     \\/     M anipulation  |
\*---------------------------------------------------------------------------*/
FoamFile
{
    format      ascii;
    class       volVectorField;
    location    "17.3";
    object      U;
}
// * * * * * * * * * * * * * * * * * * * * * * * * * * * * * * * * * * * * * //

dimensions      [0 1 -1 0 0 0 0];

internalField   nonuniform List<vector> 
5472
(
(10.62669 2.6653322 1.5683508e-18)
(10.835019 2.659454 -1.6330858e-18)
(11.043994 2.6166798 -1.6340525e-18)
(11.250939 2.5808131 -1.6526665e-18)
(11.445166 2.5103334 5.1177756e-18)
(11.66286 2.4246932 -4.1241389e-20)
(11.850591 2.3334877 -2.6809973e-18)
(12.018839 2.2072752 9.3710438e-19)
(12.211096 2.0916107 0)
(12.364783 1.9357668 0)
(12.509348 1.7891195 0)
(12.668735 1.6128421 -2.8192751e-18)
(12.812161 1.4405458 1.4450742e-18)
(12.905879 1.2306869 -2.8385986e-20)
(13.040191 1.0660128 9.6046134e-19)
(13.120873 0.80594096 -4.9534153e-19)
(13.169541 0.63980413 -7.3463431e-19)
(13.256336 0.36826146 2.5430836e-19)
(13.244733 0.17131415 0)
(10.559165 2.4392852 -1.43886e-18)
(10.767095 2.4320039 2.9629092e-18)
(10.966855 2.399616 -1.5256862e-18)
(11.138803 2.367899 -1.5203745e-18)
(11.36538 2.2983383 2.8849236e-20)
(11.54964 2.2237243 0)
(11.712936 2.1499776 1.6059386e-18)
(11.90822 2.0329033 -3.2601222e-18)
(12.091062 1.9286552 4.205162e-18)
(12.22131 1.7901566 8.5399381e-19)
(12.40963 1.6637211 0)
(12.562848 1.4770993 1.7578325e-18)
(12.662624 1.3301606 0)
(12.812501 1.1375326 4.3734746e-19)
(12.901172 0.95345743 -4.5257807e-19)
(12.97177 0.74940061 0)
(13.059055 0.56572506 0)
(13.104032 0.33255358 -2.2310593e-19)
(13.133365 0.15253357 0)
(10.595426 2.2565766 0)
(10.771013 2.2594773 1.3550409e-18)
(10.913978 2.250643 1.3829054e-18)
(11.121816 2.2143475 0)
(11.291149 2.1748078 -2.3678724e-20)
(11.442762 2.1283835 -3.1053814e-20)
(11.642377 2.0492968 -1.4948503e-18)
(11.81248 1.9620643 0)
(11.971709 1.8719162 -1.5114581e-18)
(12.13125 1.7398868 -3.8604631e-18)
(12.312983 1.6116823 1.5071325e-20)
(12.40113 1.4662382 -7.6928337e-19)
(12.562516 1.3060668 -7.9423303e-19)
(12.67809 1.1322069 1.6272392e-18)
(12.751054 0.95924872 1.2204072e-18)
(12.874667 0.7701248 4.1058095e-19)
(12.918659 0.57445843 2.0365679e-19)
(12.986989 0.37147312 -3.0745241e-19)
(13.022097 0.17248684 1.0229137e-19)
(10.532116 2.0811516 0)
(10.657386 2.0748554 -1.2230282e-18)
(10.844937 2.0524557 -1.2468384e-18)
(11.001529 2.0382947 2.5301063e-18)
(11.15926 1.9990399 -1.3349423e-18)
(11.344636 1.9456706 0)
(11.521441 1.883643 -1.356087e-18)
(11.689114 1.8067488 1.3548997e-18)
(11.856708 1.7148202 -1.402566e-18)
(12.014545 1.6032661 -2.4203635e-20)
(12.145646 1.4919514 -1.4368897e-18)
(12.283545 1.3518074 0)
(12.424946 1.2008429 0)
(12.517903 1.0418955 -7.2451452e-19)
(12.646992 0.87029723 -7.291617e-19)
(12.726827 0.68729834 0)
(12.790434 0.50251311 -1.844932e-19)
(12.858931 0.30587787 9.3689551e-20)
(12.871228 0.10303986 1.8575498e-19)
(10.520304 1.9180707 0)
(10.666937 1.9017548 0)
(10.808312 1.9137695 0)
(10.959362 1.8919094 -2.2998975e-18)
(11.128698 1.8714299 1.1978546e-18)
(11.295104 1.843139 -3.5945113e-18)
(11.459355 1.7883817 4.8982361e-18)
(11.617085 1.7258306 -2.4864004e-18)
(11.770595 1.6508853 2.9507554e-21)
(11.905033 1.5572671 1.2668267e-18)
(12.048822 1.445133 1.2812356e-18)
(12.188124 1.3199607 -2.6118824e-18)
(12.307504 1.1743891 1.9821079e-18)
(12.427793 1.0345003 -6.6806574e-19)
(12.523252 0.86063382 0)
(12.605403 0.70717195 6.7457146e-19)
(12.669702 0.52391116 -3.3797173e-19)
(12.717832 0.33963564 1.6694375e-19)
(12.744697 0.151705 -1.6564214e-19)
(10.467292 1.7364274 0)
(10.584832 1.7385753 -4.0271851e-18)
(10.731824 1.7564101 2.0763847e-18)
(10.882838 1.7327161 2.1106398e-18)
(11.031988 1.7297324 1.0658016e-18)
(11.181176 1.6890791 -1.0781001e-18)
(11.324391 1.6487701 2.2381659e-18)
(11.468561 1.595603 1.1162618e-18)
(11.607772 1.5211364 2.2629053e-18)
(11.754216 1.4405798 -2.3144028e-18)
(11.892986 1.3360552 2.0477676e-20)
(12.036126 1.2192418 2.3623536e-18)
(12.150675 1.0884276 0)
(12.271189 0.94323334 -6.0372118e-19)
(12.362927 0.79101873 5.981374e-19)
(12.454156 0.63436976 -1.5047698e-18)
(12.519173 0.45083169 6.0290394e-19)
(12.582421 0.28392796 -1.5056141e-19)
(12.609061 0.077933586 5.2473032e-22)
(10.48166 1.5697079 3.5913179e-18)
(10.597043 1.5973559 3.6470948e-18)
(10.73298 1.6094061 0)
(10.856881 1.5980023 -6.719526e-21)
(10.983145 1.5981423 -3.8738387e-18)
(11.117277 1.567243 3.9691547e-18)
(11.245348 1.5495687 0)
(11.398936 1.491565 -1.0238805e-18)
(11.540568 1.4301235 -4.1105767e-18)
(11.690176 1.3601815 2.1082033e-18)
(11.816538 1.270291 1.0475292e-18)
(11.948852 1.1767902 -1.0744059e-18)
(12.055598 1.0478545 0)
(12.183456 0.91911118 5.3501955e-19)
(12.263222 0.77212255 0)
(12.367252 0.62303969 -5.4074592e-19)
(12.411233 0.462853 8.1753716e-19)
(12.493495 0.29366756 1.1905309e-21)
(12.499725 0.11610755 -1.2135047e-21)
(10.43902 1.4240414 1.6114961e-18)
(10.534691 1.4653564 -3.2885992e-18)
(10.650544 1.4658786 -3.3378665e-18)
(10.758541 1.4688991 3.4337513e-18)
(10.885182 1.470511 -1.7593479e-18)
(11.01217 1.4499574 -1.7697431e-18)
(11.149946 1.4277348 0)
(11.285782 1.37184 2.7332646e-18)
(11.408588 1.3246115 -1.5959368e-20)
(11.540815 1.2535512 -2.8152723e-18)
(11.655096 1.1832601 2.8748322e-18)
(11.78788 1.0852884 0)
(11.895816 0.9734132 0)
(12.015814 0.83999015 9.6443664e-19)
(12.106376 0.70734207 -4.963395e-19)
(12.205039 0.5612182 -9.7679747e-19)
(12.253002 0.40384989 2.4754732e-19)
(12.324628 0.24947891 2.4913201e-19)
(12.322148 0.077057488 6.0152551e-20)
(10.459914 1.280264 -1.44618e-18)
(10.53467 1.336817 4.4202934e-18)
(10.631229 1.3266745 -4.5545796e-18)
(10.723162 1.3485663 3.0840224e-18)
(10.846718 1.3412837 0)
(10.968698 1.3283347 1.5886861e-18)
(11.087659 1.3202976 -1.6379723e-18)
(11.202172 1.2843852 0)
(11.326015 1.2439027 8.2891461e-19)
(11.45934 1.1760129 -1.7159847e-18)
(11.584786 1.1106426 -8.4851777e-19)
(11.717089 1.0238295 -1.1813732e-20)
(11.821415 0.92257154 -2.6066827e-18)
(11.927781 0.79999374 4.4995723e-19)
(12.006284 0.6782942 -4.2964611e-19)
(12.092854 0.53780869 8.801197e-19)
(12.144674 0.40269101 -4.3608141e-19)
(12.213352 0.24097715 2.2448609e-19)
(12.232681 0.086385063 2.1805508e-19)
(10.379079 1.1805236 -2.6134256e-18)
(10.468919 1.2172223 0)
(10.565184 1.2077294 1.3543281e-18)
(10.664561 1.2320025 -4.1341968e-18)
(10.775581 1.213655 1.4235331e-18)
(10.868932 1.225437 -1.4406951e-18)
(10.983747 1.2035747 1.4494366e-18)
(11.096496 1.1740615 -1.4910084e-18)
(11.220021 1.1348669 0)
(11.335855 1.073728 7.5412673e-19)
(11.45515 1.0277374 0)
(11.573878 0.94913477 7.6631459e-19)
(11.685728 0.86750142 -4.7162161e-22)
(11.798109 0.75023148 -3.8672204e-19)
(11.885968 0.62989955 3.8781519e-19)
(11.969294 0.49460128 3.8962642e-19)
(12.02763 0.36191776 -3.2282255e-21)
(12.083604 0.21512661 -5.8635021e-19)
(12.100028 0.068344296 0)
(10.379991 1.0619009 0)
(10.474816 1.079241 1.1930117e-18)
(10.536178 1.0965854 0)
(10.629133 1.1274933 1.2251209e-18)
(10.731289 1.1136564 -3.7952344e-18)
(10.837936 1.1271082 3.8680272e-18)
(10.944857 1.1065341 -1.2855858e-18)
(11.051233 1.0931599 3.9983747e-18)
(11.163569 1.0476638 0)
(11.27075 1.0017697 6.818036e-19)
(11.385575 0.93997187 0)
(11.491451 0.86845293 -1.3700245e-18)
(11.601158 0.79393515 2.7741797e-18)
(11.698032 0.69104977 -9.5167663e-21)
(11.783623 0.58706026 -3.5113367e-19)
(11.855008 0.45992781 0)
(11.912851 0.33769527 0)
(11.958156 0.19715578 0)
(11.986005 0.057069386 -4.3665308e-20)
(10.352723 0.97482836 4.1593816e-18)
(10.445531 0.9707152 -5.3451037e-18)
(10.495633 0.99884829 2.1663139e-18)
(10.593602 0.99892776 -1.0209988e-20)
(10.653906 1.0086412 0)
(10.7488 1.0175833 -2.2855515e-18)
(10.842684 1.0026933 1.184504e-18)
(10.946141 1.0008642 -1.178698e-18)
(11.051855 0.9628214 0)
(11.15703 0.9368471 -6.024113e-19)
(11.268511 0.87515338 1.2135329e-18)
(11.373642 0.82147741 -1.5765615e-20)
(11.472595 0.73978443 -1.2440196e-18)
(11.572705 0.64871843 -2.4737354e-18)
(11.662415 0.54748241 2.1774997e-18)
(11.727373 0.43296823 -1.2448713e-18)
(11.791246 0.31418381 7.8116526e-19)
(11.826409 0.1861556 1.5627855e-19)
(11.863224 0.05316984 3.8324139e-20)
(10.329605 0.85498269 -6.528367e-18)
(10.405063 0.87894044 3.8222806e-18)
(10.452503 0.91290372 0)
(10.550672 0.9133368 -4.9288272e-18)
(10.614113 0.93122281 4.049202e-18)
(10.729114 0.91456954 1.0270144e-18)
(10.800356 0.9073639 3.1125628e-18)
(10.905177 0.88948103 -2.1206024e-18)
(10.992642 0.86577349 -2.6577432e-18)
(11.097165 0.84203162 1.628009e-18)
(11.18907 0.7895133 2.160999e-18)
(11.290317 0.74297331 -3.2895066e-18)
(11.376706 0.66429104 2.1993795e-18)
(11.473837 0.59070956 -5.6135738e-19)
(11.548293 0.49403886 2.7214701e-19)
(11.614481 0.39344156 -4.9501675e-21)
(11.677365 0.2796874 -6.9219513e-19)
(11.708509 0.16228512 -1.3701668e-19)
(11.744937 0.029304535 -3.4512732e-20)
(10.334327 0.76611012 2.5052867e-18)
(10.407395 0.77600099 3.3839517e-18)
(10.446608 0.80212476 -3.473995e-18)
(10.520089 0.81637073 8.831041e-19)
(10.578946 0.84494206 -2.6745855e-18)
(10.675366 0.83277058 2.7541185e-18)
(10.733883 0.84597536 9.1893491e-19)
(10.833141 0.8192075 -4.6905269e-18)
(10.903324 0.80922498 3.3147639e-18)
(11.011023 0.77502147 -1.4494796e-18)
(11.096956 0.73891445 0)
(11.198255 0.69207688 -4.8772614e-19)
(11.282269 0.62371652 -1.4605309e-18)
(11.372385 0.55028839 5.0198774e-19)
(11.443734 0.46482386 1.4752947e-18)
(11.510917 0.37148303 4.8845929e-19)
(11.563222 0.26510082 -9.8054354e-19)
(11.602426 0.15979954 2.4682772e-19)
(11.629885 0.026021492 2.7414803e-19)
(10.305062 0.68128316 -3.694283e-18)
(10.345352 0.71222625 3.0306768e-18)
(10.414725 0.7172376 0)
(10.476336 0.72885259 -7.827933e-19)
(10.534551 0.74438354 3.1788757e-18)
(10.611237 0.74817761 -6.4771618e-18)
(10.670775 0.75670373 8.5228927e-19)
(10.767429 0.7302841 3.3505932e-18)
(10.829648 0.72246499 2.5292444e-18)
(10.925783 0.69150954 -4.2597899e-19)
(10.997453 0.6668054 0)
(11.097069 0.61468213 2.1401681e-18)
(11.175985 0.56257246 -8.7381745e-19)
(11.261923 0.4885086 8.6661256e-19)
(11.332113 0.41613228 -1.3057222e-18)
(11.398036 0.3288366 -2.1806368e-19)
(11.443913 0.2339588 0)
(11.484448 0.13553638 0)
(11.501232 0.015478377 -2.7064351e-20)
(10.305004 0.59649812 6.3376725e-19)
(10.330737 0.62940823 -6.0537808e-18)
(10.388211 0.6344155 2.726319e-18)
(10.426141 0.6643029 -3.4870136e-18)
(10.506389 0.66594871 -7.0566844e-19)
(10.560058 0.68149387 0)
(10.643362 0.67819941 -3.6244868e-18)
(10.718948 0.67011464 2.224469e-18)
(10.786719 0.65935346 -7.4659053e-19)
(10.880256 0.63389077 -2.3840161e-21)
(10.951314 0.61200132 0)
(11.045694 0.56520672 0)
(11.112076 0.5210763 -3.8013865e-19)
(11.194596 0.44871057 -3.8100696e-19)
(11.255473 0.38480782 1.9066913e-19)
(11.320595 0.30339517 1.1470974e-18)
(11.365734 0.21810882 -7.6879044e-19)
(11.40757 0.12389718 9.6058817e-20)
(11.426497 0.013843635 2.3643967e-20)
(10.264233 0.53539721 4.0809275e-18)
(10.308436 0.5464283 -4.1786727e-18)
(10.357154 0.55364896 0)
(10.399391 0.57804303 6.1560349e-19)
(10.460752 0.58140732 0)
(10.502275 0.60512014 6.3593166e-19)
(10.577735 0.59291697 6.4459089e-19)
(10.62708 0.60028942 0)
(10.711328 0.57785198 3.2756859e-18)
(10.777679 0.57042577 -2.3348595e-18)
(10.860856 0.54130394 1.664369e-18)
(10.932553 0.51281263 -1.3490262e-18)
(11.008106 0.46703744 1.3414059e-18)
(11.079009 0.4043104 -1.210492e-20)
(11.137819 0.34687954 -1.3578871e-18)
(11.201029 0.26712044 -1.6816052e-19)
(11.242308 0.1946379 -1.6953945e-19)
(11.28403 0.10578474 -8.3836404e-20)
(11.301126 0.010492214 0)
(10.23577 0.48029648 4.6707508e-18)
(10.280825 0.4956107 0)
(10.315979 0.50553631 0)
(10.371967 0.51978205 5.4564592e-19)
(10.422959 0.5248524 0)
(10.479598 0.53904146 -5.60086e-19)
(10.546334 0.53345193 -5.6705005e-19)
(10.600299 0.53567725 -2.289265e-18)
(10.682744 0.5176628 2.3294738e-18)
(10.739839 0.51051283 0)
(10.827621 0.48093482 -2.6365366e-18)
(10.885046 0.46218224 2.0790465e-18)
(10.971879 0.40995778 1.181398e-18)
(11.021591 0.37000848 -2.3780509e-18)
(11.094943 0.3001602 2.3801896e-18)
(11.141441 0.24331849 -1.7869168e-18)
(11.189501 0.16760577 5.9489239e-19)
(11.218316 0.094895914 0)
(11.239921 0.013572333 0)
(10.221007 0.40217219 7.3354418e-18)
(10.264613 0.41444876 -3.7379403e-18)
(10.29483 0.42865089 3.7839824e-18)
(10.342784 0.44268299 -4.341481e-18)
(10.378753 0.45783051 -3.8951851e-18)
(10.439333 0.46688805 3.969408e-18)
(10.483755 0.46866021 1.9962556e-18)
(10.540792 0.47122942 -1.4023238e-20)
(10.600578 0.45954882 -2.0502506e-18)
(10.661996 0.45255171 0)
(10.731536 0.42925958 0)
(10.793682 0.41013447 2.5909528e-19)
(10.865749 0.37182152 0)
(10.916255 0.33047988 1.0406211e-18)
(10.984711 0.26941584 -1.0494859e-18)
(11.01971 0.21649058 -5.2080527e-19)
(11.073486 0.14322145 6.5344488e-19)
(11.094857 0.079334842 -3.2537118e-19)
(11.122191 0.00081547308 2.5977757e-19)
(10.180443 0.34977844 0)
(10.214278 0.36750845 0)
(10.252682 0.3768249 3.339791e-18)
(10.305335 0.3896391 -3.4035334e-18)
(10.351547 0.39926702 3.8635434e-18)
(10.410497 0.40723153 -3.9304888e-18)
(10.453725 0.41152541 0)
(10.518234 0.41108263 4.45702e-19)
(10.56813 0.40362216 1.788783e-18)
(10.638216 0.39544547 -1.8144775e-18)
(10.691269 0.37712224 1.8106849e-18)
(10.762861 0.35683663 -1.4395491e-20)
(10.817938 0.32725984 -3.6606815e-18)
(10.87892 0.29242966 1.8401794e-18)
(10.931649 0.24221811 0)
(10.968896 0.1936937 -9.1363811e-19)
(11.008125 0.12711963 1.431909e-18)
(11.028179 0.068637146 -6.2905661e-19)
(11.048656 -0.0021467473 2.2776663e-19)
(10.171623 0.27954478 1.1085687e-17)
(10.19539 0.29513496 -5.8208308e-18)
(10.228193 0.30940109 0)
(10.265117 0.32472054 -3.7412167e-19)
(10.304775 0.33782287 -3.7820958e-19)
(10.350625 0.34733937 3.8258307e-19)
(10.398243 0.35272841 0)
(10.450064 0.35635858 -3.9012225e-19)
(10.50207 0.34954409 3.1402677e-18)
(10.563392 0.3451918 -3.1823057e-18)
(10.617282 0.327202 0)
(10.683416 0.30669549 0)
(10.735937 0.28282217 2.0086395e-19)
(10.80128 0.24858701 1.0056081e-19)
(10.84615 0.21399017 -1.0057939e-19)
(10.895919 0.16746365 0)
(10.921528 0.11824632 -4.4960239e-19)
(10.94968 0.063806184 4.0089305e-19)
(10.955624 0.0040790026 0)
(10.119862 0.22974493 -1.0086753e-17)
(10.158746 0.24325227 1.0556678e-17)
(10.193713 0.25526607 -1.7703289e-20)
(10.235286 0.26804843 -4.94086e-18)
(10.282354 0.27906533 0)
(10.326497 0.28811994 2.68425e-18)
(10.373734 0.29720607 -5.6050545e-18)
(10.420922 0.30087677 2.749019e-18)
(10.476149 0.30057205 0)
(10.528783 0.29621925 -2.7684165e-18)
(10.585176 0.28209297 2.800086e-18)
(10.638247 0.26570362 1.3946771e-18)
(10.689843 0.23834229 -1.406698e-18)
(10.743827 0.21041255 1.223101e-18)
(10.79235 0.17668664 -1.320512e-18)
(10.835242 0.13701674 0)
(10.868711 0.089538003 -4.3862807e-20)
(10.893132 0.042172159 -1.3056436e-19)
(10.897257 -0.0081971967 1.8508419e-19)
(10.091289 0.1673438 2.7738253e-19)
(10.123183 0.18031825 -5.6286801e-19)
(10.14607 0.19951818 4.556023e-18)
(10.188796 0.21197445 2.719368e-19)
(10.227443 0.22562277 -3.1181168e-19)
(10.277049 0.22973961 -4.7306154e-18)
(10.323961 0.23622127 1.4866639e-19)
(10.37662 0.2403084 2.5441828e-18)
(10.428738 0.24298838 -2.4237083e-18)
(10.483703 0.24530955 -1.5207376e-19)
(10.538318 0.23728578 0)
(10.59432 0.22769927 2.5914173e-18)
(10.643879 0.20949336 -2.6118761e-18)
(10.68974 0.18518764 -1.145751e-18)
(10.736724 0.16137121 8.44368e-20)
(10.769752 0.12934663 1.8387924e-18)
(10.805613 0.095006972 -5.7481936e-19)
(10.822347 0.057473307 -5.7093191e-20)
(10.837299 0.011942249 -9.459477e-21)
(10.07703 0.11090135 0)
(10.098422 0.12537164 2.4711057e-19)
(10.128497 0.14226897 4.0002053e-18)
(10.163272 0.15737286 -4.439342e-18)
(10.199685 0.17056875 4.2159659e-18)
(10.243624 0.18049793 -4.1443122e-18)
(10.284212 0.18525711 1.3051033e-19)
(10.33508 0.18784579 -1.310808e-19)
(10.38238 0.18663719 1.9739952e-18)
(10.439581 0.18463974 -1.9963615e-18)
(10.493476 0.17658213 1.9884332e-18)
(10.549386 0.16493729 -2.206867e-18)
(10.599971 0.14789469 0)
(10.647794 0.12578088 1.0640223e-18)
(10.688581 0.10317056 -1.2035641e-18)
(10.725649 0.074478718 5.3120878e-19)
(10.754636 0.046497525 -4.9975941e-19)
(10.771912 0.016783407 -2.3179668e-19)
(10.784613 -0.016945932 2.6886854e-19)
(10.04003 0.060241956 -1.0143662e-20)
(10.056206 0.075249904 -6.947274e-18)
(10.084711 0.089745781 1.0984958e-19)
(10.117507 0.10131905 -1.8993917e-22)
(10.157075 0.11600517 1.1199016e-19)
(10.202431 0.12453103 0)
(10.246262 0.13627646 3.6402462e-18)
(10.294914 0.1417896 -3.7963104e-18)
(10.343205 0.14871544 1.1519011e-19)
(10.393783 0.15449237 -1.7910389e-18)
(10.448196 0.15327187 3.7777149e-18)
(10.501811 0.15425255 -3.7263005e-18)
(10.552543 0.14328941 1.8706075e-18)
(10.604496 0.13348502 0)
(10.644567 0.11548664 -8.9870959e-19)
(10.684929 0.09508008 9.3155101e-19)
(10.712337 0.071627939 -1.4390194e-20)
(10.73248 0.043560532 4.4924717e-23)
(10.743248 0.018783261 -3.5860202e-21)
(10.021743 0.025020476 6.0502223e-18)
(10.03659 0.034343028 -6.0778318e-18)
(10.057216 0.042291532 6.0629174e-18)
(10.084766 0.051106977 9.7067917e-20)
(10.122705 0.057059968 0)
(10.164355 0.061358983 0)
(10.21292 0.063054184 -4.9545598e-20)
(10.264406 0.061529981 -3.1445156e-18)
(10.317834 0.060370533 3.2761523e-18)
(10.37357 0.056678491 3.1922599e-18)
(10.428626 0.052268843 -1.5565845e-18)
(10.482648 0.047941344 -1.6996654e-18)
(10.536182 0.040144514 0)
(10.582616 0.033843761 2.5326146e-20)
(10.623265 0.025020939 2.5209198e-20)
(10.659344 0.016758 7.9052836e-19)
(10.682503 0.0068436724 -8.1803079e-19)
(10.699746 -0.0067898576 1.8129653e-19)
(10.70849 -0.019779202 -1.998978e-19)
(10.008544 0.0076733738 -4.0766672e-20)
(10.018523 0.011070043 5.2634803e-18)
(10.034915 0.016645002 -6.7745945e-21)
(10.058011 0.023542617 -9.9181128e-21)
(10.087968 0.031067103 -5.4370907e-18)
(10.124682 0.038715498 0)
(10.167719 0.046226283 2.7072855e-18)
(10.216133 0.053157293 -2.733599e-18)
(10.268998 0.058856931 -4.332591e-20)
(10.325387 0.063269926 -2.1718299e-20)
(10.383947 0.065756817 -2.1746689e-20)
(10.443616 0.066015047 2.1749902e-20)
(10.501022 0.064346536 0)
(10.554545 0.061023524 1.3690622e-18)
(10.602893 0.055557885 -1.4005875e-18)
(10.643952 0.050931265 -6.8431506e-19)
(10.676262 0.039461193 6.9882137e-19)
(10.697872 0.034425021 3.5243466e-19)
(10.713564 0.021650938 -3.4622811e-19)
(13.306219 -0.073793904 -1.1929498e-19)
(13.280844 -0.29268331 -4.7920731e-19)
(13.305334 -0.50674611 4.6574689e-19)
(13.266747 -0.71873833 0)
(13.228731 -0.92220548 -8.6692884e-19)
(13.194399 -1.1172299 -1.6899167e-18)
(13.112696 -1.2923698 0)
(13.03293 -1.5189367 -2.8048063e-20)
(12.933462 -1.65675 2.8941832e-18)
(12.83924 -1.878092 1.3920006e-18)
(12.717348 -2.0033127 -1.3119225e-18)
(12.602388 -2.2266188 2.480254e-18)
(12.482235 -2.3533194 -2.3238422e-18)
(12.348127 -2.5617999 0)
(12.256094 -2.6842333 1.0638714e-18)
(12.07992 -2.8929683 -9.7627946e-19)
(11.970311 -3.0385998 -1.8883076e-18)
(11.811779 -3.2642698 1.7722567e-18)
(11.663528 -3.4424614 -8.3108707e-19)
(13.17743 -0.085696599 -1.0416346e-19)
(13.139447 -0.296871 6.2292117e-19)
(13.180968 -0.53606591 -4.0860175e-19)
(13.083143 -0.72676661 0)
(13.090094 -1.0000107 -7.769708e-19)
(12.971388 -1.134274 2.2344034e-18)
(12.957649 -1.4039355 0)
(12.800366 -1.5337384 0)
(12.759346 -1.767652 0)
(12.598499 -1.8908523 0)
(12.495991 -2.106848 2.3507264e-18)
(12.341419 -2.2275698 -3.3770674e-18)
(12.192047 -2.4241615 -3.2370987e-18)
(12.058698 -2.5417186 2.0161877e-18)
(11.891671 -2.7175462 -1.9265289e-18)
(11.764011 -2.8552858 1.8614984e-18)
(11.560043 -3.0158142 -1.8718367e-20)
(11.437794 -3.1875435 -1.6481091e-18)
(11.217449 -3.3355814 1.6033812e-18)
(13.036339 -0.056518106 0)
(13.046135 -0.27453311 -3.6746567e-19)
(13.01918 -0.50513838 -7.1807967e-19)
(12.954474 -0.73142487 -4.2592751e-21)
(12.920226 -0.94727136 -9.4591016e-21)
(12.803637 -1.1330473 1.3435338e-18)
(12.746702 -1.3680043 -2.5493021e-18)
(12.592023 -1.5147434 1.2112508e-18)
(12.529518 -1.7362232 2.240451e-20)
(12.34062 -1.8520507 0)
(12.260806 -2.0799583 3.2200304e-18)
(12.051088 -2.1701156 1.3079297e-20)
(11.94369 -2.3986521 1.9512559e-18)
(11.726779 -2.4571796 1.8876186e-18)
(11.607529 -2.6856886 2.6591627e-18)
(11.399968 -2.7359348 -3.3437871e-18)
(11.205645 -2.9679967 -2.2381689e-20)
(11.024542 -3.0265044 3.0582623e-18)
(10.751834 -3.2637466 1.5059771e-18)
(12.913175 -0.11016049 3.2033312e-19)
(12.890718 -0.3416972 -6.4017039e-19)
(12.869818 -0.57136179 9.4225882e-19)
(12.820528 -0.782877 0)
(12.740344 -0.99471122 1.7997081e-18)
(12.658991 -1.1963859 -2.9120827e-18)
(12.538762 -1.3899234 2.2622764e-18)
(12.432702 -1.5599953 -6.4334626e-21)
(12.272873 -1.7392493 2.5938119e-20)
(12.142671 -1.8853932 -1.0226219e-18)
(11.969463 -2.0555813 0)
(11.803719 -2.1708831 -9.1541636e-19)
(11.624769 -2.3308771 9.2373557e-19)
(11.41903 -2.4174561 -1.6752527e-18)
(11.256851 -2.5779175 0)
(11.039241 -2.6543595 0)
(10.852087 -2.8018591 -1.4638847e-18)
(10.620745 -2.8832668 0)
(10.384353 -3.0348803 1.3554012e-18)
(12.768898 -0.068239679 2.7937146e-19)
(12.757484 -0.293812 -2.7766388e-19)
(12.738551 -0.53351128 5.2891646e-21)
(12.679082 -0.73616584 -5.3834952e-19)
(12.598793 -0.97385741 5.1778304e-19)
(12.504452 -1.1560076 -3.8066342e-21)
(12.375331 -1.3574131 -9.9532288e-19)
(12.251743 -1.5215136 0)
(12.082356 -1.6832252 -1.87758e-18)
(11.940433 -1.8286287 8.948637e-19)
(11.741208 -1.9705627 0)
(11.582605 -2.0865693 0)
(11.372503 -2.2047764 -1.5901606e-18)
(11.179404 -2.2990465 -1.5646795e-18)
(10.932768 -2.4156941 1.5008812e-18)
(10.745076 -2.4826776 2.8647072e-18)
(10.445446 -2.5748687 1.4180815e-18)
(10.242152 -2.6517432 -1.2760913e-18)
(9.9436411 -2.7050103 -3.4543177e-20)
(12.641665 -0.11312819 0)
(12.623074 -0.36126473 2.4429246e-19)
(12.601152 -0.57494399 -1.1976741e-18)
(12.527301 -0.79074847 4.7367794e-19)
(12.43838 -1.0122029 1.3913509e-18)
(12.317346 -1.1697775 -9.2123523e-19)
(12.185064 -1.3869113 -1.7857334e-18)
(12.024455 -1.5066407 1.7124214e-18)
(11.875172 -1.6821726 -8.6057617e-19)
(11.683253 -1.7921361 1.6085614e-18)
(11.503955 -1.9234396 0)
(11.296837 -2.0235157 0)
(11.096546 -2.1064493 -1.4722193e-18)
(10.885775 -2.1933677 4.2096257e-18)
(10.647877 -2.2468054 -5.3630466e-18)
(10.447647 -2.2901786 2.5758844e-18)
(10.139746 -2.3320348 -5.0062876e-18)
(9.9393242 -2.3466065 1.2003037e-18)
(9.5779165 -2.3606725 2.3066846e-18)
(12.543664 -0.094144678 5.3523217e-20)
(12.499304 -0.33210835 2.1374831e-19)
(12.488689 -0.53960813 -4.1739156e-19)
(12.382252 -0.77235646 0)
(12.315885 -0.96008155 -8.2072861e-19)
(12.162677 -1.1586401 2.4003513e-18)
(12.048141 -1.3181793 -1.5542676e-18)
(11.859396 -1.4680498 7.7179486e-19)
(11.706126 -1.6090468 -1.5012844e-18)
(11.489219 -1.7116519 4.3526148e-18)
(11.303226 -1.8271359 -2.7828569e-18)
(11.065607 -1.8970823 0)
(10.869683 -1.9599323 1.2971723e-18)
(10.601479 -2.0159607 2.5528579e-18)
(10.380146 -2.0262422 -3.634053e-18)
(10.109382 -2.052027 3.5641779e-18)
(9.8426893 -2.0261681 -3.4216699e-18)
(9.6005039 -2.0036688 -2.232729e-18)
(9.3297544 -1.9301952 -1.0926542e-18)
(12.380046 -0.11662914 1.3907301e-19)
(12.317887 -0.35281887 1.8456663e-19)
(12.329195 -0.570728 -3.642915e-19)
(12.195696 -0.78494484 0)
(12.143576 -0.9748514 1.4251862e-18)
(11.952571 -1.150615 -7.0863227e-19)
(11.85138 -1.3013444 0)
(11.624069 -1.4472102 -1.3514389e-18)
(11.496484 -1.546342 6.6666879e-19)
(11.250122 -1.6570023 0)
(11.083168 -1.7183948 -1.2641109e-18)
(10.818593 -1.7834201 1.2271096e-18)
(10.640018 -1.7990497 1.1892217e-18)
(10.356824 -1.8212233 -2.2988919e-18)
(10.176734 -1.78462 2.1904949e-18)
(9.8630327 -1.7671707 -1.0555969e-18)
(9.6460442 -1.6698379 -1.0380282e-18)
(9.349028 -1.6147533 -1.0018448e-18)
(9.1078978 -1.4494057 -9.6593675e-19)
(12.278789 -0.12414677 3.2156148e-19)
(12.239002 -0.33904853 -1.590014e-19)
(12.222127 -0.55216889 0)
(12.09296 -0.76297169 0)
(12.026594 -0.93991552 -1.247961e-18)
(11.818815 -1.1158781 1.2325382e-18)
(11.715182 -1.2448759 0)
(11.460382 -1.3815043 5.9111361e-19)
(11.320925 -1.4647118 -5.7919045e-19)
(11.049404 -1.5515758 0)
(10.88376 -1.5842014 1.1045529e-18)
(10.591289 -1.6270603 1.9493988e-20)
(10.408094 -1.5983946 1.850149e-20)
(10.107233 -1.6024731 0)
(9.9353086 -1.5065974 -3.9952142e-18)
(9.658561 -1.4542591 3.8160835e-18)
(9.4859365 -1.2963599 4.659481e-18)
(9.2050313 -1.194227 -6.2910404e-18)
(9.0773126 -0.94304496 4.3100836e-18)
(12.129134 -0.13507807 0)
(12.088098 -0.33398909 2.2246762e-21)
(12.054837 -0.57399137 0)
(11.936892 -0.7442156 0)
(11.849505 -0.93582531 5.4126845e-19)
(11.657913 -1.0747962 8.9872405e-21)
(11.539164 -1.2067371 -5.3808235e-19)
(11.292604 -1.3116988 -1.5910592e-18)
(11.157914 -1.3744246 2.0498164e-18)
(10.873232 -1.4372415 0)
(10.716135 -1.4378931 -9.9814446e-19)
(10.428723 -1.4450584 -5.8279079e-18)
(10.2648 -1.383891 2.8039118e-18)
(9.9681797 -1.3445125 0)
(9.8042924 -1.2041885 -3.5753851e-18)
(9.5249677 -1.1209023 4.289017e-18)
(9.3843336 -0.89518339 -3.3514033e-18)
(9.1714703 -0.7709036 4.0184243e-18)
(9.0867373 -0.47326161 0)
(12.002306 -0.1363603 -2.4328359e-19)
(11.976621 -0.33819969 1.2231397e-19)
(11.9154 -0.55432754 0)
(11.800546 -0.71836309 -9.6581076e-19)
(11.684599 -0.91025426 1.4291438e-18)
(11.492865 -1.0150247 -4.6915426e-19)
(11.343531 -1.158294 -1.4241597e-18)
(11.105737 -1.2111677 3.2418977e-18)
(10.949674 -1.2863273 -1.8074126e-18)
(10.662804 -1.2889408 0)
(10.508468 -1.2868653 8.7029525e-19)
(10.212172 -1.2454269 5.1704682e-18)
(10.080826 -1.1672862 -3.3238825e-18)
(9.8107571 -1.0632985 0)
(9.7074657 -0.90717379 0)
(9.465698 -0.76032238 -1.5356628e-18)
(9.4080163 -0.5340095 7.4646842e-19)
(9.214083 -0.37205415 -2.1595906e-18)
(9.2352926 -0.060573034 0)
(11.873966 -0.1323845 -2.1134992e-19)
(11.856722 -0.32510535 6.3361784e-19)
(11.778512 -0.52781602 -6.3057717e-19)
(11.687933 -0.69706884 0)
(11.548527 -0.85915029 1.2634608e-18)
(11.386764 -0.95932551 -1.6431161e-18)
(11.201648 -1.0870043 0)
(10.989348 -1.1104151 8.1744799e-19)
(10.81536 -1.1705112 8.0683064e-19)
(10.569305 -1.1191375 0)
(10.400448 -1.1203393 0)
(10.118115 -1.0121199 -7.5382955e-19)
(9.9898546 -0.92995707 -2.2390188e-18)
(9.7325218 -0.76958322 -3.2786889e-20)
(9.6716089 -0.61891579 2.0925266e-18)
(9.4683949 -0.42245638 1.364725e-18)
(9.4866359 -0.21450118 -6.5977061e-19)
(9.3476937 -0.0096789376 1.2770969e-18)
(9.4674507 0.26573074 0)
(11.74952 -0.13409112 0)
(11.732825 -0.32724571 -7.3433794e-19)
(11.638756 -0.51734787 1.4596517e-18)
(11.538621 -0.68006625 -1.0914182e-18)
(11.379755 -0.81506482 0)
(11.231342 -0.91360815 0)
(11.014583 -0.99917103 0)
(10.819723 -1.0177044 -7.0642777e-19)
(10.612132 -1.0443337 -6.9880235e-19)
(10.417018 -0.96945419 0)
(10.241925 -0.9405257 -6.8577734e-19)
(10.037074 -0.78456634 -6.7216288e-19)
(9.923764 -0.70172311 -6.5133329e-19)
(9.7299413 -0.49618309 2.5670933e-18)
(9.7008491 -0.35181259 -2.4806671e-18)
(9.5495396 -0.11792803 -6.0280627e-19)
(9.620884 0.061270479 3.5273226e-18)
(9.5354101 0.28619711 -5.6631748e-18)
(9.7135204 0.53229267 3.2996327e-18)
(11.641575 -0.12767711 -4.001335e-20)
(11.619861 -0.31044947 7.9931493e-20)
(11.524234 -0.47574684 7.9451056e-19)
(11.427028 -0.63541273 -1.9076812e-18)
(11.27131 -0.74827123 9.3826929e-19)
(11.125551 -0.83989388 0)
(10.914914 -0.88865284 0)
(10.738386 -0.90333283 6.2569219e-19)
(10.502602 -0.88421422 -2.4831064e-18)
(10.330627 -0.80551174 -6.4531398e-19)
(10.135874 -0.7354944 5.6566246e-19)
(9.9978215 -0.57782411 2.9255669e-18)
(9.8821629 -0.47474501 5.7805274e-19)
(9.7815761 -0.23778614 0)
(9.7723732 -0.10888413 1.6457889e-18)
(9.7099849 0.1503384 0)
(9.8222043 0.28017065 -3.1167007e-18)
(9.8157046 0.53583655 9.0290149e-18)
(10.086299 0.71707153 -7.7749232e-18)
(11.512234 -0.13051573 6.894666e-20)
(11.478505 -0.30430892 -6.848072e-20)
(11.394438 -0.45956578 0)
(11.281405 -0.60797727 -8.328469e-19)
(11.124031 -0.70314456 2.5881736e-19)
(10.967457 -0.785526 1.0891964e-18)
(10.78041 -0.79410927 0)
(10.618715 -0.79269752 -2.7290721e-18)
(10.408404 -0.73014479 1.5984391e-18)
(10.27571 -0.65403385 -4.7012173e-21)
(10.093069 -0.54786157 0)
(10.007254 -0.39597809 0)
(9.8982175 -0.24748835 -5.0437587e-19)
(9.8786543 -0.028344194 0)
(9.8727694 0.096031595 2.4530631e-21)
(9.9227567 0.3425855 9.3896294e-19)
(10.052784 0.42044358 -2.7421748e-18)
(10.163211 0.66637278 7.07414e-18)
(10.495795 0.69739166 -3.4254579e-18)
(11.432236 -0.12341 2.0933755e-19)
(11.397389 -0.27503514 -1.7877817e-19)
(11.322708 -0.41601342 0)
(11.19521 -0.54771476 0)
(11.039781 -0.63007934 0)
(10.863872 -0.69305938 0)
(10.680893 -0.68025198 -1.9162135e-18)
(10.511441 -0.6695879 1.8803167e-18)
(10.337161 -0.57871304 2.3590892e-18)
(10.221509 -0.50531718 -9.1887594e-19)
(10.074955 -0.35940131 0)
(10.03886 -0.21579321 3.6264766e-18)
(9.9717698 -0.044039242 -6.640052e-18)
(10.02479 0.1187704 3.4554168e-18)
(10.049601 0.24637616 -4.2344524e-18)
(10.206426 0.41910388 2.4659877e-18)
(10.332297 0.45521556 -8.0167687e-19)
(10.565357 0.59726733 -7.7632019e-19)
(10.804719 0.45842573 7.5598843e-19)
(11.299147 -0.12358558 2.0688877e-19)
(11.263284 -0.26868179 -6.7261199e-19)
(11.188058 -0.39829151 4.1228986e-19)
(11.07142 -0.50674604 -8.3193397e-19)
(10.937119 -0.57269574 8.2323907e-19)
(10.763244 -0.60548685 0)
(10.605935 -0.57861723 -4.1507034e-19)
(10.443771 -0.54925871 1.6579948e-18)
(10.312722 -0.44416109 -1.6263463e-18)
(10.197725 -0.36106289 -4.0387911e-19)
(10.100727 -0.1945834 -3.2153948e-18)
(10.088952 -0.072391399 3.139021e-18)
(10.075773 0.092975487 -3.8622435e-19)
(10.169603 0.1983418 2.2781191e-18)
(10.240867 0.31238461 -2.2142685e-18)
(10.447782 0.37822373 0)
(10.560159 0.36447815 -5.6118566e-18)
(10.812268 0.33745363 6.1274109e-18)
(10.875918 0.1002221 0)
(11.232639 -0.105169 -3.5788624e-19)
(11.18596 -0.23332729 3.5760771e-19)
(11.089825 -0.35866551 -7.1851664e-19)
(10.971054 -0.4513614 7.1332238e-19)