/*--------------------------------*- C++ -*----------------------------------*\
  =========                 |
  \\      /  F ield         | OpenFOAM: The Open Source CFD Toolbox
   \\    /   O peration     | Website:  https://openfoam.org
    \\  /    A nd           | Version:  11
     \\/     M anipulation  |
\*---------------------------------------------------------------------------*/
FoamFile
{
    format      ascii;
    class       volVectorField;
    location    "0.1375";
    object      U;
}
// * * * * * * * * * * * * * * * * * * * * * * * * * * * * * * * * * * * * * //

dimensions      [0 1 -1 0 0 0 0];

internalField   nonuniform List<vector> 
880
(
(25 -2.138419187977819e-15 0)
(24.99999999998687 -4.185475891434306e-11 0)
(24.99999550596325 -4.972473816874093e-06 0)
(24.99867336142347 -0.0007822751791440872 0)
(25 -1.115347918093826e-14 0)
(24.99999999992565 -3.283392290649195e-10 0)
(24.99998238513112 -2.35676397460162e-05 0)
(24.99282888863464 -0.01850898403410092 0)
(25 2.276459341745432e-13 0)
(25.00000000212524 3.768839825456972e-09 0)
(24.99991168136487 -7.731889084968656e-05 0)
(24.97702131402875 -0.06037858030832968 0)
(25.00000000000002 -2.073133475647471e-12 0)
(24.99999998031074 -9.610938633302238e-10 0)
(24.9994646327032 -0.0003281509469463315 0)
(24.84536358269938 -0.1494053897716614 0)
(25.00000000000662 -6.405180624080882e-12 0)
(24.9999999999691 5.547107094782045e-11 0)
(24.99999999939698 -1.194673807705444e-09 0)
(24.99999994284425 -1.630245149879016e-07 0)
(25.00000003399793 -1.915062425789846e-09 0)
(24.99999997023178 -4.453977255534875e-09 0)
(25.00000013049861 8.865713730343343e-07 0)
(24.99999012755266 -5.418212607556279e-06 0)
(24.99730224039762 -8.383342112553036e-05 0)
(24.99451382513895 0.001226468570971242 0)
(24.99146937326707 0.01386257166049119 0)
(25.00032751466639 -0.01854261796653476 0)
(24.39665451838241 0.04212316520780605 0)
(23.95318688129077 0.5582328983907725 0)
(23.81163417593826 1.052370043523335 0)
(23.78040159028082 1.320933395733338 0)
(24.99999892499812 -2.189360220436584e-06 0)
(24.99999067397511 -3.987183437430939e-06 0)
(24.99995484698719 -9.138289126436818e-05 0)
(24.99994356721169 -7.086899749662786e-05 0)
(24.99988068943534 1.304206668012112e-05 0)
(24.99959250197432 0.0002146249278817825 0)
(24.99943762603574 0.001026354900400896 0)
(24.99939728839037 0.0009760991766493494 0)
(24.96202828483823 0.01317784218309927 0)
(24.93420817566431 0.05325851799692729 0)
(24.92279113314231 0.1024908569716702 0)
(24.92549694614403 0.1155148291358381 0)
(23.77009578417895 1.66408854405501 0)
(23.67208030799443 2.026994808289398 0)
(23.75860243413901 2.246341240222618 0)
(23.78650120467408 2.672518870994044 0)
(24.70923208700113 2.863853724683215 0)
(25.19305812673047 2.598188379340016 0)
(25.42206303761498 2.132118752173819 0)
(25.65939793129526 1.623072517544217 0)
(24.83872880993285 0.2444053314202973 0)
(24.86715544013945 0.4347647671511073 0)
(24.9769158935488 0.5189388922339037 0)
(25.08865130689305 0.4898874834317402 0)
(24.99717745004287 0.003485578447333165 0)
(24.99400235158807 0.009850662665159495 0)
(24.99493965568256 0.01912139368379711 0)
(25.00045099802827 0.02332221177474435 0)
(24.99983344087819 -0.0002114929533434429 0)
(24.99960867910606 -0.0005883423451480107 0)
(24.99918190793942 -0.001068278257206433 0)
(24.99882102730427 -0.001175232281497922 0)
(24.99875704119571 -0.001048531629081841 0)
(24.99889960788879 -0.0007815679390884089 0)
(24.99923436827427 -0.0004492614724030451 0)
(24.99962521744276 -0.0001911802534373724 0)
(25.00414738859789 0.02200803736700822 0)
(25.00601342130927 0.01851245420671747 0)
(25.00610298232035 0.01253037207751635 0)
(25.00411666453079 0.006332513591281154 0)
(25.13885870641073 0.4295554878380174 0)
(25.16226095623811 0.340462332831394 0)
(25.15562735424085 0.2453539591653443 0)
(25.12425383336754 0.1563508607925409 0)
(25.79807670925469 1.156103875233445 0)
(25.79760675189142 0.8160353031524779 0)
(25.71913845924387 0.5855685563381199 0)
(25.60281600449318 0.4203589011754368 0)
(25.47074517343807 0.3081597395004838 0)
(25.0775653363234 0.08280715869661334 0)
(25.00165670904067 0.002099830481995663 0)
(24.99988506883232 -5.342094889513899e-05 0)
(25.32431283791254 0.1190476217818865 0)
(25.03409174168228 0.02693182569959192 0)
(25.00035339937979 0.0003715528807600656 0)
(24.99998150542707 -7.743042658869884e-06 0)
(25.02316900927731 0.2176162826518377 0)
(25.00449657656851 0.004907960350553586 0)
(25.00002074419561 2.525767259196458e-05 0)
(24.99999891812638 -4.51422312268034e-07 0)
(23.40233869316733 0.7439969953422805 0)
(24.9699559254334 0.02541104963331165 0)
(24.99989423797216 0.0001789259285878443 0)
(24.99999616627166 -8.321942941163187e-06 0)
(24.99998825242326 -2.655400908454028e-05 0)
(24.99908945728765 0.0004917987659898708 0)
(24.80600086802706 0.06848473347289566 0)
(19.19673161032483 1.770875933653138 0)
(24.99990629433621 -0.0001086503827973279 0)
(24.9977463429176 0.001884855565430708 0)
(24.64729272411531 0.1886675264865683 0)
(18.83685213278495 3.431122833604522 0)
(24.9998553530313 -0.0003584596156087064 0)
(24.99346608991669 0.006010434707409701 0)
(24.4065771099596 0.4306321099964069 0)
(18.20400653264115 5.111734979523789 0)
(24.99935832342291 -0.0008359314364000955 0)
(24.99002326113355 0.01346719733398517 0)
(24.20090293668942 0.7569892888499049 0)
(18.08451831786342 6.533373720769794 0)
(17.89305651373469 7.806408674282753 0)
(23.934492753762 1.237323447953006 0)
(24.98055212173635 0.02860662695838782 0)
(24.99908787547956 -0.001651429716410542 0)
(17.88885512588156 8.720068634720233 0)
(23.77210544990263 1.707399410320421 0)
(24.97714510731234 0.04880147485036557 0)
(24.99765933715155 -0.002879874884560306 0)
(17.87883553477984 9.437770819201962 0)
(23.50988863072214 2.285889699185866 0)
(24.96216138474837 0.07717774910105402 0)
(24.99710922861227 -0.004416008467090968 0)
(17.95556234470962 10.03642515416658 0)
(23.30856715390024 2.851007647409539 0)
(24.95269546164747 0.119617369618437 0)
(24.99448513987428 -0.006708362928578436 0)
(24.99279606910221 -0.01005028526260537 0)
(24.92101659240641 0.1715831534269401 0)
(22.98991763155483 3.523283287477004 0)
(18.46949861317885 10.33727144232764 0)
(24.98761754868667 -0.01513660881056933 0)
(24.92375797391611 0.2458942050489977 0)
(23.40767536720402 3.592576219065316 0)
(19.95888890666961 9.930255231115243 0)
(24.99636101755308 -0.01825944510779299 0)
(24.96148283201385 0.2156310503466848 0)
(24.29178860296242 2.920515803719268 0)
(22.4291606681577 8.803696290372256 0)
(24.97982844663736 -0.0150844441074462 0)
(24.9814981468641 0.1285711479741252 0)
(24.976900638873 1.850810093166897 0)
(25.00806523228811 6.345329746396323 0)
(24.98790928451918 -0.005717805049056932 0)
(25.02314318500916 0.2270349095365539 0)
(25.8085624792471 1.457663256163683 0)
(28.80460519212443 3.514650507296849 0)
(24.98654542226111 -0.004849546172460246 0)
(25.15861955087333 0.1359012043468758 0)
(26.05901593561903 0.690542053916959 0)
(30.16800552487713 0.9766205697968559 0)
(24.99660979500106 -0.002951511393068501 0)
(25.12726530855754 0.01434273756788853 0)
(25.87266885399753 -0.1053730116915354 0)
(28.37681150715076 -1.506240476051604 0)
(25.00023556141138 -0.001078214204229371 0)
(25.03899615358455 -0.04509299811958795 0)
(25.29203923856768 -0.8807891366851865 0)
(23.06891171094045 -3.877843272823976 0)
(19.46028114581964 -5.732459781570369 0)
(24.72620584297615 -1.217215515108259 0)
(24.99019748047566 -0.06632566269120004 0)
(24.99981424760462 -0.001457927625121758 0)
(17.23446825038634 -6.309392943267933 0)
(24.22522524882002 -1.301648195989464 0)
(24.96300985474609 -0.072501908631741 0)
(24.9993159312613 -0.001138151919564364 0)
(16.22625756654226 -5.43532698665803 0)
(23.91537202646859 -1.056647393142212 0)
(24.95432323965647 -0.05169012028815313 0)
(24.99975927210609 -0.0004132300793357489 0)
(14.99358735076035 -4.724751779220253 0)
(23.62987768211135 -0.9417796646007099 0)
(24.94702092531774 -0.04436985914340198 0)
(24.99964104344767 -0.0004152310050327194 0)
(16.50094887344871 -2.733318928212134 0)
(23.90731770540992 -0.5532062366547496 0)
(24.96779187117733 -0.02398051032225365 0)
(24.9998439029027 -0.0001867844497387943 0)
(18.57916164852024 -0.7036976660702208 0)
(24.27425435597268 -0.277197475925507 0)
(24.98554253070029 -0.009463953299497209 0)
(24.99994027731823 -5.742920340010859e-05 0)
(20.52146811355989 0.1987679433809518 0)
(24.58143419948977 -0.146243014757697 0)
(24.99425353044882 -0.004040115939281694 0)
(24.99998108575589 -2.313197238372079e-05 0)
(22.08292772346783 0.4790143029888361 0)
(24.81765464912322 -0.1549028512221553 0)
(24.99897960607258 -0.002825759856678552 0)
(24.99999544376393 -1.19011085041279e-05 0)
(22.16563403537884 -0.2984167054047365 0)
(24.73027779421429 -0.01693452955474833 0)
(24.98893711489894 -0.0002807854995640936 0)
(24.99986496234125 -1.409279419563729e-06 0)
(22.32053534287252 -0.7104226342685425 0)
(24.74600722334677 -0.0398374231986988 0)
(24.98977063771358 -0.000723593383330349 0)
(24.99987029435784 -4.127509922029493e-06 0)
(22.25958319746075 -1.022373954794108 0)
(24.74026387918086 -0.06959536764788751 0)
(24.99041072330969 -0.001381410114398162 0)
(24.99987928498269 -9.020760639595872e-06 0)
(22.20177194416355 -1.021858023860695 0)
(24.75535917736645 -0.08363748804051109 0)
(24.9917172650501 -0.002074982615632507 0)
(24.99990031423194 -1.70716140139646e-05 0)
(22.08292772347952 -0.4790143030198088 0)
(24.81765464917767 0.1549028511997376 0)
(24.99897960615652 0.002825759807034577 0)
(24.99999544382927 1.190110554443265e-05 0)
(20.52146811356815 -0.1987679434220304 0)
(24.5814341995446 0.1462430147552451 0)
(24.99425353049427 0.004040115962096425 0)
(24.99998108578288 2.313199247377846e-05 0)
(18.57916164852903 0.703697666085908 0)
(24.27425435600608 0.2771974759453091 0)
(24.98554253069932 0.009463953340494463 0)
(24.99994027733208 5.74292081108977e-05 0)
(16.5009488734277 2.733318928191835 0)
(23.90731770543925 0.5532062366962943 0)
(24.96779187115821 0.02398051032370783 0)
(24.9998439028987 0.0001867844565740497 0)
(24.99981424758017 0.001457927630484765 0)
(24.99019748045725 0.06632566267429152 0)
(24.72620584293892 1.217215515094967 0)
(19.46028114576421 5.732459781656066 0)
(24.99931593123301 0.001138151964130548 0)
(24.96300985474733 0.07250190863819299 0)
(24.22522524879267 1.301648195994027 0)
(17.23446825032037 6.309392943315991 0)
(24.99975927209437 0.000413230074197075 0)
(24.95432323966263 0.05169012028807046 0)
(23.9153720264931 1.056647393187941 0)
(16.22625756649251 5.435326986682646 0)
(24.99964104344189 0.000415231001882789 0)
(24.94702092528491 0.04436985911366417 0)
(23.62987768212802 0.9417796646298927 0)
(14.99358735073541 4.724751779221934 0)
(23.06891171089101 3.877843272815009 0)
(25.2920392385606 0.8807891367010393 0)
(25.03899615360532 0.04509299815450389 0)
(25.00023556141869 0.001078214165804577 0)
(28.37681150711821 1.506240476075452 0)
(25.8726688540088 0.1053730116877746 0)
(25.12726530854685 -0.01434273759083354 0)
(24.99660979500102 0.00295151139723067 0)
(30.16800552487917 -0.9766205697730779 0)
(26.05901593562349 -0.6905420539346059 0)
(25.15861955086651 -0.1359012043425067 0)
(24.98654542223731 0.004849546185057443 0)
(28.80460519211951 -3.514650507285612 0)
(25.8085624792778 -1.457663256153283 0)
(25.02314318504319 -0.2270349094936034 0)
(24.98790928449094 0.00571780504400037 0)
(24.99279606912426 0.01005028528155139 0)
(24.92101659228324 -0.1715831534170456 0)
(22.98991763147924 -3.523283287488918 0)
(18.46949861318101 -10.337271442349 0)
(24.9876175486873 0.01513660880753069 0)
(24.92375797384471 -0.2458942049876906 0)
(23.40767536714881 -3.59257621909931 0)
(19.9588889066574 -9.930255231129692 0)
(24.99636101745006 0.01825944525751596 0)
(24.96148283195697 -0.2156310503678782 0)
(24.29178860295647 -2.920515803726577 0)
(22.4291606681673 -8.803696290372637 0)
(24.979828446777 0.01508444392483881 0)
(24.98149814686982 -0.1285711479542178 0)
(24.97690063886694 -1.850810093158957 0)
(25.00806523228606 -6.345329746390727 0)
(17.95556234472057 -10.0364251541885 0)
(23.30856715391414 -2.851007647380311 0)
(24.95269546186493 -0.1196173694821079 0)
(24.99448513974919 0.00670836292514772 0)
(17.87883553476144 -9.437770819218251 0)
(23.509888630666 -2.285889699285721 0)
(24.96216138443954 -0.07717774928887285 0)
(24.99710922864837 0.004416008498075708 0)
(17.88885512590128 -8.720068634712376 0)
(23.77210544994364 -1.707399410266857 0)
(24.97714510758406 -0.04880147477557434 0)
(24.99765933711651 0.002879874899654892 0)
(17.89305651375066 -7.806408674243706 0)
(23.93449275373814 -1.237323447949688 0)
(24.98055212163266 -0.02860662702506195 0)
(24.99908787547518 0.001651429670298489 0)
(24.99998825241689 2.655401115318199e-05 0)
(24.99908945725857 -0.0004917987742990249 0)
(24.80600086799086 -0.06848473352445672 0)
(19.19673161027842 -1.770875933695625 0)
(24.99990629427797 0.0001086503846660663 0)
(24.99774634292066 -0.001884855549940811 0)
(24.64729272423262 -0.1886675264225984 0)
(18.83685213283637 -3.431122833589529 0)
(24.99985535296593 0.0003584596188380184 0)
(24.99346608987361 -0.006010434724284979 0)
(24.4065771099048 -0.4306321100621573 0)
(18.20400653266586 -5.111734979537682 0)
(24.99935832341156 0.0008359314361569922 0)
(24.99002326120631 -0.01346719730200824 0)
(24.20090293673579 -0.7569892888203938 0)
(18.08451831786957 -6.533373720768486 0)
(24.99999616626811 8.321942611574036e-06 0)
(24.99999891813261 4.514206167292874e-07 0)
(24.99998150540227 7.743046070775128e-06 0)
(24.99988506883682 5.342095132911469e-05 0)
(24.99989423803256 -0.0001789259198346707 0)
(25.000020744222 -2.525766703993686e-05 0)
(25.00035339940009 -0.0003715528695753279 0)
(25.0016567090467 -0.00209983049862182 0)
(24.96995592546256 -0.02541104964479385 0)
(25.00449657655408 -0.004907960352800865 0)
(25.03409174169991 -0.02693182569959502 0)
(25.07756533633697 -0.08280715870520185 0)
(23.40233869319157 -0.7439969953547108 0)
(25.02316900927157 -0.217616282654407 0)
(25.32431283790453 -0.1190476217895819 0)
(25.47074517344272 -0.308159739501159 0)
(24.99962521742686 0.0001911802545296665 0)
(25.00411666450723 -0.006332513608398376 0)
(25.12425383335517 -0.1563508607799181 0)
(25.60281600448583 -0.420358901162104 0)
(24.99923436828856 0.0004492614790509847 0)
(25.00610298228995 -0.012530372074386 0)
(25.15562735424557 -0.245353959138664 0)
(25.71913845924438 -0.5855685563085749 0)
(24.99889960788968 0.0007815679455134019 0)
(25.00601342130018 -0.01851245419325004 0)
(25.16226095625861 -0.3404623328555938 0)
(25.79760675192059 -0.8160353031874236 0)
(24.99875704122012 0.001048531626758969 0)
(25.0041473886096 -0.0220080373649422 0)
(25.13885870640591 -0.4295554878397017 0)
(25.79807670927664 -1.156103875203485 0)
(24.99983344087538 0.0002114929462075405 0)
(24.99717745008321 -0.00348557842848424 0)
(24.83872880993149 -0.2444053314357527 0)
(24.70923208697778 -2.863853724669249 0)
(24.99960867914529 0.0005883423255468169 0)
(24.99400235158859 -0.009850662628789895 0)
(24.86715544012435 -0.4347647671528056 0)
(25.19305812672885 -2.598188379328054 0)
(24.99918190790882 0.001068278259811989 0)
(24.99493965571119 -0.01912139368017739 0)
(24.97691589357073 -0.518938892261531 0)
(25.42206303764182 -2.132118752180922 0)
(24.99882102731684 0.001175232272711661 0)
(25.00045099803758 -0.02332221176644742 0)
(25.08865130688882 -0.4898874834275903 0)
(25.65939793131359 -1.623072517553473 0)
(23.7865012046843 -2.67251887100173 0)
(24.9254969461387 -0.115514829175528 0)
(24.99939728843551 -0.0009760991450234539 0)
(24.99994356718923 7.086900936431584e-05 0)
(23.75860243416074 -2.246341240220171 0)
(24.92279113311958 -0.1024908569825174 0)
(24.99943762609009 -0.001026354874205993 0)
(24.99995484699967 9.138283243048653e-05 0)
(23.6720803080037 -2.026994808253609 0)
(24.93420817565913 -0.05325851797350657 0)
(24.99959250202956 -0.0002146249408518587 0)
(24.9999906739747 3.987208873099919e-06 0)
(23.77009578418667 -1.664088544062121 0)
(24.96202828483455 -0.01317784220346145 0)
(24.99988068946034 -1.304205421852086e-05 0)
(24.99999892495788 2.189362278867027e-06 0)
(23.78040159029484 -1.320933395742621 0)
(25.00032751462205 0.01854261796838485 0)
(24.99999012755886 5.418238512386571e-06 0)
(24.99999994282286 1.630343616330507e-07 0)
(23.81163417595452 -1.052370043521269 0)
(24.99146937331109 -0.01386257164484561 0)
(25.00000013053182 -8.866087941154593e-07 0)
(24.99999999939669 1.194705874701211e-09 0)
(23.95318688130806 -0.5582328983878445 0)
(24.99451382516014 -0.001226468564134008 0)
(24.9999999702723 4.460539444837352e-09 0)
(24.99999999996918 -5.524568501430983e-11 0)
(24.39665451840093 -0.04212316520402064 0)
(24.99730224041053 8.383341493314208e-05 0)
(25.0000000339608 1.919490612357224e-09 0)
(25 6.815961162185804e-12 0)
(25.00000000000001 2.147234503289462e-15 0)
(24.9999999999863 3.886246022699039e-11 0)
(24.99999550594934 4.972476479019634e-06 0)
(24.99867336138882 0.00078227516928558 0)
(25 5.561083862396216e-15 0)
(24.99999999994096 3.23965725951894e-10 0)
(24.99998238512714 2.356763402249511e-05 0)
(24.99282888864465 0.01850898400497012 0)
(25 -1.79950595643183e-13 0)
(25.00000000213502 -3.772628606693175e-09 0)
(24.99991168136484 7.731888499270958e-05 0)
(24.97702131403262 0.0603785803197616 0)
(25 1.758470701962956e-12 0)
(24.99999998036234 9.592154218464938e-10 0)
(24.99946463271968 0.0003281509422605516 0)
(24.84536358270931 0.1494053897448787 0)
(24.99609960976111 -2.619089439936976e-11 0)
(24.98490610811982 0.03090298389419904 0)
(24.91846817623227 0.08215479189302785 0)
(24.50297431093624 0.03641450880302555 0)
(24.98490610809984 -0.03090298398472814 0)
(24.93560647209053 -5.443269366926508e-11 0)
(24.68109280720704 -0.008907076333655351 0)
(23.68852424404954 -0.3360717885497034 0)
(24.91846817622469 -0.08215479192942543 0)
(24.6810928072011 0.008907076295951128 0)
(23.78043250718898 4.289226024547037e-12 0)
(21.79686476910454 -0.5186300186854018 0)
(24.50297431093914 -0.03641450887645235 0)
(23.68852424405233 0.3360717884863328 0)
(21.79686476906726 0.5186300186817715 0)
(19.35197071145584 -3.176185475429547e-11 0)
(18.61075424860757 2.671490071675081 0)
(19.32681962708875 3.140566630756896 0)
(21.20040489579569 2.733727222624918 0)
(22.80471268879489 1.754038050385838 0)
(19.51084809337278 4.466142090175534 0)
(19.73534004411685 4.440241463472386 0)
(20.65661458209689 4.403435419233414 0)
(21.90431187867128 4.061911790385143 0)
(19.93206840847355 5.452864221537514 0)
(20.45903321430388 4.698444854494768 0)
(21.25504940164858 4.835267777989888 0)
(22.06279429635942 4.703007797462278 0)
(20.72139558079857 5.663041120008377 0)
(21.08926826472322 4.980712719376903 0)
(21.65112271213668 5.058219055552819 0)
(22.18900119829246 4.999633744080962 0)
(22.44495741487931 5.2853761615973 0)
(22.66969186699346 5.379149880061415 0)
(22.8646041583691 5.384078676086054 0)
(23.17892111929602 5.585637938277998 0)
(22.1035401407693 5.371242197897014 0)
(22.56626713268543 5.505001104959982 0)
(22.82051675371972 5.450224024715436 0)
(23.68247591758345 5.795043878992467 0)
(21.66844465961761 5.268068299207648 0)
(22.31170425443332 5.494129987445993 0)
(22.69200469943445 5.50073600097049 0)
(25.07473341651255 6.179616240507318 0)
(21.03965409638858 6.165663618203895 0)
(21.13547980688967 6.248127729171328 0)
(21.42105351627591 5.967084841074263 0)
(26.64952381736087 7.375573962996479 0)
(27.22271634836808 3.35076772201238 0)
(27.24300766229955 0.8580709636869172 0)
(26.39198782104969 0.4363417065776243 0)
(26.15269047103208 0.3543491112181585 0)
(29.05647004236796 2.484391359532872 0)
(28.84849843917063 0.2752778812020777 0)
(27.62408263059735 0.3090887108998538 0)
(26.89788906002624 0.3161968294236698 0)
(31.88314694287651 2.075670245469798 0)
(29.91052056983373 0.05219882495977651 0)
(28.2927962337334 0.04759891177766682 0)
(27.33421997018826 0.07802927692606838 0)
(25.25453564737951 1.800722949969805 0)
(23.4652011284134 0.8608838980534723 0)
(23.07879595951304 -0.00215328504138431 0)
(23.19601195921943 -0.4307256740678161 0)
(26.07920862364155 0.1911916912213099 0)
(25.97020609772965 0.06727463689015166 0)
(25.82589076226996 0.05133055170599526 0)
(25.67958837336631 0.08302762101418824 0)
(26.52999415425459 0.178486754839621 0)
(26.26000929564015 0.04673657934826267 0)
(26.01966305648926 -0.0002784078299857365 0)
(25.82536090694205 0.04490884787152932 0)
(26.77281012824809 0.008634395268832071 0)
(26.41012794182728 -0.06215014768046394 0)
(26.14415263102376 -0.07281484064699215 0)
(25.94049402797476 -0.02431101717153889 0)
(23.46893474832534 -0.681314057417517 0)
(23.85556719753659 -0.8452263941713684 0)
(24.22236630756738 -0.8779217625909573 0)
(24.52003328413803 -0.7398495481115965 0)
(25.5523567177566 0.1028438889386709 0)
(25.42903827129753 0.01385536878749187 0)
(24.26433713861647 1.740179176013654 0)
(18.46393490904248 4.486922178460582 0)
(25.6882037591022 0.05546045239867265 0)
(25.52258972770855 0.007684852419268241 0)
(23.27239396888685 2.421864007304046 0)
(14.91431163306668 3.896688342195273 0)
(25.79840166824162 -0.001702561342554355 0)
(25.60596234503787 -0.03105777541989028 0)
(21.51023879572655 2.2990595922648 0)
(11.10446580624836 2.344465365871179 0)
(24.83321657370063 -0.5599697723897359 0)
(25.0527897708502 -0.3012935853083714 0)
(18.02611751874527 -0.3875620764402248 0)
(5.298913945305015 0.4908849523348688 0)
(13.41939634712072 6.405319016406869 0)
(14.55298700069955 7.510850558954159 0)
(14.98112679186939 8.6529041500154 0)
(15.6945023838624 9.576190971971299 0)
(11.93501952977966 6.443912173874511 0)
(14.02864603247437 7.514935136020206 0)
(14.81782578336111 8.798734593652471 0)
(15.63514038950707 9.699353784387373 0)
(9.375358458496072 5.058458289656879 0)
(12.38673264196611 6.991502217987581 0)
(13.97855523586929 8.725585699332244 0)
(15.19947314865133 9.738316380799034 0)
(4.210730682129887 2.978115859825882 0)
(7.652091841919677 4.340972231325045 0)
(11.02903267608239 5.893726860580284 0)
(13.0324891292861 7.768556305432833 0)
(15.97963110679064 10.28756468425726 0)
(16.03559761207482 10.64451247115071 0)
(15.9876523517911 10.73835790216996 0)
(16.08136492513558 10.77659386114612 0)
(15.94658120651321 10.27789821733912 0)
(16.00804567831765 10.57266860654113 0)
(16.04491757087912 10.6759099121202 0)
(16.2213660372933 10.77275738045963 0)
(15.79013936852436 10.28034776193381 0)
(15.92875985472707 10.53317493150404 0)
(16.01487568129885 10.6584591906258 0)
(16.22448734842354 10.78947378474765 0)
(14.38916157728226 9.259656731637735 0)
(14.80387874864399 10.27579876271235 0)
(15.05055755924397 10.73593324317229 0)
(15.29457486733003 10.69739947445791 0)
(16.50361927164264 10.88158292468585 0)
(17.91929406574282 11.2611260247081 0)
(20.57254806141961 11.10296648058 0)
(23.79777412717544 9.574974536571071 0)
(16.68058418059067 10.96968580223339 0)
(17.90596399855562 11.29546513404866 0)
(20.20801221279719 11.18584049270628 0)
(24.24028710913156 11.84827273540149 0)
(16.68859853978553 11.05662028501493 0)
(17.68034961583395 11.29639425452186 0)
(20.37667447982363 11.94466143548589 0)
(30.21987635313083 17.68633024433985 0)
(15.97413686316183 11.0802357399104 0)
(17.36255288558274 10.69659957306959 0)
(20.98507801698785 12.40532811694054 0)
(41.65494447217289 24.43826002648586 0)
(29.43827800778924 4.582158235185282 0)
(32.29324711379297 -4.80937824434883 0)
(10.05130161339233 -3.090783863581856 0)
(4.428481091497123 -0.571576692666944 0)
(31.03565215090724 3.954678138038099 0)
(25.70936591946974 -3.019939621707832 0)
(4.606322787543254 -0.4215413641091933 0)
(2.135543564057234 2.706934485384208 0)
(31.44462678986878 2.994103490354988 0)
(16.18080338379861 -5.589837795232068 0)
(2.366433762336339 3.05759244099922 0)
(1.427482733978055 3.600509932203047 0)
(20.73797505065105 -8.966270899894836 0)
(4.849864102294586 -4.592741894718727 0)
(0.001129838905152455 4.243169330661569 0)
(0.1903154828525481 3.331746534759239 0)
(2.223537630549328 -1.320513248618358 0)
(0.9020946277049472 -1.625434436620097 0)
(0.1237984780131568 -1.8154410012066 0)
(-0.7669419916240519 -0.9730125243937742 0)
(0.9863921995598277 1.903628298997432 0)
(0.214001224490919 1.083308258580674 0)
(-0.2379238220142208 0.5633770333641245 0)
(-0.4041144615481223 1.025617928741834 0)
(0.84261741423711 2.738622737427618 0)
(0.5215558736884838 2.068930215619404 0)
(0.2415888964725995 2.015546805421778 0)
(-0.1005328993587825 2.142567070949339 0)
(0.2831798191188118 2.708630368496649 0)
(0.1310095185887501 2.252321762417066 0)
(-0.05892738188483267 2.488559854034633 0)
(-0.5448658841819976 2.225959504045838 0)
(4.571826045252707 -5.065320040777271 0)
(11.39484504270281 -6.972322165172691 0)
(16.35781883543289 -6.254022297125474 0)
(20.75584751369877 -6.523569713398374 0)
(1.945738067908982 -2.453264458361152 0)
(8.631685750393608 -4.786300318914892 0)
(14.22514697148874 -5.032587659055145 0)
(19.21328635393236 -5.871209537247467 0)
(-0.8433114938181711 -1.620927287938408 0)
(3.839381730268752 -3.663075378568674 0)
(10.37117134620916 -4.352683051207468 0)
(17.85509844491106 -4.288862073969592 0)
(-1.423148923828453 0.2932527231796161 0)
(1.279021159960996 -0.3409813332732922 0)
(8.456960744191552 0.3584693537196634 0)
(19.6028010621596 -2.663835557540653 0)
(22.0683402482673 -10.84237350539416 0)
(24.02188491205822 -12.39684281437814 0)
(22.58717014508549 -10.20398713494429 0)
(15.72419423374895 -6.540666571741319 0)
(20.1027709149241 -9.323608301221345 0)
(20.44210226847094 -8.491808209404397 0)
(17.98567549661274 -6.832399188688734 0)
(11.31176953497206 -4.453046823651335 0)
(18.4640622935397 -8.759554041992221 0)
(15.29847053717375 -6.001531630503383 0)
(10.03788733299741 -4.252693362802748 0)
(5.295472144299663 -1.121339763417997 0)
(12.73686709231897 -10.15926751967394 0)
(7.262809006160678 -3.006087228680665 0)
(3.79374527591617 0.5772649507880487 0)
(1.616755234211497 1.662484693992994 0)
(-0.07255146485697024 2.347400563805963 0)
(-1.166911680410924 2.030559990719136 0)
(-1.621864525235087 1.36036696788023 0)
(-1.550262219606432 0.5074839234072231 0)
(1.896146815302576 1.081393427839239 0)
(-0.5942047768785794 1.119273537898747 0)
(-2.042672972001665 0.7605475323170895 0)
(-2.429454567665738 0.2404277304564229 0)
(3.530134125828722 -1.871975384297193 0)
(-0.7553612612748225 -1.31626820663797 0)
(-2.392186283846758 -0.8179091129910855 0)
(-2.667351718077769 -0.2063910888070775 0)
(8.725183155999359 -4.099722157140716 0)
(5.078602783285285 -3.33021939731144 0)
(3.809916699964343 -1.863320722256896 0)
(3.590715256907766 -0.5351928380612276 0)
(-1.550262219606079 -0.5074839233976725 0)
(-2.429454567669485 -0.2404277304442778 0)
(-2.667351718088413 0.2063910888141232 0)
(3.590715256872727 0.5351928380574144 0)
(-1.621864525233493 -1.360366967870809 0)
(-2.042672972002129 -0.7605475323053064 0)
(-2.39218628384653 0.8179091129933915 0)
(3.809916699976451 1.863320722248506 0)
(-1.16691168040743 -2.030559990710221 0)
(-0.5942047768747555 -1.119273537891753 0)
(-0.7553612612697781 1.316268206641452 0)
(5.078602783300294 3.330219397319758 0)
(-0.07255146485277644 -2.3474005637993 0)
(1.896146815306856 -1.081393427831625 0)
(3.530134125833339 1.871975384306009 0)
(8.72518315600977 4.099722157155437 0)
(15.72419423373677 6.540666571751512 0)
(22.58717014507042 10.20398713492146 0)
(24.02188491204561 12.39684281437049 0)
(22.06834024825469 10.84237350538645 0)
(11.3117695349732 4.453046823652744 0)
(17.98567549661146 6.83239918869192 0)
(20.44210226847065 8.491808209410323 0)
(20.10277091491493 9.323608301218364 0)
(5.295472144299619 1.12133976342327 0)
(10.03788733299693 4.25269336280545 0)
(15.29847053717234 6.001531630509318 0)
(18.46406229354137 8.759554041990967 0)
(1.616755234213888 -1.662484693990273 0)
(3.793745275915265 -0.5772649507812824 0)
(7.26280900615995 3.006087228689263 0)
(12.73686709232211 10.15926751968054 0)
(19.60280106215781 2.663835557539287 0)
(8.45696074419396 -0.3584693537148584 0)
(1.279021159965254 0.3409813332782675 0)
(-1.423148923827212 -0.2932527231753869 0)
(17.85509844491019 4.288862073964324 0)
(10.37117134621145 4.352683051205879 0)
(3.839381730271737 3.663075378575672 0)
(-0.8433114938215039 1.620927287942189 0)
(19.213286353921 5.871209537243863 0)
(14.22514697148498 5.032587659054239 0)
(8.63168575038949 4.786300318923953 0)
(1.945738067894253 2.453264458369388 0)
(20.75584751368603 6.523569713386389 0)
(16.35781883543104 6.254022297113908 0)
(11.39484504269479 6.972322165182805 0)
(4.57182604522261 5.065320040787853 0)
(-0.7669419916493144 0.973012524392996 0)
(0.1237984779767601 1.815441001200059 0)
(0.9020946276922271 1.625434436588154 0)
(2.223537630556829 1.320513248642054 0)
(-0.4041144615652738 -1.025617928728588 0)
(-0.2379238220319212 -0.5633770333627296 0)
(0.2140012245089286 -1.083308258612033 0)
(0.986392199603689 -1.903628298999109 0)
(-0.1005328993703112 -2.142567070940041 0)
(0.2415888964599214 -2.015546805424763 0)
(0.5215558736944588 -2.068930215643045 0)
(0.8426174142567425 -2.738622737440193 0)
(-0.5448658841852716 -2.225959504038947 0)
(-0.05892738189163004 -2.488559854043563 0)
(0.131009518588566 -2.252321762433606 0)
(0.2831798191209192 -2.708630368505222 0)
(4.428481091461681 0.5715766926702704 0)
(10.0513016132636 3.090783863537617 0)
(32.29324711370618 4.809378244401484 0)
(29.43827800777195 -4.582158235172233 0)
(2.135543564065273 -2.706934485368198 0)
(4.606322787504621 0.42154136406398 0)
(25.70936591940773 3.019939621699316 0)
(31.03565215089874 -3.954678138027743 0)
(1.427482733982055 -3.600509932187947 0)
(2.366433762324221 -3.057592441013757 0)
(16.18080338375794 5.589837795230426 0)
(31.44462678986157 -2.994103490352533 0)
(0.1903154828557563 -3.331746534747229 0)
(0.001129838910493256 -4.243169330672454 0)
(4.849864102298044 4.592741894669466 0)
(20.73797505067258 8.966270899878438 0)
(23.79777412717842 -9.574974536567355 0)
(20.57254806143176 -11.10296648058207 0)