/*--------------------------------*- C++ -*----------------------------------*\
  =========                 |
  \\      /  F ield         | OpenFOAM: The Open Source CFD Toolbox
   \\    /   O peration     | Website:  https://openfoam.org
    \\  /    A nd           | Version:  11
     \\/     M anipulation  |
\*---------------------------------------------------------------------------*/
FoamFile
{
    format      ascii;
    class       volScalarField;
    location    "0.35916";
    object      Ma;
}
// * * * * * * * * * * * * * * * * * * * * * * * * * * * * * * * * * * * * * //

dimensions      [0 0 0 0 0 0 0];

internalField   nonuniform List<scalar> 
880
(
1.118016635923817
1.118016634796662
1.117913393858472
1.101710755929703
1.118016635922823
1.118016632489947
1.117870680172159
1.096278898410389
1.118016635905757
1.118016621536184
1.11773791577967
1.089051338936014
1.118016635824109
1.118016566854576
1.117400758465695
1.06956988287479
1.118016636535324
1.118016634947919
1.118016603683139
1.118016146344562
1.11801628263526
1.118014697049881
1.118008389986319
1.118021819131865
1.11645844632601
1.115370592309997
1.11382625448633
1.113112097422236
1.031335416397216
0.9943595440215994
0.9723589870691348
0.9700980956708882
1.118010994740056
1.117995279136633
1.117968985134302
1.117859437679569
1.1179026299476
1.117468448784805
1.116771710550859
1.115509268801089
1.104438545800094
1.097442063693938
1.088283815539296
1.079915755263154
0.9590890217321711
0.9591537949453434
0.9575311411771124
0.9810671128774703
1.040063770559146
1.075629847194503
1.089974306645857
1.104395878386471
1.065644707426206
1.065230958430694
1.069340398770991
1.077718584008818
1.111152696829063
1.105559319741477
1.10044121887325
1.097682561515538
1.117317273278028
1.116402146393873
1.115080459059397
1.113443654252882
1.111894292703611
1.110741117706161
1.109991173218249
1.10984581131146
1.097071430811507
1.098722478303981
1.102525365695422
1.10781226942299
1.086135612161002
1.096173790437381
1.105653845658526
1.113541892179182
1.111644915281886
1.119223393172237
1.123416361696271
1.126393795818211
1.128799688213596
1.120912084040125
1.11344539604439
1.109956823363236
1.0795910655787
1.125828223430088
1.120194489421025
1.110318042700087
0.8048678616862014
1.115079961339283
1.125651071731412
1.111389322944211
0.5735202427690418
1.038049880099774
1.125580059774239
1.113030205900981
1.113319692709817
1.121418365986656
0.9543204247355643
0.5178498582676064
1.108811239456756
1.108892541747743
0.8849809229467398
0.5549872235614723
1.106537579761193
1.080287804349888
0.8076274418568326
0.5746555392700561
1.100917977782334
1.033586177677802
0.7628465924539022
0.6141002473235138
0.6624783762020736
0.7510171123498295
0.9749920021709945
1.089501246265475
0.7143569794155358
0.7749531387043123
0.9220073153959808
1.069306249684647
0.7674900008760644
0.8176015014472309
0.9054017587278733
1.038013121734775
0.8151700164774591
0.8746544684951094
0.9234602907264763
1.006171551311507
0.9854933288763724
0.9756134797676361
0.950348013790189
0.8753607007713888
1.009973658519429
1.039766916883399
1.036578774293524
0.9570959004951312
1.038653213514642
1.101932731519574
1.127942642983152
1.064384320664517
1.064437570373572
1.149817222081537
1.215994089172126
1.193041662797681
1.084295667472544
1.191040357996009
1.305690295319142
1.394806729095357
1.109058143819005
1.221480256703254
1.366037564968039
1.585931917565524
1.124961485747652
1.226853350412551
1.411482780654232
1.774951875615542
1.134419834124873
1.212766667449419
1.386809875173642
1.944501984344722
1.717309187353188
1.32169393736411
1.20103775126145
1.140452858976389
1.181341400916882
1.275012506480279
1.188838193165844
1.140440355163132
1.027416541471069
1.252786090898666
1.179531563755168
1.136936332828079
0.878738618629514
1.215741261616619
1.165419952817679
1.132902658530532
0.8054090490242729
1.161958003931657
1.142358558642859
1.125661175770109
0.730168838842819
1.092194273705461
1.117123215578804
1.118950022536471
0.6970062203322376
1.041855582963055
1.105956756345963
1.117614069173674
0.6807730172781379
1.03320586860965
1.106962549454582
1.117614810070431
0.6501096490956322
0.9390268341243285
1.069510836559166
1.113036707052696
0.6573221436575326
0.9372940394751036
1.069648111156076
1.112899821594264
0.68544308115608
0.936324993067953
1.070440135514825
1.112849940366159
0.7091646105104515
0.9440283851278114
1.073817653520842
1.113124767077852
0.6807730172784542
1.033205868611476
1.106962549458128
1.117614810075536
0.6970062203335289
1.041855582967063
1.105956756347577
1.11761406917643
0.7301688388451893
1.092194273708983
1.117123215579742
1.118950022539633
0.8054090490251758
1.161958003935883
1.142358558643887
1.125661175771624
1.140452858975163
1.201037751262339
1.321693937362988
1.717309187352433
1.140440355162665
1.188838193166051
1.275012506479738
1.181341400920257
1.136936332826409
1.179531563754669
1.252786090904272
1.027416541470338
1.132902658529176
1.165419952815091
1.215741261619574
0.8787386186305567
1.944501984351247
1.386809875175357
1.212766667452256
1.134419834124227
1.774951875615042
1.411482780655908
1.22685335041307
1.124961485746391
1.585931917564487
1.366037564966383
1.221480256704446
1.109058143814222
1.394806729094215
1.305690295320152
1.191040357998502
1.084295667467513
0.9854933288739219
0.9756134797647393
0.9503480137883705
0.8753607007712454
1.009973658519063
1.03976691688294
1.036578774291846
0.9570959004942086
1.038653213518334
1.101932731521069
1.127942642981614
1.064384320663784
1.06443757037208
1.149817222083586
1.215994089171437
1.19304166279661
0.8151700164776299
0.874654468494852
0.9234602907245175
1.006171551304293
0.7674900008764635
0.8176015014473893
0.9054017587276841
1.038013121733678
0.714356979415727
0.7749531387048587
0.9220073153957455
1.069306249682358
0.6624783762023287
0.7510171123495555
0.9749920021668554
1.089501246263858
1.113319692710101
1.121418365987688
0.9543204247372957
0.5178498582689395
1.108811239451083
1.10889254174532
0.8849809229475653
0.5549872235626756
1.106537579752734
1.080287804343807
0.8076274418562934
0.5746555392709755
1.100917977779632
1.033586177679636
0.7628465924552237
0.6141002473236349
1.113030205900959
1.111389322944907
1.110318042696961
1.109956823362726
1.125580059779561
1.125651071733492
1.120194489420881
1.113445396044598
1.038049880104893
1.115079961340271
1.125828223433674
1.12091208404194
0.5735202427710775
0.8048678616892436
1.079591065578388
1.128799688213325
1.109845811309527
1.10781226942018
1.113541892177289
1.126393795817134
1.109991173220099
1.10252536569257
1.105653845657566
1.123416361696166
1.110741117705981
1.098722478303732
1.0961737904403
1.119223393175942
1.111894292706686
1.097071430812177
1.086135612160039
1.111644915282179
1.117317273278753
1.1111526968347
1.06564470742385
1.040063770557031
1.116402146396932
1.105559319745001
1.065230958429758
1.075629847194415
1.115080459056559
1.100441218875857
1.069340398772773
1.089974306650545
1.113443654255268
1.097682561517432
1.077718584008532
1.104395878389953
0.9810671128780553
1.079915755262911
1.115509268805156
1.117859437676896
0.9575311411782448
1.088283815538421
1.116771710554297
1.117968985136212
0.9591537949450998
1.097442063695251
1.117468448792647
1.117995279139119
0.9590890217322675
1.104438545802883
1.117902629951604
1.118010994737249
0.9700980956704262
1.113112097422213
1.11802181913216
1.118016146342707
0.9723589870673401
1.113826254487307
1.118008389989767
1.118016603681053
0.99435954401616
1.115370592311757
1.118014697053133
1.118016634948937
1.031335416388703
1.116458446327963
1.118016282637736
1.118016636532613
1.118016635923625
1.118016634796214
1.117913393858038
1.101710755928452
1.118016635921967
1.118016632492536
1.117870680172343
1.096278898399426
1.118016635905015
1.118016621538626
1.117737915779949
1.089051338919895
1.118016635822621
1.11801656685767
1.117400758466618
1.069569882863015
1.090035469993369
1.079825939536397
1.058256268615972
1.008482504318984
1.079825939545475
1.064171107517893
1.027821572983073
0.9529628009559754
1.058256268635426
1.027821572997365
0.9622366500199663
0.8591382090033957
1.008482504337456
0.9529628009776419
0.8591382090169173
0.7515700482356041
0.7259785928921673
0.7634958645851001
0.835439453399805
0.9069324680939644
0.7809049129965081
0.7857361596203934
0.8157089825571657
0.8610276536924302
0.7683602162306002
0.8086096737055212
0.8384582768915332
0.8598374602049808
0.8035284697803472
0.8475522103686682
0.8694907292431151
0.8807983180623481
0.8966710822477126
0.9095300610597518
0.9296373954286478
0.9684981089829853
0.8950097996848173
0.9106300356193844
0.9352963062977487
0.9903540480587589
0.8839242961536053
0.908134302320315
0.9366095648279881
1.054099126017948
0.8334889088564431
0.861013387742702
0.8995181776371917
1.141566504294655
1.149110244360262
1.190193654743947
1.162246371441222
1.155848147065772
1.270489465976706
1.298129260720468
1.245474543662002
1.213591402116738
1.425523148123532
1.363572008422152
1.297050593985831
1.251306652337988
1.160550922783058
1.101028130468795
1.087570987573147
1.08967251259624
1.158608096305742
1.159530392898226
1.157129131873554
1.153210212899622
1.19766364961145
1.182954418920835
1.168737560141233
1.156229843197362
1.223617764838462
1.198434142731595
1.175084361362688
1.153876293645127
1.088913206547767
1.078604992104568
1.068243690389127
1.050956417087265
1.122195644700245
0.870261578554214
0.5645565628138466
0.3649115623741145
1.091055657815679
0.6979283527814669
0.3663647896781008
0.1742021353088356
1.03304975150778
0.5046963432767027
0.1477379393159248
0.03131736588200656
0.8520581999500584
0.3007722095245755
0.02334073471675631
0.1011329204991249
0.3409433218531256
0.4414921738171153
0.5060342053246503
0.5695893773014351
0.2434611928799465
0.3991465386790912
0.4925308463016217
0.5665964691600279
0.1102430295621093
0.3088112445418157
0.4557218697099258
0.5501623512401137
0.009862432737794937
0.1610297482984816
0.3251555540664052
0.461266316432594
0.6437516085937741
0.7090953064024675
0.7653351389491344
0.8044314137206836
0.6371718132784009
0.7037527866364427
0.759953066079091
0.7996914302090287
0.6207736800228795
0.6914632101434874
0.753622805043221
0.7976590282799814
0.5748928095219744
0.6672804348566634
0.748571819792214
0.7963690453697855
0.8505650451741009
0.9213240852044172
1.016665404619248
1.130813549096672
0.8424679546712255
0.9072351371312285
0.9950835837326842
1.146729585829483
0.8387027132359618
0.8956050712505904
1.009283698468142
1.465221151690741
0.836732225619658
0.8901531186431303
1.035249066710473
2.043002032137403
1.357976753369625
1.50267898230584
0.7469419882828846
1.542192106390489
1.44065701906292
1.291821388052952
1.121139835291825
1.900892281017829
1.484608247654829
0.9244352977610403
1.364513576136983
1.929859497676057
1.143590602972501
0.4371769936496515
1.649786534399001
1.863895548697404
1.320862537175155
0.8900254801792202
0.685883599459103
0.4518435184810579
1.399911296722328
0.9913985501078764
0.7129095964375055
0.3511788855418954
1.337801845573943
0.9694408547810013
0.614646549287357
0.2354224524363823
1.275279505242562
0.9266134359857353
0.5551025062972024
0.1789777477200233
0.3128355685540803
0.08979150625209262
0.1521922855376571
0.3540697473457742
0.3573598059267094
0.2737845619330825
0.06730597720523308
0.2739388232595449
0.325168343570251
0.3763073934887009
0.2084461314902774
0.1802782037280967
0.2562668091122392
0.3768510015686872
0.2871904020086462
0.0544015240456184
0.3303918276137173
0.3633805917934747
0.3675813326854553
0.3667632922785239
0.3128470848610136
0.2978915647222147
0.301923813211929
0.2881432068836072
0.2127011749427974
0.1578580866443937
0.153254913155419
0.1301979703859313
0.1157023435592702
0.06723858225377555
0.08536517807120633
0.08057546496821646
0.06429261233588435
0.06057303356201539
0.05573901028946921
0.04953005012883071
0.08598471308529911
0.03558584940655055
0.01250879211165029
0.03221083821855075
0.2345508640186876
0.1731140813879118
0.1019955473071264
0.04163601688147077
0.3265316956623375
0.2783530057904466
0.2180710710244083
0.1783570768870039
0.04953005012858293
0.03221083821856541
0.04163601688129288
0.1783570768868744
0.05573901028882049
0.01250879211178436
0.1019955473071485
0.218071071025165
0.0605730335613773
0.03558584940673786
0.1731140813880846
0.2783530057911875
0.06429261233554026
0.08598471308547569
0.2345508640187123
0.3265316956624552
0.3667632922778131
0.3675813326851733
0.36338059179299
0.3303918276135048
0.2881432068834925
0.3019238132118366
0.2978915647216675
0.3128470848606715
0.1301979703860943
0.1532549131555025
0.1578580866443803
0.2127011749425632
0.08057546496827424
0.08536517807158324
0.06723858225431664
0.1157023435597834
0.05440152404530157
0.2871904020066153
0.3768510015661587
0.2562668091106074
0.180278203727986
0.2084461314887804
0.3763073934856331
0.3251683435673823
0.2739388232594222
0.06730597720456832
0.273784561929609
0.3573598059231331
0.3540697473458607
0.1521922855390628
0.08979150624802673
0.3128355685492162
0.4518435184765787
0.6858835994595388
0.8900254801938107
1.320862537163488
0.3511788855390396
0.7129095964367286
0.9913985501140116
1.399911296723537
0.2354224524351607
0.6146465492867673
0.9694408547822421
1.337801845575634
0.1789777477201683
0.5551025062969015
0.926613435985433
1.275279505245323
1.542192106352121
0.7469419882794304
1.502678982302113
1.357976753367049
1.900892281007535
1.121139835299203
1.291821388051033
1.440657019062516
1.92985949768158
1.364513576144502
0.924435297759608
1.484608247653511
1.863895548701771
1.649786534408979
0.4371769936502748
1.14359060297326
1.130813549096137
1.016665404618974
0.9213240852042262
0.8505650451745757
1.146729585828968
0.9950835837316678
0.907235137130866
0.8424679546714189
1.465221151689881
1.009283698467425
0.8956050712497695
0.8387027132360706
2.043002032135082
1.035249066709923
0.8901531186423484
0.8367322256196373
0.804431413721688
0.7653351389500793
0.7090953064028142
0.6437516085941277
0.799691430210027
0.7599530660796149
0.7037527866372389
0.6371718132784452
0.7976590282800617
0.7536228050435499
0.6914632101436129
0.6207736800229461
0.7963690453702692
0.7485718197923199
0.6672804348564453
0.5748928095214404
0.5695893773023312
0.506034205326649
0.4414921738170697
0.3409433218537455
0.5665964691606987
0.4925308463033878
0.3991465386796662
0.243461192880862
0.5501623512404468
0.4557218697105557
0.3088112445426604
0.1102430295628912
0.4612663164320641
0.3251555540654422
0.1610297482986675
0.009862432738021665
0.3649115623751023
0.5645565628163938
0.8702615785550045
1.122195644697998
0.1742021353097153
0.366364789680563
0.6979283527839573
1.091055657813727
0.03131736588141148
0.1477379393175426
0.5046963432792559
1.033049751505599
0.1011329204988598
0.02334073471686757
0.3007722095253985
0.8520581999469201
1.153210212898493
1.157129131876173
1.159530392904347
1.158608096309118
1.156229843195333
1.16873756014337
1.182954418925866
1.197663649614918
1.153876293642667
1.175084361364056
1.198434142736362
1.2236177648423
1.050956417082988
1.068243690390358
1.07860499210754
1.088913206550206
1.155848147070644
1.162246371448192
1.190193654742711
1.149110244359254
1.213591402122943
1.245474543668889
1.298129260719343
1.270489465976273
1.251306652344561
1.297050593992721
1.363572008420535
1.425523148124081
1.089672512596877
1.087570987578726
1.101028130467852
1.160550922785516
0.9684981089831176
0.9296373954285356
0.9095300610568863
0.8966710822454653
0.9903540480595441
0.9352963062959733
0.9106300356156912
0.8950097996808573
1.05409912601911
0.936609564826359
0.9081343023156412
0.8839242961487639
1.141566504294817
0.8995181776361402
0.8610133877407026
0.8334889088524104
0.8807983180608799
0.8598374602024869
0.8610276536896955
0.9069324680823618
0.8694907292408246
0.8384582768870241
0.8157089825521326
0.8354394533863498
0.8475522103627569
0.8086096736980257
0.7857361596131317
0.7634958645761315
0.80352846977577
0.7683602162241875
0.7809049129887924
0.7259785928887601
0.62330747485299
1.002737777350149
1.099032435358525
1.116675015578888
0.6574507467627008
0.9785689633511159
1.091871834875583
1.115853251021891
0.6903378239370223
0.9705747655594296
1.085840074603313
1.114844111628239
0.706381566161456
0.9575007163677552
1.079459266990378
1.113858044334551
1.113036707050936
1.069510836559248
0.9390268341231935
0.6501096490938171
1.112899821594526
1.069648111156027
0.937294039473917
0.6573221436584219
1.112849940366646
1.070440135516164
0.9363249930669753
0.6854430811564358
1.113124767078515
1.073817653522902
0.9440283851275812
0.709164610509604
1.113858044334827
1.11484411162634
1.115853251022227
1.116675015583423
1.079459266993538
1.08584007460505
1.0918718348779
1.09903243536099
0.9575007163688787
0.9705747655609188
0.9785689633520266
1.002737777350515
0.7063815661610797
0.690337823937195
0.6574507467625991
0.6233074748528888
)
;

boundaryField
{
    back
    {
        type            empty;
    }
    inlet
    {
        type            calculated;
        value           nonuniform List<scalar> 
16
(
1.118016635923818
1.118016635923328
1.118016635921992
1.118016635900154
1.118016636034887
1.11801663584013
1.118016624576712
1.118016452949993
1.118016452949116
1.118016624576168
1.118016635840483
1.118016636034292
1.118016635923624
1.118016635923231
1.118016635921705
1.118016635899328
)
;
    }
    front
    {
        type            empty;
    }
    top
    {
        type            calculated;
        value           uniform 0;
    }
    outlet
    {
        type            calculated;
        value           nonuniform List<scalar> 
16
(
1.111569619199834
1.11143263490006
1.111398362577915
1.111772040948008
1.116099959081639
1.115123633499332
1.113895082403199
1.112679392848554
1.111569619197624
1.111432634899924
1.111398362578429
1.111772040948832
1.112679392848726
1.113895082401086
1.115123633500074
1.116099959086324
)
;
    }
    bottom
    {
        type            calculated;
        value           uniform 0;
    }
    wall
    {
        type            calculated;
        value           uniform 0;
    }
}


// ************************************************************************* //
