/*--------------------------------*- C++ -*----------------------------------*\
  =========                 |
  \\      /  F ield         | OpenFOAM: The Open Source CFD Toolbox
   \\    /   O peration     | Website:  https://openfoam.org
    \\  /    A nd           | Version:  11
     \\/     M anipulation  |
\*---------------------------------------------------------------------------*/
FoamFile
{
    format      ascii;
    class       volVectorField;
    location    "1.325";
    object      U;
}
// * * * * * * * * * * * * * * * * * * * * * * * * * * * * * * * * * * * * * //

dimensions      [0 1 -1 0 0 0 0];

internalField   nonuniform List<vector> 
4455
(
(99.982382 0.028367297 0)
(99.882971 0.02418803 -1.0681028e-18)
(99.695124 0.11124423 3.6796085e-18)
(99.403237 0.054201885 2.6124524e-20)
(98.925793 0.21134727 3.5066811e-18)
(98.3996 0.12468588 -1.328948e-17)
(97.551481 0.41728538 5.9232056e-18)
(96.574902 0.20388008 0)
(94.999031 0.87864986 -3.6972993e-17)
(100.00173 0.077566108 -6.9387042e-18)
(99.891719 0.11661156 6.7791178e-18)
(99.692451 0.25856805 -8.3740017e-18)
(99.390978 0.21920154 1.4033046e-17)
(98.881364 0.3784238 -2.7070007e-17)
(98.34258 0.26302207 2.9749441e-17)
(97.389002 0.40070786 -2.8839091e-18)
(96.426141 0.14181728 4.2089037e-18)
(94.524978 -0.053521586 1.6109072e-16)
(100.01682 0.10346272 -7.2364897e-18)
(99.925842 0.22423633 9.1815545e-18)
(99.68761 0.38552974 8.1980234e-18)
(99.400327 0.43353046 -8.1850512e-18)
(98.849072 0.56930704 3.6109962e-17)
(98.312875 0.55789111 -2.0548433e-17)
(97.334556 0.67199353 2.6249335e-18)
(96.267245 0.21659835 -5.9968231e-17)
(94.376239 0.51773332 -1.1419095e-16)
(100.01938 0.13023606 5.9171136e-20)
(99.951469 0.31242476 -1.0591499e-18)
(99.699268 0.53035163 1.9391196e-17)
(99.407523 0.60378901 2.6781445e-18)
(98.876984 0.83084245 5.4485863e-21)
(98.266854 0.76644599 -3.9258835e-18)
(97.268718 1.1528672 4.4209768e-17)
(96.042512 0.47437897 1.2001471e-16)
(94.02455 1.2409876 9.575215e-17)
(100.04111 0.17248298 1.3986875e-17)
(99.965282 0.36845262 -1.570398e-17)
(99.726874 0.67600773 1.9996425e-17)
(99.414527 0.75679455 2.9408637e-20)
(98.911943 1.0863079 -2.4694249e-17)
(98.262454 0.9969532 -7.6505371e-18)
(97.204464 1.4090241 -3.4855137e-17)
(95.891645 0.68746245 -5.6502948e-17)
(93.630008 1.5480303 -2.8353237e-16)
(100.0468 0.19265934 0)
(99.995022 0.43460062 0)
(99.75869 0.79486493 -3.4913494e-17)
(99.442113 0.91401954 -4.0304463e-17)
(98.968358 1.3146874 0)
(98.296275 1.3139472 -5.5177204e-17)
(97.143457 1.832728 -4.7116168e-18)
(95.634912 1.0413389 -3.4281219e-18)
(93.126482 2.1189758 3.5147747e-16)
(100.07776 0.2181918 0)
(99.99213 0.46486613 -9.4020029e-19)
(99.811566 0.91491954 1.058278e-18)
(99.476972 1.0454182 3.9393548e-17)
(99.01891 1.5001711 -2.9373895e-18)
(98.338059 1.5135601 1.1744858e-16)
(97.17935 2.1072555 0)
(95.501954 1.3031053 0)
(92.662873 2.6846482 1.6344715e-16)
(100.09372 0.23220104 2.6060634e-17)
(100.019 0.49868471 0)
(99.834582 0.99070252 0)
(99.555762 1.2129087 0)
(99.105967 1.732199 0)
(98.389447 1.8340789 -5.8617863e-17)
(97.132673 2.5302333 -6.3565274e-17)
(95.312115 1.7087752 9.3970998e-17)
(92.131802 3.3633472 2.744763e-18)
(100.11643 0.23750355 -2.5662246e-17)
(100.03605 0.51745796 -8.9850377e-19)
(99.877051 1.0393757 -1.028948e-18)
(99.588647 1.2794722 2.3153799e-18)
(99.214562 1.8674772 9.0201693e-17)
(98.498225 2.0041579 1.0286589e-16)
(97.240392 2.833216 2.022538e-16)
(95.156234 2.0629704 -9.2212654e-17)
(91.619154 4.0261339 -2.8143876e-16)
(100.12376 0.23740483 0)
(100.13476 0.22782047 4.7084866e-17)
(100.13305 0.21336684 -4.6710103e-17)
(100.13028 0.19105381 4.4460259e-17)
(100.12572 0.16643329 -4.3460976e-17)
(100.1119 0.13677264 8.6342541e-17)
(100.09599 0.10526781 -8.3821374e-17)
(100.07933 0.071933577 0)
(100.03691 0.02914976 0)
(100.06937 0.53737988 0)
(100.08511 0.5382485 8.1977361e-19)
(100.11521 0.53239659 0)
(100.12644 0.51190669 2.3225813e-18)
(100.14452 0.48209637 4.7112751e-17)
(100.16373 0.44486379 -1.4044098e-16)
(100.15955 0.39292187 9.0829776e-17)
(100.18658 0.34519961 -1.3805818e-18)
(100.14618 0.23430267 8.7036027e-17)
(99.926574 1.1112215 6.0163734e-17)
(99.98342 1.1511016 -1.1833332e-16)
(100.03719 1.1685997 1.1253671e-16)
(100.10738 1.1658478 -3.7362857e-18)
(100.14271 1.1365449 -5.2787762e-17)
(100.22636 1.1060448 -1.6005527e-18)
(100.2445 1.0311437 0)
(100.3411 0.98159064 2.9919668e-18)
(100.33903 0.81248555 -1.447665e-18)
(99.676755 1.4140694 6.321254e-17)
(99.760782 1.5167184 -1.2823565e-16)
(99.845283 1.5851205 1.2148344e-16)
(99.968259 1.643193 -5.8762684e-17)
(100.03983 1.6475807 -3.6698542e-18)
(100.18018 1.6704833 1.7494836e-18)
(100.24277 1.6170192 0)
(100.4034 1.6031368 -1.6317897e-18)
(100.42302 1.4383091 9.7927849e-17)
(99.285402 2.0732067 -7.2451165e-17)
(99.466417 2.2819876 0)
(99.543144 2.4258206 -6.6216311e-17)
(99.752479 2.5807425 6.8267563e-17)
(99.842989 2.6513632 -6.1090052e-17)
(100.06256 2.7606746 6.3119256e-17)
(100.16749 2.7606398 0)
(100.40461 2.8382866 0)
(100.49145 2.6947226 3.4880121e-18)
(98.561519 2.2881779 -8.9724518e-17)
(98.738483 2.6161859 -8.521732e-17)
(98.837984 2.8432716 8.1919452e-17)
(99.043094 3.1432604 7.7853122e-17)
(99.189326 3.2886017 -7.5056974e-17)
(99.420276 3.5608899 0)
(99.605854 3.6083757 1.367997e-16)
(99.858105 3.8551361 -1.0689743e-18)
(100.02123 3.7500926 -2.531463e-16)
(97.222173 3.2094373 -1.0710742e-16)
(97.421011 3.8071055 0)
(97.5172 4.0838765 0)
(97.795438 4.608318 2.9659641e-18)
(97.999093 4.8002934 0)
(98.341415 5.3249266 0)
(98.635089 5.4470765 0)
(99.026959 5.9626106 0)
(99.319183 5.9501898 0)
(95.042116 2.5375487 4.3594335e-18)
(94.863538 3.4976838 0)
(94.964687 4.1116724 3.917964e-18)
(94.94774 5.1494952 -7.1395329e-18)
(95.339383 5.6412851 -1.0672466e-16)
(95.529016 6.5532878 -9.9958048e-17)
(96.070027 6.8697012 1.9317045e-16)
(96.3796 7.6336909 1.8407493e-16)
(96.984101 7.785946 -1.741934e-16)
(90.854792 4.8460744 5.3563177e-16)
(90.239543 6.925721 -3.3133472e-16)
(90.154045 8.2149816 3.0731686e-16)
(90.590445 10.30969 -2.9222535e-16)
(91.30841 11.31976 -4.0636934e-16)
(92.243959 12.951069 7.5444075e-16)
(93.152366 13.588868 -4.7439007e-16)
(94.199524 14.838605 -2.1909487e-16)
(95.116844 15.19255 2.0611568e-16)
(100.05483 0.045955555 -1.1429712e-19)
(100.08378 0.064673813 1.171835e-16)
(100.12888 0.089842368 -1.4030285e-19)
(100.18844 0.11806401 -1.1794606e-16)
(100.26128 0.14761947 1.1503602e-19)
(100.34929 0.17803049 1.1816967e-16)
(100.45311 0.20976494 -1.1874504e-16)
(100.5746 0.24220114 -1.1520651e-19)
(100.72589 0.28468929 -5.9296296e-17)
(100.21069 0.26340579 -1.2492108e-16)
(100.25343 0.35655208 1.2547155e-16)
(100.36356 0.36612935 -1.2552808e-16)
(100.43816 0.48945093 0)
(100.58957 0.48610611 1.2582786e-16)
(100.69727 0.63574043 -2.5641146e-19)
(100.88615 0.6159642 -1.9694619e-19)
(101.02933 0.78874925 -1.2583272e-16)
(101.26164 0.74844698 6.2819455e-17)
(100.47357 0.88610036 1.3307091e-16)
(100.51439 1.060164 -1.3361171e-16)
(100.68257 1.1087135 -1.3395308e-16)
(100.73642 1.2939655 1.3425846e-16)
(100.92781 1.3402498 -1.3468649e-16)
(101.00103 1.5515823 1.3422422e-16)
(101.2297 1.5968577 -1.3470237e-16)
(101.32793 1.8449197 4.1630626e-19)
(101.6015 1.8832338 1.3442503e-16)
(100.60951 1.5588706 -1.4319758e-16)
(100.63808 1.800324 -5.606322e-19)
(100.84268 1.8962596 5.6564957e-19)
(100.86888 2.1384701 0)
(101.09192 2.2324305 -4.0514915e-21)
(101.13963 2.5061569 -1.4361822e-16)
(101.40421 2.5996609 1.4599398e-16)
(101.48163 2.9183603 5.6694948e-19)
(101.79831 3.0013247 5.6637778e-19)
(100.73386 2.8787208 -6.060966e-19)
(100.75154 3.1980331 -1.5609385e-16)
(100.98288 3.3483802 -1.0227584e-19)
(100.97562 3.6421676 1.5713209e-16)
(101.22064 3.7851128 1.5737425e-16)
(101.24049 4.1133218 -1.5816215e-16)
(101.53338 4.2543585 -6.1149402e-19)
(101.58719 4.6323145 -6.1130939e-19)
(101.93994 4.7603036 -6.1094681e-19)
(100.32096 4.0012934 1.725824e-16)
(100.3122 4.4049609 0)
(100.58801 4.6122944 0)
(100.55183 4.9856804 1.7210632e-16)
(100.84802 5.1796876 -1.7440801e-16)
(100.84804 5.5907258 -1.7372249e-16)
(101.19669 5.776999 3.4698766e-16)
(101.23627 6.2341008 -1.0909253e-18)
(101.64368 6.3990254 -3.4655778e-16)
(99.690735 6.3929624 -7.7280804e-19)
(99.742175 6.8742042 0)
(100.00676 7.1690785 7.7005596e-19)
(100.03005 7.558568 1.942752e-16)
(100.32432 7.8177248 -1.9547227e-16)
(100.40721 8.1884136 1.9436853e-16)
(100.75714 8.4319365 -1.9479449e-16)
(100.8934 8.7802656 -7.58463e-19)
(101.27718 8.9968059 1.9300048e-16)
(97.351431 8.364274 -2.2041684e-16)
(97.832355 8.9730064 2.2331981e-16)
(98.185907 9.3869238 -2.2078223e-16)
(98.697576 9.8915855 2.1966432e-16)
(99.087014 10.210807 -2.1506782e-16)
(99.636078 10.626356 1.888126e-18)
(100.04786 10.855329 2.1608711e-16)
(100.59661 11.171116 1.6563253e-18)
(100.97664 11.290562 1.0522146e-16)
(96.057587 16.003149 0)
(96.71659 16.583949 -2.4492529e-16)
(97.578358 17.089537 4.8664312e-18)
(98.250823 17.409377 5.7125559e-18)
(99.132758 17.599544 4.745818e-16)
(99.830744 17.537575 -2.357608e-16)
(100.76741 17.220869 -2.2945328e-16)
(101.52034 16.537569 2.304419e-16)
(102.49895 15.441013 1.1354794e-16)
(103.04528 14.176261 -1.3248234e-16)
(103.27061 12.852349 0)
(103.5418 12.044769 1.3051666e-16)
(103.25264 11.186173 -1.3054388e-16)
(102.99964 10.653477 0)
(102.17548 9.8349496 0)
(101.64226 9.4309211 0)
(100.56979 8.7144456 -1.4263017e-16)
(99.914991 8.5037155 1.4263118e-16)
(101.4282 11.479081 -1.1985625e-16)
(101.68916 11.607249 0)
(102.02722 11.671002 0)
(102.20172 11.698752 0)
(102.36945 11.680924 0)
(102.39378 11.700799 0)
(102.35393 11.711017 0)
(102.26361 11.766786 1.1625699e-16)
(102.03424 11.827417 -2.3379148e-16)
(101.42595 9.2940997 -1.4739652e-18)
(101.77738 9.573116 -2.1075984e-16)
(101.90053 9.8173473 0)
(102.23001 10.069355 -1.0336013e-16)
(102.3077 10.295905 1.0336002e-16)
(102.59276 10.516648 0)
(102.60505 10.729756 0)
(102.83513 10.952618 0)
(102.76574 11.178837 0)
(101.67712 6.8587452 1.8591513e-16)
(102.10328 7.093699 0)
(102.14078 7.5408448 9.109804e-17)
(102.57005 7.7673717 -1.8156852e-16)
(102.6068 8.2118722 9.0465542e-17)
(103.03709 8.4405887 0)
(103.06186 8.8906094 0)
(103.49457 9.1373686 0)
(103.49446 9.6022644 8.7370387e-17)
(102.00212 5.1755705 0)
(102.393 5.330705 1.6337893e-16)
(102.46686 5.7692563 -2.4449629e-16)
(102.88796 5.923845 8.1112448e-17)
(102.97215 6.3804881 7.9874691e-17)
(103.41984 6.5407012 -6.5128826e-19)
(103.50822 7.01778 -1.5777343e-16)
(103.9831 7.1918587 1.5641095e-16)
(104.06895 7.6947049 -7.7857655e-17)
(101.89295 3.3613932 0)
(102.25543 3.4601943 7.3914449e-17)
(102.37347 3.8540167 -7.3916728e-17)
(102.77897 3.9469968 0)
(102.92169 4.3717824 -1.4432356e-16)
(103.37028 4.4611373 1.4432497e-16)
(103.53604 4.9192583 7.079926e-17)
(104.03085 5.0087395 -1.4085869e-16)
(104.21695 5.5045093 7.0057906e-17)
(101.71815 2.169214 0)
(102.03543 2.2151046 0)
(102.1766 2.5381325 0)
(102.5396 2.5795504 -6.6843945e-17)
(102.70814 2.9398453 1.3313322e-16)
(103.11914 2.9763601 -1.3198402e-16)
(103.31728 3.3766164 6.569386e-17)
(103.78163 3.4084999 -6.4371676e-17)
(104.01126 3.8534049 1.2801025e-16)
(101.43298 0.94774099 -1.2703689e-16)
(101.71338 0.90148271 4.2896713e-19)
(101.92013 1.1384424 6.2896558e-17)
(102.24521 1.0773986 -6.1929032e-17)
(102.49043 1.3457887 6.1929021e-17)
(102.86181 1.2657775 0)
(103.14779 1.5651488 6.0172025e-17)
(103.57327 1.465528 -1.1966607e-16)
(103.90372 1.8027984 5.9493681e-17)
(100.81839 0.33982401 3.0066948e-19)
(101.05063 0.34975625 5.9759083e-17)
(101.19791 0.47259196 5.9101234e-17)
(101.5038 0.48260694 -5.9101239e-17)
(101.67417 0.59930118 0)
(102.02564 0.60749111 0)
(102.23317 0.7256551 -5.7325764e-17)
(102.64395 0.74027453 1.1409317e-16)
(102.91309 0.86303283 -5.6767391e-17)
(103.3877 0.88676115 0)
(103.72293 1.0174551 -5.4751251e-17)
(104.26767 1.0510824 7.9605989e-19)
(104.6761 1.187041 8.6455966e-19)
(105.29748 1.2316826 9.3747989e-19)
(105.78741 1.3743404 5.2153147e-17)
(106.49515 1.4303006 5.0035776e-17)
(107.07792 1.5803523 -5.0035777e-17)
(107.88388 1.652427 0)
(104.39155 1.6839905 0)
(104.77048 2.0668358 0)
(105.3276 1.9290448 -5.6235118e-17)
(105.7577 2.3634006 9.6683566e-19)
(106.39137 2.207224 1.0349609e-18)
(106.87674 2.7006736 5.4232659e-17)
(107.59679 2.5265181 5.1938439e-17)
(108.14293 3.0885875 -5.1937944e-17)
(108.96162 2.8965136 0)
(104.53532 3.8819952 -6.3639226e-17)
(104.79783 4.3776788 0)
(105.38808 4.4051404 0)
(105.68498 4.95879 -6.0174721e-17)
(106.34887 4.9874631 1.1933281e-16)
(106.68288 5.608029 -1.084433e-18)
(107.42971 5.6399724 -1.1584985e-18)
(107.80572 6.3384699 -5.6914064e-17)
(108.64699 6.3743201 0)
(104.76158 5.5994751 -6.8452121e-17)
(104.96476 6.1390057 6.845124e-17)
(105.56362 6.2460084 0)
(105.78128 6.8379412 0)
(106.44075 6.9638357 6.4697449e-17)
(106.67239 7.6201273 -6.4696433e-17)
(107.40208 7.7709214 6.2497063e-17)
(107.65056 8.5070261 -3.1847922e-17)
(108.46405 8.686595 -3.0647356e-17)
(104.57308 7.8925822 -7.6416725e-17)
(104.64999 8.4300275 7.6414365e-17)
(105.18781 8.6627862 0)
(105.25058 9.2483936 0)
(105.83011 9.5270246 0)
(105.87594 10.179343 0)
(106.50983 10.513168 0)
(106.53943 11.254239 0)
(107.24503 11.649661 0)
(103.93053 9.8854837 -8.737035e-17)
(103.89241 10.37518 8.6207419e-17)
(104.33315 10.715989 -8.6200912e-17)
(104.24661 11.246453 8.5097863e-17)
(104.6982 11.659638 -8.5088122e-17)
(104.55715 12.256121 0)
(105.03721 12.751254 0)
(104.84177 13.444371 0)
(105.37749 14.029397 0)
(102.94048 11.4491 0)
(102.7906 11.694144 -1.0125537e-16)
(102.92416 12.051434 1.0122269e-16)
(102.66665 12.353023 0)
(102.79205 12.819773 1.0155286e-16)
(102.41825 13.212107 -1.0156154e-16)
(102.56796 13.812016 0)
(102.07675 14.329891 5.1129871e-17)
(102.28026 15.069686 -1.023778e-16)
(101.85168 11.96956 1.1736078e-16)
(101.41379 12.156202 1.1930608e-16)
(101.16263 12.38912 -1.1932628e-16)
(100.55151 12.713973 1.2190953e-16)
(100.24502 13.052889 -2.4532914e-16)
(99.474266 13.540436 2.4841414e-16)
(99.128823 14.003744 -2.5170261e-16)
(98.212007 14.683275 1.266918e-16)
(97.848519 15.292825 0)
(98.741147 7.9865426 -1.4938884e-16)
(98.010297 7.9717602 1.4938965e-16)
(96.756839 7.6313427 0)
(95.958216 7.7942261 0)
(94.623088 7.6205108 0)
(93.742921 7.9697789 0)
(92.308662 7.9803517 0)
(91.328577 8.5504641 -8.7788133e-17)
(89.779626 8.7850797 8.7786755e-17)
(88.68674 9.6332856 9.1935148e-17)
(96.80074 16.200411 0)
(101.68557 15.768713 5.1258713e-17)
(105.13446 14.850815 0)
(107.26354 12.502823 0)
(108.73645 9.52071 0)
(109.07286 7.1633477 2.646285e-17)
(109.57637 3.5390975 2.3921577e-17)
(108.57278 1.8110269 2.3073531e-17)
(87.01558 10.158195 -9.1933157e-17)
(96.44762 16.980366 0)
(101.95744 16.628432 0)
(105.75691 15.52991 4.0405761e-17)
(108.06187 12.962589 0)
(109.65133 9.7297852 -2.8588832e-17)
(110.02218 7.2014537 -5.2161557e-17)
(110.50832 3.328176 -4.7058108e-17)
(109.49286 1.8997179 -4.5387025e-17)
(85.806991 11.379986 0)
(95.29081 18.160574 0)
(101.2984 17.590804 5.142691e-17)
(105.48046 16.512033 -4.0406942e-17)
(108.07938 13.951077 0)
(109.95942 10.681488 2.8588618e-17)
(110.50882 8.0938873 2.5698954e-17)
(111.20175 4.064873 2.3136362e-17)
(110.30426 2.0678513 2.2313488e-17)
(84.015289 12.297966 9.8301689e-17)
(94.988741 19.135247 0)
(101.6454 18.560844 -1.0280928e-16)
(106.22384 17.283108 0)
(108.99357 14.473178 0)
(110.99636 10.916778 -2.6940648e-17)
(111.58087 8.1296399 -2.3994803e-17)
(112.26623 3.8325809 0)
(111.35302 2.1762197 -2.0596044e-17)
(82.714186 14.042973 -9.8301667e-17)
(93.759371 20.64162 -6.9134829e-17)
(100.95886 19.818847 5.1380771e-17)
(105.93861 18.46005 0)
(109.02638 15.619537 0)
(111.35657 12.004922 2.6940562e-17)
(112.14248 9.137735 2.3994801e-17)
(113.03875 4.6686322 0)
(112.30473 2.3517303 2.059604e-17)
(80.839899 15.501886 0)
(93.570167 21.832967 6.9133236e-17)
(101.416 20.901804 -5.1014104e-17)
(106.82151 19.292755 0)
(110.07962 16.194242 0)
(112.5378 12.258627 -2.500352e-17)
(113.3521 9.1629439 -2.2017326e-17)
(114.27378 4.43206 0)
(113.49618 2.4799887 -1.8583601e-17)
(79.553922 17.995686 0)
(92.327145 23.729585 0)
(100.75447 22.494702 5.1014045e-17)
(106.60492 20.72495 -1.87097e-17)
(110.15422 17.52185 -1.486063e-17)
(112.96965 13.498203 3.6957098e-17)
(114.00719 10.297673 3.2471631e-17)
(115.10393 5.3373947 0)
(114.59949 2.6588368 2.7313089e-17)
(77.788152 20.199304 0)
(92.352595 25.138957 -3.5027434e-17)
(101.37334 23.674921 0)
(107.62259 21.588314 1.8702719e-17)
(111.35798 18.120083 1.4853824e-17)
(114.31479 13.758126 -5.9584159e-19)
(115.37532 10.299434 -2.0307636e-17)
(116.56492 5.1542863 0)
(115.93621 2.8004384 -8.7294904e-18)
(76.834198 23.789174 -5.2567618e-17)
(91.190939 27.555541 3.5018993e-17)
(100.80284 25.744023 0)
(107.54259 23.3879 0)
(111.55951 19.770175 0)
(114.86868 15.240472 -2.2059391e-17)
(116.1568 11.597466 6.5272554e-19)
(117.44458 6.0861257 0)
(117.18536 2.9717304 0)
(118.86763 3.1349275 0)
(119.10338 5.9592126 0)
(117.69652 11.50206 1.5062041e-19)
(116.3151 15.321374 1.1199812e-17)
(112.91852 20.146792 0)
(108.7598 24.081512 -2.3904451e-18)
(101.78114 26.798224 -6.7578852e-19)
(91.77493 29.046534 -2.8890774e-17)
(75.687493 26.827117 9.746055e-17)
(120.46902 3.2538046 -3.0791787e-18)
(120.0994 6.7422471 -4.5174322e-19)
(118.64909 12.684549 4.6203997e-18)
(117.12621 16.759795 -8.6624912e-20)
(113.50615 21.784697 -5.3533909e-18)
(109.04586 25.928831 7.9946602e-18)
(101.75529 29.086526 -3.2831065e-18)
(91.446415 32.029594 3.6925734e-17)
(76.478208 31.621945 -4.9338504e-17)
(122.11253 3.3527501 5.8059218e-18)
(121.98172 6.600752 0)
(120.51392 12.624315 7.3826959e-18)
(118.77048 16.763924 -4.223608e-18)
(115.19188 22.045683 5.3440832e-18)
(110.69441 26.491575 -1.485067e-17)
(103.54971 29.966609 -1.4139747e-17)
(93.54501 33.230119 8.1997382e-18)
(79.004865 33.368473 1.5710894e-18)
(123.87466 3.4506152 -2.7267342e-18)
(123.09644 7.3578106 -3.5815444e-19)
(121.59988 13.791795 -3.1281458e-18)
(119.80155 18.343762 4.8514848e-18)
(116.06586 23.856784 1.9976352e-18)
(111.32308 28.513468 7.7556114e-18)
(104.01127 32.393681 1.1141602e-17)
(93.906857 36.096422 4.477941e-18)
(80.339317 37.382774 -5.1277491e-18)
(125.76642 3.5529358 4.3969368e-19)
(125.26302 7.2338736 -4.9524948e-19)
(123.74582 13.742425 -3.8305928e-19)
(121.65995 18.218797 1.2429763e-18)
(118.02621 23.962305 -1.9465066e-18)
(113.27046 28.903391 -2.4577201e-18)
(106.19858 33.079114 -2.9709895e-18)
(96.374783 37.079611 3.355083e-18)
(82.404009 38.652266 -6.4526651e-18)
(127.77467 3.6581403 -4.4488047e-19)
(126.50444 8.0040508 5.0121578e-19)
(124.96474 14.864168 -3.2104822e-19)
(122.91355 19.902886 -4.0554723e-20)
(119.12899 25.867781 -4.9248902e-19)
(114.18595 31.014577 1.699579e-18)
(106.89991 35.539179 -2.834277e-18)
(96.938478 39.896774 3.2083825e-18)
(83.740183 42.196229 0)
(129.88419 3.7549338 -1.5666716e-19)
(128.95678 7.910291 -1.7565e-19)
(127.37356 14.810797 -1.6212007e-19)
(124.95843 19.634341 -3.7989748e-19)
(121.26121 25.822582 -4.6889488e-19)
(116.24957 31.249393 1.7585018e-18)
(109.2052 36.041214 -4.6487056e-18)
(99.441103 40.661497 7.0941313e-18)
(85.798263 43.102083 -4.6837512e-18)
(132.09646 3.8413899 1.5088728e-19)
(130.31829 8.6703136 1.4702368e-19)
(128.72764 15.863201 5.5798742e-19)
(126.42962 21.393875 9.5635499e-19)
(122.58732 27.784034 1.3962873e-18)
(117.45777 33.402415 -5.5067833e-19)
(110.16484 38.511566 -2.5099611e-18)
(100.28529 43.442297 -1.0217416e-18)
(87.399791 46.27348 -5.4586282e-18)
(134.41193 3.907683 7.2298547e-19)
(133.02388 8.5846085 -1.4885682e-19)
(131.37978 15.788945 -5.2623434e-19)
(128.63568 20.972449 -6.7074108e-19)
(124.85691 27.571239 1.6871452e-18)
(119.61854 33.467006 1.8650933e-18)
(112.58971 38.800826 -1.1025753e-17)
(102.91721 43.97278 2.6449631e-18)
(89.543236 46.899702 1.0225037e-17)
(91.352494 49.810505 -9.4831729e-18)
(104.04312 46.711422 3.4729879e-18)
(113.84108 41.261077 1.4833086e-17)
(121.11912 35.574765 -1.5549987e-18)
(126.4325 29.563468 -4.1382384e-19)
(130.32485 22.784199 -9.796832e-20)
(132.8975 16.744056 5.3252662e-20)
(134.4962 9.3158305 5.9192237e-20)
(136.83499 3.959185 -2.2552307e-18)
(93.506656 50.255961 3.4592643e-17)
(106.80978 47.021832 2.1434751e-18)
(116.39735 41.31223 -1.8579879e-17)
(123.44474 35.559356 -2.2908686e-19)
(128.83044 29.150182 -1.0817753e-18)
(132.68039 22.19707 -1.351371e-19)
(135.75714 16.629164 3.2329907e-18)
(137.42839 9.2303309 0)
(139.35913 3.9863581 1.4944801e-18)
(95.441811 52.982476 -4.4068776e-17)
(108.1848 49.721033 2.1961091e-17)
(117.94056 43.73798 8.9943866e-18)
(125.19615 37.523652 -9.9520516e-20)
(130.67887 31.141409 -1.0841709e-18)
(134.53911 24.008676 1.3195665e-19)
(137.47863 17.454502 1.3035126e-18)
(139.01038 9.9219766 -5.1434001e-18)
(141.98133 3.9979931 -6.3789446e-18)
(97.575088 53.285519 -7.8899055e-18)
(111.05458 49.823762 1.1826695e-18)
(120.5998 43.538139 -1.3202465e-18)
(127.68176 37.423874 0)
(133.19193 30.497576 1.2886828e-18)
(137.05391 23.316649 0)
(140.51373 17.274354 -4.6381781e-18)
(142.11271 9.8265 1.2296961e-17)
(144.68996 3.9815198 -1.8277132e-18)
(99.686779 55.871244 -2.860606e-18)
(112.69111 52.491602 -1.3646665e-17)
(122.43386 45.900371 1.0064969e-18)
(129.65629 39.213241 0)
(135.31422 32.450535 6.1233589e-18)
(139.10572 25.01815 -7.4338152e-18)
(142.41724 17.941378 -4.3563428e-19)
(143.85729 10.460029 -1.6393906e-17)
(147.47997 3.9464601 8.3856342e-18)
(101.85879 56.010339 -2.9093809e-17)
(115.65175 52.365436 -7.6377434e-18)
(125.15958 45.433262 -8.2358215e-19)
(132.27896 39.012105 1.4058436e-19)
(137.91006 31.561657 2.9359904e-18)
(141.77551 24.274976 1.7732506e-17)
(145.59383 17.670419 -5.6796552e-19)
(147.07721 10.339629 9.2289758e-18)
(150.33745 3.8791787 0)
(104.23914 58.459668 2.0075983e-17)
(117.57498 54.955346 1.0672073e-17)
(127.28115 47.687722 -8.40896e-19)
(134.45549 40.604088 4.831087e-19)
(140.28869 33.435974 -7.7341802e-18)
(143.99304 25.805006 -1.0658819e-17)
(147.63829 18.156878 -8.1209541e-19)
(148.96584 10.900011 7.4412907e-19)
(153.25344 3.7908967 0)
(106.53088 58.457544 0)
(120.63278 54.62184 1.3999087e-19)
(130.0907 46.929809 -1.1933035e-19)
(137.18912 40.285078 2.1589579e-17)
(142.95854 32.289723 6.5571479e-19)
(146.79006 24.991132 -2.9002559e-17)
(150.90934 17.776424 3.1703416e-17)
(152.27822 10.741522 -3.1246342e-17)
(156.20236 3.6675145 -3.4338219e-17)
(109.20384 60.732354 2.7663876e-17)
(122.85713 57.016895 -6.4242123e-18)
(132.3433 48.99493 5.6252782e-19)
(139.54339 41.659449 -2.2799722e-17)
(145.49398 34.056633 1.0581126e-18)
(149.15165 26.320079 2.9504949e-17)
(153.04215 18.069148 -3.4192975e-17)
(154.28552 11.216059 3.2718837e-17)
(159.1655 3.5332683 -4.4861244e-18)
(162.33939 3.3595896 3.8942078e-17)
(157.68675 10.991658 -4.0193605e-17)
(156.38673 17.563138 0)
(152.11403 25.386353 2.1848749e-18)
(148.32776 32.639651 -4.116212e-17)
(142.47494 41.187011 -3.4100847e-17)
(135.46021 47.984479 0)
(126.26192 56.473333 -9.2977762e-18)
(111.92631 60.593058 -2.6730754e-17)
(165.33391 3.1181368 0)
(159.8363 11.253063 4.160092e-17)
(158.60166 17.567215 0)
(154.7395 26.371514 2.58435e-18)
(151.14937 34.137922 8.2835377e-17)
(145.2522 42.229824 3.7069263e-17)
(138.21733 49.739665 -3.6967884e-17)
(129.24207 58.745776 1.5761021e-17)
(115.76676 62.930408 1.5139585e-18)
(168.23206 2.7778274 0)
(163.32317 10.853608 0)
(161.95564 16.917068 5.5059877e-17)
(157.86469 25.229464 0)
(154.19537 32.477245 -4.7114124e-17)
(148.42666 41.526475 5.0571583e-17)
(141.65905 48.339298 3.3638122e-17)
(133.13589 57.751762 2.4238654e-18)
(119.38746 62.460492 -1.4327855e-17)
(170.98747 2.367691 0)
(165.52856 10.93099 0)
(164.15032 16.727555 -5.6202828e-17)
(160.59671 25.914265 -5.7943041e-17)
(157.08104 33.689401 -6.2433569e-17)
(151.36271 42.250756 -5.5787097e-17)
(144.50922 49.674292 0)
(136.34753 59.447412 -4.9551366e-17)
(123.90198 64.319599 1.0839288e-17)
(173.67274 1.9125746 -9.4237478e-19)
(169.00353 10.407769 1.0370003e-18)
(167.44452 15.92638 0)
(163.74336 24.545085 -6.4692193e-18)
(160.19526 31.819571 1.382641e-16)
(154.57595 41.349667 -4.3994373e-18)
(147.97884 47.977217 -6.4432031e-17)
(140.10683 58.036685 5.4154141e-17)
(128.00593 63.485368 -4.8841786e-17)
(176.21834 1.4296813 1.0369342e-18)
(171.17108 10.358636 -1.1430833e-18)
(169.59523 15.54083 0)
(166.48181 24.921425 7.5425487e-17)
(163.10694 32.727078 -8.210659e-17)
(157.5833 41.789734 5.0568567e-18)
(150.75558 49.010085 6.6641945e-17)
(143.2082 59.136892 0)
(133.24324 64.636268 4.8679749e-17)
(178.5873 0.93188028 -1.133117e-18)
(174.52517 9.723983 -7.7712862e-17)
(172.79286 14.587081 2.4284891e-18)
(169.5439 23.322874 -8.391455e-17)
(166.20909 30.64638 -9.5579543e-17)
(160.7903 40.724078 0)
(154.08364 47.180949 0)
(146.48496 57.3005 8.7873924e-17)
(138.07018 63.204412 0)
(180.93194 0.31248841 0)
(176.52144 9.5340459 8.0593393e-17)
(174.83527 14.026081 0)
(172.18427 23.414008 9.3948686e-17)
(169.09108 31.219421 8.6269018e-17)
(163.84673 40.903895 -1.0384e-16)
(156.65874 48.157874 0)
(149.02494 57.816472 -9.7531632e-17)
(144.20983 63.287273 1.3456547e-16)
(182.2519 -0.078685033 0)
(179.62285 8.7659488 0)
(177.84513 12.949343 2.9227589e-18)
(175.05491 21.60043 2.8939916e-18)
(172.17947 28.837124 -6.8879682e-18)
(167.02619 39.682504 1.0719347e-16)
(160.26379 46.235913 0)
(151.39783 55.515286 0)
(148.99133 61.220827 -1.3403876e-16)
(184.36216 -0.69413353 2.8244664e-18)
(181.28115 8.6170166 -1.6804808e-19)
(179.72199 12.235432 -1.0392989e-16)
(177.51506 21.489011 0)
(174.7461 29.281152 0)
(170.11808 39.661348 6.328988e-18)
(162.03749 48.45005 1.0390855e-16)
(152.25735 56.46414 -3.281076e-18)
(153.83099 61.303449 0)
(186.50698 -0.93497892 2.8641746e-18)
(184.01802 8.5369933 -1.5402994e-19)
(182.52121 12.414507 9.4020444e-17)
(180.04365 21.908745 0)
(177.36421 29.818716 0)
(172.49973 41.714276 -6.5083114e-18)
(163.29989 49.894491 -3.1844003e-16)
(151.58932 58.297839 3.2270601e-18)
(147.36679 60.058239 -2.5768057e-16)
(187.85572 -1.231655 0)
(185.36333 8.3266349 -1.9519883e-16)
(184.14652 11.596673 0)
(182.21969 21.699611 -6.468006e-18)
(179.52702 30.52696 7.0616174e-18)
(174.55951 42.145312 6.5956739e-18)
(164.98633 52.539629 4.2558542e-16)
(147.77323 59.619866 -3.1812935e-18)
(130.28926 58.715786 2.4384426e-16)
(189.26442 -1.2514533 -1.894323e-16)
(187.78369 7.9145697 1.8598646e-16)
(186.70565 11.63216 -2.0840206e-16)
(184.59802 22.136241 -2.1879968e-16)
(181.8467 31.056281 2.3734813e-16)
(176.39726 44.838377 -2.386277e-16)
(165.04111 54.215264 -2.203869e-16)
(143.97176 59.66394 -1.6859294e-16)
(109.65938 70.041176 0)
(190.14934 -1.5662625 3.7733681e-16)
(188.89536 7.5033037 -1.9673965e-16)
(188.03849 10.802518 2.0160237e-16)
(186.66509 21.731722 -1.024889e-17)
(183.92334 31.95718 -2.2865324e-16)
(178.19294 45.229835 -5.9382663e-18)
(164.80892 56.557041 0)
(137.22505 63.824265 1.6252376e-16)
(75.09112 76.238872 0)
(191.1248 -1.5923107 -3.7035987e-16)
(191.01849 6.7612995 1.8787214e-16)
(190.35409 10.688041 -2.1620252e-16)
(189.14059 21.976017 2.2071693e-16)
(186.3534 32.143425 7.0278448e-18)
(180.34372 47.807527 2.2398907e-16)
(162.34723 59.391921 -2.146762e-16)
(125.11859 58.719366 -1.7651769e-16)
(17.459583 18.292208 1.7705616e-16)
(191.6192 -1.9853692 1.858013e-16)
(191.91457 6.1684231 -6.0698376e-18)
(191.39387 9.8279717 2.0660372e-16)
(191.27778 21.113013 -6.8571366e-18)
(188.50984 33.018589 7.3972336e-18)
(181.63376 47.931466 2.5100937e-16)
(157.93068 58.925717 4.2477713e-16)
(98.908049 51.011421 1.6568168e-16)
(-3.7013381 19.151073 -1.6786632e-16)
(192.10851 -1.9866749 2.8350163e-18)
(193.80896 5.0962117 -3.0099572e-18)
(193.41436 9.5323052 -2.0881094e-16)
(193.90546 21.010385 -2.2989079e-16)
(190.84492 32.84409 2.435774e-16)
(182.99953 49.745057 -4.9468728e-16)
(150.92276 60.92117 -4.2218327e-16)
(74.893013 45.681826 -1.6931564e-16)
(-3.8630611 26.16966 1.668728e-16)
(192.15104 -2.3964339 -1.7487534e-16)
(194.43591 4.3098379 3.0129198e-18)
(194.13297 8.6335997 -7.8968125e-18)
(196.05406 19.612117 2.2294261e-16)
(192.83273 33.621866 -2.28266e-16)
(182.27569 50.521064 2.4225636e-16)
(139.08599 59.380441 2.0138757e-16)
(42.725957 24.219286 1.5910175e-16)
(-10.401633 29.421292 -1.5894289e-16)
(-12.337055 28.903844 -2.6784609e-16)
(22.856955 15.57009 -1.8051908e-18)
(127.03045 58.047752 5.1972902e-18)
(181.73493 50.69101 -4.3382541e-18)
(194.56816 33.306203 0)
(198.50192 19.218635 3.9857181e-18)
(195.77211 8.1504736 4.3740683e-16)
(196.07536 2.9643667 2.0789102e-16)
(191.94668 -2.6465254 3.4277092e-16)
(-13.72428 29.255918 2.5986483e-16)
(15.92822 14.831402 0)
(114.32268 55.821289 0)
(180.85984 50.589963 6.7403701e-16)
(196.41622 32.633782 0)
(200.27506 16.824501 -5.3800276e-16)
(196.17743 6.7874472 -6.7584182e-16)
(196.34768 1.8990534 -1.9713842e-16)
(191.51338 -2.8892893 1.668165e-16)
(-14.602242 29.022891 2.1371161e-18)
(18.796626 26.530707 -1.7212864e-18)
(104.23279 51.868019 0)
(179.62197 49.938896 -6.6359923e-16)
(197.75613 32.153163 0)
(202.33001 16.207284 5.3270989e-16)
(197.47609 6.1256282 4.3771538e-16)
(197.59823 0.42159094 4.6600663e-18)
(190.85189 -3.0968179 -3.3334818e-16)
(-15.994383 30.116721 4.9349807e-16)
(24.832717 38.308925 -4.8960068e-16)
(95.269191 51.289588 3.830298e-18)
(177.65485 49.964616 0)
(199.27967 31.077862 -6.3016525e-16)
(203.72918 13.636972 0)
(197.59308 4.7225444 -3.4484726e-18)
(197.4501 -0.69675556 4.6233216e-18)
(189.95881 -3.2673827 -1.3356566e-18)
(-16.942307 30.866417 -4.7411285e-16)
(25.319082 44.703311 -1.94768e-17)
(87.554664 48.047047 6.1499348e-16)
(175.47607 48.677016 -4.7441665e-18)
(200.27279 30.428379 -2.2096024e-17)
(205.46812 12.786146 0)
(198.58913 3.8917079 -4.4095876e-16)
(198.21544 -2.1965568 0)
(188.86095 -3.4055686 0)
(-17.864796 32.246792 2.0461795e-18)
(23.576762 47.287957 4.6931542e-16)
(78.555796 47.517081 -1.2072882e-15)
(172.50715 48.94879 7.3017587e-16)
(201.39198 28.953116 6.2888414e-16)
(206.46067 10.067305 5.663371e-16)
(198.41734 2.4359003 4.2737756e-16)
(197.61699 -3.2959007 4.504768e-18)
(187.56636 -3.515764 -2.9673497e-16)
(-18.059609 33.221867 2.0192928e-18)
(19.990051 48.921152 -4.8822263e-16)
(70.11823 42.087103 6.0571413e-16)
(169.16286 47.323454 -7.158676e-16)
(201.94026 28.230576 4.9553931e-18)