/*--------------------------------*- C++ -*----------------------------------*\
  =========                 |
  \\      /  F ield         | OpenFOAM: The Open Source CFD Toolbox
   \\    /   O peration     | Website:  https://openfoam.org
    \\  /    A nd           | Version:  11
     \\/     M anipulation  |
\*---------------------------------------------------------------------------*/
FoamFile
{
    format      ascii;
    class       volScalarField;
    location    "9.075";
    object      p;
}
// * * * * * * * * * * * * * * * * * * * * * * * * * * * * * * * * * * * * * //

dimensions      [0 2 -2 0 0 0 0];

internalField   nonuniform List<scalar> 
4455
(
6957.4431
6971.2935
6994.7594
7029.4102
7072.5004
7133.1525
7209.9301
7317.18
7443.117
6883.8238
6905.3957
6937.3364
6978.3184
7027.9281
7094.7144
7183.0826
7306.1562
7478.937
6806.4789
6836.7929
6876.914
6924.7049
6979.3612
7051.8216
7149.2212
7286.2021
7490.581
6726.5782
6766.4439
6814.5347
6868.1195
6926.5904
7005.6452
7110.6041
7262.2726
7496.2431
6646.1508
6695.2833
6750.5311
6808.9208
6871.2054
6955.4429
7068.5764
7236.0123
7505.7468
6566.4952
6624.2484
6685.6734
6747.9106
6813.7524
6902.5671
7023.2997
7205.5698
7515.3141
6489.1416
6554.1275
6620.531
6685.5673
6754.1623
6847.204
6975.3663
7171.0663
7520.136
6415.2567
6485.5646
6555.6996
6622.9519
6693.9997
6790.3577
6924.4037
7130.9148
7518.3187
6345.8548
6419.4249
6491.9732
6561.0337
6633.7878
6732.8992
6871.5815
7085.802
7506.5653
6281.5642
6222.8801
6170.4475
6124.4099
6085.0116
6052.2579
6026.1789
6006.8531
5994.7025
6356.1161
6295.866
6239.7396
6188.0869
6141.2806
6099.2766
6062.7361
6032.2189
6007.5876
6429.1245
6367.341
6308.403
6252.7496
6200.3738
6151.56
6105.9654
6063.1576
6022.5499
6498.2401
6434.6347
6372.6457
6312.8287
6255.3992
6200.4389
6148.0028
6098.2917
6051.0178
6571.3206
6505.916
6441.3099
6377.9006
6315.7578
6254.8946
6195.4138
6137.6225
6080.222
6671.4761
6604.7709
6537.5681
6470.4034
6403.4053
6337.3995
6272.7274
6210.1964
6148.1054
6813.521
6745.9093
6674.8872
6601.1977
6524.4966
6446.4098
6367.5558
6289.8787
6212.2901
7030.2987
6950.6129
6862.8832
6771.712
6679.8831
6589.1231
6498.8541
6408.5867
6317.5456
7480.6547
7391.8558
7223.5036
7017.8584
6833.3691
6664.0642
6501.0509
6340.958
6183.4633
5992.1917
5988.7086
5981.5022
5970.8787
5957.2095
5941.3242
5921.7374
5899.9265
5873.9889
5994.2399
5980.2058
5961.4704
5939.5895
5915.0199
5886.8544
5856.3721
5823.2307
5786.095
5994.1859
5971.4589
5947.8166
5922.6851
5895.4164
5865.0117
5831.7216
5795.9596
5757.4949
6017.1854
5989.5382
5960.4698
5929.72
5896.7054
5861.1057
5822.7536
5781.61
5737.5431
6035.3661
6001.0177
5967.7968
5933.7568
5897.6545
5858.8568
5817.0536
5772.0086
5723.762
6096.5494
6055.2822
6014.7538
5972.9041
5928.6137
5881.3849
5831.5368
5778.9822
5723.8904
6146.9413
6094.6268
6045.0698
5994.9114
5942.4398
5886.9152
5828.3892
5767.2925
5704.5073
6234.038
6153.012
6066.5221
5978.8242
5892.9338
5809.7976
5727.5683
5647.7565
5571.2959
6048.5061
5934.9442
5827.104
5721.4967
5615.177
5507.9325
5402.5513
5304.1683
5216.6701
5157.7138
5101.8136
5065.8318
5064.9282
5094.2589
5148.6667
5218.3951
5294.5952
5375.212
5504.1279
5443.282
5387.0186
5337.2743
5296.5728
5266.8721
5245.9749
5232.9407
5228.2451
5644.2565
5585.8911
5528.1069
5472.1571
5419.2608
5369.592
5323.9399
5282.5139
5243.9331
5668.739
5613.8512
5557.5294
5500.3699
5443.4839
5387.5144
5332.3769
5277.7913
5223.3234
5673.7901
5622.5528
5569.0001
5513.7101
5456.9395
5399.0953
5340.119
5279.9857
5218.5524
5691.341
5643.0404
5592.0144
5538.4009
5482.1891
5423.5533
5362.4982
5299.0136
5232.9837
5716.043
5671.475
5624.3937
5575.0901
5523.3131
5468.8352
5411.1909
5350.338
5286.2821
5746.0908
5702.956
5655.8795
5605.5518
5552.6084
5496.3327
5436.8267
5373.9371
5307.5265
5840.9092
5801.7496
5761.8065
5720.7261
5677.454
5630.2982
5578.6055
5521.8052
5460.5704
5395.0611
5325.2486
5250.6034
5171.6053
5087.3244
4998.2675
4903.93
4804.2039
4698.3299
5237.521
5163.7162
5085.7047
5004.3511
4919.3996
4829.9137
4736.692
4639.2344
4536.47
5218.9445
5148.1668
5074.2503
4997.0281
4916.4055
4832.0987
4744.1378
4651.8913
4555.509
5164.4804
5093.609
5020.5075
4944.9023
4866.7589
4785.9547
4702.4416
4615.7741
4525.5072
5155.8028
5091.7041
5026.4736
4960.1078
4892.6235
4823.6224
4752.7315
4680.0782
4603.2937
5169.2558
5115.6286
5062.2458
5008.869
4955.7203
4902.5866
4849.2528
4794.395
4737.8547
5209.3765
5178.5398
5150.7824
5125.3358
5103.0274
5081.006
5060.0698
5039.8038
5018.0821
5230.2194
5238.7885
5251.8571
5269.9658
5292.9518
5319.806
5350.1347
5383.2101
5417.7723
5458.6001
5543.3478
5631.705
5722.2514
5814.5242
5908.628
6006.6646
6107.8358
6210.7845
6315.8883
5453.2502
4995.3921
4678.2331
4523.7889
4431.2407
4454.4132
4430.4946
4587.221
6424.1112
5488.2295
4970.1606
4614.997
4441.021
4332.2525
4348.4171
4318.8782
4469.7759
6533.3802
5521.5892
4939.7747
4546.5762
4351.5037
4228.7158
4237.6304
4201.4575
4346.1713
6643.8975
5551.0127
4904.6125
4473.4308
4257.0764
4119.6243
4120.8705
4079.1073
4216.0074
6750.8977
5574.4568
4862.3296
4392.0298
4156.498
4003.4563
3997.7999
3950.8903
4079.1724
6852.2558
5589.3041
4810.6913
4304.1453
4047.5595
3881.8105
3870.5849
3817.3615
3936.1179
6939.7081
5592.4288
4748.6409
4207.5456
3930.3169
3751.4167
3734.7039
3677.5845
3785.8128
7008.2162
5579.7922
4671.839
4097.1937
3803.1601
3612.7026
3592.1405
3531.9088
3629.8956
7032.9731
5542.8188
4578.2378
3974.2239
3664.7808
3467.4042
3444.1846
3380.0474
3469.0299
3309.036
3222.9779
3283.9783
3309.415
3510.4401
3830.4348
4456.2819
5466.4413
7002.4528
3152.8948
3059.4725
3115.2226
3141.2095
3338.3829
3657.6563
4286.2299
5302.3484
6730.4052
2977.8229
2889.4763
2939.9165
2962.5308
3148.8894
3457.0471
4067.6699
5065.6171
6404.228
2783.6904
2712.4044
2752.877
2770.8754
2941.7671
3232.9117
3817.0148
4794.6239
6087.127
2583.1156
2529.1652
2558.9687
2567.8106
2717.0299
2987.0156
3544.6524
4505.8883
5779.6287
2381.2704
2340.3519
2360.6011
2357.2389
2482.6523
2725.9032
3254.2568
4202.7274
5470.6624
2178.5982
2146.93
2155.5583
2136.349
2234.1393
2448.44
2944.8135
3879.4058
5148.197
1975.4672
1952.4103
1945.6939
1910.7186
1975.3498
2157.269
2617.6869
3532.8173
4808.1893
1773.9926
1758.2449
1737.032
1680.8828
1708.5513
1851.0927
2266.1966
3159.9341
4458.5059
4095.0245
2762.5757
1893.2458
1531.1749
1436.2208
1448.4706
1526.2518
1564.061
1575.8443
3719.6591
2334.7652
1499.2291
1197.4771
1156.0138
1213.2233
1317.4112
1374.4208
1384.2832
3329.1832
1877.7417
1086.2122
854.68655
873.93137
980.70712
1114.0013
1191.4249
1201.1683
2914.5537
1387.717
651.18424
502.70452
591.08426
751.96347
916.91579
1015.7824
1030.2688
2471.0563
868.10178
204.69277
148.49056
313.71028
530.17069
728.86897
851.81912
874.54362
2000.2079
311.81881
-257.23607
-206.16678
42.762769
319.69176
554.33672
702.39755
736.7951
1491.8716
-281.54316
-725.7966
-553.64354
-214.62475
123.27413
395.94559
568.96837
619.62101
938.28865
-913.06376
-1203.185
-890.04849
-455.30848
-56.20521
254.71972
455.67747
522.13155
342.40867
-1579.7264
-1672.545
-1205.9633
-675.46703
-214.41382
136.75832
363.4995
461.7376
425.70229
295.68423
39.933341
-350.5642
-874.33702
-1507.6205
-2152.9109
-2329.8101
-377.79165
415.94063
251.83996
-26.868161
-457.48342
-1041.2426
-1773.4696
-2608.6353
-3164.8697
-1313.5974
438.7871
233.95456
-63.031676
-528.80943
-1165.2748
-1985.1898
-3005.4677
-4018.0896
-2392.9521
490.97954
240.0263
-65.161516
-563.98953
-1245.0011
-2134.7121
-3319.4504
-4827.9664
-3638.1751
570.54966
270.51469
-36.64563
-567.63469
-1281.0895
-2219.1184
-3532.0361
-5547.5847
-5107.0572
677.18045
325.57187
21.401969
-539.64125
-1277.7223
-2240.3919
-3615.5681
-6074.7839
-6845.9276
806.75425
402.6144
104.74245
-484.64072
-1240.4267
-2211.5689
-3557.3083
-6345.6622
-8881.739
957.03678
498.4693
212.43443
-401.02305
-1174.3766
-2147.7154
-3372.7622
-6313.7723
-10826.733
1122.5807
608.57617
338.2457
-299.59815
-1086.7816
-2083.459
-3145.5611
-5910.8988
-12332.169
1286.2305
725.89096
481.8758
-184.24504
-995.38751
-2066.0731
-2987.511
-5428.6863
-13727.746
1437.4357
844.22848
608.93744
-103.92946
-976.03095
-2170.9042
-3229.4383
-6345.6736
-15617.014
1617.1596
965.73342
709.03365
-57.460214
-1031.0269
-2372.0826
-3805.7085
-7980.3596
-17468.533
1810.937
1095.8724
803.21694
-16.625799
-1091.9387
-2620.9748
-4389.3622
-9543.0681
-16524.66
2011.2833
1240.2854
910.12485
44.801676
-1138.7613
-2853.1489
-4864.3505
-11092.058
-13788.756
2210.7388
1399.0121
1030.4588
130.56762
-1158.793
-3075.8583
-5253.5498
-12705.438
-13744.969
2411.7832
1570.4654
1159.8246
235.72393
-1158.2351
-3286.3896
-5696.9871
-14290.026
-15134.062
2611.2537
1750.9402
1295.0353
356.6987
-1144.8969
-3481.2809
-6266.9166
-15524.909
-16716.239
2816.2466
1942.2169
1435.2906
488.77142
-1109.1882
-3648.4049
-6835.4368
-15965.866
-17242.62
-17176.95
-15861.615
-7204.9108
-3741.5737
-1056.3865
629.10161
1577.5523
2140.3353
3019.7038
-17217.325
-15816.042
-7383.3783
-3761.9721
-966.69118
781.091
1721.1861
2338.4074
3211.6419
-17165.086
-15844.383
-7485.5395
-3736.8623
-847.10579
951.71405
1870.8602
2541.2448
3394.1103
-17116.14
-15827.611
-7552.5986
-3687.8265
-704.98536
1132.4294
2027.8183
2747.8735
3577.4161
-16991.804
-15714.446
-7603.032
-3623.0594
-554.64618
1311.2003
2187.7411
2953.7498
3758.0866
-16882.745
-15530.946
-7639.1293
-3559.5028
-400.76266
1489.2533
2348.7028
3157.5591
3922.9915
-16739.192
-15329.999
-7652.5652
-3480.5844
-241.13429
1664.1778
2509.0955
3356.2885
4081.2096
-16759.52
-15100.359
-7649.4936
-3388.7104
-77.969801
1838.5563
2669.9394
3552.9799
4232.2351
-16757.501
-14915.219
-7616.1856
-3259.6697
97.72467
2015.7343
2833.3951
3746.1157
4373.6607
-16598.053
-14169.219
-7228.6712
-2907.8655
460.05772
2329.8346
3122.0424
4066.3346
4594.5599
-15855.374
-13437.743
-6800.4339
-2269.7471
1022.7301
2798.6124
3490.7656
4475.9131
4818.7844
-14596.789
-12799.506
-6282.9715
-1526.2113
1614.076
3226.6897
3904.2862
4890.1405
4928.8943
-13576.138
-12230.54
-5640.5846
-748.94222
2166.5658
3610.7159
4243.0424
5157.0451
4873.2173
-12935.949
-11761.316
-4894.7212
67.923286
2645.2815
3914.7118
4587.8341
5345.4488
4564.9387
-12683.954
-11387.047
-4075.3668
769.0582
3031.2627
4129.0577
4838.9455
5318.974
4121.0757
-12495.195
-11105.689
-3184.8099
1319.0276
3416.6475
4257.5096
5034.6
5119.4252
3459.6084
-12785.67
-10880.841
-2242.6912
1855.9869
3693.7637
4329.9134
5057.5208
4669.1882
2767.978
-12450.395
-10680.771
-1297.3877
2240.6091
3756.1292
4365.4146
5005.8557
4175.3099
1988.2484
-9169.3411
-8303.3056
-6176.5942
-2983.8368
-3345.0778
-1650.0836
-454.00609
475.32114
266.53885
-9363.94
-8552.811
-6131.8424
-2553.475
-2884.8367
-1360.1284
-269.23282
379.92602
198.35354
-9554.9977
-8778.133
-6053.7223
-2151.8453
-2377.989
-1033.7066
-43.633873
288.13068
141.0395
-9735.8708
-8992.991
-5928.6326
-1768.3597
-1838.4917
-678.3892
217.96599
203.56505
106.41008
-9918.3763
-9192.053
-5750.5834
-1394.1355
-1287.2183
-306.48946
499.86838
137.78147
110.87382
-10082.308
-9369.8646
-5534.394
-1027.1864
-738.01821
75.105079
796.0036
88.974362
168.59312
-10251.157
-9522.2492
-5271.7799
-667.47627
-207.08478
456.06401
1116.1562
66.243777
301.07659
-10398.866
-9648.7239
-4961.2923
-321.47349
295.54095
829.13712
1444.1564
72.353559
516.53219
-10557.148
-9771.4659
-4631.7732
14.111514
773.31362
1199.584
1775.3972
95.923729
815.82216
-4143.279
-2048.4518
-2508.2624
-6715.51
-1559.3915
-234.81131
850.33052
980.56507
638.45737
-4000.08
-1981.6746
-2852.8213
-6489.367
-2007.9793
-435.5269
702.8619
1062.185
767.83721
-3837.6829
-1833.9726
-2455.6588
-6177.9461
-2385.2614
-693.93882
492.39913
1040.8633
840.34677
-3783.3463
-1646.0196
-2404.1423
-5807.3347
-2688.0919
-955.36213
242.02747
955.3757
889.37184
-3825.7604
-1452.2853
-1932.6624
-5353.9627
-2888.9037
-1226.7095
-22.215053
781.96654
886.00486
-3837.6015
-1261.9981
-1647.7492
-4827.6964
-2972.4726
-1440.3507
-256.92126
551.332
839.9792
-3837.3546
-1039.6966
-1193.8158
-4226.5903
-2906.1803
-1592.6553
-481.31305
316.38563
754.5627
-3838.431
-806.89559
-830.82772
-3555.4795
-2687.8014
-1634.2962
-641.93604
75.282793
624.05116
-3843.3863
-631.40229
-367.29601
-2819.9746
-2325.1099
-1583.4628
-718.00676
-132.52386
468.12444
-5.0820351
-102.34213
-158.19367
-309.79672
-387.41136
-585.57157
1407.6968
1377.0056
-3651.9405
-15.447846
-188.23972
-272.89164
-487.43598
-599.78205
-854.94497
1408.3609
1273.9355
-3651.8141
-6.4910715
-251.64586
-379.01937
-659.1492
-814.05781
-1138.8294
1326.7542
1116.2386
-3610.5724
15.515923
-293.74574
-471.66187
-821.85452
-1027.0914
-1404.7646
1173.0748
945.4713
-3624.7907
50.866264
-318.87804
-548.58821
-973.33587
-1236.7369
-1652.7015
958.15901
711.44867
-3628.7607
94.805606
-327.34037
-611.58887
-1116.5963
-1442.0065
-1873.8225
716.89567
459.59786
-3685.3891
148.03348
-316.43161
-660.34504
-1246.4696
-1641.7488
-2090.5976
444.61898
191.33605
-3713.962
207.10316
-287.47496
-695.15691
-1362.6971
-1838.9037
-2287.9824
176.99756
-80.988605
-3779.2206
304.31325
-240.35691
-717.17277
-1462.6444
-2038.5895
-2507.1561
-90.201216
-408.87027
-3784.5777
-3707.3492
1615.8682
1364.2114
-308.07391
-159.23761
-116.13375
-31.011914
4.2902822
25.663818
-3438.4078
1918.3787
1346.6985
0.30388263
87.866179
96.926906
113.25003
127.47975
80.443524
-3331.9697
2074.1502
1339.3823
290.55351
335.93159
316.45039
271.54266
260.86164
148.62811
-2815.1855
2509.8993
1351.3154
546.38835
579.38955
531.69205
438.69607
401.96135
224.83322
-2288.8977
3082.2608
1395.7386
767.01763
804.20704
738.80507
614.47743
551.25135
322.98441
-3614.9051
3438.8263
1506.2314
969.12874
1011.855
941.42369
799.63577
715.16504
436.92329
-4127.8777
3631.6444
1717.4944
1166.2639
1217.1189
1138.4994
989.03432
890.36995
560.91887
-2953.1197
3665.1512
1979.7495
1394.0021
1430.2757
1340.8765
1188.48
1074.3563
713.39945
-2037.1466
3526.1265
2279.2672
1671.0354
1652.9363
1547.6988
1394.7199
1273.4137
907.28569
3112.78
3418.3486
3484.4891
3608.3285
3742.961
3789.1036
3929.8195
3874.0765
4971.4213
2878.4129
3176.4052
3246.6157
3376.2754
3504.301
3553.4848
3662.9215
3448.283
4385.5201
2624.0943
2931.1773
3010.5134
3144.1075
3270.0557
3326.6191
3423.0226
3055.7722
3713.631
2360.6376
2683.9125
2772.489
2909.6496
3040.877
3103.5917
3219.4248
2722.2986
2926.2953
2100.4177
2436.3484
2532.9741
2672.2695
2808.3591
2887.5356
3053.8905
2486.5715
2026.6645
1852.157
2191.4754
2297.6626
2436.743
2571.4999
2671.8921
2920.1195
2368.2465
988.87405
1615.0614
1949.1789
2060.4871
2205.3523
2339.7662
2448.6683
2804.4449
2401.8396
-77.434104
1394.0464
1715.0369
1831.7022
1975.2759
2108.0463
2208.6432
2683.2455
2638.9547
-1057.4957
1143.8409
1486.9653
1610.2274
1759.4062
1880.4967
1956.0693
2536.6769
3101.5708
-1636.8442
5426.755
4271.9622
4205.3911
4022.4781
3973.2289
3834.1361
3715.5837
3653.7451
3354.6794
5820.3919
4641.9911
4479.2878
4253.022
4197.6311
4054.1343
3943.6865
3881.9875
3607.486
6183.2267
5001.737
4757.1726
4487.1282
4423.9306
4272.492
4169.9092
4105.8619
3860.452
6522.8877
5351.5533
5038.4282
4723.9071
4648.1288
4486.1949
4390.297
4322.9503
4108.0066
6848.2362
5688.1264
5317.6033
4960.3651
4868.5442
4696.0864
4607.9149
4535.2514
4349.4115
7154.2639
6010.5645
5591.3562
5193.8935
5085.9954
4901.8748
4816.7838
4740.0863
4581.8391
7449.8792
6317.191
5857.4561
5423.404
5297.4189
5101.1624
5018.1987
4937.1384
4806.7907
7732.9658
6609.5944
6113.358
5645.5933
5500.7992
5293.5518
5214.4658
5127.3075
5022.0146
8008.5251
6887.2656
6357.9747
5860.702
5697.4955
5479.7101
5401.5
5309.3394
5228.0631
6559.8191
6531.5344
6655.0734
6716.4338
7021.4301
7259.8512
7909.6771
8575.4901
9951.131
6471.2419
6435.2561
6557.25
6620.88
6927.5552
7168.0886
7824.9611
8502.3879
9874.8533
6367.5304
6329.4775
6447.8628
6515.2229
6816.7887
7054.3024
7704.9884
8370.9477
9690.5585
6238.8059
6213.9374
6327.8309
6397.1676
6692.6598
6920.8721
7558.1702
8209.1658
9484.5899
6093.7906
6087.4007
6197.8669
6269.509
6551.5609
6772.5074
7392.5885
8031.6
9260.3224
5938.198
5951.109
6057.055
6129.9444
6399.4419
6612.2315
7211.9195
7839.379
9028.7358
5775.0156
5803.724
5907.0317
5983.1328
6238.8777
6440.7448
7017.6462
7627.8386
8786.6028
5603.8214
5648.2479
5747.6675
5823.5366
6066.1146
6258.8971
6810.6015
7398.3746
8535.9687
5421.4662
5482.5615
5578.2529
5654.0293
5886.3478
6065.3572
6590.1384
7150.3333
8276.315
6646.776
6731.6266
6810.5746
6882.8374
6948.7796
7008.2155
7061.3544
7109.0886
7151.2857
6621.6289
6704.1077
6780.3607
6849.9886
6913.9931
6971.8989
7025.0876
7072.1254
7114.7628
6741.568
6818.2252
6888.0382
6950.743
7006.6332
7057.6354
7104.342
7144.7039
7182.0659
6802.2174
6877.5601
6948.5116
7010.01
7067.0381
7116.886
7160.5432
7201.2092
7235.3432
7095.4295
7157.4965
7209.8899
7256.0149
7295.981
7329.0215
7358.9528
7385.0636
7405.6592
7331.2046
7388.6381
7437.0538
7476.2823
7507.3233
7532.3077
7551.5093
7567.104
7578.5752
7956.9718
7984.889
8000.2526
8007.2165
8007.4399
8002.1043
7992.3721
7979.7241
7963.8872
8589.3304
8586.6202
8571.3805
8547.1759
8513.0946
8473.7525
8428.9021
8378.7736
8327.7473
9874.4425
9804.2824
9723.1404
9639.2288
9552.7322
9460.878
9358.3162
9255.0558
9157.1897
7188.8671
7153.7269
7214.3246
7266.4967
7424.895
7586.6875
7945.8785
8280.83
9056.9209
7221.5903
7187.7124
7243.7793
7294.0878
7440.878
7592.1847
7926.5752
8235.305
8956.9976
7250.7819
7218.9553
7269.8249
7318.1937
7454.1539
7596.3896
7906.579
8187.0116
8860.5727
7275.9818
7247.2507
7293.3834
7340.4168
7466.3675
7598.8238
7886.0933
8136.4613
8765.0264
7298.407
7272.014
7314.2476
7358.9997
7478.126
7599.8763
7865.4544
8090.3392
8673.0587
7317.853
7292.972
7332.5328
7374.1686
7486.8729
7600.206
7845.2124
8046.6849
8582.7948
7335.1611
7312.595
7348.1494
7388.5521
7492.5389
7600.1407
7826.3232
8001.5457
8491.7954
7349.735
7329.7992
7363.1432
7401.0026
7499.1688
7600.5324
7807.7705
7957.6397
8398.8735
7361.609
7344.3237
7374.9094
7411.4113
7505.0122
7601.5495
7790.3996
7917.413
8298.1476
7404.3211
7401.7596
7422.4894
7446.7117
7520.6017
7600.6058
7738.3341
7795.721
7761.1265
7403.1976
7399.9709
7421.2185
7446.0966
7522.3617
7600.9914
7738.3597
7785.6392
7745.3745
7401.3714
7397.1257
7420.2447
7445.3957
7523.8417
7601.7779
7738.7393
7781.9799
7749.174
7398.4857
7393.5462
7417.1383
7443.882
7524.3238
7603.3165
7738.7389
7785.4446
7778.4094
7394.454
7389.1573
7411.9593
7441.7458
7523.4432
7604.1741
7741.1328
7792.4919
7834.2836
7389.6799
7383.4772
7407.5601
7439.1313
7521.2353
7604.4182
7747.3993
7803.3707
7913.1631
7384.604
7376.3077
7401.5278
7434.8894
7518.2938
7604.5105
7755.221
7821.7043
8004.1669
7378.4008
7367.7123
7393.0755
7428.8092
7514.1567
7603.5016
7764.3647
7848.412
8096.5649
7370.8626
7357.217
7383.8123
7420.8259
7509.1295
7602.5316
7775.7787
7881.0611
8193.681
7782.1289
7812.0837
7740.6538
7600.3123
7518.7225
7446.6661
7422.8892
7402.9486
7404.5115
7819.5041
7835.2711
7743.8448
7598.4778
7516.0717
7444.9413
7422.5777
7403.3952
7404.4232
7861.3547
7860.765
7746.7632
7594.5988
7512.5097
7441.8298
7421.7977
7403.2272
7404.263
7910.1792
7882.9733
7748.7225
7588.1596
7508.0202
7438.3514
7420.4566
7402.5718
7404.0143
7965.6126
7902.329
7746.9197
7579.7126
7502.311
7434.188
7418.6508
7401.583
7403.5825
8021.9224
7918.0095
7740.5268
7569.3437
7494.808
7428.8941
7416.5783
7400.4098
7403.2452
8080.2196
7929.4957
7730.5667
7557.5694
7485.9576
7423.2265
7413.9197
7399.299
7403.124
8135.8615
7938.4895
7720.0715
7546.2101
7476.8857
7418.5239
7410.7022
7398.5573
7403.2493
8189.2617
7948.6337
7714.1172
7538.8196
7469.973
7416.9827
7407.8945
7398.5501
7403.1486
8248.3256
7965.5746
7717.6197
7541.3838
7468.5413
7420.2443
7406.3392
7399.6206
7402.0976
8310.4394
7983.1869
7720.954
7545.8378
7468.0224
7422.4206
7404.8788
7399.4343
7400.5993
8367.0596
7995.486
7722.2539
7549.0745
7467.7504
7422.4697
7403.0453
7397.9642
7398.8356
8413.6842
8001.7478
7718.1974
7549.4596
7466.0167
7420.4145
7400.3138
7395.3026
7396.482
8449.2293
7998.5599
7707.2375
7546.4453
7462.0898
7416.3505
7396.0674
7391.3534
7393.2133
8466.8182
7983.5989
7688.6367
7539.0526
7455.6105
7410.1275
7389.8154
7385.8318
7388.6468
8436.0825
7953.1949
7662.2563
7527.69
7446.3061
7401.474
7381.2173
7378.3856
7382.3693
8307.4022
7907.9615
7631.5974
7512.5246
7433.8504
7389.8921
7369.9397
7368.5896
7373.8561
8122.6125
7846.6463
7599.5882
7492.9724
7417.7072
7375.2601
7355.7511
7355.8051
7362.459
7026.0942
7033.2269
7049.1533
7077.5731
7117.535
7174.7305
7245.6213
7344.524
7468.5951
7088.931
7090.4243
7101.7351
7126.2142
7166.1122
7224.0642
7298.6991
7403.4598
7547.3999
7145.5792
7142.4595
7149.2661
7171.5131
7210.4321
7269.2218
7344.5292
7450.6607
7585.4093
7195.3623
7188.7377
7192.1983
7212.7267
7251.2991
7311.32
7389.0082
7501.3059
7639.7143
7238.1486
7229.2421
7230.6091
7249.8135
7288.6954
7350.3795
7431.1457
7555.491
7698.4571
7274.1609
7264.3554
7264.2925
7282.7246
7322.0369
7386.2686
7470.6966
7611.4783
7760.6272
7303.9888
7294.2165
7293.1806
7311.4477
7351.8762
7418.4096
7506.6885
7668.4899
7828.2777
7328.2787
7319.1073
7317.642
7336.4547
7377.3738
7446.4318
7539.2229
7725.6968
7902.9713
7347.5177
7339.4885
7338.3222
7357.4067
7398.6856
7470.5022
7568.6523
7782.2358
7989.9293
7679.4915
7740.9056
7798.5423
7873.376
7964.2498
8079.5104
8227.3535
8425.9005
8691.2338
7712.1011
7769.2655
7830.6172
7909.7482
8007.1846
8126.9629
8280.3095
8485.6995
8754.1939
7744.4902
7799.6426
7865.3363
7947.7333
8050.5715
8177.7148
8338.3621
8552.9693
8830.4143
7779.1083
7836.034
7904.4799
7990.066
8095.6947
8228.0394
8394.8625
8616.9883
8903.7148
7817.1234
7874.8519
7944.2948
8030.3232
8137.6179
8273.8873
8445.7063
8672.48
8959.7387
7847.9933
7904.3011
7973.4652
8059.4292
8166.6956
8298.4907
8471.0386
8704.4904
8971.1528
7859.7187
7911.9509
7979.2159
8062.0129
8164.8875
8294.253
8456.5268
8700.9162
8905.9766
7834.9826
7883.1586
7945.7024
8020.9482
8112.978
8226.8409
8346.6716
8649.925
8682.5408
7755.6153
7798.7742
7852.9854
7922.6595
7975.1623
8100.5959
8086.1733
8537.2072
8304.3576
6172.0453
7498.7148
7227.5588
7675.1373
7541.0334
7672.8666
7588.9379
7611.424
7539.2247
6504.2163
6663.4039
6658.4785
6873.5942
6857.73
7001.0087
6971.5438
7036.6634
6979.8248
6590.0483
6612.9873
6562.9288
6646.5309
6592.5068
6692.6126
6631.2757
6742.2856
6667.1682
6544.1689
6583.7489
6549.4279
6598.9475
6562.743
6606.5551
6585.3901
6622.1965
6616.9875
6458.1979
6485.1151
6468.3407
6503.9979
6484.5614
6516.6094
6500.9291
6524.3981
6519.2715
6349.2644
6366.3688
6353.1826
6380.5379
6363.5462
6389.2982
6376.3631
6395.2774
6386.139
6238.4656
6248.1613
6237.588
6253.3115
6241.8333
6256.2718
6248.0832
6259.9442
6252.194
6123.4359
6126.4876
6115.2355
6126.2671
6112.86
6124.5256
6113.9578
6124.2785
6114.8238
6000.8424
5997.0378
5987.7159
5989.1695
5979.8185
5981.9678
5975.2372
5979.6221
5970.0472
5824.1866
5669.3617
5492.7136
5284.9038
5050.0277
4756.4619
4421.9631
4062.2513
3802.348
5833.626
5677.9636
5499.1403
5289.0926
5044.4085
4750.4722
4401.409
4041.1333
3722.7598
5829.207
5675.9646
5494.4477
5284.5146
5033.3765
4736.1394
4375.9729
3997.3401
3622.5124
5837.9518
5680.3757
5499.9897
5283.8131
5031.5898
4723.967
4353.1746
3938.2373
3504.6976
5835.5261
5682.8834
5498.9095
5286.1865
5028.2544
4717.3271
4331.2014
3879.4357
3382.643
5847.9035
5689.768
5508.2031
5291.685
5033.1341
4715.2035
4318.1159
3822.2599
3262.8855
5846.428
5695.523
5511.8564
5299.6324
5038.9736
4722.8779
4312.3579
3794.5094
3158.2568
5858.333
5702.9548
5521.0647
5305.4178
5048.5889
4723.6922
4314.1548
3761.1902
3174.6577
5866.3261
5716.8722
5536.136
5326.5988
5068.5952
4758.1092
4338.8696
3796.1786
2936.7386
3848.3099
4074.7785
4414.8518
4687.7304
4853.0637
4973.5889
5091.9391
5219.8233
5344.4305
3728.5396
3970.928
4369.8188
4666.6681
4836.7158
4959.8788
5082.2815
5212.8902
5341.2816
3585.0047
3865.4603
4335.0688
4650.6253
4820.1098
4947.3689
5073.9562
5206.3839
5336.2596
3411.3558
3755.2613
4299.3454
4628.8933
4799.8179
4935.3817
5071.3264
5207.7298
5340.2415
3192.7876
3651.8184
4267.4777
4602.1201
4772.0975
4911.6111
5053.0068
5193.2297
5328.3321
2885.3598
3586.8121
4278.2448
4603.7696
4774.5384
4919.9792
5064.5178
5205.1534
5339.041
2433.5635
3408.9663
4222.0183
4551.6531
4733.3701
4889.304
5042.5254
5187.4394
5325.4792
2016.1236
3470.1977
4286.3114
4574.7277
4750.7722
4904.4037
5054.2661
5197.0907
5333.0374
918.02287
3283.8322
4248.1514
4533.8621
4729.6339
4892.4157
5046.4397
5190.318
5327.9824
5463.5196
5574.8123
5687.9386
5798.9409
5918.1876
6040.9555
6176.4444
6318.1048
6477.272
5463.0686
5577.5699
5690.9338
5804.1466
5923.5033
6048.2873
6184.7454
6329.2339
6489.257
5460.0512
5575.8167
5691.0553
5805.6863
5926.604
6053.214
6191.0791
6338.3953
6500.5186
5464.2973
5582.2867
5696.7964
5813.347
5933.4141
6061.6769
6199.3826
6348.9941
6512.2282
5454.7944
5574.9245
5691.6763
5810.2586
5931.8151
6062.0267
6200.961
6353.0776
6517.9244
5464.8766
5584.889
5701.2041
5820.0382
5941.1834
6071.7121
6210.6853
6363.8301
6529.5919
5452.698
5575.8445
5693.2958
5814.9251
5935.9433
6069.0698
6207.8325
6363.2403
6530.29
5460.1062
5582.215
5699.5602
5821.017
5942.1663
6074.4295
6214.4242
6369.5457
6537.7689
5455.8919
5578.7235
5696.9563
5819.2389
5940.3895
6073.8103
6213.5009
6369.2922
6537.7965
6647.7085
6840.2113
7048.7426
7285.6449
7534.2146
7809.9445
8083.2497
8362.9284
8569.7245
6663.4519
6857.6769
7072.0843
7312.6414
7571.4285
7855.843
8144.5465
8443.0072
8669.354
6678.3908
6874.9615
7094.9568
7339.6382
7607.9152
7901.0739
8208.1105
8522.2437
8768.9445
6693.3002
6891.729
7116.7663
7365.1331
7641.9196
7943.1886
8268.3301
8595.8039
8864.8398
6702.0946
6902.6404
7132.0387
7385.1054
7669.7333
7980.4518
8322.648
8664.236
8957.1112
6714.7441
6917.6851
7149.5825
7405.7943
7696.5314
8016.0966
8373.2677
8728.1936
9042.6941
6717.6533
6921.9561
7158.0075
7415.7299
7714.4404
8038.1797
8412.268
8776.0619
9118.5336
6724.7986
6931.1329
7167.5805
7428.9483
7728.6888
8059.4371
8441.418
8819.4078
9189.0007
6725.7592
6932.1299
7170.2426
7431.4571
7734.2627
8065.5426
8454.8017
8836.2904
9219.6454
8612.5917
7956.0371
7461.4507
7075.3622
6694.5096
6318.5627
5929.0724
5538.5722
5158.7458
8744.0074
8053.5191
7545.6943
7150.5957
6763.2334
6379.069
5983.8138
5589.9703
5208.6756
8882.1074
8148.3036
7624.9982
7220.4361
6827.9954
6436.7989
6039.3482
5642.5901
5259.9154
9022.1902
8241.82
7704.9109
7286.6678
6887.9618
6489.1078
6090.421
5689.7145
5308.5545
9165.0218
8335.49
7787.0479
7361.8479
6957.0451
6550.9926
6148.3362
5747.8699
5362.5325
9309.8987
8430.3801
7858.7302
7414.8163
7007.3421
6592.8716
6190.8479
5782.9731
5401.6228
9436.3386
8539.495
7956.2133
7499.0345
7083.865
6668.4052
6263.0717
5857.0783
5469.6875
9544.1178
8602.6242
7999.3309
7527.3268
7109.1728
6686.4485
6281.6004
5870.9369
5486.9126
9661.3002
8755.65
8122.8059
7631.4456
7205.9204
6780.3056
6373.4689
5961.0214
5573.5215
4776.1321
4390.6774
3994.3153
3586.5062
3155.3246
2711.0002
2233.1375
1731.3912
1206.1877
4824.7383
4438.0401
4039.3298
3629.4237
3199.2445
2758.2379
2283.3404
1780.4674
1252.4186
4874.7889
4488.322
4090.1821
3681.1899
3252.9753
2814.3981
2342.8166
1844.0143
1321.4911
4921.2551
4537.0164
4135.5255
3727.4034
3297.3827
2865.9796
2396.3276
1903.2814
1382.8273
4975.7535
4590.0118
4191.5879
3782.7703
3357.748
2922.4392
2456.8698
1964.4199
1449.0378
5010.7486
4628.7797
4224.8149
3818.6363
3389.2182
2965.6934
2499.4926
2014.9938
1499.2931
5080.1294
4697.0703
4296.7034
3891.127
3465.3426
3038.6565
2575.6465
2094.9955
1582.3637
5095.1488
4713.7342
4310.3838
3906.198
3479.3617
3060.166
2596.4642
2120.8539
1608.7881
5181.0381
4800.3856
4399.1215
3996.3941
3572.2262
3155.387
2694.7359
2226.1152
1715.3455
583.81595
-170.33228
-994.01918
-1884.2377
-2800.2245
-3648.3536
-4727.9284
-6458.0547
-8954.1941
631.11819
-102.80996
-904.23007
-1753.808
-2637.3185
-3449.8782
-4426.3664
-6052.4279
-8501.6646
708.44749
0.84211998
-778.88698
-1605.1678
-2500.1426
-3386.479
-4376.7659
-5884.5422
-8045.6415
779.34648
92.443524
-660.73759
-1470.6204
-2353.5923
-3257.7268
-4230.417
-5620.7245
-7477.2925
853.47728
189.21687
-540.8137
-1327.5307
-2183.3518
-3078.7049
-4020.3598
-5266.9205
-6712.9081
917.80948
269.86242
-429.22627
-1206.6049
-2031.61
-2932.1522
-3859.885
-4980.2096
-5782.0834
1012.7061
385.38168
-272.98027
-1022.7409
-1810.2699
-2726.3083
-3572.8169
-4802.3226
-4583.7947
1052.5572
433.57627
-205.23005
-944.35171
-1710.7147
-2608.4228
-3572.7311
-4495.6133
-5005.9089
1179.9812
590.75234
5.109329
-688.6814
-1388.1403
-2214.6535
-3050.3143
-4926.0592
-29.885711
-12210.63
-15220.45
-17053.342
-16118.946
-16382.509
-16561.046
-17289.198
-17822.398
-17224.292
-12015.953
-15374.527
-16888.514
-15896.193
-16277.651
-16553.705
-17299.87
-17763.661
-17151.965
-11980.542
-15637.662
-16575.791
-15786.156
-16240.063
-16621.967
-17353.47
-17744.862
-17006.593
-12154.517
-15901.786
-16201.35
-15751.45
-16222.017
-16649.038
-17355.625
-17638.804
-16865.563
-12478.683
-16079.811
-15701.333
-15745.742
-16227.907
-16707.496
-17365.495
-17506.853
-16711.259
-12319.671
-15945.459
-15514.2
-15801.689
-16258.909
-16752.32
-17360.812
-17412.993
-16573.069
-11332.376
-15638.383
-15633.055
-15858.259
-16323.856
-16777.222
-17337.807
-17288.994
-16431.976
-12473.082
-16506.528
-15443.979
-15943.575
-16354.813
-16838.464
-17325.097
-17247.517
-16335.267
-25289.571
-13976.503
-15897.121
-16067.298
-16490.398
-16900.966
-17310.093
-17166.581
-16254.889
-15503.052
-14454.18
-13518.113
-12489.376
-11708.5
-11468.408
-11684.322
-13882.307
-14343.144
-15527.019
-14426.096
-13414.669
-12288.153
-11461.535
-11215.366
-11476.611
-13925.283
-14391.523
-15464.229
-14317.085
-13255.427
-12060.836
-11247.342
-11107.398
-11589.283
-13979.178
-14698.945
-15347.093
-14154.743
-13036.29
-11793.676
-11008.727
-10978.628
-11750.272
-13823.323
-14713.703
-15211.457
-13980.058
-12772.679
-11490.513
-10751.738
-10827.468
-11853.782
-13664.547
-14806.918
-15086.001
-13816.96
-12508.38
-11194.184
-10492.542
-10686.91
-11863.464
-13511.785
-14667.627
-14965.931
-13655.899
-12248.803
-10928.477
-10280.838
-10604.763
-11851.515
-13380.325
-14289.971
-14895.852
-13555.121
-12048.758
-10716.643
-10137.85
-10597.397
-11808.424
-13375.803
-13872.616