/*--------------------------------*- C++ -*----------------------------------*\
  =========                 |
  \\      /  F ield         | OpenFOAM: The Open Source CFD Toolbox
   \\    /   O peration     | Website:  https://openfoam.org
    \\  /    A nd           | Version:  11
     \\/     M anipulation  |
\*---------------------------------------------------------------------------*/
FoamFile
{
    format      ascii;
    class       surfaceScalarField;
    location    "9.075";
    object      phi;
}
// * * * * * * * * * * * * * * * * * * * * * * * * * * * * * * * * * * * * * //

dimensions      [0 3 -1 0 0 0 0];

internalField   nonuniform List<scalar> 
8667
(
15.882803
2.0003838
-0.10540872
13.97241
2.2016605
-0.29126724
12.046321
2.4260482
-0.49995996
10.120289
2.6011296
-0.6750975
8.1755692
2.7785846
-0.83386471
6.2517992
2.9134544
-0.98968432
4.3038653
3.0679866
-1.1200527
2.4002073
3.1812261
-1.277568
3.4388506
-1.5913246
0.55268123
15.883528
3.8946343
13.973253
4.1119353
12.053942
4.3453589
10.123368
4.5317037
8.1813805
4.7205722
6.2434924
4.8513426
4.3018775
5.0096014
2.3943158
5.0887878
5.3097083
0.52345811
15.884006
5.7884061
13.975473
6.0204688
12.057877
6.2629542
10.126748
6.4628332
8.1838403
6.6634797
6.242232
6.7929509
4.2963743
6.9554591
2.3885195
6.9966426
7.1997865
0.49844131
15.884728
7.6814562
13.979117
7.9260797
12.063151
8.17892
10.134755
8.3912294
8.1882338
8.610001
6.2435222
8.7376624
4.2861192
8.9128622
2.3738674
8.9088944
9.1007368
0.47291713
15.886027
9.5732048
13.985652
9.8264549
12.072138
10.092434
10.143381
10.319987
8.1951675
10.558214
6.247434
10.685396
4.2831196
10.877177
2.3608582
10.831156
11.005302
0.45629293
15.888036
11.462947
13.99227
11.722222
12.081625
12.003079
10.154862
12.24675
8.2051425
12.507934
6.2484655
12.642073
4.2777178
12.847924
2.3430283
12.765845
12.924696
0.42363485
15.889739
13.350986
14.000128
13.611833
12.092227
13.910979
10.165918
14.173059
8.2173877
14.456464
6.2580607
14.6014
4.2772849
14.8287
2.3259361
14.717194
14.854992
0.39563989
15.89221
15.236553
14.006801
15.497242
12.106062
15.811718
10.181011
16.09811
8.2272328
16.410241
6.2618496
16.566783
4.2760859
16.814464
2.3071657
16.686114
16.820565
0.34159288
15.8954
17.118931
14.013292
17.37935
12.113944
17.711067
10.195002
18.017052
8.2435313
18.361712
6.2739246
18.53639
4.2776492
18.810739
2.2873234
18.67644
18.823215
0.28467278
18.938873
15.957836
20.755058
15.961594
22.567291
15.965551
24.376136
15.968935
26.181602
15.972294
27.982487
15.976895
29.781823
15.978444
31.573418
15.986185
15.98293
33.368268
19.201819
14.135367
21.020124
14.143289
22.833149
14.152527
24.640694
14.16139
26.445456
14.167532
28.242132
14.180219
30.03572
14.184856
31.81949
14.202415
14.201746
33.600673
19.558248
12.288186
21.398211
12.303325
23.233727
12.317011
25.059529
12.335589
26.881896
12.345164
28.694863
12.367253
30.508282
12.371437
32.319127
12.39157
12.389639
34.131235
19.896667
10.408571
21.769057
10.430935
23.641583
10.444485
25.507369
10.469803
27.369629
10.482903
29.225564
10.511318
31.073606
10.523395
32.911985
10.55319
10.565029
34.736595
20.282138
8.4881456
22.204014
8.5090586
24.125773
8.5227252
26.049533
8.5460433
27.970746
8.5616906
29.896686
8.5853772
31.822436
8.5976461
33.747594
8.6280319
8.6434183
35.669205
20.484068
6.5404676
22.444858
6.5482686
24.407387
6.5601957
26.381298
6.5721322
28.350942
6.592047
30.326462
6.6098567
32.288217
6.6358915
34.25864
6.6576092
6.6879674
36.214091
20.796041
4.5551662
22.808223
4.5360864
24.832423
4.5359956
26.881911
4.5226446
28.936077
4.5378808
31.008997
4.5369363
33.084864
4.5600247
35.175932
4.5665408
4.5921386
37.271761
20.711857
2.5197492
22.790814
2.4571289
24.877779
2.4490306
26.981236
2.4191878
29.082007
2.4371098
31.194432
2.4245117
33.297112
2.4573446
35.410331
2.4533218
2.4850613
37.517408
20.999243
0.34372161
23.472416
-0.016044151
25.891086
0.030360397
28.215135
0.095138877
30.519712
0.13253243
32.828381
0.11584314
35.164113
0.12161238
37.505134
0.11230107
39.858959
0.13123632
33.280577
0.087690408
33.195667
0.084910421
33.121336
0.074331064
33.05533
0.066006018
32.996062
0.059268092
32.950198
0.045863328
32.905906
0.044292387
32.877994
0.027911812
0.028833547
32.849161
33.551178
0.13718524
33.51615
0.11993867
33.481365
0.1091165
33.459838
0.087533218
33.437414
0.081691331
33.428281
0.054996331
33.416535
0.056038456
33.417633
0.026813917
0.03275864
33.413708
34.112957
0.15546289
34.108265
0.12463117
34.097427
0.11995389
34.095755
0.089205588
34.090172
0.087274022
34.089491
0.055677788
34.089628
0.055901413
34.093807
0.022634796
0.026343663
34.100222
34.736964
0.15509361
34.738202
0.12339364
34.739932
0.11822353
34.741282
0.087856137
34.743387
0.085169119
34.744569
0.054495815
34.746583
0.053887481
34.747785
0.021432191
0.02432829
34.749801
35.658118
0.16618088
35.646619
0.13489222
35.635082
0.1297603
35.621292
0.10164654
35.607262
0.099199101
35.590372
0.071385131
35.573765
0.070495415
35.552504
0.042693063
0.044004012
35.532828
36.202967
0.17730451
36.187626
0.15023368
36.175544
0.14184157
36.158103
0.11908769
36.143751
0.11355121
36.12079
0.09434641
36.100033
0.091252502
36.068713
0.074012522
0.072654026
36.040063
37.252519
0.19654727
37.223406
0.17934585
37.196487
0.16876126
37.158172
0.15740262
37.121334
0.15038903
37.070206
0.14547456
37.019681
0.14177711
36.9547
0.13899336
0.14123334
36.886121
37.542529
0.17142626
37.557095
0.1647799
37.57906
0.14679577
37.588732
0.14773071
37.599338
0.13978305
37.590197
0.15461575
37.570843
0.16113091
37.513616
0.19622055
0.22216358
37.432686
39.910146
0.12023935
39.935205
0.13972056
39.917648
0.16435266
39.866307
0.19907178
39.764866
0.2412244
39.612575
0.30690697
39.417244
0.35646167
39.156708
0.45675641
38.865768
0.51310394
38.658611
0.7918667
-0.58471044
38.305183
0.75148038
-0.39805149
37.872942
0.71527134
-0.2830309
37.433283
0.68029854
-0.24063927
36.976121
0.65514233
-0.19798075
36.523436
0.62789079
-0.17520565
36.056615
0.60654908
-0.13972805
35.60809
0.58413441
-0.13560944
0.57089178
35.14736
-0.11016191
37.450073
0.77447927
37.426739
0.77481515
37.365718
0.77629245
37.275492
0.77052394
37.164034
0.76660059
37.037069
0.75485593
36.894062
0.74955535
36.733057
0.7451401
0.74230852
36.56164
36.935088
0.72551252
36.976473
0.7334295
37.004257
0.74850925
37.020707
0.75407388
37.020189
0.76711796
37.004713
0.77033184
36.972936
0.78133323
36.933882
0.78419321
0.79535644
36.880835
36.132386
0.63318952
36.227037
0.63877888
36.309915
0.66563072
36.39384
0.67014961
36.465119
0.69583832
36.536661
0.69878967
36.594349
0.72364579
36.652688
0.72585388
0.75110467
36.69694
35.642044
0.52397385
35.755358
0.52546418
35.860566
0.56042299
35.970396
0.56031963
36.070941
0.59529348
36.175743
0.59398771
36.270574
0.62881417
36.370791
0.62563756
0.66059062
36.461305
34.879773
0.39400179
35.014264
0.39097255
35.145979
0.42870796
35.282078
0.42422082
35.415011
0.46236103
35.553048
0.45594986
35.686912
0.4949511
35.825693
0.48685655
0.52701961
35.959264
34.238568
0.25565536
34.378173
0.25136818
34.521558
0.2853227
34.665777
0.28000134
34.813401
0.31473785
34.963392
0.3059588
35.115654
0.34268897
35.271296
0.33121396
0.36931773
35.428998
33.556393
0.11297083
33.694417
0.11334364
33.844528
0.13521149
33.990726
0.13380331
34.151271
0.15419352
34.307347
0.14988291
34.47884
0.17119538
34.644804
0.16525031
0.18794536
34.826176
32.962132
33.075475
33.210687
33.34449
33.498684
33.648566
33.819762
33.985012
34.172957
34.353708
-0.18075073
34.55867
-0.20496198
34.754574
-0.19590375
34.976296
-0.22172232
35.187334
-0.21103728
35.425257
-0.23792313
35.651566
-0.22630895
35.907333
-0.25576704
-0.24080452
36.148137
35.001087
-0.35566132
35.192889
-0.39676377
35.377156
-0.38017157
35.579148
-0.4237142
35.773543
-0.40543196
35.986887
-0.45126706
36.191377
-0.43079881
36.416541
-0.48093136
-0.45757724
36.633314
35.590738
-0.51740126
35.752909
-0.55893425
35.920931
-0.54819376
36.088499
-0.59128287
36.263035
-0.5799677
36.437082
-0.62531367
36.620263
-0.61398035
36.802014
-0.66268159
-0.65158024
36.996017
36.098745
-0.65688232
36.232834
-0.693024
36.374139
-0.68949811
36.510337
-0.72748144
36.6554
-0.72503072
36.795968
-0.76588086
36.947275
-0.76528741
37.095453
-0.81085961
-0.81167425
37.255547
36.558101
-0.75367834
36.645007
-0.77993058
36.738134
-0.78262435
36.822162
-0.81150994
36.915282
-0.81815013
37.000948
-0.85154705
37.098337
-0.86267665
37.189529
-0.90205195
-0.91719764
37.295053
36.743747
-0.800485
36.778642
-0.81482591
36.818834
-0.82281611
36.850242
-0.84291871
36.886355
-0.85426264
36.916317
-0.88150951
36.952442
-0.89880083
36.984185
-0.93379541
-0.95776325
37.024751
36.825146
-0.74479608
36.757717
-0.747397
36.689389
-0.75448878
36.612215
-0.76574454
36.5358
-0.77784766
36.453993
-0.79970198
36.374293
-0.81910086
36.292113
-0.85161551
-0.88000557
36.214355
36.373568
-0.55672372
36.184533
-0.55836204
35.977054
-0.54701029
35.772128
-0.56081834
35.549645
-0.55536486
35.327722
-0.57777831
35.089639
-0.58101799
34.855275
-0.61725198
-0.62875423
34.604024
34.709239
-0.11860249
34.254535
-0.10365825
33.830982
-0.12345668
33.379226
-0.10906259
32.960621
-0.13675968
32.505575
-0.12273292
32.084521
-0.15996423
31.616326
-0.14905661
31.188356
-0.20078456
0.6802766
30.701415
-0.19333508
0.92587976
34.358421
1.0034244
36.13681
0.96473769
37.063437
0.8633665
37.396424
0.704735
37.414178
0.51245044
37.188301
0.27417282
36.871591
36.42231
0.70413583
30.261594
-0.2643146
0.96342383
34.099133
1.0332121
36.067022
0.98492672
37.111723
0.86861937
37.512731
0.69437902
37.588418
0.48785847
37.394822
0.2586793
37.100771
36.680989
0.77220397
29.750241
-0.26085132
1.0258313
33.845505
1.0923177
36.000536
1.0409352
37.163105
0.92238744
37.631279
0.74955489
37.761251
0.54693285
37.597444
0.29356377
37.35414
36.974553
0.81251282
29.299864
-0.36213563
1.0736001
33.584418
1.1293956
35.94474
1.0655318
37.226969
0.935766
37.761045
0.74512881
37.951888
0.52217827
37.820394
0.27923634
37.597082
37.253789
0.90477818
28.764234
-0.3691487
1.1549019
33.334294
1.2040682
35.895574
1.1327402
37.298297
0.99228555
37.901499
0.7975818
38.146592
0.57878811
38.039188
0.310977
37.864893
37.564766
0.9556986
28.327278
-0.51874272
1.213932
33.076061
1.2483518
35.861154
1.1608704
37.385778
1.009659
38.052711
0.80031625
38.355935
0.56465432
38.27485
0.30391827
38.125629
37.868685
1.0786107
27.803843
-0.55517563
1.3181257
32.836546
1.3406226
35.838657
1.2396435
37.486758
1.0712601
38.221094
0.84967513
38.57752
0.6106954
38.51383
0.32920173
38.407122
38.197886
1.1665983
27.432716
-0.79547136
1.3880946
32.61505
1.3896427
35.837109
1.2696822
37.606718
1.0911245
38.399652
0.85641221
38.812232
0.60399349
38.766248
0.32671476
38.684401
38.524601
1.3379626
26.946797
-0.85204367
1.5271691
32.425843
1.5118748
35.852404
1.3665119
37.752081
1.1554759
38.610688
0.90157758
39.06613
0.64275864
39.025067
0.34803836
38.979121
38.87264
0.046435602
38.826204
0.15446994
38.871087
0.2653514
38.914186
0.3918926
38.939589
0.52874483
38.473836
0.65873315
37.622093
0.77663475
35.734502
0.87481269
32.327665
27.148457
0.67315267
0.048089714
38.778114
0.15378914
38.765388
0.26546055
38.802514
0.37317557
38.831874
0.46366344
38.383348
0.55362959
37.532126
0.62413083
35.664001
0.66836416
32.283432
27.226009
0.59081258
0.055116428
38.722998
0.15814044
38.662364
0.26120726
38.699448
0.37047694
38.722604
0.48019103
38.273634
0.56581572
37.446502
0.62150676
35.60831
0.65285045
32.252088
27.334942
0.54391769
0.062865525
38.660132
0.16438857
38.560841
0.2675746
38.596262
0.35862947
38.63155
0.41698749
38.215276
0.46723418
37.396255
0.49331459
35.582229
0.49506126
32.250342
27.392704
0.43729941
0.072321226
38.587811
0.1776234
38.455538
0.27456216
38.499323
0.37308855
38.533023
0.46043858
38.127926
0.50565157
37.351042
0.52085546
35.567025
0.51026947
32.260928
27.47401
0.42896327
0.084105118
38.503706
0.19269068
38.346953
0.29297935
38.399034
0.37395001
38.452053
0.4093784
38.092497
0.41875184
37.341669
0.40385528
35.581922
0.35970262
32.30508
27.495595
0.33811782
0.098844046
38.404862
0.21451652
38.23128
0.31479528
38.298755
0.40457335
38.362274
0.47063
38.026441
0.48101803
37.331281
0.45344024
35.6095
0.39694512
32.361575
27.556794
0.33574603
0.11771401
38.287148
0.24149762
38.107497
0.35388635
38.186367
0.42985632
38.286304
0.43766747
38.018629
0.40922988
37.359718
0.35031075
35.668419
0.27405687
32.437829
27.550352
0.28049888
0.13878028
38.148368
0.27539469
37.970882
0.38680322
38.074958
0.47809875
38.195009
0.52661562
37.970113
0.49685617
37.389478
0.4253656
35.739909
0.34056312
32.522632
27.552782
0.33813328
-0.22773653
27.489283
0.29123543
-0.34464975
32.639545
-0.4571812
35.852441
-0.52170436
37.454001
-0.52511105
37.973519
-0.4452987
38.115197
-0.31630618
37.945966
-0.16525331
37.819829
37.983114
-0.32247059
27.47163
0.34012348
-0.45085623
32.767931
-0.5722286
35.973813
-0.63633537
37.518108
-0.5948694
37.932053
-0.49745361
38.017781
-0.36760321
37.816115
-0.19302618
37.645252
37.790088
-0.22427513
27.44799
0.24791457
-0.39834253
32.941998
-0.56286872
36.13834
-0.65837021
37.613609
-0.66802451
37.941708
-0.57619868
37.925955
-0.42091583
37.660832
-0.22912496
37.453462
37.560963
-0.35342917
27.521869
0.2795502
-0.54067206
33.129241
-0.71264313
36.310311
-0.80216551
37.703131
-0.76343662
37.902979
-0.64897404
37.811492
-0.48596663
37.497825
-0.2664602
37.233955
37.294503
-0.27085097
27.545074
0.24764599
-0.51703527
33.375425
-0.7457228
36.538998
-0.85968166
37.81709
-0.86127424
37.904571
-0.75065767
37.700876
-0.5547571
37.301924
-0.309232
36.98843
36.985271
-0.42325281
27.617514
0.35081292
-0.69807781
33.65025
-0.92864069
36.769561
-1.0367035
37.925153
-0.98734301
37.855211
-0.8402811
37.553814
-0.63000174
37.091645
-0.35440684
36.712835
36.630864
-0.3593115
27.679414
0.29741153
-0.72014381
34.011083
-1.0118118
37.061229
-1.1317794
38.045121
-1.1060927
37.829524
-0.95865089
37.406372
-0.71133171
36.844326
-0.39116
36.392663
36.239704
-0.55420858
27.852138
0.38148492
-0.94706763
34.403942
-1.2334533
37.347615
-1.3369127
38.14858
-1.2591365
37.751748
-1.0700112
37.217247
-0.79741162
36.571726
-0.45255155
36.047803
35.787153
-0.53445415
28.090972
0.2956195
-1.027705
34.897193
-1.3708338
37.690744
-1.4691803
38.246927
-1.3966774
37.679245
-1.1963736
37.016943
-0.88562724
36.26098
-0.49585509
35.658031
35.291298
0.67625316
34.615044
1.2256675
35.108617
1.7070191
35.779628
2.087902
36.63606
2.3340511
37.433096
2.345384
38.235594
2.0072958
38.028832
1.2925823
35.611906
28.853964
0.52959101
0.7303761
33.884668
1.3236892
34.515304
1.849234
35.254083
2.2627583
36.222536
2.541642
37.154212
2.6124459
38.16479
2.2490876
38.39219
1.4031166
36.457877
29.753238
0.50384239
0.78398277
33.100685
1.4096594
33.889627
1.9844966
34.679246
2.4543997
35.752633
2.7993429
36.809269
2.9648967
37.999236
2.7194807
38.637606
1.8857302
37.291628
31.039702
0.59926574
0.83676065
32.263925
1.500927
33.225461
2.1243798
34.055793
2.6202557
35.256757
3.0080357
36.421489
3.2349481
37.772324
3.0537611
38.818793
2.1661919
38.179197
32.5497
0.65619466
0.87812873
31.385796
1.5726549
32.530935
2.2473212
33.381127
2.8045065
34.699572
3.2609663
35.965029
3.58287
37.45042
3.5976987
38.803964
2.8647219
38.912174
34.584468
0.82995369
0.91797311
30.467823
1.6518704
31.797037
2.368673
32.664325
2.9491998
34.119045
3.4453673
35.468862
3.8505282
37.045259
3.9733909
38.681102
3.394683
39.490881
36.836892
1.1422584
0.9534018
29.514421
1.7015238
31.048915
2.4640713
31.901777
3.1135225
33.469593
3.6677297
34.914655
4.1597373
36.553251
4.5095109
38.331328
4.1609411
39.839451
38.916481
2.0813528
0.97973567
28.534686
1.7650308
30.26362
2.5602216
31.106586
3.2280712
32.801744
3.8189936
34.323732
4.3519837
36.020261
4.7621977
37.921114
4.7813368
39.820312
40.766465
2.9313526
1.0044818
27.530204
1.7946452
29.473457
2.6311841
30.270047
3.3809689
32.051959
4.0549278
33.649773
4.6361927
35.438997
5.3173126
37.239994
5.7661318
39.371493
41.742472
4.7901249
-0.40256571
27.932769
-1.1241857
30.195077
-1.9883769
31.134238
-3.148566
33.212148
-4.5618427
35.06305
-6.3135729
37.190727
-8.404355
39.330776
-11.082246
42.049384
43.782218
-13.121992
-0.35512402
28.287893
-1.0605155
30.900468
-1.8814481
31.955171
-3.0034364
34.334136
-4.4512088
36.510822
-6.2997379
39.039256
-8.5936524
41.624691
-11.17453
44.630261
44.255504
-11.647816
-0.33488971
28.622783
-0.98065537
31.546234
-1.7833556
32.757871
-2.9228945
35.473675
-4.419506
38.007434
-6.3695423
40.989292
-8.7716946
44.026843
-10.857515
46.716081
39.290087
-5.8920979
-0.29498028
28.917763
-0.90465485
32.155909
-1.663752
33.516968
-2.7549445
36.564868
-4.2858434
39.538333
-6.308688
43.012137
-8.7097609
46.427916
-10.508608
48.514928
30.133751
-1.3522714
-0.28606652
29.20383
-0.82922702
32.699069
-1.5643205
34.252062
-2.6431534
37.643701
-4.2018059
41.096985
-6.3489865
45.159318
-8.5494525
48.628382
-9.9562796
49.921755
21.301618
-1.1241468
-0.260389
29.464219
-0.75777649
33.196457
-1.4529711
34.947257
-2.4897768
38.680507
-4.0759651
42.683173
-6.2900279
47.37338
-8.4581641
50.796518
-9.2389035
50.702494
12.805729
-0.74301488
-0.26668403
29.730903
-0.69742299
33.627196
-1.3634058
35.613239
-2.3356852
39.652786
-3.931181
44.278669
-6.1465344
49.588734
-8.2894226
52.939406
-8.6826261
51.095698
4.8134987
-0.69039567
-0.26562447
29.996528
-0.63893918
34.00051
-1.2568236
36.231124
-2.1870482
40.583011
-3.798928
45.890549
-6.0365107
51.826317
-8.0598186
54.962714
-6.3951102
49.43099
-1.7060264
0.12441491
-0.28831928
30.284847
-0.59535944
34.307551
-1.1686215
36.804386
-2.0297816
41.444171
-3.6315418
47.492309
-5.8353652
54.03014
-7.4903507
56.6177
-4.1538311
46.09447
-7.0004297
1.1405722
1.7965858
-9.6216283
0.8246128
3.4466373
44.444418
2.3558239
57.708513
1.0303159
55.355648
0.12831314
48.394312
-0.13123979
41.703724
-0.20702913
36.880175
-0.043927895
34.144449
30.240919
1.6568999
-12.094085
0.81555654
3.224701
42.876617
2.153691
58.779523
0.8521579
56.657181
0.0047342673
49.241736
-0.17018312
41.878641
-0.20376928
36.913761
0.0084840995
33.932196
30.249403
1.3979571
-14.545865
1.0538234
3.0393596
41.235215
2.0414267
59.777456
0.74474601
57.953862
-0.096933859
50.083415
-0.21809452
41.999802
-0.1995567
36.895223
0.050388401
33.682251
30.299791
1.0599227
-16.968508
1.36272
2.8111169
39.484021
1.8453021
60.743271
0.5928807
59.206283
-0.17382409
50.85012
-0.22703644
42.053014
-0.17816147
36.846348
0.11233058
33.391759
30.412122
0.80330714
-19.34207
1.5702546
2.6312635
37.656064
1.7234811
61.651053
0.45949519
60.470269
-0.28454045
51.594156
-0.25799024
42.026464
-0.1422104
36.730569
0.17943225
33.070116
30.591554
0.56752608
-21.607573
1.6979775
2.4011215
35.822469
1.537005
62.51517
0.34068662
61.666587
-0.33042771
52.26527
-0.24201115
41.938047
-0.090321837
36.578879
0.26607915
32.713715
30.857633
0.3526389
-23.701334
1.7411215
2.2318193
33.943289
1.4087911
63.338198
0.19184982
62.883529
-0.43565034
52.89277
-0.25278003
41.755177
-0.011271815
36.337371
0.37219778
32.330246
31.229831
0.20778775
-25.772864
1.8637424
2.0166656
32.134411
1.2226429
64.132221
0.080611874
64.02556
-0.47082073
53.444203
-0.2136309
41.497987
0.067767334
36.055973
0.48713422
31.910879
31.716965
0.053713407
-27.237881
1.4113037
1.8132885
30.374836
1.0827624
64.862747
-0.061967524
65.17029
-0.55068737
53.932923
-0.19544676
41.142747
0.19838623
35.66214
0.63015853
31.479106
32.347124
-0.19787047
-28.318392
1.2783816
-4.2723346
34.4493
-7.163587
67.753999
-7.6169858
65.623688
-5.9179229
52.23386
-3.0440766
38.2689
-0.84390458
33.461968
1.1018953
29.533307
33.449019
0.085422964
-28.279188
-0.12462683
-5.0471891
39.581912
-8.0278336
70.734644
-8.0803839
65.676239
-5.5693528
49.722829
-2.1717099
34.871257
0.59772228
30.692536
2.2042181
27.926811
35.653237
-0.43073537
-25.150532
-2.6979211
-6.0914807
45.242657
-8.4119854
73.055148
-7.8459892
65.110243
-4.9954787
46.872318
-1.1541273
31.029906
1.487904
28.050504
2.6557986
26.758916
38.309036
-0.62490922
-20.4873
-4.0383225
-6.5898369
51.207585
-8.9534257
75.418737
-7.5706484
63.727465
-3.8485471
43.150217
0.22592161
26.955437
3.4866264
24.7898
4.0166874
26.228855
42.325723
-1.4974053
-14.476258
-4.5136368
-7.3955232
57.105703
-9.0179789
77.041193
-6.9729164
61.682403
-2.6690775
38.846378
1.7973952
22.488965
4.2952783
22.291916
3.8340636
26.69007
46.159787
-1.739964
-7.9172235
-4.8190707
-7.7667276
63.132466
-8.9893701
78.263836
-6.5808481
59.273881
-1.1405749
33.406105
4.1050005
17.243389
6.3195667
20.07735
5.0163608
27.993276
51.176148
-2.668721
-0.2780713
-4.9704312
-8.4248151
68.88856
-8.777638
78.616658
-5.3301953
55.826438
0.87751895
27.198391
5.6798234
12.441085
6.8064093
18.950764
3.9853115
30.814374
55.161459
-2.9629317
7.3068465
-4.6219861
-8.6482628
74.573892
-8.6742584
78.642654
-4.6334798
51.785659
1.960186
20.604725
6.610527
7.7907439
8.233677
17.327614
4.7681774
34.279873
59.929637
-4.1075429
-2.8929522
14.307342
-9.3779393
79.844288
-8.1452094
77.409924
-3.4637847
47.104234
2.1566475
14.984293
6.8254835
3.1219079
8.0661066
16.086991
3.1004477
39.245532
63.030085
-0.62594607
-1.7225988
0.32343206
2.0251129
-0.316198
-45.009863
44.700115
-0.0033714542
-71.641827
71.329001
3.0423824
-35.139885
32.094131
6.2249333
18.516941
-21.699492
8.3584715
39.045273
-41.178811
9.2633059
49.883861
-50.788696
9.1153719
50.12999
-49.982056
16.522239
-16.381301
-0.57560395
-1.4759056
0.32891088
-0.046408163
-45.539059
0.12424884
-71.812484
2.6909098
-37.706546
5.8081267
15.399724
7.7667743
37.086625
8.7145819
48.936054
8.7261086
50.118463
16.498575
-0.50738724
-1.2970614
0.32854317
0.21013592
-46.256582
0.28113297
-71.883481
2.4647644
-39.890178
5.4381224
12.426366
7.2744555
35.250292
8.3358634
47.874646
8.5557744
49.898552
16.236
-0.4499757
-1.1715485
0.32446291
0.40058283
-47.10714
0.43462616
-71.917525
2.3231413
-41.778693
5.110915
9.6385926
6.8959698
33.465237
8.1205883
46.650027
8.6220736
49.397067
15.644348
-0.37688959
-1.1171238
0.32246496
0.61486376
-48.098894
0.59191368
-71.894574
2.2493136
-43.436093
4.912759
6.9751473
6.7208729
31.657124
8.1364327
45.234468
8.9976919
48.535808
14.574099
-0.30770439
-1.1267474
0.31732806
0.86510003
-49.271698
0.81512148
-71.844596
2.2499366
-44.870908
4.8075686
4.4175153
6.6331001
29.831592
8.2332043
43.634363
9.5796375
47.189374
12.773137
-0.26678002
-1.1808661
0.32089883
1.1112823
-50.64976
1.1149191
-71.848233
2.3016565
-46.057645
4.7509663
1.9682054
6.6503552
27.932203
8.4767687
41.80795
10.444882
45.221262
10.057959
-0.23712057
-1.2681877
0.32444229
1.3624506
-52.249332
1.4549796
-71.940762
2.4041961
-47.006862
4.6966126
-0.32421118
6.7289399
25.899876
8.867688
39.669202
11.625735
42.463214
6.3226537
-0.20010078
0.34578862
-1.4138755
1.5960233
-54.045456
1.7520744
-72.096813
2.4993523
-47.75414
4.6772509
-2.5021098
6.8369765
23.74015
9.3247998
37.181379
13.055326
38.732688
1.4358819
1.0243515
12.853391
0.8216903
-14.699432
3.457041
31.302811
-33.735503
0.90505606
-1.2535368
3.8055245
-5.3505473
-65.45653
71.712133
-6.6835751
-77.359764
78.692792
-5.8356367
-69.02891
68.180971
-3.4709363
-55.666931
53.302231
-1.5237652
-44.577559
42.630388
-35.322667
33.798902
1.029239
11.571155
0.25299732
3.808334
28.523716
2.098934
0.45586367
-3.6803962
-59.6772
-5.8841687
-75.155991
-6.0655657
-68.847513
-4.2789836
-57.453513
-2.4659914
-46.390552
-37.788658
1.2597758
11.351717
-1.0403381
3.8932648
25.890227
2.4219904
1.9271384
-2.8611461
-54.394063
-5.2358342
-72.781303
-5.302276
-68.781071
-3.7541833
-59.001606
-1.9246023
-48.220132
-39.71326
1.643261
11.001875
-1.293419
4.399801
23.133687
3.3093599
3.0175798
-1.5415504
-49.543153
-4.4919664
-69.830887
-5.3562086
-67.916829
-4.2069371
-60.150878
-1.9269241
-50.500145
-41.640184
1.7196534
9.5266127
-0.24439121
4.274374
20.578966
3.663969
3.6279851
-0.57458208
-45.304602
-3.55273
-66.852739
-4.3470843
-67.122474
-3.7428742
-60.755088
-1.6593446
-52.583675
-43.299529
1.667631
7.4334944
0.42548753
4.3852945
17.861303
4.2540202
3.7592594
0.63783476
-41.688416
-2.7516442
-63.46326
-4.2292971
-65.644821
-4.0566919
-60.927693
-2.2382307
-54.402136
-45.53776
1.4744672
5.4269796
0.53204819
4.2638867
15.071883
4.5969883
3.426158
1.5384909
-38.629919
-1.5103805
-60.414389
-3.0409374
-64.114264
-3.2066741
-60.761956
-1.9549194
-55.653891
-47.492679
1.2571381
3.4644366
0.70540526
4.1423336
12.186688
4.9560343
2.6124575
2.6399906
-36.313875
-0.553981
-57.220417
-2.5578391
-62.110406
-2.9931782
-60.326617
-1.9435415
-56.703528
-49.43622
0.78753662
1.9081054
0.76879493
3.7915367
9.1826881
5.2931419
1.1108525
3.5532102
-34.573944
0.71981876
-54.387026
-1.2312775
-60.15931
-2.1287728
-59.429122
-1.6903353
-57.141965
-51.126556
-0.48565883
49.673573
-49.187914
-1.4700174
50.665715
-49.681356
-2.5566112
50.442471
-49.355878
-3.8085272
48.965976
-47.71406
-4.7899497
45.448043
-44.46662
-4.9393662
37.676988
-37.527572
-2.1528993
20.570085
-23.356552
0.39485777
6.0761061
-8.6238632
-2.8362331
2.6354801
0.59561083
-0.40314512
50.076718
-1.3680798
51.630649
-2.481085
51.555477
-3.7477261
50.232617
-4.7732318
46.473548
-4.789973
37.69373
-1.6429931
17.423105
0.70628337
3.7268298
-2.7169705
0.5870208
-0.34397987
50.420698
-1.2697232
52.556393
-2.3807807
52.666534
-3.7183514
51.570188
-4.7673127
47.52251
-4.6126775
37.539095
-1.4093105
14.219738
0.76624337
1.551276
-2.5107205
0.55999321
-0.26620936
50.686908
-1.1675112
53.457695
-2.3010081
53.800031
-3.6388885
52.908068
-4.7113939
48.595015
-4.4428965
37.270597
-1.4587398
11.235582
0.59964587
-0.50710951
-2.424938
0.5138635
-0.20960909
50.896517
-1.0511927
54.299278
-2.1783369
54.927175
-3.5861097
54.315841
-4.6869166
49.695822
-4.2962692
36.87995
-1.5226572
8.4619701
0.41806166
-2.4478282
-2.4432568
0.43638013
-0.13464374
51.03116
-0.94707361
55.111708
-2.0871139
56.067216
-3.490677
55.719404
-4.6121613
50.817306
-4.1615155
36.429304
-1.5647229
5.8651778
0.28381269
-4.2963638
-2.5107019
0.35125801
-0.085260913
51.116421
-0.82125409
55.847701
-1.943613
57.189575
-3.415992
57.191783
-4.5845219
51.985836
-4.0335075
35.878289
-1.5838569
3.4155275
0.15132453
-6.0315451
-2.3321977
-0.027179287
-0.024070954
51.140492
-0.71478318
56.538414
-1.8441289
58.31892
-3.2992497
58.646904
-4.4854323
53.172019
-3.8920559
35.284913
-1.5811747
1.1046466
0.059745851
-7.6724655
-2.2347141
-0.037737289
0.013936545
-0.58961489
-1.6998161
-3.2122221
-4.4272287
-3.7162593
-1.5007602
0.0094624434
-0.31714628
0.29562317
1.2073318
1.1325252
4.873354
-13.201594
8.0820937
-26.565292
7.6244767
-37.069955
6.200275
-43.042418
4.4144036
-45.928188
2.7256978
-47.667172
1.1220611
-48.077719
-48.065853
1.4156069
-1.5614481
1.353173
6.3751109
-18.161098
8.2786673
-28.468848
7.5946628
-36.38595
6.1614466
-41.609202
4.4226509
-44.189393
2.7886029
-46.033124
1.2075875
-46.496704
-46.858266
3.1267542
-5.9328778
1.2446755
7.2118041
-22.246148
8.267586
-29.52463
7.491857
-35.610221
6.1276962
-40.245041
4.4878516
-42.549548
2.8428925
-44.388165
1.2600913
-44.913903
-45.598174
5.607101
-11.491923
-0.048055294
7.8394962
-24.478543
8.2593413
-29.944475
7.4362588
-34.787139
6.0826881
-38.891471
4.4686008
-40.935461
2.8735631
-42.793127
1.3321457
-43.372485
-44.266029
6.7873133
-18.168955
-0.11028183
8.0932407
-25.78447
8.1407638
-29.991998
7.3154681
-33.961843
6.0341346
-37.610137
4.5179206
-39.419247
2.9208487
-41.196055
1.3833419
-41.834978
-42.882687
7.5989893
-25.676791
-0.091153163
8.2690921
-26.454573
8.0682516
-29.791158
7.2583754
-33.151967
5.9826632
-36.334425
4.4755678
-37.912152
2.9261982
-39.646685
1.4208333
-40.329613
-41.461854
8.2875368
-30.236682
-3.727646
8.3747408
-26.541777
7.9816604
-29.398077
7.1318537
-32.30216
5.9182261
-35.120797
4.505221
-36.499146
2.9658498
-38.107314
1.4256418
-38.789405
-40.036212
8.7733069
-30.126924
-8.8830646
8.4026222
-26.171093
7.9427724
-28.938227
7.0608115
-31.420199
5.8558445
-33.91583
4.4419197
-35.085222
2.9495877
-36.614982
1.4640828
-37.303901
-38.572129
8.8470132
-28.540027
-10.43391
8.2988012
-25.622881
7.8321765
-28.471603
6.9278746
-30.515897
5.7835732
-32.771529
4.4533211
-33.75497
2.9692225
-35.130884
1.4760066
-35.810685
-37.096122
0.0027792672
38.509385
-38.512164
0.086414627
37.009096
-37.092732
0.19067288
36.260958
-36.365217
0.3291045
35.012951
-35.151382
0.46632612
33.915885
-34.053107
0.64332885
32.155243
-32.332246
0.7536474
30.897547
-31.007866
0.66469135
28.393263
-28.304307
24.900846
-24.57931
0.3431553
0.026061616
38.483323
0.096333683
36.938824
0.16807516
36.189217
0.29260731
34.888419
0.43227207
33.776221
0.63744287
31.950072
0.79469269
30.740297
0.75797682
28.429979
25.171739
0.48708342
0.065877287
38.417446
0.17942211
36.825279
0.30249769
36.066141
0.45180569
34.739111
0.60143744
33.626589
0.81124283
31.740267
1.0082026
30.543338
0.98412338
28.454058
25.800677
0.35518523
0.099515004
38.317931
0.20037862
36.724416
0.2921578
35.974362
0.42562477
34.605644
0.57676736
33.475446
0.81711516
31.499919
1.0817572
30.278696
1.1757714
28.360044
26.421397
0.55505185
0.14741914
38.170512
0.29221803
36.579617
0.44307724
35.823503
0.60335729
34.445364
0.75617283
33.322631
0.98376339
31.272328
1.2916782
29.970781
1.4469004
28.204821
27.356453
0.51184468
0.18869327
37.981818
0.32902092
36.439289
0.45000827
35.702516
0.59759537
34.297777
0.74419191
33.176034
0.98641635
31.030104
1.3469015
29.610296
1.7199023
27.83182
28.137468
0.93888727
0.24227322
37.739545
0.43605375
36.245509
0.62102217
35.517547
0.79015285
34.128646
0.93040041
33.035787
1.1361205
30.824384
1.5032833
29.243133
2.017156
27.317948
28.889189
1.2654344
0.2917053
37.44784
0.47041332
36.066801
0.62975139
35.358209
0.80192359
33.956474
0.93908951
32.898621
1.1317585
30.631715
1.5241162
28.850775
2.2916489
26.550415
28.964161
2.2166772
0.35171744
0.60783333
0.83515899
1.036663
1.1637547
1.279572
1.6587447
2.586279
3.010413
-0.21039439
-24.651701
0.28278589
-0.14088358
-28.373817
-0.039839705
-31.10891
0.12376365
-32.495849
0.2063832
-34.135726
0.25231601
-35.197315
0.21042503
-36.323326
0.15626552
-37.038572
-38.355898
-0.21532957
-24.679187
0.2428153
-0.16187688
-28.42727
-0.077553845
-31.193233
0.066807953
-32.640211
0.14066139
-34.20958
0.20142017