/*--------------------------------*- C++ -*----------------------------------*\
  =========                 |
  \\      /  F ield         | OpenFOAM: The Open Source CFD Toolbox
   \\    /   O peration     | Website:  https://openfoam.org
    \\  /    A nd           | Version:  11
     \\/     M anipulation  |
\*---------------------------------------------------------------------------*/
FoamFile
{
    format      ascii;
    class       volVectorField;
    location    "9.075";
    object      U;
}
// * * * * * * * * * * * * * * * * * * * * * * * * * * * * * * * * * * * * * //

dimensions      [0 1 -1 0 0 0 0];

internalField   nonuniform List<vector> 
4455
(
(99.995066 0.48417758 0)
(99.957747 1.3630167 -1.8050218e-18)
(99.681099 2.3614161 6.2036453e-18)
(99.46081 3.13918 2.6914871e-20)
(98.964863 3.9677396 5.8214745e-18)
(98.520342 4.6526933 -2.2070447e-17)
(97.620188 5.4711343 9.8428172e-18)
(96.634419 6.1276085 0)
(94.953501 7.8453692 -6.0168458e-17)
(100.01829 0.54858804 -1.1562942e-17)
(100.01331 1.4493899 1.1306327e-17)
(99.71172 2.5175821 -1.3960376e-17)
(99.533697 3.3355978 2.3362438e-17)
(99.040958 4.2188629 -4.4987525e-17)
(98.538736 4.8394819 4.9207161e-17)
(97.6133 5.6316999 -4.7282709e-18)
(96.553992 6.2378699 6.8926923e-18)
(94.75256 7.5920743 2.6087989e-16)
(100.09008 0.55620514 -1.1853517e-17)
(100.01882 1.5512142 1.5100814e-17)
(99.775263 2.6341817 1.3679015e-17)
(99.548212 3.5338321 -1.3647884e-17)
(99.103459 4.4446832 5.9594991e-17)
(98.636583 5.1387679 -3.3851573e-17)
(97.665055 5.9710373 4.34029e-18)
(96.526248 6.4793996 -9.6817077e-17)
(94.686381 7.8491356 -1.8483396e-16)
(100.1471 0.57661362 2.7948143e-19)
(100.04719 1.6184311 -1.9340682e-18)
(99.818784 2.7425069 3.1905295e-17)
(99.605769 3.6837765 4.4051254e-18)
(99.213462 4.7071267 -2.7425395e-19)
(98.76545 5.4026689 -6.4299159e-18)
(97.761197 6.4334083 7.1594026e-17)
(96.50803 6.9137617 1.9335386e-16)
(94.569707 8.533825 1.5351476e-16)
(100.18733 0.58394259 2.2931841e-17)
(100.08171 1.6546411 -2.5810706e-17)
(99.876765 2.8258677 3.2524664e-17)
(99.689899 3.8285285 3.7722587e-20)
(99.32689 4.9184099 -4.0446907e-17)
(98.867043 5.5902085 -1.241926e-17)
(97.943164 6.7514127 -5.6455381e-17)
(96.462199 7.181226 -9.0706394e-17)
(94.38445 8.9739364 -4.5249504e-16)
(100.21541 0.57924681 0)
(100.12719 1.671527 0)
(99.917861 2.879263 -5.7083831e-17)
(99.790505 3.9275718 -6.5455641e-17)
(99.484787 5.1313267 0)
(99.029266 5.9085661 -8.8859229e-17)
(98.044454 7.149928 -7.5843991e-18)
(96.50403 7.6214271 -5.4419819e-18)
(94.161406 9.5407243 5.5748115e-16)
(100.2437 0.57259163 0)
(100.15561 1.6475659 -1.5234579e-18)
(99.992786 2.9209435 1.7147221e-18)
(99.873482 3.9970756 6.397638e-17)
(99.631486 5.2394134 -4.7280785e-18)
(99.201011 6.0245372 1.886478e-16)
(98.295868 7.4499583 0)
(96.503785 7.9686714 0)
(93.955343 10.10344 2.5381401e-16)
(100.26395 0.54631856 4.1728738e-17)
(100.18539 1.6201038 0)
(100.05341 2.9313864 0)
(100.03346 4.0887549 0)
(99.801377 5.4329681 0)
(99.357992 6.3013811 -9.3861636e-17)
(98.426258 7.753372 -1.0056682e-16)
(96.634269 8.4045571 1.4631969e-16)
(93.800691 10.762474 -4.2058512e-19)
(100.27664 0.52436792 -4.1088794e-17)
(100.22031 1.5428112 -1.4421843e-18)
(100.10061 2.8822274 -1.6518954e-18)
(100.11088 4.0378102 3.7170142e-18)
(99.998063 5.4411102 1.4392116e-16)
(99.583309 6.3616528 1.6317946e-16)
(98.706252 8.0315153 3.1896891e-16)
(96.688481 8.7920552 -1.4362158e-16)
(93.73896 11.370705 -4.3620632e-16)
(100.28401 0.48792797 0)
(100.28398 0.45474052 7.4633671e-17)
(100.2764 0.40472168 -7.4039342e-17)
(100.25381 0.35663482 7.0134216e-17)
(100.23824 0.30559759 -6.8560056e-17)
(100.20077 0.24457022 1.3582413e-16)
(100.16316 0.19654051 -1.3185644e-16)
(100.13097 0.12542779 0)
(100.04623 0.058213564 0)
(100.25089 1.502171 0)
(100.28328 1.4095353 1.3031397e-18)
(100.31442 1.335501 0)
(100.34213 1.2065645 3.6779349e-18)
(100.35407 1.1054285 7.4390979e-17)
(100.38907 0.96262896 -2.2150604e-16)
(100.37763 0.81917412 1.4316509e-16)
(100.4118 0.71520156 -2.172207e-18)
(100.34115 0.44905086 1.3660705e-16)
(100.19139 2.8707471 9.6093614e-17)
(100.25805 2.8297304 -1.8869076e-16)
(100.34401 2.7411236 1.7889734e-16)
(100.42083 2.6474505 -6.1337811e-18)
(100.47062 2.4866004 -8.3590544e-17)
(100.5813 2.3818395 -2.5238632e-18)
(100.58553 2.1594109 0)
(100.74972 2.028243 4.7055124e-18)
(100.71147 1.6327906 -2.275089e-18)
(100.25258 4.0851548 1.0081468e-16)
(100.40969 4.1034077 -2.0416194e-16)
(100.51778 4.0414244 1.9279674e-16)
(100.72041 4.0088125 -9.310881e-17)
(100.78305 3.8491932 -5.7778052e-18)
(101.00938 3.7709313 2.7582791e-18)
(101.03853 3.5544225 0)
(101.28842 3.4238941 -2.565873e-18)
(101.25354 3.0086973 1.5359844e-16)
(100.14383 5.5644671 -1.1560805e-16)
(100.42964 5.696981 0)
(100.57165 5.711439 -1.0443891e-16)
(100.86447 5.7851065 1.0769836e-16)
(101.00719 5.7057808 -9.5811759e-17)
(101.30855 5.7255152 9.9016816e-17)
(101.44221 5.5827905 0)
(101.80601 5.5557625 0)
(101.8618 5.2438916 5.450797e-18)
(99.754123 6.5489427 -1.4235234e-16)
(100.08849 6.8226351 -1.3393646e-16)
(100.29117 6.8948589 1.2874824e-16)
(100.6471 7.1061619 1.2141425e-16)
(100.86144 7.0773271 -1.1704392e-16)
(101.22816 7.2148871 0)
(101.43806 7.0813168 2.1163813e-16)
(101.83544 7.169289 -2.0422456e-18)
(101.98969 6.8709721 -3.9048705e-16)
(98.882786 8.2517192 -1.6859167e-16)
(99.230297 8.8325711 0)
(99.517155 8.9672835 0)
(99.92237 9.4643285 4.492868e-18)
(100.29293 9.4921249 0)
(100.74324 9.9442821 0)
(101.15716 9.8639357 0)
(101.66693 10.283955 0)
(102.02546 10.043776 0)
(96.905967 9.2277543 6.6536449e-18)
(97.17223 10.190173 0)
(97.619265 10.514543 5.7898121e-18)
(98.060472 11.244396 -1.0607816e-17)
(98.578499 11.345072 -1.5795615e-16)
(99.066012 11.873394 -1.4673009e-16)
(99.58853 11.859943 2.8477502e-16)
(100.10519 12.244071 2.6961935e-16)
(100.66105 12.190202 -2.5520264e-16)
(93.757485 12.18906 8.0273895e-16)
(94.501408 13.382498 -5.0313373e-16)
(95.705022 14.461505 4.3856913e-16)
(96.735983 16.122944 -4.2419827e-16)
(97.684602 16.490089 -5.7526022e-16)
(98.50243 17.63522 1.0625835e-15)
(99.422789 17.768696 -6.66867e-16)
(100.38981 18.813077 -3.0686058e-16)
(101.22913 18.730921 2.8873426e-16)
(100.08861 0.1019235 -1.7978033e-19)
(100.14219 0.136462 1.8395886e-16)
(100.23197 0.18319409 -2.7509497e-19)
(100.35381 0.23837905 -1.8509835e-16)
(100.50148 0.29505138 1.8023441e-19)
(100.6779 0.35301747 1.8513802e-16)
(100.88188 0.4133745 -1.8603714e-16)
(101.11524 0.47501879 -1.800475e-19)
(101.40096 0.55525084 -9.2664889e-17)
(100.40522 0.58162279 -1.9598201e-16)
(100.58245 0.62159001 1.9689813e-16)
(100.68832 0.79009605 -1.9710359e-16)
(100.97779 0.90577328 0)
(101.14513 0.98659315 1.9694477e-16)
(101.4685 1.1925361 -5.9758245e-19)
(101.73378 1.1721496 -4.9244767e-19)
(102.05029 1.4267893 -1.9656605e-16)
(102.38987 1.3410943 9.7943181e-17)
(100.96512 1.7493251 2.0883273e-16)
(101.09454 2.0741683 -2.096045e-16)
(101.40147 2.1370523 -2.0970597e-16)
(101.54029 2.4682607 2.1021225e-16)
(101.87752 2.5019251 -2.103789e-16)
(102.06596 2.8502166 2.0966284e-16)
(102.45296 2.8600576 -2.0987425e-16)
(102.68379 3.2287075 9.2876322e-19)
(103.11284 3.2045441 2.0912227e-16)
(101.55579 3.1404277 -2.2455622e-16)
(101.7058 3.5185816 -8.779973e-19)
(102.05574 3.5898012 8.7987597e-19)
(102.21877 3.9689627 0)
(102.59714 4.0123837 -1.6640063e-22)
(102.79366 4.3972984 -2.2286893e-16)
(103.20556 4.4180136 2.2654125e-16)
(103.44433 4.8238903 8.7232548e-19)
(103.89559 4.8047119 8.6957264e-19)
(102.23609 5.4266798 -9.4709349e-19)
(102.40224 5.8416036 -2.4205596e-16)
(102.75481 5.9367018 4.2005865e-19)
(102.89756 6.3125 2.4312566e-16)
(103.26548 6.3756224 2.4230216e-16)
(103.43486 6.7566748 -2.4353158e-16)
(103.83916 6.7967156 -9.4286767e-19)
(104.05698 7.2064408 -9.405103e-19)
(104.50603 7.2074673 -9.3813459e-19)
(102.37323 7.0573351 2.6626623e-16)
(102.53627 7.5168323 0)
(102.90399 7.6216604 0)
(103.0519 8.0361841 2.6229591e-16)
(103.44469 8.1051066 -2.658097e-16)
(103.62068 8.5118793 -2.6305097e-16)
(104.05349 8.5671173 5.2465466e-16)
(104.26057 8.9518504 -2.4348834e-18)
(104.74307 8.992487 -5.208648e-16)
(102.5161 10.406105 -1.1471574e-18)
(102.72413 10.788045 0)
(103.11246 10.997609 1.1349406e-18)
(103.29153 11.26333 2.891916e-16)
(103.68352 11.410036 -2.9091027e-16)
(103.92208 11.622269 2.8724002e-16)
(104.34094 11.7482 -2.8785452e-16)
(104.62558 11.940295 -1.102124e-18)
(105.06861 12.040422 2.8231395e-16)
(101.19861 12.460454 -3.214818e-16)
(101.6578 12.772054 3.2568346e-16)
(102.27891 13.081652 -3.2002469e-16)
(102.77733 13.317343 3.1842342e-16)
(103.39763 13.567637 -3.1012486e-16)
(103.8667 13.636404 3.2582982e-18)
(104.43521 13.786073 3.1112388e-16)
(104.90411 13.805532 2.38009e-18)
(105.42608 13.774729 1.50803e-16)
(102.11009 19.629946 0)
(102.59528 19.729272 -3.4307607e-16)
(103.3224 20.262772 6.3471968e-18)
(103.80038 20.06833 7.5859193e-18)
(104.65883 20.357407 6.6617893e-16)
(105.08637 19.827662 -3.3134839e-16)
(106.11674 19.674385 -3.2207969e-16)
(106.74895 18.436214 3.2345125e-16)
(107.65131 17.678649 1.5907722e-16)
(108.24714 15.839152 -1.8566325e-16)
(108.36712 14.579997 0)
(108.75687 13.50608 1.8122481e-16)
(108.33825 12.587767 -1.8122725e-16)
(108.13745 11.873242 0)
(107.15294 11.075696 0)
(106.65782 10.375244 0)
(105.45128 9.6314117 -1.9087577e-16)
(104.80881 9.2206106 1.9087739e-16)
(105.86584 13.711057 -1.7176604e-16)
(106.20678 13.610338 0)
(106.49827 13.544681 0)
(106.76341 13.336928 0)
(106.92342 13.190098 0)
(107.01455 12.932933 0)
(106.97358 12.781273 0)
(106.90515 12.651258 1.6205918e-16)
(106.67084 12.532815 -3.2407629e-16)
(105.3566 12.194102 -3.170316e-18)
(105.73746 12.324544 -3.0726895e-16)
(106.0087 12.464477 0)
(106.36034 12.531608 -1.4896949e-16)
(106.6047 12.63306 1.4896086e-16)
(106.8621 12.660277 0)
(107.07466 12.716924 0)
(107.19269 12.737875 0)
(107.38175 12.789081 0)
(104.96269 9.341643 2.7893604e-16)
(105.4448 9.4517485 0)
(105.67155 9.7665201 1.3535248e-16)
(106.16416 9.8694408 -2.6930026e-16)
(106.38383 10.168125 1.3394869e-16)
(106.85026 10.249459 0)
(107.03855 10.536628 0)
(107.47914 10.612015 0)
(107.64363 10.911229 1.2718942e-16)
(104.74154 7.6314894 0)
(105.21956 7.6736266 2.4788939e-16)
(105.47643 8.0863912 -3.7062858e-16)
(105.97542 8.108487 1.2273925e-16)
(106.23994 8.5077425 1.2022883e-16)
(106.74742 8.5090179 -1.2937689e-18)
(107.0084 8.9002169 -2.3655095e-16)
(107.52114 8.8936586 2.3388552e-16)
(107.78126 9.2923985 -1.1626259e-16)
(104.16166 5.2301612 0)
(104.644 5.2197143 1.1359924e-16)
(104.94455 5.6601084 -1.1359923e-16)
(105.45232 5.6233881 0)
(105.78284 6.0667241 -2.2054406e-16)
(106.31595 6.0046509 2.2054801e-16)
(106.66589 6.4489501 1.0780443e-16)
(107.22134 6.3659179 -2.1429817e-16)
(107.59382 6.8160348 1.0649259e-16)
(103.37638 3.6028167 0)
(103.86003 3.5756651 0)
(104.16034 4.0005202 0)
(104.66847 3.9490748 -1.0324205e-16)
(104.99627 4.3785709 2.0548944e-16)
(105.53241 4.3075724 -2.0344743e-16)
(105.89366 4.7544635 1.0120123e-16)
(106.46525 4.6639768 -9.8938997e-17)
(106.86275 5.1307631 1.9665238e-16)
(102.78437 1.6118868 -1.9794844e-16)
(103.12941 1.5470493 7.7694286e-19)
(103.62594 1.8140197 9.7827634e-17)
(103.99523 1.747477 -9.6110876e-17)
(104.5257 2.0237911 9.6110865e-17)
(104.94686 1.905455 0)
(105.51235 2.2064091 9.3116031e-17)
(105.97018 2.0543921 -1.8512283e-16)
(106.57854 2.3648115 9.2004546e-17)
(101.58312 0.62598449 5.7595588e-19)
(101.91221 0.70379323 9.3371131e-17)
(102.34463 0.86772701 9.2086957e-17)
(102.66276 0.91249354 -9.2086966e-17)
(103.13372 1.038938 0)
(103.47829 1.0790673 0)
(104.02198 1.1979945 -8.9022424e-17)
(104.44563 1.2387254 1.7709827e-16)
(105.0573 1.3744262 -8.8075818e-17)
(105.53843 1.4127943 0)
(106.20431 1.5345953 -8.4815607e-17)
(106.75088 1.580435 1.2321793e-18)
(107.46093 1.7025366 1.3094555e-18)
(108.0767 1.7342193 1.390125e-18)
(108.84659 1.8529099 8.0883843e-17)
(109.50753 1.8996 7.7856723e-17)
(110.33411 2.0081088 -7.7856727e-17)
(111.08024 2.037095 0)
(107.08338 2.1902896 0)
(107.71334 2.5432863 0)
(108.27942 2.3252677 -8.6912295e-17)
(108.93914 2.7086009 1.432495e-18)
(109.53887 2.4717016 1.5024929e-18)
(110.22954 2.878379 8.3974291e-17)
(110.9073 2.6083045 8.0757217e-17)
(111.57035 3.0732807 -8.0756883e-17)
(112.35554 2.755181 0)
(107.47329 5.0188974 -9.7716991e-17)
(107.90433 5.5056489 0)
(108.55132 5.3766867 0)
(109.01054 5.8839447 -9.2213562e-17)
(109.69428 5.7407655 1.8289173e-16)
(110.18188 6.2724189 -1.6023841e-18)
(110.90753 6.1180634 -1.6762192e-18)
(111.4282 6.6820394 -8.7397355e-17)
(112.20426 6.5164129 0)
(108.17363 6.7185827 -1.03726e-16)
(108.56462 7.1787265 1.0372359e-16)
(109.16966 7.0716859 0)
(109.57266 7.5463782 0)
(110.21164 7.4396421 9.7597526e-17)
(110.62389 7.940883 -9.7594238e-17)
(111.30384 7.8432997 9.4207421e-17)
(111.72694 8.3868272 -4.7996439e-17)
(112.45877 8.304053 -4.62068e-17)
(108.3047 9.2908979 -1.1348263e-16)
(108.56005 9.711957 1.134789e-16)
(109.10032 9.725992 0)
(109.34448 10.17626 0)
(109.90418 10.21457 0)
(110.13365 10.707833 0)
(110.72231 10.783762 0)
(110.96352 11.349368 0)
(111.54471 11.448519 0)
(108.06708 11.002431 -1.2719143e-16)
(108.20004 11.328068 1.2455164e-16)
(108.61723 11.438887 -1.2456002e-16)
(108.72224 11.80119 1.2194185e-16)
(109.15579 11.959691 -1.2193332e-16)
(109.21035 12.385679 0)
(109.66502 12.620081 0)
(109.6799 13.135879 0)
(110.19049 13.451447 0)
(107.41268 12.863735 0)
(107.52537 12.98153 -1.4117972e-16)
(107.47443 13.109444 1.4120703e-16)
(107.52732 13.346437 0)
(107.44226 13.52307 1.3924913e-16)
(107.37755 13.91921 -1.392491e-16)
(107.36126 14.206937 0)
(107.15832 14.749579 6.877048e-17)
(107.2168 15.169567 -1.3723999e-16)
(106.47449 12.558188 1.6206786e-16)
(106.06057 12.541617 1.6256658e-16)
(105.81003 12.66779 -1.6256646e-16)
(105.24717 12.825193 1.6368642e-16)
(104.94025 13.065698 -3.2820301e-16)
(104.22504 13.412622 3.2986168e-16)
(103.87848 13.781282 -3.3175234e-16)
(103.02518 14.338362 1.6636745e-16)
(102.67433 14.872773 0)
(103.49589 8.6387672 -1.9681866e-16)
(102.69906 8.6897398 1.9678635e-16)
(101.35597 8.120368 0)
(100.47601 8.4636012 0)
(99.047869 8.0150602 0)
(98.1885 8.5083384 0)
(96.579544 8.2719519 0)
(95.681507 9.0888913 -1.1015546e-16)
(93.896138 9.0167707 1.1015364e-16)
(93.033937 10.187442 1.1390398e-16)
(101.70049 15.676623 0)
(106.95249 15.914194 6.846812e-17)
(110.17663 14.097646 0)
(111.91795 12.104878 0)
(112.90637 8.9062207 0)
(112.76683 7.1217425 4.0939877e-17)
(113.02721 3.2794248 3.7676364e-17)
(111.93831 2.1603917 3.6317383e-17)
(90.96936 10.419697 -1.1390137e-16)
(101.37228 16.396902 0)
(107.0595 16.456122 0)
(110.77181 14.483725 5.6027052e-17)
(112.41602 12.274332 0)
(113.67633 8.856872 -4.3283429e-17)
(113.59557 6.9398525 -8.0869373e-17)
(113.84854 2.9538129 -7.4362719e-17)
(112.75982 2.1852085 -7.1668198e-17)
(90.204247 11.949737 0)
(100.30255 17.502547 0)
(106.78785 17.452875 6.7315372e-17)
(110.76629 15.297395 -5.6044676e-17)
(112.95433 12.987219 0)
(114.23157 9.4581548 4.3283422e-17)
(114.2242 7.5923614 3.993256e-17)
(114.58574 3.5155823 3.6692792e-17)
(113.67147 2.3000181 3.5350804e-17)
(87.912109 12.65576 1.1979365e-16)
(100.03039 18.417973 0)
(107.02284 18.143199 -1.3409907e-16)
(111.45415 15.742883 0)
(113.49117 13.216392 0)
(114.98088 9.5511065 -4.1069498e-17)
(115.05747 7.3984798 -3.7763502e-17)
(115.44263 3.1999178 0)
(114.56466 2.3367817 -3.3262599e-17)
(87.088565 14.816231 -1.1980355e-16)
(98.920755 19.896738 -8.6523287e-17)
(106.73014 19.40554 6.6784718e-17)
(111.50144 16.745508 0)
(114.09913 14.045645 0)
(115.69049 10.096754 4.1069487e-17)
(115.84147 8.0463196 3.7763335e-17)
(116.24066 3.7179898 0)
(115.53065 2.4316036 3.3262594e-17)
(84.758845 16.090033 0)
(98.776887 21.041595 8.6519248e-17)
(107.15424 20.243272 -6.5364298e-17)
(112.35464 17.263816 0)
(114.73453 14.288877 0)
(116.49839 10.280187 -3.8592839e-17)
(116.67341 7.9245728 -3.5375527e-17)
(117.14147 3.5496201 0)
(116.48906 2.4604848 -3.0963939e-17)
(84.024878 19.141962 0)
(97.680842 22.963455 0)
(106.91813 21.831305 6.5364225e-17)
(112.41944 18.464517 -2.5394601e-17)
(115.4959 15.228668 -2.1407807e-17)
(117.25622 10.838571 5.7208943e-17)
(117.51614 8.4875577 5.2415691e-17)
(118.00217 3.9368597 0)
(117.5122 2.5589944 4.5831951e-17)
(81.731612 21.329163 0)
(97.785199 24.351448 -4.3081452e-17)
(107.54393 22.77449 0)
(113.51282 19.002284 2.5377373e-17)
(116.20262 15.504418 2.1409774e-17)
(118.26457 11.046585 -7.1796928e-19)
(118.53106 8.4326639 -3.3404687e-17)
(118.96095 3.8570141 0)
(118.52927 2.5862318 -1.4868015e-17)
(81.427054 25.501836 -6.2742488e-17)
(96.810611 26.928635 4.307046e-17)
(107.53165 24.856222 0)
(113.7527 20.605807 0)
(117.15823 16.515399 0)
(119.04038 11.611247 -3.5030809e-17)
(119.34828 8.8916709 7.1479667e-19)
(119.86465 4.197644 0)
(119.57222 2.6515842 0)
(120.95174 2.6462211 0)
(120.87469 4.1740669 0)
(120.48709 8.9670046 -1.8952782e-19)
(120.19261 11.905403 1.7960436e-17)
(118.02787 16.807419 0)
(115.00986 20.827613 -3.0869204e-18)
(108.42959 25.643858 -6.7688252e-19)
(97.566874 28.327769 -3.509843e-17)
(79.879991 28.611011 1.162304e-16)
(122.04988 2.5987784 -6.1674933e-18)
(121.84137 4.2547906 -8.3973314e-19)
(121.5158 9.0364482 7.8777177e-18)
(121.16932 12.05277 -3.5697234e-20)
(119.28558 17.480145 -7.8243866e-18)
(115.83224 22.347845 1.0755352e-17)
(109.28667 27.751973 -4.0255853e-18)
(97.688259 31.443289 4.4960441e-17)
(81.214374 33.869298 -5.8792659e-17)
(123.17486 2.5442062 1.207922e-17)
(122.89268 4.2440837 0)
(122.64474 9.106242 1.3916564e-17)
(122.43002 12.337349 -7.3544279e-18)
(120.41229 17.654267 7.9173312e-18)
(117.44342 22.340077 -1.9940029e-17)
(110.81205 28.324571 -1.7360129e-17)
(100.08623 32.38825 9.8962356e-18)
(83.544485 35.811607 1.8378522e-18)
(124.37034 2.4847293 -5.9155269e-18)
(123.93186 4.2212074 -7.6069153e-19)
(123.79569 9.1551979 -6.0093021e-18)
(123.56504 12.394425 8.3842748e-18)
(121.92073 18.316508 3.0021489e-18)
(118.7322 23.972971 1.0448308e-17)
(112.50892 30.523077 1.3701509e-17)
(101.00349 35.495506 5.3393973e-18)
(85.561764 40.182464 -6.115676e-18)
(125.56179 2.4124483 1.2882226e-18)
(125.05845 4.18021 -1.3714038e-18)
(125.09394 9.0931961 -7.7866283e-19)
(125.01894 12.598936 2.4682297e-18)
(123.33182 18.235786 -3.0489835e-18)
(120.60998 23.624497 -3.4018526e-18)
(114.34693 30.825999 -3.5719634e-18)
(103.90271 36.087104 4.0326059e-18)
(87.852852 41.527594 -7.6505888e-18)
(126.72799 2.3188558 -1.3025087e-18)
(126.11934 4.1123662 1.3878895e-18)
(126.22038 9.0017235 -7.2582835e-19)
(126.23099 12.536507 -4.8392938e-20)
(125.0476 18.764425 -8.8571708e-19)
(122.29149 25.202518 2.3073771e-18)
(116.43412 32.959999 -3.3722529e-18)
(105.17934 39.193004 3.8164644e-18)
(89.520593 45.487377 0)
(127.8665 2.1989719 -1.1021075e-18)
(127.29511 4.0157207 -6.2065959e-19)
(127.60367 8.8242561 -6.0773981e-19)
(127.77556 12.547444 -7.4116244e-19)
(126.52259 18.552791 -7.5167296e-19)
(124.3012 24.555166 2.2207548e-18)
(118.49678 32.958632 -5.6304632e-18)
(108.20751 39.483315 8.2954945e-18)
(92.066394 46.339858 -5.4640579e-18)
(128.96824 2.0530046 3.1267002e-18)
(128.35566 3.8563235 2.1672138e-18)
(128.76476 8.5861195 3.0128167e-18)
(129.15064 12.188904 3.1335837e-18)
(128.5183 18.856926 2.3695378e-18)
(126.28318 25.995528 -8.6500709e-19)
(120.95914 34.975798 -2.8929429e-18)
(109.95324 42.576689 -1.1746828e-18)
(94.20552 49.914907 -6.286994e-18)
(130.01899 1.8797268 -5.6716923e-18)
(129.47108 3.6749502 -2.1942251e-18)
(130.13641 8.2424145 -7.0833306e-18)
(130.63344 12.107833 -1.9104436e-18)
(130.06046 18.269781 4.1412311e-18)
(128.47069 25.033926 2.5150896e-18)
(123.15754 34.633265 -1.2533558e-17)
(113.20716 42.49919 2.9713202e-18)
(97.138616 50.451221 1.1775762e-17)
(99.155216 53.905008 -1.0704196e-17)
(115.47419 45.565498 3.8487859e-18)
(126.18881 36.349107 1.6416018e-17)
(130.70425 26.064749 -2.131681e-18)
(132.13425 18.313241 2.7938638e-19)
(132.08405 11.487377 2.7331635e-18)
(131.18658 7.8299731 4.7182071e-18)
(130.47622 3.3959629 -2.3503442e-19)
(131.00103 1.6770593 7.1450711e-18)
(102.38137 54.018105 3.7847284e-17)
(118.98139 45.064431 2.2035344e-18)
(128.51176 35.595461 -1.8983418e-17)
(133.04649 24.784634 -5.1991835e-19)
(133.70941 17.399464 -3.6428898e-18)
(133.48578 11.19887 -3.3732029e-18)
(132.62065 7.2558995 -6.8151938e-18)
(131.55137 3.1333909 0)
(131.89754 1.4471811 -3.2890217e-18)
(104.44176 57.28393 -4.8038932e-17)
(121.8396 48.075413 2.0123881e-17)
(132.03003 36.98323 9.0054046e-18)
(135.4945 25.452454 -3.8892044e-19)
(135.85506 17.146579 4.6977499e-18)
(134.99774 10.255965 -4.3788292e-20)
(133.47579 6.6985933 1.8026462e-18)
(132.34668 2.7274242 5.0692489e-18)
(132.68809 1.193411 5.0177018e-18)
(108.25563 56.902364 -8.1541713e-18)
(125.55354 47.096746 -1.007299e-18)
(134.42965 35.651862 -1.0700488e-18)
(137.89137 23.766211 0)
(137.39603 15.862599 -4.8045889e-18)
(136.17308 9.6671319 0)
(134.82166 5.9253556 5.1705885e-18)
(133.33107 2.3302829 -9.842586e-18)
(133.34922 0.91368686 -7.4338358e-19)
(110.97945 60.374977 -2.4839836e-18)
(129.08744 49.960543 -9.6973724e-18)
(138.44846 36.540044 5.7940969e-19)
(140.46038 23.856178 0)
(139.50083 15.261686 -1.3629774e-18)
(137.6843 8.4530061 2.4815706e-18)
(135.46679 5.0962049 2.1560502e-19)
(133.90712 1.833593 8.6311355e-18)
(133.86229 0.61332578 -4.3881677e-18)
(114.98235 59.860048 -2.5186159e-17)
(132.97091 48.335926 -9.6212281e-20)
(140.76 34.620762 -2.9029847e-19)
(142.76158 21.719407 2.216961e-19)
(140.85799 13.470154 1.7197237e-18)
(138.60175 7.5493118 -4.0544692e-18)
(136.62935 4.2060977 1.5160026e-19)
(134.64821 1.3038276 -3.9730911e-18)
(134.20685 0.30349332 0)
(118.22092 63.522039 1.7397169e-17)
(136.9979 50.7531 3.1905723e-19)
(145.25705 34.822273 -1.6012211e-19)
(145.34565 21.153456 6.2504551e-19)
(142.82968 12.489649 -5.7643105e-19)
(139.91605 6.1425334 1.35839e-18)
(136.95238 3.1341878 1.7013073e-19)
(134.95206 0.73482385 -1.5589247e-19)
(134.43363 0.18032518 0)
(122.3985 62.293976 0)
(141.5978 48.590134 1.4105843e-18)
(147.30649 32.133896 -1.202903e-18)
(147.37393 18.484347 1.6348778e-17)
(143.843 10.327758 2.9836061e-19)
(140.50148 4.8208306 -1.7540904e-18)
(137.83797 2.1022187 -2.2117122e-18)
(135.39608 0.081585386 4.3040106e-18)
(134.31372 -0.33956267 4.7362078e-18)
(126.69787 65.719041 1.3255477e-18)
(145.9329 50.182764 -4.556331e-17)
(151.99384 31.421573 1.8984861e-18)
(149.76396 17.209567 -1.70358e-17)
(145.54413 8.9242281 2.0162737e-19)
(141.53762 3.2762693 1.5639653e-18)
(137.80958 0.90820154 2.3711852e-18)
(135.33938 -0.59678455 -4.446861e-18)
(134.36608 -0.45093107 -4.6965566e-19)
(133.68896 -0.72925232 -4.3451261e-18)
(135.43532 -1.2740401 2.8630391e-18)
(138.25628 -0.23733177 0)
(141.65443 1.6310804 4.8638133e-19)
(146.09767 6.334264 -1.3834574e-17)
(151.35969 13.911432 -2.5307181e-17)
(153.92503 27.661834 0)
(151.4153 47.116362 -1.6216584e-17)
(131.58537 63.291982 -1.0678899e-18)
(133.40179 -0.92489467 0)
(134.87636 -2.0682325 -2.9768472e-18)
(137.85095 -1.5833329 0)
(142.30611 -0.10218267 6.0789383e-19)
(147.35761 4.3417242 2.8642097e-17)
(153.45468 11.510635 2.817216e-17)
(158.74482 25.208529 -5.2661736e-17)
(156.89961 47.235774 5.6420589e-17)
(139.30641 66.650654 -4.4315865e-17)
(132.26603 -1.2071346 0)
(134.60833 -2.7932623 0)
(137.68735 -2.7011191 7.7187431e-19)
(141.79459 -1.9842321 0)
(147.19699 1.4928644 -1.6075729e-17)
(154.13501 7.6581172 3.3531278e-17)
(160.10157 20.107161 4.7707229e-17)
(162.92536 42.204828 4.6813756e-18)
(145.695 62.662561 -2.7488821e-17)
(131.3187 -1.4582829 0)
(133.59285 -3.5530869 0)
(136.88992 -4.022513 -7.8789714e-19)
(141.89406 -3.6421451 -6.8629124e-18)
(147.77785 -0.62564478 -1.81295e-17)
(155.40538 4.8800963 -3.6255252e-17)
(163.83274 16.446039 0)
(168.17313 40.269273 -1.1443198e-16)
(156.55944 64.765238 8.2354352e-17)
(129.86084 -1.5091908 6.9521033e-20)
(133.01029 -4.2968425 -7.5283338e-20)
(136.05912 -4.9350966 0)
(140.76971 -5.5280873 1.68848e-19)
(146.84523 -3.436676 4.0640494e-17)
(154.93314 0.89515749 -1.8936044e-18)
(163.99242 10.283008 -7.0259598e-17)
(173.22434 33.114017 1.2646577e-16)
(163.61156 59.173646 -1.7806607e-16)
(128.4507 -1.6471182 -8.440023e-20)
(131.56511 -4.9610858 9.1534453e-20)
(134.90449 -6.1751901 0)
(140.38238 -7.0213691 8.6295919e-18)
(146.75697 -5.3930198 -2.2761829e-17)
(155.23277 -1.7569842 1.960822e-18)
(165.94439 6.0601905 7.2662503e-17)
(176.78186 28.681808 0)
(177.53604 58.417672 1.7877327e-16)
(126.59122 -1.6651711 1.0370017e-19)
(130.57545 -5.6592534 5.2856555e-18)
(133.4985 -6.7702876 7.9805686e-20)
(138.72371 -8.8000018 -5.7086074e-18)
(145.1727 -8.0216931 -2.0384724e-17)
(153.68886 -5.4379349 0)
(164.33576 -0.090177726 0)
(179.06002 18.99626 1.5702032e-16)
(184.01317 50.749998 0)
(124.81001 -1.709197 0)
(128.90223 -6.1871279 -5.5097314e-18)
(132.07022 -7.869236 0)
(137.92121 -10.010088 7.3014216e-18)
(144.56585 -9.663095 1.9207902e-17)
(153.30228 -7.4863435 -3.9859531e-17)
(164.16602 -3.680551 0)
(179.57578 12.527084 -1.7723526e-16)
(198.11488 46.963908 3.8233441e-16)
(122.72012 -1.5916047 0)
(127.52951 -6.8508093 0)
(130.14373 -8.1709557 -5.9065256e-21)
(135.68183 -11.717495 6.7256587e-19)
(142.28421 -12.398186 -7.4746597e-19)
(150.99258 -10.980096 4.1142775e-17)
(160.80505 -9.932411 0)
(177.31282 -1.9905531 0)
(200.25335 30.461959 -3.8391212e-16)
(119.9126 -1.7511363 -3.5202181e-19)
(125.7698 -7.3190913 1.5251026e-19)
(128.69542 -9.071927 7.4461842e-18)
(134.8523 -12.460413 0)
(141.87407 -13.244794 0)
(151.41051 -11.758353 2.7883681e-18)
(161.05626 -9.9667069 6.0414114e-17)
(177.66233 1.3696859 -2.9065667e-18)
(212.14941 33.509262 0)
(118.0341 -1.7673146 -3.8549576e-19)
(124.36914 -8.0405454 1.5177668e-19)
(126.74989 -9.2892885 -6.6493437e-18)
(132.97436 -14.002045 0)
(140.55618 -15.020708 0)
(151.39211 -13.508229 -2.833819e-18)
(162.4485 -10.936996 -1.8771202e-16)
(183.34639 2.550573 3.1492772e-18)
(209.71995 30.454222 -7.7600355e-16)
(116.03547 -1.6329556 0)
(122.59173 -8.3081831 2.349602e-17)
(125.66243 -10.38063 0)
(132.53345 -15.160006 -4.5893582e-19)
(141.00255 -16.455788 5.0106432e-19)
(153.51508 -15.442859 3.0977496e-18)
(165.7616 -12.537157 2.7041643e-16)
(187.69043 2.4740203 -3.7063325e-18)
(196.23968 28.811195 7.3514779e-16)
(114.04218 -1.4219717 3.8569688e-17)
(121.01545 -9.0737743 -2.2258321e-17)
(123.85989 -10.803377 2.0331472e-17)
(130.85618 -17.00385 3.5685083e-19)
(140.42936 -19.05603 3.2773508e-17)
(153.44971 -17.856285 -8.2184452e-17)
(167.64957 -16.011357 -1.4621008e-16)
(191.0465 -0.23854858 -3.8666727e-16)
(178.20658 39.419374 0)
(112.13015 -1.1479348 -7.982389e-17)
(119.10105 -9.2491907 2.8250617e-17)
(122.78121 -11.846493 -1.9668098e-17)
(130.22732 -18.257122 1.8207336e-18)
(140.0447 -20.946403 -3.1640521e-17)
(155.86385 -20.830707 -4.8329108e-18)
(170.71402 -17.48836 0)
(189.77532 -4.1954894 3.6838797e-16)
(144.70091 56.646034 0)
(110.35613 -0.81194587 8.4808555e-17)
(117.26185 -9.8516611 -2.6831608e-17)
(120.6517 -12.214995 2.474908e-17)
(128.06296 -19.871799 -2.5212847e-18)
(139.91018 -23.258092 1.7229396e-18)
(155.49349 -23.099815 8.1575785e-17)
(171.79371 -19.689176 -1.6416334e-16)
(187.02313 -4.9613745 -4.5796655e-16)
(117.26684 75.420945 5.5451506e-16)
(108.73891 -0.38767814 -4.3997506e-17)
(115.1522 -9.8762235 1.0565003e-18)
(119.49847 -13.007279 -2.4062689e-17)
(127.08809 -21.126173 -3.3982966e-19)
(138.21012 -25.742779 3.6659178e-19)
(157.39546 -26.586465 9.1597453e-17)
(169.77113 -24.130333 3.3813706e-16)
(184.34362 -4.3119466 4.2968211e-16)
(100.22253 79.498847 -5.252618e-16)
(107.30094 0.13019958 -6.2233496e-19)
(113.15718 -10.1688 6.6742122e-19)
(117.17786 -13.315344 2.8550395e-17)
(124.35738 -22.365927 9.4604841e-18)
(138.09068 -27.998647 2.716517e-17)
(156.16193 -28.801332 -1.8117941e-16)
(169.84032 -26.266296 -3.5432959e-16)
(177.70473 -6.9180316 -4.8167764e-16)
(36.557129 45.041205 5.8731137e-16)
(106.14908 0.66631625 5.2114144e-17)
(110.96618 -9.9953548 -5.0303137e-19)
(115.97327 -13.893172 3.4658551e-18)
(123.18108 -23.57219 -9.1733656e-18)
(136.0175 -30.38661 -2.4542107e-17)
(157.18942 -32.58794 9.1894438e-17)
(167.19006 -31.046033 1.7894767e-16)
(161.88882 -9.6170951 4.6246886e-16)
(-13.306627 -4.9852198 -5.59172e-16)
(-23.94638 8.2855498 -9.4119077e-16)
(149.27676 -8.4870097 -5.6769031e-18)
(163.88591 -33.195549 3.1399482e-18)
(155.80817 -34.494637 -2.676619e-18)
(135.22932 -32.635023 0)
(120.18035 -24.53142 -4.1067472e-19)
(113.61427 -14.044725 -6.7095193e-17)
(108.75936 -9.9738878 -4.4770549e-17)
(105.16033 1.3555804 -1.0702285e-16)
(-24.081941 10.749082 9.1302873e-16)
(140.63123 -11.180151 0)
(162.36973 -38.568753 0)
(155.28085 -38.318835 2.2712844e-16)
(132.80089 -34.97167 0)
(118.72379 -25.134293 4.0374657e-17)
(112.43857 -14.135099 1.1226098e-16)
(106.77136 -9.5032575 4.2568304e-17)
(104.40756 1.9813076 -6.1329642e-17)
(-31.767959 13.600804 6.5958308e-18)
(130.55305 -10.71304 -5.3153195e-18)
(158.2985 -39.410137 0)
(153.05751 -39.583313 -2.2223265e-16)
(131.15261 -36.624964 0)
(115.47014 -25.646806 -4.0131099e-17)
(110.04859 -14.112636 -7.4294557e-17)
(104.70399 -9.0063362 -1.0936416e-18)
(103.94 2.4996834 1.1496263e-16)
(-41.818318 7.8370719 1.6786386e-15)
(122.90003 -14.159173 -1.2674225e-15)
(156.02693 -44.324126 6.1990416e-18)
(152.0552 -43.036917 0)
(129.13796 -38.175808 -3.2157332e-17)
(113.86271 -25.7161 0)
(108.83152 -13.885467 7.655794e-19)
(102.8564 -8.428008 -1.1601956e-18)
(103.52399 3.3172614 4.2350081e-19)
(-49.840987 8.5756011 -1.6134822e-15)
(112.84328 -13.293793 -6.0276402e-19)
(151.65416 -44.890373 5.0852087e-16)
(149.091 -44.467863 -2.5112374e-18)
(126.28392 -39.990069 7.619516e-18)
(110.44297 -25.990128 0)
(106.37671 -13.59041 9.1893459e-17)
(100.92143 -7.4487801 0)
(103.65619 3.7927526 0)
(-56.315487 7.2448957 5.8157927e-18)
(104.90154 -16.478359 1.1738229e-15)
(149.09288 -49.723099 -9.7712686e-16)
(148.20867 -47.344267 1.9576971e-16)
(124.77178 -41.01316 2.3502743e-17)
(108.84755 -25.710882 -7.0131143e-17)
(105.26748 -13.034426 -8.9076787e-17)
(99.635713 -6.5049569 -1.2866681e-18)
(103.93252 4.6646816 1.3488497e-16)
(-62.22028 7.6926265 5.5652838e-18)
(94.862176 -14.978167 -1.1279755e-15)
(144.62442 -50.030216 4.835941e-16)