/*--------------------------------*- C++ -*----------------------------------*\
  =========                 |
  \\      /  F ield         | OpenFOAM: The Open Source CFD Toolbox
   \\    /   O peration     | Website:  https://openfoam.org
    \\  /    A nd           | Version:  11
     \\/     M anipulation  |
\*---------------------------------------------------------------------------*/
FoamFile
{
    format      ascii;
    class       volScalarField;
    location    "0.1085";
    object      p;
}
// * * * * * * * * * * * * * * * * * * * * * * * * * * * * * * * * * * * * * //

dimensions      [0 2 -2 0 0 0 0];

internalField   nonuniform List<scalar> 
880
(
80
80
80
80.00025000845849
80
80
80.00000000007924
80.00110904881895
80
79.99999999999999
80.00000000388654
80.00586293887811
80
80
80.00000011386545
80.01157204283918
80
80.00000000000001
79.99999999999994
79.99999999988169
79.99999999999999
80
79.99999999999983
80
79.99999901756568
80.00000442337172
80.026172742352
79.95220309006491
80.89247631428756
83.47083363664527
85.57556723326044
86.48493459404511
80.00000465950147
80.00001873995352
80.0000231409026
80.00001388271932
80.00009555151131
80.00025696182806
80.00065640386671
80.00046098566889
80.05415743836789
80.11379163404631
80.19064887708412
80.19276820184218
87.51564571160242
88.84961498843661
90.21468056992339
91.83705604990647
91.07754117382486
88.61069921767854
86.69490406724601
85.4262225130196
80.33413794817312
80.63596434076605
80.80892262001052
80.71773945414721
80.00133174870165
80.00355594560494
80.00713160293357
80.00774753466024
80.00005622727345
80.000132337812
80.0002404891805
80.00023707593732
80.00015497813725
80.00005120299438
80.00000628643737
80.00000018042186
80.00621804524333
80.00326725654554
80.00083103196094
80.00008496930317
80.56531184591881
80.3515686208014
80.13134699791151
80.02533774671322
84.15217646434419
82.92308760633384
81.76806004599302
80.77165879604803
80.18150847755945
80.00206056994497
80.00000310752155
80.00000000379502
80.01870085852278
80.00016031779273
80.00000024103502
79.99999999667007
79.99812949381969
79.99971249819036
79.99999923248346
80.00000035923098
81.88779562687263
80.00806956369657
79.99974283675185
79.99997848309341
79.99996703855115
79.99988083394538
80.0619969797615
95.96748310371875
79.99999224226269
80.00055181789315
80.32543657940087
109.4516723533333
80.00007151391829
80.00168985063873
80.63133519533248
116.632125891244
80.00019951475063
80.00494421218902
81.13762346213485
123.2992848676755
129.2109093330101
81.56754481168568
80.00660243179195
80.00028097817538
136.4521530896663
82.23353986979417
80.01202434493524
80.00048421063047
141.5043038040691
82.6248913301996
80.01350522785931
80.00052298006013
147.2729574040982
83.36031609297025
80.02255611558817
80.00094740335044
80.00103026590921
80.02577767228578
84.17764271417694
153.1954157745051
80.0015571701646
80.0385818582923
85.30355690766217
155.1062018008471
80.00280899066753
80.05322713835466
85.60550374328714
146.6666788541015
79.99981163610329
80.02057575139561
83.31627995141577
124.2884237435343
80.00532766761258
80.1291796396647
83.75121762328111
97.23008354591516
80.00601925152944
80.14395939973062
81.32943952298012
70.25398509349299
79.99984328123661
80.04357707582763
79.82738252034009
57.12784534557791
79.99864586249733
79.93663333716729
77.7844515811681
50.39526793735979
48.57103127544459
76.86362931887463
79.9112572551396
79.99935712737539
46.14312452513342
76.47966608985475
79.91393457247183
79.9995840016509
44.53486264205043
76.57519292003273
79.94780411541088
79.99983443959265
41.6562110519497
76.31676805098486
79.94846072712556
79.99983575865615
48.31225640960353
78.03113283563833
79.98262030773941
79.99994447944439
56.5181385364861
79.2180723293903
79.99552177444548
79.999987581355
62.95345195077628
79.66148457694301
79.9985055916147
79.99999647004809
68.72330616181297
79.87685651805555
79.99955598449701
79.99999822238738
71.30040229575019
79.49161323365344
79.99111483962155
79.99993998053814
71.89786440957663
79.50790883425789
79.99119593242183
79.99994019280116
72.6460377759489
79.52098729423857
79.99110930313932
79.99993995231162
73.77076602143583
79.58145909852951
79.99099007115426
79.99994138938831
68.72330616166191
79.87685651763123
79.99955598397318
79.99999822305583
62.95345195036922
79.66148457650382
79.9985055901774
79.99999647007172
56.51813853620771
79.21807232975563
79.99552177438989
79.9999875815178
48.31225640980252
78.03113283665263
79.98262030774526
79.9999444790771
79.9993571276635
79.91125725627913
76.86362931943715
48.5710312753242
79.99958400205841
79.91393457300306
76.47966609034938
46.14312452540695
79.99983443876756
79.94780411643254
76.57519291972808
44.53486264217666
79.99983575892733
79.94846072734377
76.31676805224144
41.65621105165019
50.39526793663366
77.78445158021732
79.93663333618967
79.99864586263173
57.12784534460018
79.82738251954639
80.04357707484489
79.99984327918844
70.25398509337055
81.32943952210188
80.14395939991095
80.00601925137582
97.23008354611515
83.75121762305695
80.12917963913148
80.00532766929456
80.00103026537218
80.02577767394597
84.17764271522356
153.1954157758516
80.00155717032342
80.0385818585175
85.30355690779299
155.1062018008764
80.00280899137547
80.05322713831765
85.60550374245177
146.6666788540181
79.99981163805204
80.02057575148645
83.31627995082349
124.2884237433973
147.2729574059089
83.36031609130714
80.02255611685004
80.00094740336969
141.5043038055349
82.62489133259196
80.01350522769347
80.00052298041004
136.4521530895665
82.23353987173641
80.01202434757242
80.00048421019152
129.2109093343453
81.56754480953002
80.00660243150287
80.00028097784003
79.99996703951753
79.99988083478381
80.06199698007761
95.96748310249224
79.99999224166719
80.00055181682144
80.32543657918777
109.4516723537586
80.00007151328927
80.00168985065505
80.63133519614055
116.6321258913187
80.0001995140597
80.0049442120047
81.13762346166838
123.2992848680346
79.99997848275693
80.00000035965935
79.99999999674941
80.00000000371834
79.99974283575737
79.999999232527
80.00000024204626
80.00000310690979
80.00806956398462
79.99971249849369
80.00016031712263
80.0020605696549
81.88779562718769
79.99812949416264
80.01870085813979
80.18150847766991
80.00000017948962
80.00008496943762
80.02533774728806
80.77165879638002
80.00000628626546
80.00083103161414
80.13134699950537
81.76806004616672
80.00005120359405
80.00326725660243
80.35156862000157
82.92308760626494
80.00015497845013
80.00621804512187
80.56531184666473
84.15217646400785
80.00005622612134
80.00133174770048
80.33413794756082
91.07754117365107
80.00013233679374
80.00355594568701
80.63596434078532
88.6106992169006
80.0002404887644
80.00713160408354
80.80892262012932
86.69490406688531
80.00023707555465
80.00774753545085
80.71773945428637
85.42622251243047
91.83705605042668
80.19276820275113
80.00046098503445
80.00001388214859
90.21468057017209
80.19064887827486
80.00065640373359
80.00002314084512
88.84961498947726
80.11379163472159
80.0002569619442
80.00001873996341
87.51564571132882
80.05415743795702
80.00009555116043
80.00000465983142
86.48493459421915
79.95220309061195
80
80.00000000006227
85.57556723298457
80.02617273961856
80
79.99999999999999
83.47083363691048
80.00000442314489
80
79.99999999999999
80.89247631386618
79.99999901717729
80
79.99999999999989
80
79.99999999999997
79.9999999999998
80.00025000743797
80.00000000000003
80.00000000000001
80.00000000007313
80.00110904151728
80
80
80.00000000394951
80.00586293669612
80
80
80.00000011332082
80.01157204228286
80.00045944686325
80.00183763638486
80.01000435936149
80.20701216336653
80.00183766273774
80.00219450747002
80.00771795639825
80.80480185667379
80.01000435339064
80.00771793651693
80.30851769375762
85.18405712609696
80.20701214970386
80.80480185018232
85.18405717638278
102.9023993054932
133.0263086461285
111.9826882597569
100.5749364426909
89.47210764816927
127.9464091944907
123.4241391868443
120.9774374195297
111.8481048965502
125.0383824234046
123.6761838128679
123.4808936539768
119.3171163765747
125.5518757956915
124.3347167148299
124.0669531699009
121.3863933999344
123.2461412531407
123.8854953141963
124.9746906990666
127.6244608745724
124.5979335880967
125.1853242749605
126.1436485330462
129.0666613928537
125.0013109611506
125.3210150336647
126.2371051941109
128.5265429678878
125.4129874003035
125.267236762454
126.2071376674592
126.824029051399
107.172565815034
86.86575759556681
81.46450450653957
81.46205056588212
97.49781488860836
79.30870319363923
79.22279804795102
81.12362455184474
87.92615830394179
75.81788151134903
80.05022377635549
82.20163091067437
69.1811649008323
70.63426462166677
78.84623979674963
81.61596383273938
81.65992159384972
81.92472694188402
82.0987788902269
81.49523011347341
81.58886201728603
82.0226136651886
82.06281273332412
81.38807963197635
82.35953484625782
82.49184320153722
82.34649800782144
81.55178804193829
81.84748834134062
81.90258942590009
82.05925678541672
81.20782936000029
80.59394129102023
80.11546786849398
79.9993583853245
104.161864328309
80.59382619238939
80.14443642413576
79.99635115574013
117.0041140577958
80.70841317544522
80.18689687431269
80.01778453675381
123.3932609682865
80.41808461705561
80.06362621729434
80.02034068695232
126.5322055701045
195.0210356964196
207.9149284607434
208.7060947108123
208.9403830077022
217.5358219675127
218.143354560324
213.5960567032989
211.3678654105217
215.5166762902943
212.4026209063056
213.8164057308987
211.9429072476744
227.7398830218521
219.3539317642197
214.7996224786112
212.3760339152631
209.2255481015666
214.8957373263865
218.5514002711142
222.1869256016714
210.4663977889101
215.3275099335814
218.3825109025406
221.7608067116828
210.453753429109
214.68429564965
218.1230880457217
221.6373837373988
210.4422622636957
214.3386849801494
217.5945214016744
221.3043645045173
221.5611840930694
214.6071082556342
197.7929279475407
164.773780546602
220.710859955469
214.3161252397624
197.4727487119123
174.1814684755387
221.0970164145683
215.0661661345799
199.2619232368144
185.453102514568
221.0070170747217
216.286213250906
201.7982776110174
205.9933173913382
100.2952301007105
20.61056523354332
6.150075903445162
7.833944968877564
77.17891434701973
12.03621855305016
6.882365607911184
7.902980653462335
52.07929297204727
6.755011380759625
5.950960019577454
8.322634359406345
29.01797852121479
3.396730378119506
6.781188871775434
8.52788931550041
9.798180496481962
10.69695984648198
10.88897431765303
9.52883104740336
9.555051861602115
9.920719939838328
9.458253888023068
8.284480547521095
9.749150991608257
9.66183400049513
9.01877712984936
8.677744525596159
9.603301676261502
9.042450428514623
8.512924590555933
9.946017777203673
21.06102670479519
30.34691888118417
37.45448738698372
48.04023576621496
20.59257785334473
29.47914186143253
35.00416947281881
46.23582522821157
18.47000327902866
28.59810880663802
35.66575715042924
44.68369807253635
14.4165813397043
23.57342017695319
31.59809487832215
42.79792428327714
33.89104271990404
21.91722038218753
10.23278658316981
7.637536957644172
30.90306420778408
17.62344707692402
7.189354006190777
9.404717902539817
24.14685260348651
10.70146996613385
4.213203403192129
11.78272863981335
16.11474696609985
5.202655879868662
4.113793122300756
13.40885352137053
17.75910870409107
17.05332385011654
16.95789136376262
17.41107600899121
16.18244129376547
15.30759004987329
15.01503645877515
14.94792003416321
16.38117067692763
17.54395257585655
17.47513876860658
17.40547521668188
19.71029563820596
30.31707260559974
30.15635133050196
28.99762203922225
17.41107600899365
14.94792003415828
17.40547521668494
28.99762203920437
16.95789136376858
15.01503645876281
17.47513876861571
30.15635133046609
17.0533238501174
15.30759004987931
17.5439525758705
30.3170726055329
17.75910870409309
16.18244129380544
16.38117067695872
19.71029563811581
7.637536957594318
10.23278658309406
21.91722038204068
33.89104271964962
9.404717902516106
7.18935400615304
17.62344707691193
30.90306420761686
11.78272863985765
4.213203403169182
10.70146996606894
24.14685260345302
13.40885352137334
4.113793122309906
5.20265587985849
16.11474696605527
42.79792428317215
31.5980948782223
23.5734201767316
14.41658133948395
44.68369807246405
35.66575715038964
28.59810880646491
18.47000327875969
46.23582522813589
35.00416947279594
29.4791418613198
20.59257785309127
48.04023576611291
37.45448738689479
30.34691888101661
21.0610267045986
9.528831047281578
10.88897431773627
10.69695984651685
9.798180496414766
8.284480547470938
9.458253888092877
9.920719939866435
9.555051861558804
8.677744525559588
9.0187771299179
9.661834000535471
9.749150991551026
9.94601777714192
8.512924590601905
9.042450428555259
9.603301676189039
7.833944968750166
6.150075903306685
20.61056523333162
100.2952301006095
7.902980653357498
6.882365607781185
12.03621855293683
77.17891434657331
8.322634359278457
5.950960019455453
6.755011380717573
52.07929297182858
8.527889315333223
6.781188871588152
3.396730378046309
29.01797852110352
164.7737805463849
197.7929279477455
214.6071082559398
221.5611840941466
174.1814684753934
197.4727487122128
214.3161252402722
220.7108599568164
185.4531025144449
199.2619232370392
215.0661661353065
221.0970164158221
205.9933173911641
201.798277611362
216.2862132516306
221.0070170759777
222.1869256032864
218.5514002713515
214.8957373256373
209.2255481034066
221.7608067129359
218.3825109023892
215.3275099329643
210.4663977907091
221.6373837382574
218.1230880454921
214.6842956493309
210.4537534310491
221.3043645054003
217.594521401405
214.3386849797348
210.4422622660297
208.9403830103664
208.7060947086316
207.9149284615425
195.0210356951054
211.3678654140317
213.5960567003473
218.1433545613557
217.5358219660512
211.9429072511794
213.8164057270093
212.402620906563
215.5166762877817
212.3760339172437
214.7996224749916
219.3539317647369
227.7398830179253
104.1618643272576
79.99935838328859
80.11546786980016
80.59394129091613
117.0041140557001
79.99635115322809
80.14443642614297
80.59382619183972
123.3932609649429
80.01778453473912
80.18689687719593
80.70841317432708
126.5322055657542
80.02034068482068
80.0636262221053
80.41808461462955
81.49523011357206
82.09877888995845
81.92472694161613
81.65992159382837
81.38807963204415
82.06281273307751
82.02261366500993
81.58886201716798
81.55178804215062
82.34649800760265
82.49184320155963
82.35953484597356
81.20782936062891
82.05925678501772
81.90258942627928
81.84748834098102
81.46205056521002
81.4645045062956
86.86575759505885
107.172565815193
81.12362455112078
79.22279804779988
79.30870319317606
97.49781488874575
82.20163091001112
80.05022377627746
75.81788151100974
87.92615830397359
81.61596383204164
78.84623979679039
70.63426462127129
69.18116490056451
127.6244608742813
124.9746906979553
123.8854953147435
123.2461412548709
129.0666613919714
126.1436485321465
125.1853242760733
124.5979335896999
128.5265429668716
126.2371051933803
125.3210150346821
125.001310962465
126.8240290508219
126.2071376670553
125.2672367636127
125.4129874008089
121.3863933999707
119.3171163764468
111.8481048943442
89.47210764812306
124.0669531694462
123.48089365292
120.9774374191754
100.5749364315728
124.3347167146062
123.6761838129484
123.4241391862106
111.9826882432482
125.5518757950655
125.0383824236121
127.9464091920689
133.0263086459834
72.61474018461493
79.84087359839511
79.99872858336407
79.99999485093335
72.13214105761676
79.79776208511738
79.99790824064829
79.99998903940516
72.68065724890046
79.75014674500829
79.99658400213377
79.99997912316125
73.12214379320693
79.66660997158576
79.99311933390409
79.99995729346347
79.99993998102953
79.99111483983125
79.49161323299602
71.30040229492356
79.99994019321231
79.99119593309874
79.50790883331904
71.89786440959526
79.99993995165374
79.99110930368725
79.52098729391888
72.64603777538967
79.99994138752578
79.99099007190665
79.58145909720511
73.77076602102238
79.99995729280938
79.99997912246603
79.99998903714237
79.99999484869763
79.99311933422474
79.99658400211194
79.99790824038067
79.99872858260299
79.66660997126338
79.75014674413831
79.79776208580356
79.84087359809534
73.12214379302935
72.68065724802734
72.13214105716789
72.61474018494172
)
;

boundaryField
{
    back
    {
        type            empty;
    }
    inlet
    {
        type            zeroGradient;
    }
    front
    {
        type            empty;
    }
    top
    {
        type            zeroGradient;
    }
    outlet
    {
        type            fixedValue;
        value           uniform 80;
    }
    bottom
    {
        type            zeroGradient;
    }
    wall
    {
        type            zeroGradient;
    }
}


// ************************************************************************* //
