/*--------------------------------*- C++ -*----------------------------------*\
  =========                 |
  \\      /  F ield         | OpenFOAM: The Open Source CFD Toolbox
   \\    /   O peration     | Website:  https://openfoam.org
    \\  /    A nd           | Version:  11
     \\/     M anipulation  |
\*---------------------------------------------------------------------------*/
FoamFile
{
    format      ascii;
    class       volScalarField;
    location    "0.21";
    object      T;
}
// * * * * * * * * * * * * * * * * * * * * * * * * * * * * * * * * * * * * * //

dimensions      [0 0 0 1 0 0 0];

internalField   nonuniform List<scalar> 
880
(
500
500.0000000202559
500.0013232063719
500.6287291846422
500.0000000000001
500.0000000138173
500.0027688950252
501.2298000910492
500.0000000000002
500.0000001677549
500.0076434314497
502.3536285708972
500.000000000147
499.9999999905147
500.022631398972
504.2228756617733
499.9999999979585
500.000000003289
499.9999996636775
500.0000189078136
500.0000005752298
500.0000088249412
500.0003034685742
500.0005302273972
500.0692008835767
500.1359479217364
500.3022782066595
500.1399862818312
508.8933210909595
514.299194305353
518.858583846046
521.0656121386523
500.0001155835486
500.000484228768
500.0019569928359
500.00530255861
500.0050909293629
500.015236413496
500.0367372946776
500.061123182063
500.9050945629845
501.6120107703641
502.3727237901993
503.2226043968149
523.5034951442448
526.4198446063098
528.2670564934464
528.5171310478233
520.7504020668588
517.1079743937614
516.0173545122631
515.0207405037883
506.1244327139032
507.3400358418368
508.2882839257074
508.4480265655687
500.2341326729152
500.4543927354044
500.6972579743211
500.9098985807932
500.0191522088632
500.0509858206377
500.1056172571921
500.1663473886964
500.2019580917135
500.2091063045808
500.1854955865631
500.1467201963192
501.0820987075338
501.2315567149826
501.2492337909329
501.1360001370996
508.2675340205683
507.9210369184079
507.3472440189844
506.5318815513112
513.8951884442264
512.5418720403688
511.5171463754232
510.8425230696891
510.0376395535152
505.801902223899
500.9844692190909
500.1018728401718
508.474033418017
504.8430046423837
500.7972538001711
500.0625684754532
515.569054658828
504.0284578253032
500.5110910308007
500.02243873635
550.7124747538351
505.1083184716884
500.3082659228742
500.0050615408021
500.003338897392
500.1851182707517
509.1452456881748
593.7979201768039
500.0135352587584
500.2902553261945
514.0563635809436
601.7412273655349
500.0400590297435
500.642660465828
522.2841519144858
610.6388616291189
500.1073145763548
501.450615901107
532.6174288156168
616.1966683055208
621.1841658330743
545.0972548429045
502.9368904791217
500.2377353637897
624.5479261443335
558.5005673894193
505.5528875171598
500.4911516950245
627.2500515342011
571.6610597375459
509.5187570593283
500.8970100026818
627.1342712598312
580.3578532702154
515.0476367320283
501.5837571216698
502.6217977755152
521.1624373752002
584.2253205650019
620.3628021452981
503.3008373323931
520.3145340081004
570.4354775402701
603.7041544546423
503.5112252054388
515.6402297211213
554.0293403519939
581.1266481025268
502.1503160526304
509.6772861430837
534.3413378050647
549.7381744916563
502.4104450184882
509.5408300232402
520.3474643756499
516.9973657050156
501.897970813617
505.5492376096903
507.6084771549222
478.9840186378329
501.0169340747715
503.8354248582489
507.1900214578426
477.0852661082344
500.4431615660192
503.0378308458191
510.6392487057249
516.6539976882592
550.5600031656694
509.8436218720191
501.5584875446804
500.0256767562715
543.7264028810907
509.3972477489398
500.3403542016179
499.9073159311901
536.2581232161906
507.6359605865915
499.5141836220575
499.8490775487252
523.2232335673847
502.4141058638311
498.7054388471114
499.8183448415634
504.8797687561028
496.8532591279151
498.5409225077477
499.9077440699692
484.2204431502955
494.194578810347
499.0182375381979
499.9726211740531
468.7547036408405
493.1124016872598
499.3916660661707
499.9896771110857
467.5341857875029
494.0687409311412
499.7743421634332
499.9960573595076
479.3961186193923
495.425731765978
499.2183999442376
499.9644807494896
477.1173910240763
494.6636248182215
499.2786770491148
499.9720724412458
473.541582412186
493.5340526553333
499.3149988837826
499.9785615935422
469.5055522982271
492.3167533419009
499.2992207835535
499.9817992977758
467.534185787333
494.0687409311981
499.7743421641474
499.9960573591874
468.7547036411229
493.1124016872175
499.3916660660022
499.9896771106896
484.2204431502483
494.1945788101443
499.0182375376576
499.9726211736127
504.8797687558979
496.8532591273144
498.5409225074991
499.9077440698761
500.0256767564524
501.5584875449631
509.8436218723846
550.5600031653341
499.9073159312048
500.3403542018053
509.3972477489046
543.7264028806748
499.8490775489648
499.514183622274
507.635960586029
536.2581232155956
499.8183448416627
498.7054388474712
502.4141058632657
523.2232335670968
516.6539976889788
510.6392487060641
503.0378308455983
500.4431615663311
477.0852661083817
507.1900214578921
503.8354248581653
501.0169340749779
478.9840186375966
507.6084771551893
505.549237609836
501.8979708139249
516.9973657051376
520.3474643754261
509.5408300225169
502.4104450177845
502.621797775127
521.1624373758062
584.2253205659813
620.3628021457224
503.3008373321161
520.3145340079176
570.4354775406077
603.7041544551212
503.5112252052108
515.6402297216132
554.0293403518574
581.1266481027736
502.1503160521369
509.6772861423888
534.3413378050874
549.7381744918482
627.1342712599625
580.3578532708065
515.0476367322801
501.5837571225586
627.2500515345469
571.6610597381147
509.5187570609297
500.8970100022511
624.5479261445114
558.5005673896497
505.5528875164512
500.4911516952823
621.1841658334524
545.0972548424159
502.936890478806
500.237735363628
500.00333889744
500.1851182708164
509.1452456881015
593.7979201767434
500.0135352593183
500.290255327006
514.0563635810148
601.7412273655159
500.0400590304582
500.6426604657732
522.2841519140857
610.6388616287248
500.1073145763365
501.4506159019312
532.6174288164511
616.196668305906
500.0050615407538
500.0224387361637
500.0625684757607
500.101872840232
500.3082659222275
500.5110910304897
500.79725379999
500.9844692188745
505.1083184714535
504.0284578254103
504.843004642083
505.8019022236052
550.712474753631
515.5690546589088
508.4740334181173
510.037639553593
500.1467201965297
501.1360001373657
506.5318815516229
510.8425230699597
500.1854955864827
501.2492337912635
507.347244019292
511.5171463755093
500.2091063046296
501.2315567151573
507.9210369182738
512.5418720398923
500.2019580915353
501.0820987074741
508.2675340209406
513.8951884441555
500.019152208686
500.2341326727332
506.1244327140814
520.7504020671406
500.0509858200895
500.4543927357151
507.3400358421893
517.10797439368
500.1056172574355
500.697257974122
508.2882839253585
516.0173545118074
500.1663473885114
500.9098985807386
508.4480265659888
515.0207405033149
528.5171310476844
503.2226043966616
500.0611231819372
500.0053025588935
528.2670564934198
502.3727237903041
500.0367372944079
500.0019569925944
526.4198446064826
501.6120107705902
500.0152364127571
500.0004842283297
523.5034951442497
500.9050945628432
500.0050909291361
500.0001155840343
521.0656121386522
500.1399862820912
500.0005302274126
500.0000189082984
518.8585838461136
500.3022782067284
500.0003034684476
499.9999996636984
514.2991943054164
500.1359479216753
500.0000088247265
500.0000000032368
508.8933210909361
500.0692008834368
500.0000005751644
499.9999999981695
500.0000000000001
500.0000000202815
500.001323206408
500.6287291837784
500
500.0000000136238
500.0027688949974
501.229800091001
500.0000000000164
500.0000001675709
500.0076434313692
502.3536285707491
500.0000000001726
499.9999999903109
500.0226313989107
504.2228756616003
501.3511732467604
502.5601308610024
504.8513531490059
511.3724138297538
502.5601308611778
504.2012581988212
508.830395177795
519.5934587851016
504.8513531491104
508.8303951777946
517.7286618816564
532.6050564403916
511.372413829819
519.5934587851608
532.6050564405668
550.3952131364506
569.6920887342304
554.9920427263705
546.6762429749715
533.2885069914313
566.8307599430924
562.3508782759018
560.6268261473202
553.7831465084417
567.3915155067721
565.8198820243371
564.465111904003
561.5786498052602
565.9224774939191
565.2483403696548
564.7751339175461
563.2453010274953
561.1995232039644
560.7428392890823
558.8375439622293
554.6187967742271
562.244691196817
560.6023319612916
558.3995175135176
554.42818690984
562.4833975650815
560.5051821925105
558.156414039919
554.5066098602153
563.0066511568994
560.5836053666839
558.1289479557931
549.4173052773754
515.5548234470106
497.2680170122229
497.0918981137098
498.40039276312
504.0532401698862
493.1723813771765
496.9417803769299
498.9669237179054
491.9742037362789
493.0265653843133
497.9554448628897
500.4212175053526
470.05124982025
487.8880941830634
496.1830176380932
498.954309270745
499.5997602822458
500.5921564624529
501.6224769353424
502.5323797139778
500.1993335561149
501.4960896628311
502.5919556004876
503.565477996052
501.4922898055935
502.6243887767549
503.3690705210306
504.4650724587808
500.383899324077
502.0599111056275
503.888698647971
504.8291187522308
503.2297666494914
507.0918388988513
556.3422723317821
618.7367296726621
504.1915706020233
510.8248428679476
570.8704209408069
623.6807842886782
505.085712460344
514.3541586134245
582.2209462157596
623.1302064824938
505.3880487441444
516.1976089532556
591.007980332971
627.2866539812602
669.6402552471671
660.4789316726431
657.1121754654041
654.0479638424838
678.1914499255525
667.0016050827759
660.647385460202
656.0716305385585
684.0326742982965
673.737259691895
664.4498540022831
657.5438643736707
683.5553357492038
677.7136444305
667.5371712887115
659.1154927073519
656.6195115043564
657.9707510525086
657.0444258317495
653.2501607187885
657.9617312680433
659.3809789630418
659.3080423203627
654.5982054010382
657.976478049688
659.3295885403276
660.1897250797563
656.2578334916175
658.9009740258199
661.0091496492942
660.0885021813127
655.6910093120673
639.046430860412
620.5263226689256
599.3767945774072
575.1519205774764
639.9144408631481
620.1605878847137
598.6178343096616
601.2774105990006
642.274710074332
622.8602600293706
608.2780876603649
628.7440303595471
641.8721026288889
628.5570981593539
624.2805529516233
613.7185419056681
534.9675358444977
457.7920799810212
339.8380161188994
331.5498887494982
519.5617528657657
416.3455624113523
283.8738208386994
262.6462340323878
476.3152456851627
355.4273084750745
256.4649622823299
243.7166843666299
376.846135983926
280.6097723180938
247.4645194670144
240.0636513079298
381.0952385270328
421.9540334726364
450.963956697404
463.7302705976527
315.7633206057943
374.6967820726213
417.2835714892374
444.373266471697
287.3752155432909
344.5904223649002
391.3607713448146
430.9617615495612
283.8067590208845
343.3032525177404
396.1416895329623
435.788534840405
503.254429068901
475.9158583813958
446.2133988915209
431.5649434300569
484.5187849954303
479.3791790646109
457.3137137048487
443.319622476563
459.712908638803
475.4112931808828
467.7917464328881
466.8879950772379
440.8257818649012
465.8871828407519
473.0057167564519
493.2876477484056
414.1501632612449
420.3071246023887
434.2446080892198
430.4371705879894
409.4360664410339
414.0698882196063
427.6507625948292
419.918848375364
415.8694540204169
415.9676095652172
425.4616749720503
410.7999685028676
396.3554864944983
400.052295789222
405.4862500279976
391.6760912734276
376.5105611628579
370.5504986070456
371.555486483289
373.4889134507869
391.6265111764358
381.3330639234538
379.7310270967503
381.00814175365
406.4898933919863
396.4894955863854
391.4496847187233
390.3778398655563
422.597599165749
412.7715891569698
404.3431740154973
399.4565653873144
373.4889134507787
381.0081417536506
390.3778398655858
399.4565653873289
371.555486483238
379.7310270967301
391.4496847187543
404.3431740155694
370.5504986069607
381.3330639233862
396.4894955863965
412.7715891570865
376.5105611627511
391.626511176332
406.4898933919357
422.5975991658145
430.4371705879561
434.2446080891129
420.3071246022537
414.150163261131
419.9188483752994
427.6507625947798
414.0698882195754
409.4360664410161
410.7999685027801
425.4616749719871
415.9676095651503
415.8694540203853
391.6760912733064
405.4862500278926
400.0522957891044
396.3554864943928
493.2876477483169
473.0057167563134
465.8871828405966
440.8257818652097
466.8879950772229
467.7917464328402
475.4112931807026
459.712908638863
443.3196224765399
457.3137137049314
479.37917906447
484.5187849951511
431.5649434300049
446.2133988916929
475.9158583812976
503.2544290682993
463.7302705982319
450.9639566980612
421.9540334732366
381.0952385270446
444.3732664723671
417.2835714902389
374.6967820735622
315.7633206060068
430.9617615502514
391.3607713458096
344.5904223658267
287.3752155435838
435.7885348409391
396.1416895339274
343.3032525187832
283.8067590213444
331.5498887498608
339.8380161179311
457.7920799809042
534.9675358446293
262.6462340325318
283.8738208382517
416.3455624112528
519.5617528657208
243.7166843667291
256.4649622821461
355.4273084752897
476.3152456853027
240.063651307985
247.4645194669326
280.6097723183585
376.8461359842297
575.1519205776908
599.3767945777523
620.5263226692608
639.0464308606258
601.2774105991965
598.6178343099424
620.1605878849803
639.9144408634525
628.7440303596885
608.2780876605852
622.8602600295762
642.2747100746209
613.7185419058968
624.280552951809
628.5570981595774
641.8721026292084
653.2501607190601
657.0444258318879
657.9707510523707
656.6195115045424
654.598205401436
659.3080423205483
659.3809789629438
657.9617312681496
656.2578334920497
660.1897250799573
659.3295885403497
657.9764780497942
655.6910093125211
660.088502181513
661.0091496494039
658.9009740260186
654.047963842306
657.1121754653255
660.4789316723063
669.6402552470371
656.0716305381983
660.647385460022
667.0016050823242
678.1914499253771
657.5438643729699
664.4498540019902
673.7372596913578
684.0326742980227
659.1154927063889
667.537171288331
677.7136444299291
683.5553357488957
618.7367296724547
556.3422723316035
507.0918388989169
503.229766649682
623.680784288458
570.8704209405784
510.8248428679257
504.1915706022268
623.1302064822501
582.2209462155245
514.3541586133432
505.0857124605398
627.2866539809846
591.0079803327802
516.1976089531664
505.3880487443511
502.5323797144275
501.6224769353468
500.5921564619389
499.5997602821752
503.5654779965722
502.591955600345
501.496089662235
500.1993335560228
504.4650724593388
503.3690705209297
502.6243887761022
501.4922898054791
504.8291187527961
503.8886986478295
502.0599111049731
500.3838993239476
498.4003927626779
497.0918981131532
497.2680170124071
515.5548234473588
498.9669237172751
496.9417803766144
493.1723813773856
504.0532401702184
500.421217504614
497.9554448626708
493.0265653845921
491.9742037364703
498.9543092699687
496.1830176378728
487.8880941833574
470.0512498204417
554.6187967743228
558.8375439623615
560.7428392894554
561.1995232041419
554.4281869098794
558.3995175136546
560.6023319616835
562.2446911969453
554.5066098602055
558.1564140400332
560.5051821928818
562.4833975651792
549.4173052773855
558.1289479559382
560.5836053670502
563.0066511569908
563.2453010273493
561.5786498052227
553.7831465085967
533.2885069915851
564.7751339174059
564.4651119039736
560.6268261473732
546.6762429749942
565.248340369579
565.8198820242648
562.350878275815
554.9920427262675
565.9224774938987
567.3915155066895
566.8307599429485
569.6920887340008
465.3071438426904
493.5794228840716
499.5752499543665
499.9930100410474
457.0012834385333
491.7314591362502
499.3787292892533
499.9880863517971
457.6071007262791
490.9909224730353
499.2999546382432
499.9856368714084
461.218064504147
491.1965299945048
499.2890589401142
499.9839875807767
499.9644807495052
499.2183999441961
495.4257317659454
479.3961186191568
499.9720724411739
499.2786770488855
494.6636248181231
477.1173910240808
499.9785615937769
499.3149988838221
493.5340526551408
473.541582412508
499.9817992979108
499.2992207836349
492.3167533416918
469.5055522984546
499.9839875805393
499.9856368712462
499.9880863519485
499.9930100411454
499.2890589400016
499.2999546380348
499.3787292887646
499.5752499543869
491.1965299944477
490.9909224731422
491.7314591365774
493.5794228843429
461.2180645039671
457.6071007260248
457.0012834382979
465.3071438424915
)
;

boundaryField
{
    back
    {
        type            empty;
    }
    inlet
    {
        type            zeroGradient;
    }
    front
    {
        type            empty;
    }
    top
    {
        type            zeroGradient;
    }
    outlet
    {
        type            fixedValue;
        value           uniform 500;
    }
    bottom
    {
        type            zeroGradient;
    }
    wall
    {
        type            zeroGradient;
    }
}


// ************************************************************************* //
