/*--------------------------------*- C++ -*----------------------------------*\
  =========                 |
  \\      /  F ield         | OpenFOAM: The Open Source CFD Toolbox
   \\    /   O peration     | Website:  https://openfoam.org
    \\  /    A nd           | Version:  11
     \\/     M anipulation  |
\*---------------------------------------------------------------------------*/
FoamFile
{
    format      ascii;
    class       volScalarField;
    location    "0.035";
    object      rho;
}
// * * * * * * * * * * * * * * * * * * * * * * * * * * * * * * * * * * * * * //

dimensions      [0 0 0 0 0 0 0];

internalField   nonuniform List<scalar> 
880
(
0.2239950333699092
0.2239950333699093
0.2239950333729455
0.2239950328091419
0.2239950333699093
0.2239950333699093
0.2239950333826009
0.2239950317654823
0.2239950333699093
0.2239950333699093
0.2239950345479004
0.2239960102674146
0.2239950333699091
0.2239950333699093
0.2239950293980054
0.2240233852524305
0.2239950333699093
0.2239950333699093
0.2239950333699092
0.2239950333703098
0.2239950333699093
0.2239950333699093
0.223995033370422
0.2239950333796049
0.2239952033970151
0.2239955084094364
0.2239958361869155
0.2239944755169428
0.2244692833058685
0.2256789734329726
0.2265424060883916
0.2266970687316657
0.2239950334042332
0.2239950334148547
0.2239950334192676
0.2239950334149132
0.2239950360848051
0.2239950371069033
0.2239950374337002
0.2239950366946046
0.2239997828712199
0.2240002947589758
0.224000470996966
0.2240004500215947
0.2268284245608108
0.227056705918589
0.2270403364484726
0.2274312157131165
0.226737831347068
0.2256647078944756
0.2245774656808849
0.2240733428450444
0.2240041943559565
0.2240014531538389
0.2239974854891667
0.2239953740968206
0.2239950428545223
0.2239950402583323
0.2239950359600521
0.2239950337071805
0.2239950334884702
0.2239950334484443
0.2239950333923427
0.2239950333717702
0.2239950333699219
0.2239950333699093
0.2239950333699092
0.2239950333699093
0.2239950333791724
0.2239950333699195
0.2239950333699092
0.2239950333699092
0.2239950436691435
0.223995033406143
0.2239950333688691
0.2239950333694357
0.2239976241872867
0.2239950459264843
0.2239950329255672
0.2239950331675176
0.2239950333497547
0.2239950333699073
0.2239950333699093
0.2239950333699092
0.2239950292474695
0.2239950332457196
0.2239950333691526
0.2239950333699092
0.223997955610204
0.2239950508031447
0.2239950334100584
0.223995033370713
0.2239254425770869
0.2239875801001627
0.2239950162771682
0.2239950333627622
0.2239950334218545
0.223995037595445
0.2240017674754997
0.229969184305008
0.2239950335693864
0.2239950500422585
0.2240164112939886
0.2341555699169446
0.2239950336495121
0.2239950566365862
0.2240232678459519
0.2360557825661865
0.2239950337265656
0.223995062317339
0.2240278911491635
0.2368545584693006
0.2375815785002184
0.224033302050532
0.2239950695832613
0.2239950338282826
0.2384484966199621
0.2240402278463352
0.2239950794510374
0.2239950339676546
0.2393078058674443
0.2240481930063471
0.2239950917306145
0.2239950341511333
0.2403845197983334
0.2240601117524344
0.2239951123173985
0.2239950344662615
0.2239950343141026
0.2239951012108004
0.2240592834990647
0.2413754020049623
0.2239950345073362
0.2239951141298233
0.22406598429874
0.2415377680895788
0.223995034769078
0.2239951257363225
0.2240678639311216
0.2399392785190812
0.2239950339399578
0.2239950772016881
0.2240292284483984
0.2317489437817566
0.223995031337106
0.2239944920419476
0.2239917596476719
0.2236404486652473
0.2239950323204107
0.2239942164083923
0.2237519772531939
0.2093229855460584
0.2239950324580188
0.2239941135281348
0.2235744228771351
0.1943555006325269
0.2239950326854634
0.2239940660198707
0.2234308706007215
0.1869366375730119
0.1944693318333988
0.2237121817802822
0.2239944634932726
0.2239950326941713
0.1960740281422285
0.2237389247605061
0.2239945669488066
0.22399503287158
0.1996341748568769
0.223813820072859
0.2239947306466055
0.2239950330594605
0.1962551507097982
0.2237692770577068
0.2239946854806047
0.2239950330417528
0.2128234641004403
0.2239483203657364
0.2239949648587375
0.2239950333004384
0.2220527488197878
0.2239913526944091
0.2239950292116144
0.2239950333666809
0.2235415314339627
0.2239938008328397
0.2239950316105577
0.2239950333682931
0.2232584434024216
0.2239927190651267
0.2239950296970492
0.2239950333659031
0.2214471775691599
0.2239784357237567
0.2239949909550253
0.2239950333153296
0.221451827656938
0.2239784629302417
0.2239949910066043
0.2239950333153767
0.2214572530648178
0.2239785201172207
0.2239949910926613
0.2239950333143969
0.2215251194683582
0.2239788546646738
0.2239949917696716
0.2239950333130416
0.2232584434024259
0.2239927190650409
0.2239950296969437
0.2239950333657933
0.2235415314339918
0.2239938008326814
0.223995031610393
0.2239950333682642
0.2220527488196793
0.2239913526942992
0.2239950292116026
0.2239950333666601
0.2128234641005671
0.2239483203656155
0.2239949648587931
0.2239950333004473
0.2239950326942354
0.2239944634933087
0.2237121817803293
0.1944693318329894
0.2239950328715621
0.2239945669488233
0.2237389247607652
0.196074028142125
0.223995033059481
0.2239947306465651
0.2238138200727084
0.1996341748566503
0.2239950330417735
0.2239946854807277
0.2237692770577181
0.1962551507098124
0.1869366375729258
0.223430870600669
0.2239940660197938
0.223995032685495
0.1943555006324185
0.2235744228771369
0.2239941135282196
0.2239950324579931
0.2093229855459637
0.2237519772532195
0.2239942164083446
0.2239950323204828
0.2236404486652257
0.2239917596475623
0.2239944920418221
0.2239950313372002
0.2239950343140705
0.2239951012108992
0.2240592834992196
0.2413754020048845
0.2239950345073585
0.2239951141297678
0.2240659842988317
0.2415377680897734
0.2239950347689931
0.2239951257363693
0.2240678639311257
0.239939278519052
0.2239950339399896
0.2239950772016426
0.2240292284483915
0.2317489437817554
0.2403845197983992
0.2240601117522908
0.2239951123174382
0.2239950344664193
0.2393078058675104
0.2240481930063729
0.2239950917306233
0.2239950341511351
0.2384484966199329
0.2240402278463533
0.2239950794510442
0.2239950339676612
0.237581578500107
0.2240333020506209
0.2239950695833029
0.2239950338283198
0.2239950334218774
0.2239950375954867
0.2240017674754347
0.2299691843049551
0.2239950335694935
0.2239950500423655
0.224016411293967
0.2341555699169943
0.2239950336496378
0.2239950566366434
0.2240232678459293
0.2360557825660587
0.2239950337265478
0.2239950623173113
0.2240278911491936
0.2368545584693178
0.223995033362773
0.2239950333707059
0.2239950333699093
0.2239950333699092
0.2239950162770105
0.2239950334100054
0.223995033369114
0.2239950333699093
0.2239875801000748
0.2239950508031907
0.223995033245679
0.2239950333699067
0.2239254425770361
0.2239979556102088
0.2239950292475202
0.2239950333497548
0.2239950333699092
0.2239950333699092
0.2239950333694487
0.2239950331675436
0.2239950333699092
0.2239950333699092
0.2239950333688814
0.2239950329256001
0.2239950333699093
0.2239950333699275
0.2239950334060852
0.2239950459263786
0.2239950333699142
0.2239950333791559
0.2239950436691709
0.2239976241872619
0.2239950334884825
0.2239950428544142
0.224004194355966
0.2267378313471501
0.2239950334483377
0.2239950402583955
0.2240014531538894
0.2256647078945175
0.2239950333923715
0.2239950359599807
0.2239974854891007
0.2245774656808032
0.2239950333717593
0.2239950337071657
0.223995374096869
0.224073342844934
0.2274312157130638
0.2240004500215585
0.2239950366945363
0.2239950334150048
0.2270403364483895
0.2240004709970692
0.2239950374335428
0.2239950334192704
0.2270567059186642
0.2240002947591033
0.2239950371067323
0.2239950334147725
0.2268284245606959
0.2239997828710785
0.2239950360847532
0.2239950334043519
0.2266970687316208
0.2239944755170547
0.223995033379612
0.2239950333703339
0.2265424060883599
0.2239958361868609
0.2239950333703393
0.2239950333699093
0.2256789734329236
0.223995508409413
0.2239950333699093
0.2239950333699092
0.2244692833058068
0.2239952033969578
0.2239950333699093
0.2239950333699093
0.2239950333699092
0.2239950333699093
0.2239950333729806
0.2239950328091272
0.2239950333699093
0.2239950333699093
0.2239950333825975
0.2239950317654924
0.2239950333699093
0.2239950333699093
0.223995034547896
0.2239960102674355
0.2239950333699093
0.2239950333699092
0.2239950293979771
0.2240233852523258
0.2239950350175968
0.2239950315647843
0.2240034733594551
0.2243714579172283
0.22399503156478
0.2239949988773371
0.2240688157025526
0.2262093734571669
0.2240034733594628
0.2240688157025625
0.2254122422105716
0.2337805988209007
0.2243714579173367
0.2262093734572754
0.2337805988210637
0.2557988464749966
0.2829878335193164
0.259741505806651
0.249486624075572
0.2357294181811968
0.2836750097083451
0.2776447201406617
0.2748703399236511
0.2618380872584991
0.285719770267853
0.2868506570053608
0.2863086334310217
0.2790986275484531
0.2891047241394563
0.2924414301293698
0.2918076313529392
0.2845581567189312
0.2861846060134678
0.2864377020474682
0.2866231965652722
0.2896568644398131
0.2929978259513938
0.2929672298010627
0.2930080632638354
0.2985672669548176
0.2933309973430051
0.2931660929179907
0.293111823405687
0.2975125574261065
0.2893754928383672
0.2891432052747239
0.2889714175967899
0.287344216233154
0.2575901697006968
0.2388771623214404
0.2281996872574669
0.2245006074288488
0.2477784749566125
0.2321664914196323
0.2274639411377817
0.2246348433690761
0.2261941145989737
0.2271606790730505
0.2277101535987263
0.2248469481145493
0.2105994296478957
0.2220932617161387
0.2250278702863999
0.2241214772513846
0.2240123997075248
0.223995119821137
0.2239950239438599
0.2239950300368422
0.2240225159146541
0.2239951725931213
0.2239950239050901
0.2239950296650355
0.2240352073786164
0.2239952779154988
0.2239950261459949
0.2239950306400831
0.2239952933247111
0.2239949735510102
0.2239950294451647
0.2239950319482826
0.2239950328617329
0.2239950332647435
0.2240793447147989
0.2369217529550875
0.2239950328901793
0.2239950333705228
0.2241390163239703
0.2487227184193786
0.2239950330297967
0.2239950333932419
0.2241827250312439
0.2566286942021918
0.2239950332134429
0.2239950333971548
0.2241944528283085
0.2546578469364272
0.343223391084075
0.3662421087854123
0.3780273507889172
0.3800277535792632
0.368796803699099
0.3762865726811348
0.3910785734870286
0.39441995095071
0.3670000018056565
0.3683117244405339
0.3825927174990774
0.3875435797929074
0.3777256384721857
0.3697920226603175
0.3793534152458181
0.3847503164155016
0.3803602624601888
0.3806706241240596
0.3808795106706724
0.3810511371477775
0.3946075474808707
0.3946542929381322
0.3946146595585709
0.3944581738678031
0.3878746763299751
0.3878948791829426
0.3878570617816632
0.3877048020595312
0.3853067465882815
0.3853509493842626
0.3853518467930975
0.3850308468059657
0.3802064382156683
0.3776726047853862
0.3622561460763908
0.3099251652420939
0.3949346179898182
0.3927293744460268
0.3760739857379438
0.3285494711875742
0.3891214323298089
0.3886435663664951
0.3729893196092776
0.3298039219630254
0.3852803027201828
0.3843714339986395
0.3692999355217514
0.3590915265289129
0.2172006010815896
0.1236332667847631
0.07398602494764907
0.06209992674145083
0.1967865714401507
0.08934380147059676
0.06070539206789875
0.05209143885762092
0.1473782414464315
0.07582722344488983
0.06406100121177251
0.05806858618123985
0.0892340887795179
0.05329612040575531
0.06644947037154561
0.06730696520009447
0.06138580361376619
0.06239079892927845
0.06575936985629718
0.06087259210933328
0.05014583796788288
0.05186725383588354
0.05777072887164847
0.05401216773786951
0.05733314042089181
0.05989553225510061
0.06472297876902534
0.05854562282154761
0.06803043604261903
0.07136411900260188
0.07300633414593456
0.05588047402219091
0.1362302487138657
0.1915512073387096
0.2088157804348515
0.2032795190622721
0.1112516375555703
0.1662379826957015
0.1910493561551199
0.1963562338788015
0.09418240562136412
0.1495025241631132
0.1771197902627935
0.1938029219395467
0.06477794722269548
0.1196716404444258
0.1635423740085307
0.1906748680246611
0.2031501821000425
0.1850684426409896
0.1659799078719968
0.1416722129082584
0.1709587122101107
0.1551372225821268
0.1464926128586926
0.1240226119540264
0.1195081442602511
0.09422464038550606
0.1201614678856034
0.1233666810480731
0.09716804129988149
0.05174408977667832
0.05664495807284137
0.07061711516630322
0.07551494085546781
0.07135857096163864
0.05619424974968494
0.046884438481336
0.1091588892660457
0.08605059660730816
0.06867577765758351
0.06443013346176414
0.09976929983240508
0.08306177708462326
0.07670710368004544
0.07566765747347452
0.1233105311768777
0.1155054004599216
0.1133724057979491
0.112987959207662
0.04688443848134027
0.06443013346176185
0.07566765747346742
0.1129879592076176
0.05619424974969141
0.06867577765758272
0.07670710368004578
0.1133724057979403
0.0713585709616408
0.08605059660729146
0.08306177708463493
0.1155054004599645
0.07551494085548735
0.1091588892660431
0.09976929983240859
0.1233105311769114
0.1416722129083141
0.1659799078720648
0.1850684426410435
0.2031501821000481
0.1240226119540459
0.1464926128586941
0.1551372225821077
0.1709587122100857
0.123366681048095
0.1201614678856037
0.09422464038553696
0.1195081442602514
0.07061711516633203
0.05664495807286186
0.05174408977669617
0.09716804129987724
0.1906748680246558
0.1635423740085367
0.119671640444421
0.06477794722270236
0.1938029219395429
0.177119790262788
0.1495025241631056
0.09418240562138626
0.1963562338787955
0.1910493561551236
0.1662379826956767
0.1112516375555972
0.203279519062268
0.2088157804348558
0.1915512073386458
0.1362302487139137
0.06087259210933052
0.06575936985625623
0.06239079892926819
0.06138580361371796
0.05401216773787179
0.05777072887164889
0.05186725383590309
0.05014583796788468
0.05854562282154492
0.06472297876902945
0.05989553225512723
0.05733314042090071
0.0558804740221733
0.07300633414593057
0.07136411900265296
0.06803043604263495
0.06209992674149564
0.07398602494743335
0.1236332667844212
0.2172006010814705
0.05209143885765059
0.06070539206784088
0.08934380147049494
0.1967865714400005
0.05806858618125388
0.06406100121174085
0.07582722344483456
0.1473782414463857
0.06730696520009
0.06644947037154537
0.05329612040575737
0.08923408877949673
0.3099251652419886
0.3622561460763133
0.3776726047854204
0.3802064382156505
0.3285494711874721
0.3760739857378957
0.392729374446016
0.3949346179898037
0.3298039219629852
0.3729893196092404
0.3886435663664641
0.3891214323298285
0.3590915265288858
0.3692999355217513
0.3843714339986106
0.3852803027202302
0.3810511371477625
0.3808795106707332
0.3806706241239882
0.3803602624601023
0.3944581738678081
0.3946146595586515
0.3946542929381094
0.3946075474807915
0.3877048020595578
0.3878570617817034
0.3878948791828911
0.3878746763298873
0.3850308468059904
0.3853518467931369
0.3853509493841885
0.3853067465881762
0.3800277535793076
0.378027350788826
0.3662421087854862
0.3432233910840716
0.3944199509507111
0.3910785734870078
0.376286572681211
0.3687968036990918
0.387543579792917
0.3825927174990605
0.3683117244405977
0.3670000018057
0.3847503164155094
0.3793534152458206
0.3697920226603648
0.3777256384722109
0.236921752955056
0.2240793447147902
0.2239950332645011
0.2239950328617448
0.2487227184193577
0.2241390163239505
0.2239950333704054
0.2239950328902017
0.2566286942021898
0.2241827250312222
0.2239950333931926
0.22399503302982
0.2546578469364436
0.2241944528282871
0.2239950333971229
0.2239950332134549
0.223995030036851
0.2239950239438786
0.2239951198211076
0.224012399707546
0.2239950296650401
0.2239950239050738
0.2239951725930832
0.2240225159146925
0.2239950306400881
0.2239950261459729
0.2239952779154573
0.224035207378669
0.2239950319482841
0.2239950294451624
0.2239949735509452
0.2239952933247783
0.2245006074287568
0.2281996872574028
0.2388771623214464
0.2575901697007629
0.2246348433689958
0.2274639411377413
0.2321664914196288
0.2477784749566453
0.2248469481144875
0.2277101535987099
0.2271606790731
0.2261941145989835
0.2241214772513057
0.2250278702863808
0.2220932617161582
0.2105994296479096
0.2896568644397837
0.2866231965652844
0.2864377020475239
0.2861846060134277
0.2985672669547558
0.2930080632639101
0.292967229801137
0.2929978259513643
0.2975125574260271
0.2931118234057891
0.2931660929180779
0.2933309973430034
0.2873442162330912
0.2889714175968857
0.2891432052748191
0.2893754928383584
0.2845581567188917
0.2790986275484291
0.2618380872585589
0.2357294181812066
0.2918076313529324
0.286308633431047
0.2748703399236473
0.2494866240755094
0.2924414301293354
0.2868506570053662
0.2776447201406781
0.2597415058064735
0.2891047241394535
0.2857197702679208
0.2836750097083745
0.2829878335192156
0.2234962656572478
0.2239924251939943
0.2239950275060235
0.2239950333626068
0.2228031861684859
0.2239884966986436
0.2239950178017485
0.2239950333488792
0.2218330253716116
0.2239823052477853
0.2239950026603247
0.2239950333282147
0.2206398710863108
0.2239757748034357
0.2239949889241331
0.2239950333119743
0.2239950333154409
0.2239949909550353
0.2239784357237555
0.2214471775691205
0.2239950333153149
0.2239949910066655
0.2239784629302714
0.2214518276569235
0.2239950333144025
0.2239949910925634
0.223978520117225
0.2214572530647356
0.2239950333130858
0.2239949917696388
0.2239788546647523
0.221525119468279
0.2239950333118414
0.2239950333282808
0.2239950333489262
0.2239950333625271
0.2239949889240253
0.2239950026603129
0.2239950178017762
0.2239950275060875
0.2239757748034027
0.2239823052477665
0.2239884966987321
0.2239924251939504
0.2206398710862391
0.2218330253715843
0.2228031861685654
0.223496265657276
)
;

boundaryField
{
    back
    {
        type            empty;
    }
    inlet
    {
        type            calculated;
        value           nonuniform List<scalar> 
16
(
0.2239950333699092
0.2239950333699093
0.2239950333699093
0.2239950333699091
0.2239950333699093
0.2239950333699093
0.2239950333699092
0.2239950333703098
0.2239950333703339
0.2239950333699093
0.2239950333699092
0.2239950333699093
0.2239950333699092
0.2239950333699093
0.2239950333699093
0.2239950333699093
)
;
    }
    front
    {
        type            empty;
    }
    top
    {
        type            calculated;
        value           nonuniform List<scalar> 
40
(
0.2239950334042332
0.2239950334148547
0.2239950334192676
0.2239950334149132
0.2239950334884702
0.2239950334484443
0.2239950333923427
0.2239950333717701
0.2239950333699219
0.2239950333699093
0.2239950333699092
0.2239950333699093
0.2239950333699092
0.2239950333699092
0.223995033370713
0.2239950333627622
0.2239950334218545
0.2239950335693865
0.2239950336495121
0.2239950337265656
0.2239950338282826
0.2239950339676546
0.2239950341511333
0.2239950344662615
0.2239950343141026
0.2239950345073362
0.223995034769078
0.2239950339399578
0.223995031337106
0.2239950323204107
0.2239950324580189
0.2239950326854634
0.2239950326941713
0.22399503287158
0.2239950330594605
0.2239950330417528
0.2239950333004383
0.223995033366681
0.2239950333682931
0.2239950333659031
)
;
    }
    outlet
    {
        type            calculated;
        value           uniform 0.2239950333699093;
    }
    bottom
    {
        type            calculated;
        value           nonuniform List<scalar> 
40
(
0.2239950333657933
0.2239950333682642
0.2239950333666601
0.2239950333004473
0.2239950326942354
0.2239950328715621
0.223995033059481
0.2239950330417735
0.223995032685495
0.2239950324579931
0.2239950323204828
0.2239950313372002
0.2239950343140705
0.2239950345073586
0.2239950347689931
0.2239950339399896
0.2239950344664193
0.2239950341511351
0.2239950339676612
0.2239950338283197
0.2239950334218774
0.2239950335694934
0.2239950336496378
0.2239950337265478
0.223995033362773
0.2239950333707059
0.2239950333699093
0.2239950333699092
0.2239950333699092
0.2239950333699092
0.2239950333699093
0.2239950333699142
0.2239950334884825
0.2239950334483377
0.2239950333923715
0.2239950333717593
0.2239950334150048
0.2239950334192704
0.2239950334147725
0.2239950334043519
)
;
    }
    wall
    {
        type            calculated;
        value           nonuniform List<scalar> 
104
(
0.2829878335193164
0.2836750097083451
0.285719770267853
0.2891047241394563
0.2893754928383672
0.2891432052747239
0.2889714175967899
0.287344216233154
0.2105994296478957
0.2220932617161387
0.2250278702863999
0.2241214772513846
0.2239952933247111
0.2239949735510102
0.2239950294451647
0.2239950319482826
0.2239950332134429
0.2239950333971548
0.2241944528283085
0.2546578469364272
0.3777256384721857
0.3697920226603175
0.3793534152458181
0.3847503164155016
0.3853067465882815
0.3853509493842626
0.3853518467930975
0.3850308468059657
0.3852803027201828
0.3843714339986395
0.3692999355217514
0.3590915265289129
0.0892340887795179
0.05329612040575531
0.06644947037154561
0.06730696520009447
0.06803043604261903
0.07136411900260188
0.07300633414593456
0.05588047402219091
0.06477794722269548
0.1196716404444258
0.1635423740085307
0.1906748680246611
0.09716804129988149
0.05174408977667833
0.05664495807284137
0.07061711516630322
0.07551494085546781
0.07135857096163864
0.05619424974968494
0.046884438481336
0.04688443848134027
0.0561942497496914
0.0713585709616408
0.07551494085548735
0.07061711516633203
0.05664495807286186
0.05174408977669617
0.09716804129987724
0.1906748680246558
0.1635423740085367
0.1196716404444211
0.06477794722270236
0.0558804740221733
0.07300633414593057
0.07136411900265296
0.06803043604263495
0.06730696520009
0.06644947037154537
0.05329612040575737
0.08923408877949673
0.3590915265288858
0.3692999355217513
0.3843714339986106
0.3852803027202302
0.3850308468059904
0.3853518467931369
0.3853509493841885
0.3853067465881762
0.3847503164155094
0.3793534152458206
0.3697920226603648
0.3777256384722109
0.2546578469364436
0.2241944528282871
0.2239950333971229
0.2239950332134548
0.2239950319482841
0.2239950294451623
0.2239949735509452
0.2239952933247783
0.2241214772513057
0.2250278702863808
0.2220932617161582
0.2105994296479096
0.2873442162330912
0.2889714175968857
0.2891432052748191
0.2893754928383584
0.2891047241394535
0.2857197702679208
0.2836750097083745
0.2829878335192156
)
;
    }
}


// ************************************************************************* //
