/*--------------------------------*- C++ -*----------------------------------*\
  =========                 |
  \\      /  F ield         | OpenFOAM: The Open Source CFD Toolbox
   \\    /   O peration     | Website:  https://openfoam.org
    \\  /    A nd           | Version:  11
     \\/     M anipulation  |
\*---------------------------------------------------------------------------*/
FoamFile
{
    format      ascii;
    class       volVectorField;
    location    "0.02";
    object      U;
}
// * * * * * * * * * * * * * * * * * * * * * * * * * * * * * * * * * * * * * //

dimensions      [0 1 -1 0 0 0 0];

internalField   nonuniform List<vector> 
880
(
(25 -1.410097837039938e-15 0)
(25 0 0)
(25 -5.176382518327322e-14 0)
(25.00000000156773 1.201575494744874e-10 0)
(25 3.386714797046592e-16 0)
(25 -1.830441340445274e-15 0)
(24.99999999999978 -1.060892703374973e-11 0)
(25.00000001800433 -1.729394391108539e-08 0)
(25 9.75944865284801e-16 0)
(24.99999999999999 1.185574515252795e-15 0)
(24.99999999960073 5.304366279734551e-11 0)
(24.99999857527176 3.573464249436617e-07 0)
(25.00000000000002 6.263664965272589e-16 0)
(25 -2.773161138717086e-16 0)
(24.99999998117169 -1.297729625542811e-08 0)
(24.99978147915357 1.270994423312447e-05 0)
(25 -1.434370788590964e-15 0)
(25 3.454880849907841e-16 0)
(25.00000000000001 1.267750737669139e-15 0)
(25 1.462443190771057e-13 0)
(25 0 0)
(25 3.542027057387636e-15 0)
(24.99999999999917 3.251958912712608e-12 0)
(25.00000000002813 -7.516965841621606e-11 0)
(24.99999951030113 6.193593390360771e-07 0)
(24.99999903238274 1.359961443515717e-06 0)
(24.99999920069294 1.414204176506923e-06 0)
(24.99999894520933 2.732323884383084e-08 0)
(24.99750720384655 0.006486346408048879 0)
(24.99443655039835 0.01971029132639596 0)
(24.99483745277943 0.02359031411124923 0)
(24.99539626554634 0.02147561466147865 0)
(24.9999999999879 -1.518698070303739e-11 0)
(24.99999999997922 -1.791059405935304e-11 0)
(24.99999999997836 -1.933897801291176e-11 0)
(24.99999999998976 -1.378075135965067e-11 0)
(24.99999999947846 2.876752734857978e-09 0)
(24.99999999959192 3.417353219181457e-09 0)
(24.99999999958414 3.703284465762638e-09 0)
(24.99999999916002 2.70198182743473e-09 0)
(24.99999822251205 1.008280093172378e-05 0)
(24.99999806068613 1.111228081825607e-05 0)
(24.99999801916737 1.173474662899761e-05 0)
(24.99999708537416 1.04022511393613e-05 0)
(24.99474474167219 0.02343999998080016 0)
(24.99481291711627 0.02545778666399087 0)
(24.99480473807715 0.02606204685772591 0)
(24.99374035493021 0.02654280814833504 0)
(25.00138267666006 0.02451908119695614 0)
(25.00345676363522 0.008396719395118581 0)
(25.00058606800015 0.0007317625517290655 0)
(25.00001442523012 1.378547586301488e-05 0)
(25.00000027686611 2.069518898115316e-05 0)
(25.00000228092383 9.247069436568769e-06 0)
(25.00000057196355 1.136654935321893e-06 0)
(25.00000001838131 2.518960677370316e-08 0)
(25.00000000010282 1.000323131412088e-08 0)
(25.00000000087111 4.79951849707724e-09 0)
(25.00000000023684 6.319805421888323e-10 0)
(25.00000000000766 1.431181054772205e-11 0)
(24.99999999993604 -5.554243186127797e-11 0)
(24.99999999996523 -2.566717286867214e-11 0)
(24.99999999999882 -3.056236186338389e-12 0)
(25.00000000000001 -6.488115159090998e-14 0)
(25 -1.249792067522028e-15 0)
(25 -3.507856321528696e-16 0)
(25.00000000000001 1.874735402468774e-15 0)
(25 -1.87388398103155e-15 0)
(25 3.047791205655133e-14 0)
(25 -1.658289730178779e-15 0)
(25.00000000000001 -3.931049396116828e-16 0)
(25 8.931380359982717e-17 0)
(25.00000000005632 4.618627346567084e-11 0)
(24.99999999999931 -4.180080769023577e-12 0)
(24.99999999999997 -9.030844186191595e-13 0)
(25 -2.595869682535408e-14 0)
(25.00000004166127 1.059248239762016e-08 0)
(24.99999999848306 -5.487264550186495e-09 0)
(24.99999999929524 -9.020342039549189e-10 0)
(24.99999999997355 -1.803687061108736e-11 0)
(25.00000000001885 8.815842036684076e-12 0)
(24.99999999999999 1.722334976341792e-13 0)
(25 1.383630024416115e-15 0)
(25 2.187207069946198e-16 0)
(24.99999998642452 -1.265526268717467e-08 0)
(24.99999999988993 -1.978648333741443e-10 0)
(24.99999999999995 -1.901001798059979e-12 0)
(25.00000000000001 -1.28564637026649e-16 0)
(25.00000770764576 1.710391186345674e-05 0)
(25.00000004194377 1.880120267524015e-07 0)
(25.00000000000646 9.447906006686385e-11 0)
(25 -4.18078766072551e-13 0)
(25.00127425620852 -0.01481189899872274 0)
(25.00000016782914 -1.409459135802904e-05 0)
(24.99999999998899 -6.652195854403873e-09 0)
(24.99999999999858 -2.139265042452126e-12 0)
(24.99999999999151 -1.280804895126514e-11 0)
(24.99999999881224 2.725115063860047e-09 0)
(24.99999347651789 9.950748216021141e-06 0)
(24.97367352552517 0.02924056643720305 0)
(24.99999999997787 -2.789200225658156e-11 0)
(24.99999999798676 6.089146179568092e-09 0)
(24.99998933567935 2.178033141714819e-05 0)
(24.96176409714684 0.06175032832885977 0)
(24.99999999997165 -3.573785109380123e-11 0)
(24.99999999752233 7.573288015299127e-09 0)
(24.99998772025792 2.550630406058199e-05 0)
(24.95980337552874 0.06711370458038263 0)
(24.99999999996219 -4.500700998867444e-11 0)
(24.99999999695784 9.29604814016502e-09 0)
(24.99998591796527 2.9241888222176e-05 0)
(24.95783052748475 0.07042916606998963 0)
(24.95564003328432 0.07407432237173986 0)
(24.99998373788015 3.374915278158519e-05 0)
(24.99999999623203 1.151713706401089e-08 0)
(24.999999999951 -5.725864267146523e-11 0)
(24.95323298221608 0.07812793863927281 0)
(24.99998109530173 3.925541670878125e-05 0)
(24.99999999529037 1.442665063745077e-08 0)
(24.99999999993929 -7.360719253128319e-11 0)
(24.95040747019456 0.08251163415850311 0)
(24.99997772404481 4.589116264950058e-05 0)
(24.99999999398162 1.820067721495518e-08 0)
(24.99999999991968 -9.540126881502255e-11 0)
(24.94767063118274 0.08881389051701948 0)
(24.99997390373014 5.562169412610004e-05 0)
(24.99999999248216 2.411210110749749e-08 0)
(24.99999999988761 -1.314025410652148e-10 0)
(24.99999999991924 -9.266664819823715e-11 0)
(24.99999999494596 1.593855716236035e-08 0)
(24.99998051396021 4.115296092498549e-05 0)
(24.95602566386833 0.07582601019107817 0)
(24.99999999991358 -1.015070800686416e-10 0)
(24.99999999412299 1.698748961580192e-08 0)
(24.9999802630699 3.99782790041136e-05 0)
(24.96112543470517 0.06588598348111011 0)
(24.99999999993448 -1.121717468722062e-10 0)
(24.99999999356804 1.88262761157025e-08 0)
(24.99998059537583 3.93537741596588e-05 0)
(24.96700226449168 0.05637747350584407 0)
(24.99999999985635 -8.86582692544414e-11 0)
(24.99999999881472 2.352771181162119e-10 0)
(24.999993178085 1.096436041136069e-05 0)
(24.98939708525179 0.01993672310108519 0)
(24.99999999933656 -5.46630885063913e-10 0)
(24.99999877123297 -1.399777815262065e-06 0)
(24.99871941080191 -0.0008332641345301683 0)
(24.88555343848734 -0.09380912749617709 0)
(24.99999999910122 -1.253966797994698e-09 0)
(24.99999759977481 -2.171741658477237e-06 0)
(24.99693128702716 -0.001255827549794024 0)
(24.35558667882136 -0.1319969271679858 0)
(24.99999999923912 -9.331315472723925e-10 0)
(24.99999764131111 -1.763624718138915e-06 0)
(24.99649839749947 -0.001034139249164312 0)
(24.14647694097446 -0.05244762106476335 0)
(24.99999999954296 -4.979476818369452e-10 0)
(24.99999836281742 -1.182955181134366e-06 0)
(24.99686089612844 -0.000682411409109753 0)
(24.10594812570608 0.01584490945225825 0)
(24.3542351087529 -0.01325348535704628 0)
(24.99798874237971 -0.0009230391055024907 0)
(24.9999986436193 -1.458077811301231e-06 0)
(24.99999999935806 -7.876637070149605e-10 0)
(24.38608315954555 0.00177173768063739 0)
(24.99827503199371 -0.000740413464328569 0)
(24.99999895128821 -1.101063299276976e-06 0)
(24.99999999949207 -5.345697229072094e-10 0)
(24.44216463556305 -0.01516072612346383 0)
(24.9986500436288 -0.0006393823417115117 0)
(24.99999925949452 -8.350878023753452e-07 0)
(24.9999999996421 -3.706051573693529e-10 0)
(24.29207846099911 0.07861362417587893 0)
(24.99818700881481 -0.0006240047014987937 0)
(24.99999903965422 -9.078829291430545e-07 0)
(24.99999999966886 -4.795459756487849e-10 0)
(24.88938257762029 0.009608037083604262 0)
(24.99983329879685 -7.544447139557406e-05 0)
(24.99999991244797 -8.388309180694904e-08 0)
(24.99999999996937 -4.753269140144869e-11 0)
(24.99702955085993 -0.0001331306310322067 0)
(24.99999793164279 -1.436723109943562e-06 0)
(24.99999999936545 -7.668521315994641e-10 0)
(25.00000000000424 2.512513294994916e-13 0)
(25.00006891932032 -0.001542969980001927 0)
(25.00000008350128 -2.139005872671087e-06 0)
(25.00000000007594 -1.514006984440865e-09 0)
(25 -6.743681011021322e-13 0)
(25.0001525570795 -0.00554621404141837 0)
(25.00000045775712 -7.35385217208116e-06 0)
(25.00000000023049 -4.938355168240403e-09 0)
(24.99999999999969 -2.454889245096968e-12 0)
(24.98276450091823 -2.583474389215738e-06 0)
(24.99996529121457 -6.118338966282713e-10 0)
(24.99999999174875 2.779691645576383e-12 0)
(25.00000000040509 7.730785617833943e-14 0)
(24.98279150879627 1.50148431268498e-06 0)
(24.99996529346213 5.324100015354737e-08 0)
(24.99999999154287 2.313169347853472e-10 0)
(25.00000000039788 2.630564004480137e-12 0)
(24.98280271730194 6.934382335677198e-05 0)
(24.99996491023263 3.906788221493908e-07 0)
(24.9999999882859 2.131643531200004e-09 0)
(25.00000000034017 2.72919509250843e-11 0)
(24.98294221666515 0.0003932023719774407 0)
(24.99996410583045 1.297824539402616e-06 0)
(24.99999997861669 4.502094973359203e-09 0)
(25.00000000016396 4.841335750641118e-11 0)
(25.00015255707848 0.005546214041539045 0)
(25.00000045776294 7.353851459960264e-06 0)
(25.00000000023734 4.93815858957111e-09 0)
(25.00000000000015 2.488569786341899e-12 0)
(25.00006891931887 0.001542969977234744 0)
(25.00000008351031 2.139006272866154e-06 0)
(25.00000000008374 1.515005102543582e-09 0)
(24.99999999999999 6.857250590866138e-13 0)
(24.99702955086969 0.0001331306303520699 0)
(24.99999793164934 1.436723498989826e-06 0)
(24.99999999936528 7.670645197491665e-10 0)
(25.00000000000425 -2.502816889885531e-13 0)
(24.88938257760533 -0.009608037080844085 0)
(24.99983329880466 7.544447195863427e-05 0)
(24.99999991244581 8.388337404155117e-08 0)
(24.99999999996918 4.756141682960544e-11 0)
(24.99999999935426 7.878575025947054e-10 0)
(24.99999864361786 1.458077525437898e-06 0)
(24.99798874237435 0.0009230391023303654 0)
(24.35423510874998 0.01325348535294526 0)
(24.99999999949284 5.346510055027809e-10 0)
(24.9999989512867 1.101063833984027e-06 0)
(24.99827503197767 0.0007404134691203215 0)
(24.38608315953537 -0.001771737673196492 0)
(24.9999999996408 3.704771656368201e-10 0)
(24.99999925949775 8.350877663004054e-07 0)
(24.99865004363765 0.0006393823422735225 0)
(24.44216463557709 0.0151607261234123 0)
(24.9999999996681 4.795631866103769e-10 0)
(24.99999903964655 9.078816937918772e-07 0)
(24.99818700881319 0.0006240047012715758 0)
(24.29207846100236 -0.07861362418294027 0)
(24.10594812569044 -0.01584490944958561 0)
(24.99686089613257 0.0006824114076839278 0)
(24.99999836282137 1.18295512987636e-06 0)
(24.99999999954215 4.977215947738051e-10 0)
(24.14647694096775 0.05244762106314689 0)
(24.99649839749749 0.001034139250209569 0)
(24.99999764130637 1.763625238308205e-06 0)
(24.99999999923998 9.333158400160332e-10 0)
(24.3555866788154 0.1319969271677229 0)
(24.99693128702476 0.001255827548516539 0)
(24.99999759977811 2.171740781594981e-06 0)
(24.99999999909749 1.254210285850427e-09 0)
(24.88555343848664 0.0938091274961996 0)
(24.99871941080881 0.0008332641351954463 0)
(24.99999877124036 1.399778791084922e-06 0)
(24.99999999933145 5.464398861285976e-10 0)
(24.99999999991993 9.276236877271781e-11 0)
(24.99999999494139 -1.593853005181849e-08 0)
(24.99998051395234 -4.115296213923392e-05 0)
(24.9560256638774 -0.07582601018989057 0)
(24.99999999991275 1.015834864609302e-10 0)
(24.99999999412614 -1.698763224490472e-08 0)
(24.99998026306487 -3.997827906673828e-05 0)
(24.96112543469723 -0.06588598348296955 0)
(24.99999999993818 1.12251707346687e-10 0)
(24.9999999935652 -1.882650174787297e-08 0)
(24.99998059537565 -3.935377381518837e-05 0)
(24.96700226449472 -0.05637747350445275 0)
(24.99999999985493 8.849828576053436e-11 0)
(24.99999999881681 -2.347706614548201e-10 0)
(24.99999317808529 -1.096436038961406e-05 0)
(24.98939708525187 -0.01993672310114876 0)
(24.94767063118305 -0.08881389051764416 0)
(24.99997390373816 -5.562169366175887e-05 0)
(24.99999999248004 -2.411200894756953e-08 0)
(24.99999999988166 1.313791251089307e-10 0)
(24.95040747019446 -0.08251163415851268 0)
(24.99997772404211 -4.58911621509876e-05 0)
(24.99999999398111 -1.820074133695335e-08 0)
(24.9999999999197 9.533009328605138e-11 0)
(24.95323298222029 -0.07812793863947631 0)
(24.9999810953026 -3.925541687781913e-05 0)
(24.99999999529031 -1.442665777773905e-08 0)
(24.99999999993901 7.361545611028331e-11 0)
(24.95564003328545 -0.07407432237134312 0)
(24.99998373787289 -3.374915282725224e-05 0)
(24.9999999962298 -1.151714426210678e-08 0)
(24.99999999994921 5.727263038138226e-11 0)
(24.99999999999126 1.281674035401456e-11 0)
(24.99999999881064 -2.725127464586003e-09 0)
(24.99999347652001 -9.950748076961999e-06 0)
(24.97367352552935 -0.02924056643705584 0)
(24.99999999997332 2.791451521294014e-11 0)
(24.99999999798185 -6.089214881716751e-09 0)
(24.99998933568362 -2.178033109374715e-05 0)
(24.9617640971447 -0.06175032832921099 0)
(24.99999999996736 3.573148366036648e-11 0)
(24.9999999975187 -7.573321212843861e-09 0)
(24.99998772025627 -2.550630396708051e-05 0)
(24.95980337553284 -0.06711370458013899 0)
(24.99999999996269 4.499662903337418e-11 0)
(24.99999999695934 -9.296043979201169e-09 0)
(24.99998591796654 -2.924188832824595e-05 0)
(24.95783052748862 -0.07042916606987235 0)
(24.99999999999891 2.135602700440935e-12 0)
(25.00000000000001 4.182779040865016e-13 0)
(25 -8.921004614883174e-17 0)
(25 -1.339569727959877e-16 0)
(24.9999999999968 6.652462174251988e-09 0)
(25.00000000000871 -9.446629349984694e-11 0)
(25.00000000000074 1.910784990473684e-12 0)
(25 -1.312382224072833e-15 0)
(25.0000001678343 1.409459111126062e-05 0)
(25.00000004194118 -1.88011968514167e-07 0)
(24.99999999989165 1.977613069622398e-10 0)
(25.00000000000001 -1.739434583919236e-13 0)
(25.00127425621136 0.01481189899844206 0)
(25.00000770764544 -1.71039120516672e-05 0)
(24.99999998642256 1.265553101115581e-08 0)
(25.00000000001885 -8.822044178800746e-12 0)
(25 7.549270077063595e-16 0)
(25 -7.224143052239987e-16 0)
(25 2.644719703692549e-14 0)
(24.99999999997306 1.801736742013249e-11 0)
(25.00000000000001 -9.264411261254212e-16 0)
(25.00000000000001 -1.187275151522292e-15 0)
(24.99999999999974 9.115045717366042e-13 0)
(24.99999999929397 9.023418023677816e-10 0)
(25 3.782203229084299e-16 0)
(25 1.932949435937005e-15 0)
(25.00000000000005 4.178325724551049e-12 0)
(24.99999999848846 5.487282806076803e-09 0)
(25.00000000000001 3.547589321927755e-16 0)
(25 -3.182732958725738e-14 0)
(25.00000000005542 -4.625600886599373e-11 0)
(25.00000004166246 -1.0592613692642e-08 0)
(24.99999999993489 5.526274597381993e-11 0)
(25.00000000010851 -1.000301124989753e-08 0)
(25.00000027686531 -2.069518917556962e-05 0)
(25.00138267665357 -0.02451908119631488 0)
(24.99999999996944 2.549457933712511e-11 0)
(25.00000000086748 -4.799061712078693e-09 0)
(25.00000228092049 -9.247069492285776e-06 0)
(25.00345676363149 -0.008396719396721852 0)
(24.99999999999873 3.142163151428261e-12 0)
(25.00000000023978 -6.321338216132494e-10 0)
(25.00000057196678 -1.136654938547099e-06 0)
(25.00058606800512 -0.0007317625527176707 0)
(25.00000000000001 6.344518203579617e-14 0)
(25.00000000000802 -1.42668991411051e-11 0)
(25.00000001837981 -2.518959794575149e-08 0)
(25.0000144252374 -1.378547474934103e-05 0)
(24.9937403549336 -0.02654280814659768 0)
(24.99999708537631 -1.040225189528834e-05 0)
(24.99999999916216 -2.701674671387042e-09 0)
(24.9999999999869 1.412244694136419e-11 0)
(24.99480473808233 -0.02606204685739574 0)
(24.99999801916118 -1.173474721695545e-05 0)
(24.99999999959109 -3.702996594227387e-09 0)
(24.99999999997829 1.941530823247926e-11 0)
(24.99481291711149 -0.02545778666561307 0)
(24.99999806067991 -1.111228106954047e-05 0)
(24.99999999959945 -3.417213653033126e-09 0)
(24.99999999998279 1.782765312873718e-11 0)
(24.99474474168017 -0.02343999997936004 0)
(24.99999822251873 -1.008279841382991e-05 0)
(24.99999999948183 -2.877028513942338e-09 0)
(24.99999999998374 1.518866724759451e-11 0)
(24.99539626554884 -0.02147561466158085 0)
(24.9999989452042 -2.732505393244708e-08 0)
(25.00000000002747 7.487322291015286e-11 0)
(25 -1.34214529692667e-13 0)
(24.99483745278149 -0.02359031411107885 0)
(24.99999920069585 -1.414203189578442e-06 0)
(25.00000000000094 -3.173712179935883e-12 0)
(25 4.702133248789335e-16 0)
(24.99443655040212 -0.01971029132624102 0)
(24.9999990323843 -1.359961347278563e-06 0)
(25 -8.480758230405422e-15 0)
(25 -6.138458051427627e-16 0)
(24.9975072038512 -0.006486346407283915 0)
(24.999999510305 -6.193594391216964e-07 0)
(25 -6.558302719147964e-17 0)
(25 -1.357660471903524e-15 0)
(25.00000000000001 1.410274143345486e-15 0)
(25 9.593229136275479e-16 0)
(25 4.938761111454275e-14 0)
(25.00000000156934 -1.20671124132544e-10 0)
(25 -6.771737082947998e-16 0)
(25 0 0)
(24.99999999999978 1.056885852594502e-11 0)
(25.00000001800338 1.729480507181379e-08 0)
(25 0 0)
(25 -3.136258165350148e-16 0)
(24.99999999960085 -5.315376855265066e-11 0)
(24.99999857526972 -3.57346468040455e-07 0)
(25 1.515519556182198e-15 0)
(25 4.424016995833419e-16 0)
(24.99999998117349 1.297711246601087e-08 0)
(24.99978147915871 -1.270994705264888e-05 0)
(25.00000003032498 -9.640679197382908e-13 0)
(25.00000010351633 2.550358154119906e-07 0)
(25.00000624368163 -3.08217250773573e-05 0)
(24.99641852750345 -0.00250069291264053 0)
(25.00000010351604 -2.550359710205237e-07 0)
(24.99999956292885 -5.141098282614388e-13 0)
(24.99955837530966 -0.0008580834315875856 0)
(24.95510188097011 -0.04140018915753262 0)
(25.00000624368049 3.082172577331685e-05 0)
(24.99955837530818 0.0008580834296098577 0)
(24.9618255797972 4.475533559670762e-13 0)
(24.3950596865643 -0.1696265374117679 0)
(24.99641852749703 0.002500692910177895 0)
(24.9551018809669 0.04140018915028394 0)
(24.39505968655962 0.1696265374135898 0)
(22.1752658413892 2.504925551885957e-12 0)
(21.87977962588798 2.39523087246778 0)
(22.7590156206988 2.959236654912159 0)
(24.4227441304703 1.524989753517044 0)
(24.84000233995956 0.4075932375692177 0)
(22.58534186608761 4.709501717295312 0)
(22.86053957032973 5.410006767048198 0)
(24.31889647884019 3.645404972253033 0)
(24.64143624047958 1.459970543434644 0)
(22.9801462118119 5.248329862460113 0)
(23.21714119999426 6.068742195011636 0)
(24.5256102849585 4.325257114121965 0)
(24.67005394890591 1.887146890034043 0)
(23.01650791471633 5.29659060311585 0)
(23.26597336164582 6.127992528323293 0)
(24.55583174216498 4.374874022646968 0)
(24.67779468206765 1.900674152014441 0)
(24.63976034887771 2.026102434889558 0)
(24.6521552949298 2.093876787845391 0)
(24.65775484053033 2.104820620974006 0)
(24.57305572352332 2.219694399737589 0)
(24.5196751276436 4.46995342270093 0)
(24.54889266986284 4.516403643918504 0)
(24.55921797053972 4.526045754514399 0)
(24.56300314638413 4.957564675986501 0)
(23.18925051761352 6.196116172869369 0)
(23.22033449423364 6.222159052602726 0)
(23.23261140746152 6.231333828317714 0)
(23.6222324447076 7.069480361474889 0)
(22.97036962317571 5.294975692708613 0)
(23.01363632422091 5.32575226012386 0)
(23.02998354497022 5.337472563834619 0)
(24.43372140326845 6.589764478909882 0)
(25.23306229164355 1.322643988185855 0)
(25.17630454659207 0.2537213974697225 0)
(25.01545942720202 0.01218446018838323 0)
(25.00024756894489 9.082354895446768e-05 0)
(26.03465620878424 2.102857541686443 0)
(25.38317740491807 0.3003831558836826 0)
(25.02375724484848 0.009557510002997571 0)
(25.00026528066435 2.857531891555668e-05 0)
(26.8399227730587 2.456623157800769 0)
(25.51839807025699 0.2024258386857209 0)
(25.02881894773915 0.001594080376354017 0)
(25.00027190314053 -6.016789156968026e-05 0)
(25.80648331972644 0.8710192496191965 0)
(25.00906643021614 -0.04388748599496904 0)
(24.99834127016814 -0.004112272177989633 0)
(24.99991567360091 -4.388817296307601e-05 0)
(25.00000035132242 -1.16376884443057e-06 0)
(24.99999984275896 -3.94113996419716e-07 0)
(24.99999997355849 -2.378184578695212e-08 0)
(24.99999999966888 -1.345217387645706e-10 0)
(25.00000054901185 -4.022252514902103e-06 0)
(24.99999965961486 -9.860909612237979e-07 0)
(24.9999999681691 -3.075715613751643e-08 0)
(24.99999999977797 -6.226369985556235e-11 0)
(25.00000444860346 -7.737099741756022e-06 0)
(25.00000062470098 -1.974470895265483e-06 0)
(25.00000001262899 -6.067957841697669e-08 0)
(25.00000000004875 -1.709320075118448e-10 0)
(24.99997451466724 -9.301212490014223e-06 0)
(24.99999403232288 -1.978417961549946e-06 0)
(24.99999971716016 -7.496692623994717e-08 0)
(24.99999999855883 -2.84505083523732e-10 0)
(24.99999999996999 1.107939436696631e-11 0)
(25.00000000221884 -6.746352607704137e-10 0)
(24.99986952607213 0.0004090160023529914 0)
(25.1425738814338 -0.6635580393153374 0)
(24.99999999998871 1.042084939230884e-11 0)
(25.00000000026388 -2.526872069052018e-10 0)
(24.99750945975537 0.004012432167264875 0)
(25.18955234619789 -1.024327564606298 0)
(25.00000000000028 1.216537992538979e-12 0)
(25.0000000000052 -1.477419859570752e-11 0)
(24.98169811464354 0.01249928463306453 0)
(24.06545935455385 -0.7201567581019023 0)
(25.00000000000001 -4.987073799000186e-14 0)
(25.00000000000001 1.768156602898702e-12 0)
(24.95071819192142 -0.01110520882867364 0)
(20.75022721891472 -2.355613871354623 0)
(22.09378233325756 3.431434960481742 0)
(21.76492441557758 5.441622294371771 0)
(21.81801192367638 5.622158196271023 0)
(21.81703623426273 5.628174760887035 0)
(17.98520669978565 8.156952150833579 0)
(19.14363099848977 10.6926904101793 0)
(19.31648720204267 10.90952317431209 0)
(19.32005781909871 10.91160498110866 0)
(14.01850836555859 9.475624467190004 0)
(15.83831163293412 12.39162490408069 0)
(16.03538045970539 12.63162718272298 0)
(16.03918728365985 12.6327653616396 0)
(13.40583912678393 7.90724825007673 0)
(15.90511726726932 10.89156127041865 0)
(16.19174446240642 11.11127184882661 0)
(16.19731057073701 11.11186292295315 0)
(21.81353158514987 5.633040411811456 0)
(21.8093869062206 5.638904084534924 0)
(21.80473089718906 5.645571392724733 0)
(21.82394879472948 5.68248974362266 0)
(19.31977763714746 10.91173259861929 0)
(19.31940089221361 10.91226445891941 0)
(19.31967311452982 10.91310263374243 0)
(19.36784059129839 10.92695856796334 0)
(16.03923608462127 12.63195954737347 0)
(16.03948499399231 12.63153477054234 0)
(16.0402959736252 12.63127498719896 0)
(16.08461210245004 12.6326668354825 0)
(16.19701387730366 11.11129950816993 0)
(16.19691318539497 11.11117716171958 0)
(16.19746016515025 11.11119627212241 0)
(16.2320036295523 11.11190235072239 0)
(22.27899786796971 4.952391650546287 0)
(22.53313371148914 4.404560555968287 0)
(22.89318254490166 3.833642179995962 0)
(24.05510322184935 1.70712328400095 0)
(19.66694437603916 10.55197890924386 0)
(19.8464466925365 10.18350514490691 0)
(20.35462446839167 9.663821163227674 0)
(22.34411908887122 7.501533415628112 0)
(16.24106537062618 12.52704996874639 0)
(16.28758090436884 12.38821689200608 0)
(16.92576295556842 12.26531738157698 0)
(20.5915246737797 14.18266896606213 0)
(16.30495920602452 11.0343443559256 0)
(16.38152771836768 10.8667015313795 0)
(17.27306619957366 10.87908084192831 0)
(26.27217454905866 14.75354726278025 0)
(24.64093436597778 -1.162353863655938 0)
(17.01210809298881 -2.805003801405454 0)
(9.867388386268331 -0.4560310385627246 0)
(9.434609726161478 -0.0948033285726208 0)
(24.75054574359189 -1.292684195214088 0)
(12.61552410272967 -4.429201305861486 0)
(2.472664882565498 -0.6660644716438335 0)
(1.578630587568158 -0.1156672608618118 0)
(23.1916643646364 -0.8375146207508611 0)
(8.42165829067951 -5.714323791091463 0)
(-1.765683642938901 -0.5827215238547286 0)
(-2.405162318543586 -0.2554123165199459 0)
(20.36976098113996 -11.75744172338286 0)
(6.27907423616154 -6.031683820085104 0)
(-1.051412311762667 -0.3558349687911865 0)
(-1.417188582638551 -0.2313862995592409 0)
(9.078357366971902 -0.08322178734789869 0)
(9.140442456050851 -0.01030442089404057 0)
(9.042394155098252 -0.1293329143347567 0)
(6.055854485757221 2.818587240582079 0)
(1.501832862674574 -0.09529205844015923 0)
(1.532715967255042 0.01314531833391228 0)
(1.728925632106582 0.3452149498173892 0)
(-0.2461100403436443 5.422600604415693 0)
(-2.744226640500065 -0.2142286281357845 0)
(-2.750742862783413 0.1197504949197256 0)
(-2.060832631390413 1.516575356023012 0)
(0.2792942656482134 7.535890489901354 0)
(-1.249179824424677 -0.1859938778713036 0)
(-1.287344931185445 0.1814140879800591 0)
(-1.124306621312528 2.30161532629189 0)
(0.07788088117634451 11.20559561702498 0)
(21.67011139450862 -0.5868081276520984 0)
(24.76822017870899 -0.04154195440640521 0)
(25.00404300753398 -0.1001788357267411 0)
(25.00626824170034 -0.4404604012196913 0)
(18.76067416161265 -1.152765222142431 0)
(24.25811517882052 -0.2576024755134633 0)
(25.02195485079297 -0.3483186951742291 0)
(25.2741028382369 -1.239776904113265 0)
(15.14272961932531 -0.4985876929893409 0)
(23.64253395139241 -1.111651791206481 0)
(25.21165672699962 -0.7347286451316284 0)
(27.6179885459697 -1.993629904957343 0)
(11.31444299437802 7.13753797067294 0)
(19.94868954249134 2.414181264532347 0)
(24.18765108940768 -0.1334593024021618 0)
(33.01482524654048 -0.4001949856502601 0)
(24.66063433437977 -0.3400178910884094 0)
(23.8546807314555 -0.6964433335980776 0)
(22.96138960222677 -0.3511286061368802 0)
(22.6158127506615 -0.1285262495974492 0)
(24.01559941241597 -2.529589553484374 0)
(20.39208217884772 -3.606350147836209 0)
(17.13704391702834 -1.896763867440806 0)
(15.70510749037619 -0.687929525894809 0)
(25.5987777008972 -8.535630141019 0)
(17.0417577345059 -9.971107026802935 0)
(11.14247419182279 -5.856851225830257 0)
(8.246679408186196 -2.276575279540098 0)
(19.8986987393517 -15.83825053577509 0)
(12.46743462389858 -18.18937700697775 0)
(7.741900040972419 -12.31997894200749 0)
(3.656039781088175 -4.54498006401506 0)
(3.047366416205464 -0.943487733644883 0)
(3.096020509658529 -0.4265711256042236 0)
(3.061316204309918 -0.1990832860072082 0)
(3.05719965856735 -0.02899625506334852 0)
(7.574409622060012 -0.9627232242743637 0)
(7.656145285716502 -0.4501349241413014 0)
(7.567879453506626 -0.2253284164397622 0)
(7.542489700766617 -0.04030240986905899 0)
(15.20132108722181 -0.2758927183723724 0)
(15.21445197594643 -0.09703072086475825 0)
(15.1543177101105 -0.06598218848550935 0)
(15.12464334238154 -0.01395143227122451 0)
(22.40166191222889 -0.04976737426664108 0)
(22.39976381352565 -0.008219640250795329 0)
(22.38809004444319 -0.007640943997969259 0)
(22.38042461210084 -0.001709229032361352 0)
(3.057199658568666 0.02899625506557977 0)
(7.542489700765186 0.04030240987235436 0)
(15.12464334238259 0.01395143227775276 0)
(22.38042461209926 0.001709229044434239 0)
(3.061316204308782 0.1990832860131544 0)
(7.567879453502737 0.2253284164495352 0)
(15.15431771011234 0.0659821884768883 0)
(22.38809004444125 0.007640943992298632 0)
(3.096020509659073 0.4265711256081399 0)
(7.65614528571375 0.450134924140672 0)
(15.21445197594669 0.09703072086137006 0)
(22.39976381352182 0.008219640249954481 0)
(3.04736641620427 0.9434877336442844 0)
(7.574409622062073 0.9627232242733945 0)
(15.20132108722526 0.2758927183695525 0)
(22.4016619122231 0.04976737426776293 0)
(22.61581275065668 0.1285262495973783 0)
(22.96138960222115 0.3511286061362954 0)
(23.85468073145264 0.6964433335958057 0)
(24.6606343343794 0.3400178910884629 0)
(15.70510749037841 0.68792952589654 0)
(17.13704391702974 1.896763867440624 0)
(20.39208217884925 3.606350147837209 0)
(24.01559941241701 2.529589553485711 0)
(8.246679408187129 2.276575279534761 0)
(11.14247419182471 5.856851225828281 0)
(17.04175773450469 9.97110702680359 0)
(25.59877770089589 8.535630141017609 0)
(3.656039781087456 4.544980064010161 0)
(7.741900040971786 12.31997894200429 0)
(12.46743462389573 18.18937700697422 0)
(19.89869873935251 15.83825053577505 0)
(33.01482524653718 0.4001949856496858 0)
(24.18765108940298 0.1334593024001202 0)
(19.94868954248989 -2.414181264537266 0)
(11.31444299437163 -7.137537970676485 0)
(27.61798854596799 1.99362990495647 0)
(25.21165672699712 0.7347286451308332 0)
(23.64253395139069 1.111651791208687 0)
(15.14272961932327 0.4985876929904691 0)
(25.27410283823566 1.239776904113207 0)
(25.02195485078996 0.3483186951721656 0)
(24.25811517882125 0.2576024755069479 0)
(18.7606741616085 1.152765222152977 0)
(25.0062682416993 0.4404604012199465 0)
(25.00404300753317 0.1001788357249835 0)
(24.76822017871625 0.04154195440359903 0)
(21.67011139449616 0.5868081276610914 0)
(6.055854485760012 -2.818587240584406 0)
(9.042394155101988 0.1293329143326936 0)
(9.140442456043116 0.01030442089268018 0)
(9.078357366962706 0.08322178734322602 0)
(-0.2461100403428622 -5.422600604417685 0)
(1.728925632101031 -0.3452149498150478 0)
(1.532715967251206 -0.01314531833720249 0)
(1.501832862674301 0.09529205843427699 0)
(0.2792942656503166 -7.535890489905589 0)
(-2.060832631391154 -1.516575356026721 0)
(-2.750742862788419 -0.1197504949232777 0)
(-2.744226640499126 0.2142286281338725 0)
(0.07788088117620247 -11.20559561703737 0)
(-1.124306621314815 -2.301615326298942 0)
(-1.287344931187284 -0.1814140879851261 0)
(-1.249179824423017 0.1859938778686565 0)
(9.434609726147793 0.09480332857314962 0)
(9.867388386244462 0.4560310385559403 0)
(17.01210809293313 2.805003801398803 0)
(24.64093436597067 1.16235386365966 0)
(1.578630587569217 0.1156672608621226 0)
(2.472664882549891 0.6660644716369266 0)
(12.61552410268263 4.429201305848839 0)
(24.75054574358355 1.292684195218708 0)
(-2.405162318541868 0.255412316520564 0)
(-1.765683642945632 0.5827215238496455 0)
(8.421658290648351 5.714323791079599 0)
(23.1916643646311 0.8375146207548615 0)
(-1.417188582636339 0.2313862995595947 0)
(-1.051412311762123 0.3558349687909418 0)