/*--------------------------------*- C++ -*----------------------------------*\
  =========                 |
  \\      /  F ield         | OpenFOAM: The Open Source CFD Toolbox
   \\    /   O peration     | Website:  https://openfoam.org
    \\  /    A nd           | Version:  11
     \\/     M anipulation  |
\*---------------------------------------------------------------------------*/
FoamFile
{
    format      ascii;
    class       volScalarField;
    location    "0.0825";
    object      p;
}
// * * * * * * * * * * * * * * * * * * * * * * * * * * * * * * * * * * * * * //

dimensions      [0 2 -2 0 0 0 0];

internalField   nonuniform List<scalar> 
880
(
79.99999999999999
80
80.00000164704471
80.00008920041417
80.00000000000001
80.00000000000001
80.00000688688348
80.0032610691558
80
80.0000000002956
80.00009004226382
80.04799920744109
79.99999999999996
79.99999999855704
80.00009696751006
80.25688516217616
80
79.99999999998583
80.00000000014808
80.00000020653201
80.00000000849428
79.99999996812795
80.00000015850939
80.00000331330166
80.00254965075622
80.00603277377868
80.02862275428427
79.97208127415732
81.4398949903523
83.38886793582101
84.77417778170215
85.44181251240457
80.000004463831
80.00001693598897
80.0000200164242
80.0000122507397
80.00010176742202
80.00033067889474
80.00056134649927
80.00039670673058
80.05874848177039
80.11834793420705
80.16158940886974
80.15699418723736
86.21826263001903
87.37241232212097
88.23831846644781
89.00081967784553
86.7954120743143
85.37763313400245
84.43371008112052
83.40074046194728
80.26433028985774
80.45328445012787
80.42629097055854
80.32249220427727
80.00115636532473
80.00278770996759
80.00313441950983
80.00245021335336
80.00004949502579
80.00009132209279
80.00009116648209
80.0000615684972
80.00002365672304
80.00000429896734
80.00000027185905
80.00000000566922
80.00131372446772
80.00040957129097
80.0000566136052
80.00000256986338
80.18540018399253
80.07553412777921
80.0169911531402
80.00147312630889
82.38175751357143
81.38055312659935
80.54500672713422
80.10834094848742
80.0074297120356
80.00003548020705
80.00000004248521
80.00000000034238
80.00008647528851
79.99999918894801
79.99999993711985
79.99999999975026
80.03707813424843
80.00006945761633
80.00000016365746
80.00000003690758
83.23602637914814
80.02270780214259
79.99993909782214
79.99998446002809
79.99999626875183
80.00031295353484
80.1839569868735
98.32698124421294
80.00003399217607
80.00111556106837
80.39248665146643
103.2659446659295
80.0001126005653
80.00269124634445
80.68582730222056
107.6038480323733
80.00020005304444
80.00523558241147
81.06677883649755
112.7305111555198
116.885518186194
81.34192335640476
80.00663855807511
80.00026611191497
121.2123990580246
81.74156009739642
80.01036099537741
80.00039018129505
123.9493091267048
82.01493524339843
80.01205218832366
80.00048643097053
127.5137987974373
82.56464724141824
80.01916527358706
80.0007839598435
80.00091502718469
80.02271502633266
83.17121309638543
131.3192640134007
80.00142235038533
80.0343071151715
83.85713728069317
130.5938031852748
80.00192475205732
80.03595122363217
83.30007664951712
119.632622274001
80.00033383709881
80.02224844938067
81.63858093293182
101.1123836250912
80.0029504324919
80.05396988187967
81.33863614558115
83.22746260660159
80.00008818022778
80.00391188387599
80.30408500963891
71.12129087967899
79.99966342167454
79.97876585601018
79.22585412042503
62.35380842118922
79.999804206511
79.94848912487137
77.84756979303479
55.57996388832602
52.96211568078818
77.64091133411399
79.96240131036382
79.99985765037786
50.60365103320721
77.51739475358377
79.96503305615123
79.9998722700898
49.83603151773539
77.9645452955387
79.98076506284485
79.9999466925123
48.28874063430938
77.88416347067974
79.98106771881412
79.99994879479051
55.01566964963905
78.93937449097754
79.99271505950031
79.9999774837475
62.54695732589726
79.59890496738051
79.9980430479656
79.99999490304221
68.02470755213105
79.81835324690572
79.99924400531516
79.99999818041468
73.31115690687149
79.9340557672115
79.99968875568575
79.99999876347601
73.83119521987172
79.7253279853724
79.99643474567566
79.99998131886804
74.01806823726332
79.73381249973866
79.99651146029989
79.99998155165194
74.30993472917766
79.74054507792586
79.99657742677431
79.99998181448662
75.2487842953422
79.76605831516468
79.99679925449369
79.99998289735397
73.31115690688118
79.93405576712698
79.99968875562551
79.99999876333047
68.02470755214014
79.81835324679018
79.99924400515779
79.9999981803556
62.54695732584761
79.59890496727496
79.99804304791722
79.99999490300242
55.01566964964523
78.93937449085466
79.99271505954442
79.99997748375375
79.99985765043583
79.96240131043395
77.64091133426196
52.96211568058409
79.99987227006132
79.96503305617586
77.51739475365326
50.60365103304076
79.99994669254697
79.98076506280839
77.96454529532996
49.83603151760922
79.99994879480623
79.98106771895453
77.88416347066607
48.2887406343253
55.57996388824275
77.8475697930109
79.94848912476282
79.999804206573
62.3538084211468
79.22585412040598
79.97876585609337
79.99966342165702
71.12129087960837
80.30408500965886
80.003911883881
80.00008818029053
83.22746260659279
81.33863614546681
80.053969881707
80.00295043260108
80.00091502713749
80.0227150261825
83.17121309656956
131.3192640135248
80.00142235041967
80.03430711522317
83.8571372808464
130.5938031855187
80.0019247519252
80.03595122369407
83.30007664951356
119.6326222739764
80.00033383715645
80.0222484492993
81.63858093295833
101.1123836250765
127.513798797555
82.56464724122208
80.019165273883
80.00078396005269
123.9493091268589
82.01493524342432
80.01205218823327
80.00048643097793
121.2123990580179
81.74156009746
80.01036099539894
80.00039018130445
116.8855181861551
81.34192335616626
80.00663855807291
80.00026611195032
79.99999626878672
80.00031295353153
80.18395698669774
98.32698124405195
80.00003399231576
80.00111556134709
80.3924866517238
103.2659446662132
80.00011260072075
80.00269124625608
80.68582730179952
107.6038480320879
80.00020005302294
80.00523558249229
81.06677883713463
112.7305111555989
79.9999844600348
80.00000003688949
79.99999999977659
80.00000000034217
79.99993909766282
80.00000016359155
79.9999999370675
80.00000004245165
80.02270780205336
80.00006945766329
79.99999918889625
80.00003548015516
83.23602637909219
80.0370781342705
80.000086475318
80.00742971203957
80.00000000567883
80.0000025698866
80.00147312634756
80.10834094850259
80.00000027185433
80.00005661367278
80.0169911531676
80.54500672720562
80.00000429897109
80.00040957133984
80.07553412768482
81.38055312647352
80.00002365666953
80.00131372444702
80.18540018403505
82.38175751355105
80.00004949505607
80.00115636519946
80.26433028989236
86.79541207439793
80.00009132196583
80.0027877100178
80.45328445019604
85.37763313402051
80.00009116653958
80.00313441942455
80.42629097049642
84.43371008100094
80.00006156845404
80.00245021333082
80.32249220433528
83.40074046184691
89.00081967779801
80.15699418720959
80.00039670665302
80.00001225083243
88.23831846635944
80.16158940894401
80.00056134635726
80.00002001641791
87.37241232217519
80.11834793427427
80.00033067873142
80.00001693574521
86.21826262997902
80.05874848173535
80.00010176732768
80.00000446414201
85.44181251235024
79.97208127427419
80.00000331330909
80.000000206602
84.77417778168234
80.02862275417375
80.00000015839987
80.00000000014731
83.38886793578422
80.00603277375035
79.99999996810784
79.99999999998792
81.43989499029561
80.00254965070009
80.00000000848283
80.00000000000001
79.99999999999999
80
80.0000016470848
80.00008920047409
80
80.00000000000001
80.0000068868821
80.00326106906736
80
80.00000000025467
80.00009004227273
80.04799920746552
80
79.99999999849523
80.00009696746893
80.25688516207511
80.00102982554125
80.01406750889448
80.14425177291176
81.34447310118534
80.01406750829557
80.0615120837943
80.63191569203431
84.22135019646693
80.14425177330816
80.63191569340812
83.34336788219154
90.89457241747942
81.34447310137055
84.22135019654495
90.89457241678774
102.4929170140459
115.6834065091467
105.0530241024549
99.89560286511943
91.73782589444021
112.8722881423838
110.0810637857765
109.8454549974243
104.8282052792737
112.2035607128041
111.2984981773975
111.461025772308
109.1100489221942
113.5837539426506
112.6315030409534
112.4115017767168
110.9914962926374
112.4484945523274
113.3474077422713
114.1545933446349
114.7330780633619
113.08350529537
113.9274979788508
114.5936070568563
115.4345066616322
113.2302428052213
113.8370110318824
114.4709793177633
115.0772219462824
113.4471082046813
113.6446411308545
114.2765716176852
112.9854689395901
92.65184953515477
83.30156412704223
82.45518987929857
82.73910173870692
84.63142990401349
80.4268485774879
82.15917001660127
82.66830306575547
77.59213261095455
80.49427679712549
83.07277189354662
83.27653547008175
67.2721529928359
77.88224232868384
82.23890191130292
82.78307998229545
82.82264824273533
82.10852220887251
81.08875869064755
80.32745815375966
82.66121323530162
81.9703414061898
81.06274809092633
80.360138183128
82.98654651800933
82.19084208211829
81.22485388513324
80.43482921658222
82.57401067160936
81.76029734889967
80.87402375218389
80.27312582133185
80.04417428396908
80.0017356809424
81.38687003945444
109.1335779341656
80.05582168553826
80.00240218557336
82.80888631478767
117.1742384354132
80.06977145227469
80.00316098425577
84.28753290958488
121.3505438439736
80.03669589120381
80.00594767957716
85.62244808972108
122.962059639467
167.017442741864
167.4115768706078
167.8037702880704
170.9402284984783
175.9184058544205
172.3511864918754
169.9640735810778
171.7775466406134
173.895908693264
170.2434262413142
170.1952334248871
171.6588865347065
180.2011281323072
173.367356756335
170.5322299521432
171.5055294669671
173.687716705636
177.9561375140578
179.5914369702582
180.6682711744001
174.3664723681239
178.250119673361
179.7290191217051
180.6017069968725
173.8363518987382
177.7022590050708
179.6381978729954
180.5574847732816
173.3835544944684
177.3006204066796
179.2715905528714
180.2694048824541
179.3675734673987
172.5321878882675
157.002259411037
127.6891693981463
179.1567548420099
172.834847969866
158.2611082976971
137.0942636359447
179.4420218518965
173.5784016553432
159.3493977895653
146.0043906236548
179.343319538734
174.8110309010344
162.4667449027174
164.3489956031997
85.38170487980923
30.22358707213768
16.33672982086628
16.08996517061227
69.42863397818351
18.07222575332745
14.59244688936991
15.73014004532443
43.63615274733868
12.08968413091779
13.71175300086949
16.05535042958395
25.1572218311287
9.864952158686441
14.99307849821859
16.4581585586036
17.05861514330715
17.12947160988405
17.06380342872682
14.89676672117111
16.47446910781538
16.0869791361945
15.26733713407727
13.43092791457966
16.69820117579948
15.96575051900685
14.92596609568926
14.40495751156959
16.79628059609006
15.60973133621468
14.62182311114562
15.95909127439428
28.07906379483263
37.68713005946187
44.71497201258072
51.77815689604924
27.57663945001642
36.36443544790903
41.92932644168653
50.36724185874954
25.72498618911106
36.21924381981023
42.66964392830478
50.35382479349119
21.18365518531909
31.50527285360862
39.32009536242468
49.71982857582677
38.43603395388844
20.68472803609792
20.63540522243602
33.05172116760799
33.51205322431112
18.48790340768333
11.94947125637758
16.02819720272031
29.06005288737879
11.72355247933182
11.64713557493763
19.99024639018315
18.34642412710941
7.991344980620489
18.61180655155496
24.28679298575046
25.29278070431359
27.95317801829747
28.65963177012847
29.95796115806556
24.9709231964152
27.65942856189915
29.78405033407488
30.65901472856824
25.30372990069312
32.92263913928741
35.79306701331911
36.24274625027129
40.81619292996091
45.01955233568846
43.95198427212016
42.97043344248991
29.95796115806711
30.65901472856921
36.24274625027211
42.97043344249766
28.65963177013392
29.78405033407934
35.79306701332209
43.95198427212279
27.95317801830547
27.6594285619051
32.92263913929331
45.01955233568741
25.29278070432045
24.97092319641561
25.30372990069567
40.8161929299433
33.05172116762491
20.63540522247676
20.68472803610935
38.4360339538778
16.02819720272892
11.9494712563775
18.48790340766787
33.51205322430091
19.99024639018782
11.64713557494219
11.72355247933477
29.06005288737345
24.28679298575409
18.61180655155461
7.991344980624754
18.34642412710718
49.71982857581993
39.32009536244564
31.50527285366159
21.18365518536883
50.35382479348333
42.66964392831527
36.21924381984635
25.72498618916206
50.36724185873879
41.92932644169922
36.3644354479359
27.57663945005957
51.77815689603872
44.71497201260706
37.68713005947719
28.07906379486357
14.89676672120518
17.06380342873361
17.1294716098661
17.05861514330679
13.43092791460633
15.26733713408232
16.08697913618637
16.47446910782995
14.40495751159107
14.92596609569079
15.96575051899108
16.69820117580609
15.95909127442332
14.62182311115646
15.60973133619163
16.79628059608782
16.08996517064702
16.33672982081984
30.22358707207799
85.38170487978394
15.73014004537419
14.59244688942215
18.07222575335469
69.42863397806363
16.05535042963542
13.71175300092749
12.08968413096079
43.6361527473128
16.45815855864742
14.9930784982727
9.864952158718699
25.15722183113278
127.6891693980707
157.0022594109988
172.5321878882453
179.3675734672478
137.0942636359142
158.2611082976801
172.8348479697874
179.1567548418605
146.0043906236358
159.3493977895354
173.5784016552475
179.4420218518001
164.3489956031911
162.4667449026846
174.8110309009378
179.3433195386376
180.6682711743688
179.5914369702528
177.9561375139397
173.687716705709
180.6017069968349
179.7290191216907
178.2501196732434
174.3664723681322
180.5574847732595
179.6381978729699
177.7022590049818
173.8363518987787
180.2694048824306
179.2715905528281
177.300620406589
173.3835544945628
170.9402284984153
167.8037702877461
167.4115768707598
167.0174427416919
171.777546640532
169.9640735807051
172.3511864920553
175.9184058542051
171.6588865345969
170.1952334245217
170.2434262414925
173.8959086931935
171.5055294668447
170.5322299518158
173.3673567564584
180.2011281322395
109.1335779339801
81.38687003942958
80.00173568117147
80.04417428423736
117.174238435232
82.80888631493103
80.00240218586482
80.05582168568371
121.3505438439115
84.28753290979287
80.00316098456334
80.06977145230348
122.9620596395085
85.62244809008203
80.00594767982605
80.03669589091358
80.32745815332903
81.08875869094462
82.1085222086481
82.82264824276513
80.36013818259315
81.06274809134877
81.97034140588683
82.66121323533281
80.43482921606966
81.22485388554661
82.19084208181322
82.98654651802707
80.27312582116663
80.87402375248884
81.76029734859958
82.57401067161483
82.73910173858006
82.45518987921849
83.3015641270859
92.65184953526415
82.66830306563567
82.15917001651624
80.42684857756912
84.63142990408366
83.27653546997264
83.07277189347253
80.49427679722764
77.59213261097794
82.78307998220001
82.23890191120802
77.88224232881876
67.27215299289787
114.7330780633595
114.1545933445791
113.3474077423392
112.4484945522975
115.4345066615675
114.5936070567559
113.927497978929
113.0835052953279
115.0772219461596
114.4709793176709
113.8370110319745
113.2302428051824
112.9854689394604
114.2765716176505
113.6446411309555
113.4471082046694
110.9914962925019
109.1100489221722
104.8282052792961
91.73782589442487
112.4115017766823
111.4610257722859
109.8454549974229
99.8956028651168
112.6315030408907
111.2984981773555
110.0810637857649
105.0530241024227
113.583753942583
112.2035607127952
112.8722881423611
115.683406509088
76.47370153209552
79.92883880006094
79.99947594163089
79.99999810600283
75.37397577499198
79.89944858870268
79.99913323993569
79.99999620083955
75.61407306559377
79.86321338571437
79.99854024494179
79.99999282804909
75.36122492769769
79.8068315598556
79.99751994152435
79.99998699500505
79.99998131900112
79.99643474567441
79.72532798536739
73.83119521984348
79.99998155161587
79.99651146032976
79.7338124997633
74.01806823728832
79.99998181450701
79.9965774266919
79.74054507792975
74.30993472913426
79.99998289736909
79.99679925445852
79.76605831519581
75.24878429528864
79.99998699491191
79.99999282809331
79.99999620088923
79.99999810590097
79.99751994144412
79.99854024491627
79.99913323994312
79.99947594166861
79.80683155986461
79.86321338567527
79.89944858876493
79.92883880003789
75.36122492764275
75.61407306552157
75.37397577499428
76.47370153213134
)
;

boundaryField
{
    back
    {
        type            empty;
    }
    inlet
    {
        type            zeroGradient;
    }
    front
    {
        type            empty;
    }
    top
    {
        type            zeroGradient;
    }
    outlet
    {
        type            fixedValue;
        value           uniform 80;
    }
    bottom
    {
        type            zeroGradient;
    }
    wall
    {
        type            zeroGradient;
    }
}


// ************************************************************************* //
