/*--------------------------------*- C++ -*----------------------------------*\
  =========                 |
  \\      /  F ield         | OpenFOAM: The Open Source CFD Toolbox
   \\    /   O peration     | Website:  https://openfoam.org
    \\  /    A nd           | Version:  11
     \\/     M anipulation  |
\*---------------------------------------------------------------------------*/
FoamFile
{
    format      ascii;
    class       volVectorField;
    location    "0.0825";
    object      U;
}
// * * * * * * * * * * * * * * * * * * * * * * * * * * * * * * * * * * * * * //

dimensions      [0 1 -1 0 0 0 0];

internalField   nonuniform List<vector> 
880
(
(25 -2.089053422240475e-15 0)
(25 -3.547072490074523e-14 0)
(24.99999988073571 -2.058992554057345e-07 0)
(24.99999180071783 5.418662496079156e-06 0)
(25 3.938473429651198e-16 0)
(25 -1.009038675818952e-12 0)
(24.99999943269872 -1.282800124230844e-06 0)
(24.99993015481019 -0.000797693510169274 0)
(25 4.106552064465029e-15 0)
(25.00000000002179 2.228005318199803e-11 0)
(25.00000101280916 1.923294822656846e-06 0)
(24.99854687712909 -0.007878330025636463 0)
(25.00000000000002 -2.836749141889688e-15 0)
(24.99999999950693 -2.232136277754261e-11 0)
(24.99992700717862 -4.730398651089486e-05 0)
(24.95345473625271 -0.03350100868801152 0)
(25 -2.005126427402016e-14 0)
(24.99999999999988 2.916503692451486e-12 0)
(25.00000000002305 -3.716179288494983e-11 0)
(24.99999998004417 -4.339552409163375e-08 0)
(25.00000000310694 -1.267256867325462e-10 0)
(24.999999983072 4.932831955144956e-09 0)
(25.00000007092123 -3.125395880325762e-08 0)
(24.99999902536729 5.451044881811154e-08 0)
(24.99950442527431 0.0001188809356720081 0)
(24.99885597429175 0.0005427912055551735 0)
(24.99974333299658 0.004772310531204465 0)
(24.99695470731191 -0.008145545172436645 0)
(24.7157650506448 0.1207162225624905 0)
(24.45710259663202 0.4655924026741127 0)
(24.37594269492081 0.8146844185741731 0)
(24.37609235703869 1.017009251357926 0)
(24.99999963225184 -7.649229413902036e-07 0)
(24.99999794693526 -2.759437677357397e-06 0)
(24.9999962795465 -3.990478241047072e-06 0)
(24.99999801691957 -2.612504901237228e-06 0)
(24.99997825091629 1.523904395947889e-05 0)
(24.99997070375413 7.390597440120294e-05 0)
(24.99998650509532 0.000119855818439838 0)
(24.99997242777869 7.363731819360613e-05 0)
(24.98932766483006 0.01118677535974843 0)
(24.98982161658306 0.02374570909104306 0)
(24.99257124468602 0.03166199529146724 0)
(24.99000155902032 0.02919701028243728 0)
(24.39303366706443 1.235158417413627 0)
(24.41531935972868 1.479940113765807 0)
(24.5075948774004 1.574473341706145 0)
(24.51680438048359 1.769626927655456 0)
(25.0240636062708 1.800111229588513 0)
(25.34270094767905 1.45992404236973 0)
(25.49171343675375 0.9530429922609421 0)
(25.466901728291 0.5937985162499143 0)
(24.98516359150436 0.05289030871649118 0)
(24.98009248698408 0.09207178887368826 0)
(25.00504825334937 0.09128883282852934 0)
(25.01670992387535 0.06785525373589821 0)
(24.99992277687294 0.0002451655606408577 0)
(24.99984114803795 0.0006024217353554022 0)
(24.99998059948209 0.0006754223356865968 0)
(25.0000896240629 0.0005362732467707414 0)
(24.99999304871105 -8.285827916193423e-06 0)
(24.99998480269847 -1.628884049375846e-05 0)
(24.99998204963774 -1.665421984153712e-05 0)
(24.99998470379885 -1.192830762607215e-05 0)
(24.99999163983582 -5.234858867253307e-06 0)
(24.99999761916339 -1.275280984559303e-06 0)
(24.99999972017003 -1.347823939030132e-07 0)
(24.9999999899397 -4.496563756720231e-09 0)
(25.00010855626908 0.0002663655541982339 0)
(25.00004603888288 7.504257012634103e-05 0)
(25.00000730702698 9.527591230102106e-06 0)
(25.0000003492261 4.128361792342076e-07 0)
(25.01781757209678 0.03473112011351034 0)
(25.00943332962428 0.0123737294801675 0)
(25.00240679907513 0.002507216993712473 0)
(25.00022320200176 0.0002025402327663154 0)
(25.36053623429458 0.356886175250418 0)
(25.22221406995901 0.1801980269870691 0)
(25.0917681615715 0.06285186551268945 0)
(25.01884081750628 0.01132925281539878 0)
(25.00131238809418 0.0007473826310218902 0)
(25.00000548262278 4.818762749249701e-06 0)
(25.00000000512799 8.598080180752861e-09 0)
(24.99999999987488 -8.610533456644228e-11 0)
(25.00001737833438 9.779708244419333e-06 0)
(25.00000007945586 -1.416951410671975e-07 0)
(25.00000000599897 -1.185244226460485e-08 0)
(25.00000000001765 -5.077088212553687e-11 0)
(24.99660283647776 0.005789867558083063 0)
(24.99998929547404 6.368019479313563e-06 0)
(24.99999997579584 4.109795728111895e-08 0)
(24.99999999710326 2.639017818605573e-11 0)
(24.5139081469448 0.3749829157791076 0)
(24.99714792761843 0.003958934313831919 0)
(25.00001543978911 -2.425309668115749e-06 0)
(25.00000204435377 -2.48026994145548e-06 0)
(24.99999927891514 -1.342920708172418e-06 0)
(24.99993789504799 1.153496736267882e-05 0)
(24.96542436535269 0.01382577422857184 0)
(21.86828947249305 1.165144262035153 0)
(24.99999708818684 -7.082212244268532e-06 0)
(24.99978327442615 0.0001705973371922792 0)
(24.92890338657992 0.04858575923016632 0)
(21.38995428090747 2.511292575814065 0)
(24.99998755580009 -2.067458684923619e-05 0)
(24.99962341354445 0.0005330521272154365 0)
(24.89287254415401 0.1107521948060292 0)
(20.91706434438343 3.922380532002554 0)
(24.9999709400712 -3.748966657685345e-05 0)
(24.99960483985034 0.001021547941805174 0)
(24.87812706212299 0.1783922483027969 0)
(20.94754880639565 4.927178721425223 0)
(20.93839820662674 5.692107796509495 0)
(24.85142680938587 0.24028985686073 0)
(24.99937370415088 0.001387169731952826 0)
(24.99996534512736 -5.165949907004218e-05 0)
(21.03972743139028 6.070579349782653 0)
(24.84055761805587 0.2966063497211134 0)
(24.9994125335582 0.00202193416552039 0)
(24.99993838297899 -7.400401149245275e-05 0)
(20.81771339026804 6.460816449554117 0)
(24.79140150713743 0.3564371270312488 0)
(24.99885253809066 0.002484179611365059 0)
(24.99993691197266 -9.45733240949169e-05 0)
(20.65796015176844 6.763658617447219 0)
(24.75796747384751 0.4409297156017299 0)
(24.99885453488122 0.003893546358245534 0)
(24.99987875327548 -0.0001466275363642839 0)
(24.99987156989828 -0.0001820130611382788 0)
(24.99803731158177 0.004520857486248558 0)
(24.66984509079291 0.5491747486594618 0)
(20.25487086860904 7.332242206410119 0)
(24.99979014253267 -0.000274469712669185 0)
(24.9976096585132 0.007109707623473635 0)
(24.65310743740165 0.6869490397685158 0)
(20.67494481128187 7.442217476632657 0)
(24.99979017922071 -0.0003697085059054449 0)
(24.99797307628997 0.007579967801791967 0)
(24.74754766061443 0.6156708492638637 0)
(22.10414177745355 6.554888791665785 0)
(24.99974816063338 -0.0001244664667540673 0)
(24.99879242253742 0.003292077623243436 0)
(24.94165370268981 0.3723417871181582 0)
(24.14497509426019 4.452398759693867 0)
(24.99965981398602 -0.00039115551779891 0)
(24.99749511868028 0.01580128902175067 0)
(25.21943345885221 0.28907734626812 0)
(27.16356443101894 2.381578573497365 0)
(24.99992562699923 -0.0001261722621067112 0)
(25.00794572491442 -0.0009478709543360873 0)
(25.20299232428425 -0.002558592094248388 0)
(26.74443125953985 -0.515652644607647 0)
(24.99998224777988 -8.186864672022767e-05 0)
(24.99883674974671 -0.004751334634332374 0)
(24.98131591643451 -0.2384802642957143 0)
(23.87993074066283 -3.156690331308963 0)
(24.99997746769026 -4.336259143226089e-05 0)
(24.99311560449923 -0.008487534959446966 0)
(24.64906294587387 -0.3447289554982483 0)
(20.49580291586189 -3.403521117472674 0)
(18.99599347363874 -2.677758373134333 0)
(24.55799920722869 -0.3075460348009454 0)
(24.99457125347464 -0.005974011566106992 0)
(24.99998812629198 -2.492886870779797e-05 0)
(18.31237155587872 -1.695585203605348 0)
(24.49485635923129 -0.2494036601017727 0)
(24.99354124316995 -0.005204450515625558 0)
(24.9999821371525 -2.168426345397104e-05 0)
(18.32177816361438 -0.4461070828908918 0)
(24.58046398863161 -0.1624760147521484 0)
(24.99663913312102 -0.002790533814510991 0)
(24.99999495729243 -8.889710634575911e-06 0)
(17.75948740535126 0.1835755453356515 0)
(24.54134841914463 -0.1236816069964961 0)
(24.99627101007385 -0.002591596309106753 0)
(24.99999278946555 -9.162078570898922e-06 0)
(19.97763997333678 0.5472121049208795 0)
(24.75338839668918 -0.07820805989326717 0)
(24.99844871621748 -0.001106910337626813 0)
(24.99999726274898 -3.658684886568788e-06 0)
(22.19331038430548 0.7674105040000007 0)
(24.89982515532552 -0.03513732135959936 0)
(24.99958011215608 -0.0003031425829847911 0)
(24.99999930215575 -8.251091212063511e-07 0)
(23.6887605576214 0.3666137646996613 0)
(24.97013496133992 -0.02120701865986218 0)
(24.99991761454046 -0.000124475197080986 0)
(24.99999990162694 -3.244705278905951e-07 0)
(24.53424431405868 -0.1281926435508162 0)
(24.9975975587088 -0.01731808010867103 0)
(25.00000942501931 -9.657382079140003e-05 0)
(24.99999999631027 -2.53713561945568e-07 0)
(23.76802858863231 -0.05224269523603527 0)
(24.94535112264085 -0.000993254746164075 0)
(24.99928665290224 -4.82513527334556e-06 0)
(24.99999628701275 -9.025022763825154e-09 0)
(23.79476924554919 -0.1768994313003147 0)
(24.94708106723316 -0.002690684898117327 0)
(24.99930207512665 -1.290463628357001e-05 0)
(24.99999633302622 -2.574878535610677e-08 0)
(23.78080161747195 -0.379451881683258 0)
(24.94807585139796 -0.005352112983664044 0)
(24.99931505894147 -2.418691182147858e-05 0)
(24.9999963836964 -4.92908840575773e-08 0)
(23.78515347223357 -0.4690866910406564 0)
(24.95107540115856 -0.007981713908191948 0)
(24.99935279487049 -4.64230313673181e-05 0)
(24.99999658069335 -1.408550571349352e-07 0)
(24.53424431405551 0.128192643543243 0)
(24.99759755873871 0.01731808009546825 0)
(25.00000942506057 9.657379907669744e-05 0)
(24.99999999634695 2.537145061638834e-07 0)
(23.68876055762691 -0.3666137647228468 0)
(24.97013496138135 0.02120701865645188 0)
(24.99991761457759 0.0001244752040191698 0)
(24.99999990163911 3.244748660306323e-07 0)
(22.19331038431522 -0.7674105039919226 0)
(24.89982515535591 0.03513732137350462 0)
(24.99958011215768 0.0003031426031802183 0)
(24.99999930216567 8.251106032868491e-07 0)
(19.97763997331262 -0.5472121049266634 0)
(24.75338839671386 0.07820805990729339 0)
(24.99844871620345 0.001106910336565617 0)
(24.99999726274534 3.658687112569342e-06 0)
(24.99998812624641 2.492888857640526e-05 0)
(24.99457125347662 0.005974011548796313 0)
(24.55799920723269 0.30754603476016 0)
(18.99599347359564 2.677758373179353 0)
(24.99998213715991 2.168426155106333e-05 0)
(24.99354124316162 0.00520445053402441 0)
(24.49485635920761 0.2494036600814212 0)
(18.31237155583955 1.695585203626972 0)
(24.99999495728427 8.889710396986205e-06 0)
(24.99663913312291 0.00279053381309147 0)
(24.58046398862974 0.1624760147773358 0)
(18.32177816359166 0.4461070828848845 0)
(24.99999278945966 9.162078922531426e-06 0)
(24.99627101005357 0.002591596294977249 0)
(24.54134841913736 0.1236816070105959 0)
(17.75948740532485 -0.1835755453669844 0)
(20.4958029158029 3.403521117503455 0)
(24.6490629458529 0.3447289555458593 0)
(24.99311560450737 0.008487534967455258 0)
(24.99997746770718 4.336256698412698e-05 0)
(23.87993074063201 3.15669033131873 0)
(24.98131591643368 0.2384802642963791 0)
(24.99883674973961 0.004751334628465499 0)
(24.99998224778381 8.186864528262175e-05 0)
(26.74443125953055 0.5156526446249953 0)
(25.20299232428071 0.002558592080228637 0)
(25.00794572492675 0.0009478709529601077 0)
(24.99992562697226 0.0001261722798569299 0)
(27.16356443102069 -2.381578573490509 0)
(25.21943345886902 -0.2890773462622359 0)
(24.99749511869991 -0.0158012890009372 0)
(24.99965981396712 0.0003911555116959452 0)
(24.9998715699098 0.0001820130643106875 0)
(24.99803731148276 -0.004520857491549961 0)
(24.66984509075476 -0.5491747486747586 0)
(20.25487086861359 -7.332242206443622 0)
(24.99979014251992 0.0002744697147071528 0)
(24.99760965855885 -0.007109707612809312 0)
(24.65310743738019 -0.6869490397778594 0)
(20.67494481125988 -7.44221747664465 0)
(24.99979017922919 0.0003697085245540485 0)
(24.99797307628115 -0.007579967816245489 0)
(24.74754766061447 -0.6156708492598423 0)
(22.10414177746334 -6.554888791663169 0)
(24.99974816064292 0.0001244664412674384 0)
(24.9987924225429 -0.003292077615607867 0)
(24.94165370269635 -0.372341787115597 0)
(24.14497509426246 -4.452398759689299 0)
(20.65796015175847 -6.76365861747412 0)
(24.75796747386253 -0.4409297155971283 0)
(24.99885453492413 -0.003893546343079355 0)
(24.99987875322171 0.0001466275361120221 0)
(20.81771339025239 -6.460816449567862 0)
(24.79140150711714 -0.356437127025173 0)
(24.99885253807094 -0.002484179627246676 0)
(24.99993691197436 9.457332317268245e-05 0)
(21.03972743138131 -6.07057934978963 0)
(24.84055761806738 -0.2966063497067232 0)
(24.99941253356018 -0.002021934156955707 0)
(24.9999383829747 7.400401149352191e-05 0)
(20.9383982066359 -5.692107796517384 0)
(24.85142680927425 -0.2402898569031255 0)
(24.99937370412453 -0.001387169734568814 0)
(24.99996534511931 5.165949895144295e-05 0)
(24.99999927890814 1.342921903459969e-06 0)
(24.99993789503738 -1.1534962861593e-05 0)
(24.96542436533663 -0.01382577423652183 0)
(21.86828947248321 -1.165144262041439 0)
(24.99999708815536 7.082213182887195e-06 0)
(24.99978327442684 -0.0001705973299836568 0)
(24.92890338666738 -0.04858575918163349 0)
(21.38995428094916 -2.51129257579661 0)
(24.99998755576216 2.067458734569359e-05 0)
(24.99962341348447 -0.0005330521321781676 0)
(24.89287254405683 -0.1107521948869134 0)
(20.91706434436044 -3.922380532060744 0)
(24.99997094007075 3.748966665429746e-05 0)
(24.99960483988852 -0.001021547938197907 0)
(24.8781270622675 -0.1783922482367338 0)
(20.94754880643703 -4.927178721379565 0)
(25.00000204435232 2.480272190549605e-06 0)
(24.99999999710741 -2.68973340817772e-11 0)
(25.00000000001121 5.135559305409571e-11 0)
(24.99999999987518 8.635775131744248e-11 0)
(25.00001543982587 2.425311398958494e-06 0)
(24.99999997581122 -4.109696419537657e-08 0)
(25.00000000601202 1.18540844416125e-08 0)
(25.00000000513539 -8.598674631865707e-09 0)
(24.99714792763755 -0.003958934320629183 0)
(24.99998929546777 -6.368019105667343e-06 0)
(25.00000007946831 1.416936848986743e-07 0)
(25.00000548263167 -4.818763594251256e-06 0)
(24.51390814695666 -0.3749829157789699 0)
(24.99660283647265 -0.005789867555157147 0)
(25.00001737832613 -9.779708083411936e-06 0)
(25.00131238809444 -0.0007473826366528039 0)
(24.99999998993316 4.496396878596332e-09 0)
(25.00000034921611 -4.12839116353806e-07 0)
(25.00022320198961 -0.0002025402370386283 0)
(25.01884081750003 -0.01132925280958429 0)
(24.99999972017433 1.347824992773048e-07 0)
(25.00000730700849 -9.527594845451649e-06 0)
(25.00240679907438 -0.002507216984112343 0)
(25.09176816157074 -0.06285186550234255 0)
(24.99999761916432 1.275282397112473e-06 0)
(25.00004603887616 -7.504256717470769e-05 0)
(25.00943332964635 -0.01237372947782791 0)
(25.22221406998492 -0.180198026986454 0)
(24.99999163984846 5.234860072785196e-06 0)
(25.0001085562767 -0.0002663655524791991 0)
(25.01781757208098 -0.03473112012613636 0)
(25.36053623429941 -0.3568861752473729 0)
(24.99999304870425 8.285823068918428e-06 0)
(24.99992277690074 -0.0002451655500545554 0)
(24.98516359150354 -0.05289030872312139 0)
(25.02406360625707 -1.80011122957413 0)
(24.99998480272002 1.628882917214398e-05 0)
(24.99984114802754 -0.0006024217214553439 0)
(24.98009248697427 -0.09207178887290172 0)
(25.34270094767589 -1.459924042359295 0)
(24.99998204962724 1.66542275641104e-05 0)
(24.99998059949952 -0.0006754223426953993 0)
(25.00504825336003 -0.09128883284273441 0)
(25.49171343676072 -0.9530429922792683 0)
(24.99998470380323 1.192830620432345e-05 0)
(25.00008962407285 -0.0005362732422929921 0)
(25.01670992387316 -0.0678552537247791 0)
(25.46690172831341 -0.5937985162427432 0)
(24.51680438049576 -1.769626927651774 0)
(24.99000155901832 -0.02919701030162733 0)
(24.99997242780037 -7.36373033300023e-05 0)
(24.9999980169072 2.612507588218304e-06 0)
(24.50759487740977 -1.574473341714701 0)
(24.99257124465906 -0.03166199530121358 0)
(24.99998650513195 -0.0001198558099832411 0)
(24.99999627955171 3.990481067910462e-06 0)
(24.41531935972531 -1.479940113752778 0)
(24.98982161656002 -0.02374570907150134 0)
(24.99997070379875 -7.390598605626709e-05 0)
(24.99999794693905 2.759498238655103e-06 0)
(24.39303366708366 -1.235158417409733 0)
(24.98932766488175 -0.01118677534161356 0)
(24.99997825092445 -1.523904243161843e-05 0)
(24.99999963222397 7.648533316164234e-07 0)
(24.37609235704762 -1.017009251365975 0)
(24.99695470726426 0.008145545131606171 0)
(24.99999902536851 -5.450122900716523e-08 0)
(24.99999998003158 4.340074220941928e-08 0)
(24.37594269493186 -0.8146844185729759 0)
(24.99974333302192 -0.004772310501565071 0)
(25.00000007093939 3.12391716047324e-08 0)
(25.00000000002257 3.714186587386301e-11 0)
(24.45710259664546 -0.4655924026747324 0)
(24.9988559743019 -0.0005427912024367051 0)
(24.99999998308537 -4.928039923622617e-09 0)
(24.99999999999999 -2.981099895174811e-12 0)
(24.71576505066171 -0.1207162225604396 0)
(24.99950442528806 -0.0001188809364400281 0)
(25.00000000310784 1.275169631459581e-10 0)
(25 4.521368198512932e-14 0)
(25.00000000000001 1.240138557856747e-15 0)
(25 1.136222058900345e-14 0)
(24.9999998807242 2.059024315267264e-07 0)
(24.99999180071419 -5.418643498627868e-06 0)
(25 -1.66881598694971e-15 0)
(25 4.045661196266071e-13 0)
(24.99999943269718 1.282797020730883e-06 0)
(24.99993015480894 0.0007976934848577674 0)
(25 -4.276776898397543e-16 0)
(25.00000000003252 -2.482174378934119e-11 0)
(25.00000101280583 -1.923298755032169e-06 0)
(24.99854687712635 0.007878330020350139 0)
(25 -9.009797037602434e-17 0)
(24.99999999952314 2.287053020745964e-11 0)
(24.99992700719019 4.73039835410049e-05 0)
(24.95345473626566 0.03350100867025237 0)
(25.00003556211093 -1.406670181540752e-11 0)
(24.99955833060595 0.001994670674524366 0)
(24.98405924796594 0.009493843726002572 0)
(24.78646466275934 -0.02537576287782231 0)
(24.99955833073923 -0.001994670487616773 0)
(24.99044790679295 1.991559640181241e-10 0)
(24.88106935526898 -0.01649476853500479 0)
(24.16820507780179 -0.2687957213969313 0)
(24.98405924805304 -0.009493843849669385 0)
(24.88106935540749 0.01649476859884816 0)
(24.28760779202133 -2.257433079102077e-10 0)
(22.4606697712801 -0.4514908923018663 0)
(24.7864646627171 0.02537576291099025 0)
(24.16820507776858 0.2687957214600582 0)
(22.46066977130209 0.4514908921670542 0)
(19.97353206719376 -5.112826095442029e-12 0)
(19.13166914593319 2.689355208643219 0)
(19.88575365564555 3.162778132266951 0)
(21.81181219383803 2.63687503721706 0)
(23.31784432160465 1.596052346925033 0)
(20.22080893790391 4.582091489740489 0)
(20.41295367599745 4.537060528534002 0)
(21.2484817375719 4.393779706069246 0)
(22.4073909668744 3.916336536150235 0)
(20.97043500008454 5.492549101752994 0)
(21.26880733167561 4.965884671660419 0)
(21.93258832608042 5.047259758257969 0)
(22.73836896554223 4.871417548333692 0)
(21.38865111589068 6.053555066120067 0)
(22.04152631703715 5.292604147788533 0)
(22.61854739067877 5.364996363423169 0)
(23.09311132067135 5.130948675340997 0)
(23.23132763768601 5.306256798925847 0)
(23.33105402861553 5.560952634524563 0)
(23.47179850010701 5.633998395436595 0)
(23.5217888300568 5.805707949400352 0)
(23.09728879212867 5.48139241251805 0)
(23.32807328965986 5.657728522742362 0)
(23.46886233163939 5.704149546553166 0)
(23.9730727360492 6.066115160733405 0)
(22.84166233094676 5.568630927325887 0)
(23.27209001165178 5.727698081383486 0)
(23.42672426748706 5.736096795673003 0)
(25.33948137180263 6.334488015580286 0)
(21.50532840084902 5.799233762629354 0)
(21.86933303333452 5.621547164770085 0)
(22.1529679154167 5.598419085968466 0)
(26.85314807785357 7.46037945086626 0)
(26.67874643746374 3.366107661050186 0)
(27.40741358484002 0.963813903109518 0)
(26.42566025144672 0.3696086737121893 0)
(26.05012252117686 0.1703427634697936 0)
(28.65810058660986 2.395728340993438 0)
(28.52393278386526 0.3956632010241136 0)
(27.30687471357501 0.1407962737675617 0)
(26.60311805554187 0.05095451525825005 0)
(31.5761459573164 1.957353253934953 0)
(29.37508688025599 0.1675708731024592 0)
(27.76443293030103 -0.05087785580974796 0)
(26.95998824265179 -0.1142121367917182 0)
(25.03832711554955 1.709581496566957 0)
(23.23379500580186 0.4409327504224619 0)
(23.15282129155124 -0.1917303954168836 0)
(23.82512642531703 -0.6879879920433872 0)
(25.7649405732149 0.1099042875043889 0)
(25.48933520604529 0.0996114492336479 0)
(25.23150299546577 0.07033205174967455 0)
(25.06620184171516 0.02463930728233589 0)
(26.12421062942309 0.04016766116666493 0)
(25.71202338165086 0.0451444131704706 0)
(25.34415085717522 0.04038179753242888 0)
(25.10250997773186 0.01998762003182424 0)
(26.39968397207253 -0.07791276850009382 0)
(25.9046492705243 -0.04905437281625831 0)
(25.45320674374687 -0.02819143352148873 0)
(25.13985127147448 -0.01151167921139132 0)
(24.44964661662173 -0.6886940574359629 0)
(24.74762558402239 -0.4769514763110589 0)
(24.91813622601655 -0.2408197117280655 0)
(24.98933414327068 -0.06579888247195158 0)
(25.00866808906572 0.003323656935500167 0)
(25.0002946954216 6.31311870249146e-05 0)
(24.91940467860186 0.212214838610164 0)
(20.94669607214467 3.713562321543007 0)
(25.01426498779667 0.003401831908818746 0)
(25.00047029548656 0.0001376340640153799 0)
(24.78419538603891 0.4602362810477767 0)
(17.94680477540765 3.683266388922514 0)
(25.02016167390881 -0.002095947612006019 0)
(25.00077821206516 0.000108583807394791 0)
(24.3846002035373 0.6732573036736341 0)
(15.55538740117881 2.052268861817687 0)
(24.9996634465808 -0.007465679230773239 0)
(25.00122890157669 -0.0003704023840771631 0)
(23.22501518020836 0.2626651955929355 0)
(10.48908002296675 1.023150232232651 0)
(15.1815716907987 7.460008118803268 0)
(16.20290839036134 8.429197248610022 0)
(16.45028076137688 9.672707511817968 0)
(16.71876751002035 10.5475784148524 0)
(13.3282865094574 7.580904870638904 0)
(15.40351450121739 8.600848650397658 0)
(16.11540752992169 9.894162833243863 0)
(16.48295507569883 10.58915788412933 0)
(10.9033069628447 6.601842783444905 0)
(13.7085730388883 8.366066592396242 0)
(15.38807363091128 9.789385825747631 0)
(16.2397298871537 10.47514665337084 0)
(7.321542771539387 3.096180790778989 0)
(10.62234827716262 5.014396958636013 0)
(12.4699859252739 7.77811345309701 0)
(13.90672372392219 9.795364233693427 0)
(16.82001216443964 11.14243660515969 0)
(17.0166622552256 11.36338614160184 0)
(17.00831593722575 11.55742755112441 0)
(17.04131342742389 11.53113849248951 0)
(16.72850446385443 11.07153379323569 0)
(17.01338320876476 11.30468860164445 0)
(17.10930423734023 11.51285128276766 0)
(17.1716316806972 11.47252538640444 0)
(16.62647101866623 10.95082374854614 0)
(16.94265275267731 11.21244698659766 0)
(17.10309811262358 11.42268277348333 0)
(17.17343361984458 11.42873700036814 0)
(15.00680985437769 10.50842728131131 0)
(15.61938114653164 10.76672010779749 0)
(15.97223941357852 10.80632472056027 0)
(15.98921069824897 10.76422233911828 0)
(17.09205538157235 11.56610238537828 0)
(17.81622747566924 11.41198717516024 0)
(19.55955538570227 10.67565980766125 0)
(22.55446860833735 8.748407342211289 0)
(17.2470843409899 11.46052700758347 0)
(17.93354631292459 11.33137650606226 0)
(19.74453513961545 10.92811744445469 0)
(23.28776041770037 10.99536188853676 0)
(17.25368778248826 11.45810621279761 0)
(17.7755323729773 11.40866825035581 0)
(20.13631394898675 11.62875190459819 0)
(28.5697656264658 16.78912425912705 0)
(16.25469079068543 10.89287043101016 0)
(17.14200034010257 10.67453161902081 0)
(20.50670285945114 12.09144342294179 0)
(38.95912698044742 22.59910238409541 0)
(27.34590369633327 4.020174284617392 0)
(24.56933483207255 -5.119287810892415 0)
(6.575650181549049 -5.722890358432274 0)
(3.061985097054561 -2.153791654980362 0)
(28.67891951372086 3.503629671589943 0)
(20.28207753686144 -3.934821614084554 0)
(1.719215039532028 -6.338946182192691 0)
(0.5715436572805225 -1.769533448128412 0)
(29.92113565074442 1.810771918139338 0)
(12.29272447636882 -5.681276798666189 0)
(0.4060610028375399 -3.39595566861126 0)
(0.2020467695488435 -1.315696964054567 0)
(19.4508820371958 -8.77387485838543 0)
(2.920141649807585 -4.437653591182189 0)
(-1.163246881003089 -1.204567219576771 0)
(-0.1892493259336414 -1.364030649947994 0)
(1.508151718592275 -0.7512957719504911 0)
(0.9419588785633858 -0.03913486193272434 0)
(0.6839630663230585 0.02063157171318877 0)
(0.1030286034914544 0.8604691511683826 0)
(-0.07765334969136488 0.1926694906051195 0)
(-0.3894569634482923 0.9569716962191873 0)
(-0.2549687745385917 1.080268152679625 0)
(0.3537296123337132 2.477032244489096 0)
(0.005603727374962444 0.1552197903743231 0)
(-0.1702130590505647 1.25648827257214 0)
(0.3340353429045304 2.303189974845731 0)
(0.3120327719712872 4.354107013983949 0)
(-0.01248666126454254 -0.04540800123854184 0)
(0.1922883370422451 1.219771531613945 0)
(0.2417200628780656 3.153170505196672 0)
(-0.934256614100423 4.678648512301936 0)
(11.49994023731808 -4.991195053034331 0)
(19.05696492617752 -5.407808092747855 0)
(22.62700804345468 -5.14758968496737 0)
(24.23202658881927 -5.419859363176226 0)
(6.156191016990032 -1.826648490676194 0)
(14.80214242236831 -3.769719452741676 0)
(20.07232723048292 -5.152537554895939 0)
(23.41580164722148 -5.463574378355659 0)
(-0.1028109041192264 -1.136139026485027 0)
(6.92895895796351 -2.642988991178516 0)
(14.81483274015795 -4.342518802017898 0)
(23.17127788449827 -3.92862508180037 0)
(-2.019961837389073 1.688492667715778 0)
(2.305473299235743 1.408525450348936 0)
(11.03560160493989 1.423989311681578 0)
(26.09767898977838 -2.395704392483309 0)
(25.42792501637465 -10.57407512736073 0)
(27.6119917668879 -17.40191170011546 0)
(25.80338391467879 -22.28598606198828 0)
(17.25668669497578 -15.44459150766962 0)
(25.60054715869401 -10.97051231287636 0)
(28.52521450140709 -22.15278806716916 0)
(27.96153224479691 -22.99706876153114 0)
(18.16758695901679 -11.62531152892991 0)
(25.62516504817282 -12.68160188224243 0)
(29.31369398852381 -21.5774303531467 0)
(16.7003893518354 -17.2751788557072 0)
(10.67228315584218 -1.581655561416226 0)
(18.63986197604648 -14.90329244474201 0)
(10.55569479013535 -20.98279220082064 0)
(4.582289536549609 -1.958707734827993 0)
(1.56150581488978 5.96611843196198 0)
(-0.7678566022986081 8.624961308162906 0)
(-2.044101188987532 7.402426795657754 0)
(-2.620486190017183 4.553260152020597 0)
(-2.827591277092816 1.39115490608949 0)
(1.843122099378333 4.3301691575649 0)
(-1.84156255978377 4.745309676420484 0)
(-3.122470957416165 2.854470693543987 0)
(-2.955862715528611 0.783815772397508 0)
(5.353890583419386 -4.8718501155862 0)
(-0.3859816403588648 -2.697703430228355 0)
(-0.6578399921904853 -1.643896900881145 0)
(0.474300174252452 -0.8485080077285984 0)
(10.35383315448614 -10.89362150335899 0)
(7.486895839273818 -6.590343406779197 0)
(6.869415293444341 -3.289300825106906 0)
(7.911461580475112 -1.082554837076438 0)
(-2.82759127709196 -1.391154906084565 0)
(-2.955862715528241 -0.7838157723920336 0)
(0.4743001742525031 0.8485080077310009 0)
(7.911461580470493 1.082554837075067 0)
(-2.620486190016075 -4.553260152014728 0)
(-3.122470957414291 -2.854470693537822 0)
(-0.657839992188595 1.643896900883699 0)
(6.869415293444248 3.289300825101143 0)
(-2.044101188985338 -7.402426795651155 0)
(-1.841562559781009 -4.745309676417224 0)
(-0.3859816403549776 2.697703430228566 0)
(7.486895839280469 6.59034340677326 0)
(-0.7678566022949925 -8.624961308156525 0)
(1.843122099381007 -4.330169157562902 0)
(5.353890583417983 4.871850115590603 0)
(10.3538331544778 10.89362150335996 0)
(17.25668669495431 15.44459150766306 0)
(25.8033839146561 22.28598606196023 0)
(27.61199176688569 17.401911700108 0)
(25.42792501637289 10.57407512735939 0)
(18.16758695900578 11.62531152892008 0)
(27.96153224478713 22.99706876151533 0)
(28.52521450140348 22.15278806717667 0)
(25.60054715869321 10.97051231287767 0)
(10.67228315584167 1.581655561418387 0)
(16.70038935183464 17.27517885570478 0)
(29.31369398851551 21.57743035314153 0)
(25.6251650481728 12.68160188223696 0)
(1.561505814892011 -5.966118431956116 0)
(4.58228953655044 1.958707734831383 0)
(10.55569479013167 20.98279220081272 0)
(18.6398619760441 14.90329244474225 0)
(26.09767898977672 2.395704392482735 0)
(11.0356016049439 -1.423989311677801 0)
(2.305473299242665 -1.408525450340722 0)
(-2.019961837389426 -1.688492667708314 0)
(23.17127788449746 3.92862508179968 0)
(14.81483274016108 4.342518802020395 0)
(6.928958957973533 2.642988991192785 0)
(-0.1028109041201425 1.136139026494589 0)
(23.41580164721895 5.463574378354556 0)
(20.07232723047726 5.152537554896353 0)
(14.80214242237007 3.769719452753491 0)
(6.156191016977402 1.826648490699266 0)
(24.23202658881547 5.419859363174981 0)
(22.62700804344158 5.147589684961332 0)
(19.05696492617302 5.407808092757427 0)
(11.49994023728667 4.991195053055194 0)
(0.1030286034667532 -0.8604691511842276 0)
(0.6839630663033971 -0.0206315717320638 0)
(0.9419588785561369 0.03913486193861048 0)
(1.508151718561367 0.7512957719812717 0)
(0.3537296123234118 -2.477032244484157 0)
(-0.2549687745441296 -1.080268152695803 0)
(-0.3894569634260897 -0.9569716962138942 0)
(-0.07765334968317322 -0.1926694905870654 0)
(0.3120327719619034 -4.354107013985309 0)
(0.3340353429065551 -2.303189974862937 0)
(-0.1702130590354484 -1.25648827256679 0)
(0.005603727379637608 -0.1552197903545305 0)
(-0.9342566141066772 -4.678648512306378 0)
(0.2417200628743064 -3.153170505216244 0)
(0.1922883370561833 -1.219771531609373 0)
(-0.01248666126102768 0.04540800125416788 0)
(3.061985097006616 2.153791654994285 0)
(6.575650181496238 5.7228903583988 0)
(24.56933483192398 5.119287810938249 0)
(27.34590369631942 -4.020174284611028 0)
(0.5715436572723779 1.769533448140796 0)
(1.719215039509232 6.338946182153983 0)
(20.28207753674916 3.93482161408181 0)
(28.67891951372739 -3.503629671580881 0)
(0.2020467695403689 1.315696964067915 0)
(0.4060610028248351 3.395955668587872 0)
(12.29272447629589 5.681276798642799 0)
(29.92113565074283 -1.810771918147704 0)
(-0.189249325934625 1.364030649960597 0)