/*--------------------------------*- C++ -*----------------------------------*\
  =========                 |
  \\      /  F ield         | OpenFOAM: The Open Source CFD Toolbox
   \\    /   O peration     | Website:  https://openfoam.org
    \\  /    A nd           | Version:  11
     \\/     M anipulation  |
\*---------------------------------------------------------------------------*/
FoamFile
{
    format      ascii;
    class       volScalarField;
    location    "14.6";
    object      p;
}
// * * * * * * * * * * * * * * * * * * * * * * * * * * * * * * * * * * * * * //

dimensions      [0 2 -2 0 0 0 0];

internalField   nonuniform List<scalar> 
5472
(
110.35125
108.63833
106.96122
105.27044
103.6013
101.99438
100.44314
98.957572
97.539148
96.249687
95.045616
93.946385
92.983004
92.152308
91.475886
90.933329
90.55642
90.250577
90.107833
110.69947
109.11177
107.57328
106.02091
104.44184
102.91133
101.42537
99.985754
98.592463
97.310815
96.130778
95.039771
94.081242
93.241936
92.541444
91.933919
91.498181
91.212206
91.045553
110.98068
109.58473
108.14326
106.68076
105.24583
103.79985
102.36724
100.97741
99.627057
98.362158
97.188814
96.112982
95.142934
94.289836
93.558201
92.936363
92.493086
92.167629
91.986346
111.22723
109.95274
108.6301
107.30269
105.96872
104.60809
103.26662
101.92652
100.61001
99.38196
98.219109
97.144375
96.17398
95.318565
94.555776
93.93019
93.459928
93.110371
92.911966
111.39849
110.24721
109.04723
107.83636
106.62239
105.37136
104.07506
102.78145
101.53805
100.32697
99.1937
98.132424
97.165797
96.306477
95.53885
94.908438
94.390258
94.042635
93.816721
111.51666
110.45286
109.39411
108.32797
107.21433
106.03148
104.82021
103.60853
102.40676
101.22866
100.12935
99.089911
98.133948
97.259969
96.500149
95.84645
95.322594
94.957434
94.700112
111.57715
110.62988
109.67917
108.72549
107.69581
106.61726
105.50043
104.3442
103.20852
102.08039
101.00894
99.984216
99.041752
98.183836
97.413233
96.745243
96.223587
95.822011
95.564151
111.59249
110.75641
109.91258
109.0348
108.12875
107.14947
106.08891
105.02922
103.94722
102.86479
101.83436
100.84395
99.928388
99.060999
98.302708
97.656671
97.101663
96.692295
96.419396
111.60617
110.85781
110.0751
109.2953
108.47366
107.5922
106.64531
105.63201
104.59091
103.59259
102.60233
101.6513
100.74911
99.890359
99.130106
98.45376
97.934076
97.515358
97.223983
111.5416
110.89074
110.2142
109.5037
108.76183
107.96997
107.0951
106.16869
105.21568
104.26158
103.30777
102.39855
101.52436
100.7089
99.948171
99.304672
98.749079
98.310987
98.009009
111.49298
110.89403
110.29285
109.6796
109.0177
108.28823
107.49478
106.64396
105.75791
104.85682
103.95579
103.08252
102.23003
101.43401
100.69193
100.06454
99.50616
99.086157
98.763606
111.39266
110.87723
110.36513
109.81994
109.21539
108.55796
107.83604
107.05457
106.24506
105.41411
104.57276
103.73401
102.91942
102.13376
101.40661
100.77693
100.22839
99.810707
99.47052
111.27939
110.85146
110.40013
109.90892
109.37667
108.78265
108.12948
107.41027
106.65619
105.88328
105.09064
104.30082
103.52959
102.77693
102.09516
101.46902
100.92928
100.49591
100.14812
111.16457
110.78646
110.39317
109.96901
109.50011
108.97262
108.38554
107.73264
107.05065
106.33584
105.58903
104.83601
104.08854
103.35532
102.68709
102.08207
101.56278
101.12848
100.78447
111.07941
110.73531
110.38139
110.0107
109.58883
109.1098
108.57201
107.98164
107.35954
106.70873
106.02614
105.32325
104.61167
103.91716
103.27792
102.67899
102.16356
101.72875
101.37552
110.93071
110.65667
110.3676
110.05127
109.67971
109.25189
108.76303
108.22179
107.64108
107.03649
106.39737
105.73735
105.0629
104.40599
103.79392
103.22186
102.71777
102.28642
101.92862
110.82687
110.57543
110.31352
110.03079
109.71184
109.33372
108.89566
108.41807
107.89914
107.34903
106.74904
106.12208
105.47872
104.85612
104.26843
103.71954
103.22572
102.79934
102.43923
110.7346
110.52222
110.30572
110.05792
109.76072
109.40564
109.00574
108.56755
108.1004
107.59903
107.05023
106.46923
105.86229
105.26384
104.69603
104.16811
103.6863
103.26563
102.90576
110.61493
110.44431
110.26278
110.04966
109.79369
109.48428
109.11949
108.71447
108.28258
107.81188
107.30329
106.76033
106.20253
105.64219
105.09499
104.58249
104.10809
103.69422
103.33675
110.56918
110.40486
110.23649
110.04163
109.81066
109.53034
109.20114
108.84434
108.45202
108.01774
107.53689
107.01366
106.47918
105.94736
105.42954
104.94007
104.47857
104.06867
103.71632
110.52073
110.38428
110.23707
110.06176
109.84655
109.58312
109.27819
108.9473
108.58633
108.19151
107.75582
107.282
106.78227
106.26373
105.75538
105.27358
104.82194
104.41761
104.06847
110.47269
110.35261
110.22352
110.07102
109.88161
109.64587
109.37021
109.05966
108.71544
108.33424
107.90693
107.44733
106.97277
106.48969
106.00901
105.54132
105.09708
104.69824
104.34537
110.46677
110.35922
110.2375
110.09424
109.91894
109.70172
109.45105
109.17154
108.8578
108.51133
108.12288
107.69614
107.23708
106.759
106.28474
105.82241
105.38477
104.98517
104.63096
110.46464
110.37221
110.26622
110.13739
109.97664
109.77401
109.53463
109.26258
108.95579
108.61149
108.22129
107.79854
107.35623
106.90171
106.44089
105.98788
105.56005
105.16249
104.80994
110.48148
110.40046
110.30153
110.18833
110.05069
109.87687
109.66454
109.41812
109.14585
108.83894
108.49125
108.09496
107.65071
107.18132
106.70217
106.23561
105.7929
105.38363
105.01783
110.50596
110.44441
110.35615
110.24753
110.11293
109.9453
109.73787
109.48863
109.19958
108.87313
108.51308
108.1191
107.69432
107.23897
106.76807
106.30804
105.8692
105.47235
105.10729
110.52435
110.49929
110.44932
110.37279
110.27122
110.14288
109.97927
109.77566
109.52844
109.23589
108.90153
108.51889
108.06877
107.56025
107.02782
106.50795
106.04403
105.61469
105.21523
90.158486
90.309007
90.594541
90.998875
91.466162
92.046483
92.6892
93.39863
94.208745
95.047531
95.971935
96.949249
97.968531
99.027593
100.12266
101.26992
102.44329
103.59074
104.68037
91.085432
91.206604
91.4947
91.896923
92.374272
93.008534
93.678298
94.477158
95.323828
96.186994
97.107744
98.053506
99.011563
99.983032
100.94922
101.89616
102.75563
103.51543
104.15955
91.97643
92.086364
92.372668
92.75924
93.282427
93.947362
94.668733
95.537553
96.386574
97.292385
98.208958
99.108954
100.00777
100.86824
101.64586
102.34159
102.85168
103.20343
103.40182
92.849717
92.95286
93.227288
93.619571
94.186021
94.852983
95.63198
96.486445
97.329618
98.235283
99.092136
99.93576
100.73359
101.42146
101.98874
102.39331
102.62439
102.64328
102.40473
93.721263
93.804528
94.061305
94.467886
95.051733
95.72636
96.522405
97.326663
98.171607
99.017629
99.795901
100.5251
101.1645
101.65489
102.03221
102.18859
102.1708
101.87482
101.31198
94.580838
94.636451
94.889295
95.303264
95.886519
96.565894
97.348014
98.113562
98.93532
99.692935
100.36191
100.96269
101.46116
101.78079
101.94984
101.94077
101.72251
101.29612
100.69446
95.40831
95.444977
95.700075
96.1159
96.685454
97.364819
98.101034
98.847692
99.60015
100.26425
100.84467
101.32906
101.67904
101.87976
101.90605
101.78962
101.52819
101.1541
100.73547
96.220062
96.25509
96.480876
96.883301
97.434896
98.100811
98.799116
99.51273
100.19069
100.76092
101.26832
101.63787
101.8804
101.98541
101.9684
101.84637
101.66299
101.45465
101.26249
97.001431
97.021169
97.214442
97.62376
98.148086
98.791553
99.442165
100.09976
100.70657
101.21911
101.6367
101.93122
102.09867
102.16386
102.16601
102.12501
102.08376
102.03741
102.03953
97.76729
97.753058
97.92222
98.315799
98.816351
99.431452
100.03944
100.64637
101.16925
101.64093
101.97054
102.21999
102.36537
102.45119
102.52275
102.5832
102.66902
102.7922
102.92731
98.506113
98.441987
98.605945
98.971669
99.451006
100.02447
100.5905
101.13827
101.61183
102.01638
102.30302
102.54179
102.69845
102.8487
102.98512
103.13597
103.33396
103.54645
103.74246
99.202854
99.085614
99.262671
99.58583
100.05097
100.58019
101.09938
101.59608
102.02163
102.37825
102.65372
102.90106
103.09154
103.29959
103.49483
103.73075
103.9845
104.23196
104.45924
99.847053
99.718333
99.888506
100.15202
100.60771
101.08142
101.56925
102.02041
102.40757
102.74494
103.02304
103.28087
103.51451
103.76784
104.01436
104.29595
104.56634
104.83956
105.0563
100.4557
100.34353
100.45549
100.69744
101.12729
101.54194
102.01061
102.41489
102.78439
103.11544
103.40075
103.68222
103.94459
104.22186
104.49833
104.79197
105.06017
105.29316
105.44426
101.03006
100.9134
100.96669
101.21591
101.58525
101.9823
102.42192
102.78575
103.15548
103.47348
103.77521
104.067
104.35011
104.64492
104.92664
105.2028
105.42706
105.60352
105.70278
101.57668
101.43167
101.44958
101.69052
102.00334
102.39957
102.79055
103.15133
103.50806
103.80937
104.13466
104.4275
104.71634
105.0008
105.26765
105.49392
105.66759
105.81923
105.9159
102.08243
101.90243
101.91216
102.12224
102.39842
102.78204
103.13418
103.49625
103.83307
104.1525
104.4704
104.73906
105.03697
105.29217
105.51168
105.68923
105.83778
105.97433
106.06929
102.54292
102.32983
102.3276
102.49556
102.76478
103.11863
103.44345
103.79216
104.10919
104.42968
104.72114
105.00235
105.27522
105.47933
105.66569
105.79355
105.90974
106.00443
106.03255
102.96557
102.73352
102.71609
102.84954
103.10823
103.41883
103.74544
104.09423
104.39961
104.69911
104.96914
105.22873
105.43973
105.60083
105.73801
105.80119
105.84352
105.80593
105.70668
103.33142
103.08118
103.04319
103.13975
103.38663
103.67154
103.99018
104.29371
104.58538
104.88205
105.13041
105.35001
105.49704
105.60995
105.65866
105.63719
105.55077
105.34538
105.10574
103.68275
103.41619
103.34094
103.43482
103.65899
103.93658
104.25575
104.5401
104.82061
105.05789
105.24963
105.4064
105.48727
105.51984
105.45898
105.32671
105.10514
104.82457
104.52895
103.95205
103.67139
103.57254
103.65594
103.85009
104.11344
104.38519
104.64869
104.91579
105.11136
105.27076
105.36449
105.38105
105.31617
105.16989
104.95452
104.6819
104.42624
104.18637
104.22489
103.91844
103.80875
103.86923
104.06895
104.33513
104.60664
104.85416
105.03647
105.1696
105.26199
105.26824
105.19681
105.03905
104.82207
104.57442
104.33534
104.11704
103.89214
104.40608
104.09518
103.95538
104.00073
104.17939
104.41329
104.65156
104.86553
105.02857
105.14649
105.18361
105.1391
105.01419
104.81827
104.59509
104.36344
104.12375
103.87356
103.61982
104.58368
104.24641
104.09276
104.14828
104.35407
104.61097
104.83662
104.9887
105.07528
105.10556
105.04443
104.89385
104.67442
104.42327
104.18054
103.935
103.69531
103.45167
103.15384
104.68616
104.31957
104.14603
104.19162
104.39141
104.62307
104.81113
104.93941
105.03885
105.04888
104.97263
104.83019
104.63173
104.39962
104.15698
103.87797
103.52268
103.08769
102.56752
104.73571
104.3533
104.18867
104.28329
104.55238
104.80026
104.94778
105.01366
104.98776
104.89103
104.68737
104.41246
104.09649
103.73692
103.3307
102.89567
102.40321
101.88574
101.38098
105.74887
106.8216
107.85094
108.79818
109.4323
109.79283
109.24935
107.67586
104.18628
97.240867
86.250493
73.428855
61.81955
51.323887
43.054352
38.157077
36.848193
39.085244
43.674664
104.70201
105.15648
105.45374
105.37817
104.79227
103.3026
100.58698
95.509978
88.352616
79.03596
66.863649
52.864484
38.195566
24.682201
14.603996
10.237342
12.190882
19.451309
30.174217
103.41212
103.21613
102.74659
101.71854
99.986604
97.13656
92.785589
86.130478
77.197031
65.704241
51.610843
35.718274
20.381802
7.9502491
0.14902565
-1.1576491
3.7196502
13.288074
25.971558
101.88318
101.17488
100.11765
98.497179
96.178284
92.968013
88.474741
82.569822
74.85978
65.353677
54.256161
42.067898
30.374934
20.53706
14.165755
12.461988
15.404218
22.246513
32.029989
100.53569
99.633367
98.418426
96.820387
94.68261
91.907315
88.307546
83.948732
78.4936
72.049094
64.768802
56.874555
49.146335
42.41272
37.818236
35.890291
36.95342
40.997128
47.482617
99.953772
99.139497
98.141114
96.862174
95.204705
93.057431
90.512971
87.51517
84.008066
80.019604
75.508184
70.828976
66.269054
62.307575
59.021855
57.034633
56.911829
58.820035
62.568109
100.21538
99.624164
98.898555
97.946158
96.686981
95.13405
93.45375
91.456153
89.269331
86.734305
83.977043
81.127181
78.075461
75.252776
73.02968
72.000317
71.852216
72.514689
74.294912
101.00172
100.65586
100.13744
99.429697
98.486111
97.448772
96.270942
94.968405
93.544359
91.771377
89.928457
87.932638
85.953442
84.175483
82.618721
81.494795
81.200592
81.70046
82.719429
102.03062
101.83808
101.4869
100.94324
100.23095
99.51173
98.699168
97.859505
96.763708
95.53628
94.282747
92.87079
91.411881
89.929758
88.615722
87.642328
87.0227
86.677538
86.904259
103.02669
102.9271
102.67153
102.25198
101.77862
101.29271
100.74461
100.12806
99.350628
98.462336
97.435917
96.258625
94.8711
93.5052
92.172075
90.796207
89.211253
87.859801
87.152196
103.89988
103.89974
103.71619
103.41922
103.1143
102.79221
102.43282
101.98117
101.36562
100.58606
99.7268
98.678918
97.317965
95.841503
94.184849
92.080699
89.743642
87.794372
86.194673
104.67002
104.71015
104.56085
104.36306
104.1494
103.93696
103.65566
103.25581
102.73566
102.11407
101.30961
100.10344
98.484177
96.70018
94.432247
91.368332
88.098898
84.820677
81.444056
105.24989
105.26014
105.1401
104.99296
104.8066
104.59789
104.30479
103.89641
103.36663
102.65526
101.6122
100.13603
98.152632
95.762565
92.289396
87.521788
81.797373
75.155522
67.762954
105.58075
105.59194
105.52323
105.38807
105.20863
104.99416
104.6771
104.20003
103.5807
102.80106
101.75777
100.08232
97.927119
95.307103
91.302741
85.64154
78.333058
69.234414
58.488035
105.87128
105.93682
105.90794
105.81007
105.71274
105.5698
105.30655
104.93254
104.52239
104.02869
102.94047
101.3238
99.815024
97.556026
94.1995
89.479026
83.407901
76.063287
67.741039
106.13165
106.23538
106.24554
106.24475
106.26709
106.20501
106.10237
105.9262
105.29995
104.37538
104.10712
103.30787
101.48706
99.176857
96.195529
92.468452
88.092318
83.34058
78.573875
106.25323
106.33761
106.35591
106.4112
106.39765
106.29888
106.00791
105.55939
105.13087
104.79563
103.82241
102.16767
100.06371
97.626382
95.092579
92.447007
89.773584
87.308837
85.327082
106.11114
106.152
106.26039
106.34819
106.34761
106.27314
105.87422
105.32661
103.98988
101.98767
99.879064
97.432002
95.158484
93.278509
91.570773
89.943985
88.641007
87.76813
87.524855
105.57319
105.60818
105.72804
105.79573
105.77575
105.64493
105.28855
104.66661
103.26024
99.889385
95.189788
90.287907
86.864607
84.627708
83.016722
82.389421
83.072196
84.528335
86.268698
104.78048
104.79143
104.82021
104.79617
104.64252
104.39739
104.01761
103.37189
102.0648
99.57756
96.04213
91.386679
85.773241
79.520481
75.44957
72.948909
72.293399
73.543655
76.641499
104.21753
104.14627
104.08709
103.94408
103.65801
103.27061
102.70649
101.89967
100.55378
98.286186
94.852319
90.34695
85.153159
79.982421
75.702501
73.062912
72.656027
74.485185
78.175115
104.01542
103.97667
103.96107
103.8748
103.72652
103.56002
103.29716
102.9023
102.24541
101.32428
99.865704
97.806386
95.279919
92.476843
89.765602
87.653326
86.440148
86.068543
86.804616
103.82536
103.87558
103.9487
103.98708
104.00472
104.05583
104.06717
104.09449
104.04524
103.89243
103.56747
103.01926
102.274
101.28119
100.02086
98.538027
96.629859
94.692594
93.491702
103.56787
103.60851
103.66464
103.74508
103.82698
103.89275
104.00382
104.04881
104.09286
104.04162
103.62141
102.96256
102.19784
101.13204
99.644116
97.754287
95.938785
94.447955
92.772633
102.95082
103.0071
103.17665
103.29552
103.40411
103.52991
103.67372
103.79993
103.87771
103.82709
103.55078
102.9845
102.60102
102.02569
101.24879
99.869146
97.96875
95.677074
93.336384
102.04311
102.09186
102.24724
102.34222
102.43607
102.54677
102.648
102.8188
102.73571
102.74057
102.59268
101.04182
100.59671
100.47226
100.22408
99.606662
98.763478
97.889027
97.02515
100.85719
100.9029
100.95247
100.95638
100.99834
101.08808
101.22238
101.44045
101.70254
102.11796
102.58371
103.16416
103.33448
102.73669
101.92325
101.2582
100.7071
100.25863
99.882817
50.290484
57.845945
64.404958
70.427212
76.088574
80.156594
82.961726
85.335934
87.110237
87.835931
88.082209
88.153054
87.730774
87.010233
86.209256
85.277266
84.194748
83.042788
81.788662
42.733421
54.755896
64.448853
72.188875
78.677206
84.013724
87.979311
90.532739
92.186264
93.110786
93.366256
93.255785
92.748945
91.955776
91.027838
89.996535
88.93388
87.709404
86.393206
39.207847
51.750035
63.538069
73.49693
81.071886
86.984121
91.675128
94.985046
96.955715
97.980658
98.272653
98.13492
97.533714
96.622807
95.645632
94.508271
93.438201
92.190575
90.751762
43.423615
55.214141
66.233753
75.804932
83.523946
89.669631
94.743638
98.617406
100.96642
102.12594
102.46874
102.24747
101.67296
100.7354
99.603678
98.469908
97.320331
96.146128
94.645102
55.511497
64.041309
72.343837
79.870846
86.541486
92.213949
96.94335
101.19407
104.19248
105.43873
105.7671
105.50016
104.80181
103.88138
102.71824
101.55657
100.43305
99.297719
97.892482
67.49165
73.077055
78.98962
84.756061
90.091347
94.873672
98.963589
102.58957
106.52864
107.64629
107.86247
107.61843
106.95746
106.0157
104.92527
103.77002
102.71467
101.66939
100.41364
77.195785
80.972503
85.274231
89.660421
94.006963
98.17291
101.77791
104.82711
106.9756
107.96459
108.29868
108.20244
107.76314
107.01619
106.11024
105.09517
104.15772
103.23332
102.15339
84.432783
86.856076
89.734935
93.067915
96.732155
100.22544
103.23362
105.61378
107.0898
107.71977
107.82841
107.7539
107.49674
106.98128
106.34653
105.5739
104.83467
104.09011
103.21352
87.660082
89.026433
91.108135
93.799852
96.669363
99.491685
102.30073
104.61106
106.2445
107.05602
107.27004
107.02653
106.84195
106.53416
106.12666
105.58044
105.0032
104.44051
103.75122
87.151058
88.010989
89.471483
91.163497
93.272736
96.040596
99.025909
101.77097
104.0487
105.48393
106.04596
106.21124
106.29658
106.11835
105.83664
105.45656
104.98785
104.55378
104.01933
84.737099
83.730147
83.415445
84.154545
86.019514
88.782008
92.226543
96.002481
99.388398
101.95772
103.67073
104.63003
104.78855
105.22665
105.34656
105.20672
104.89684
104.54806
104.15223
78.105515
75.334479
73.470886
73.045919
74.178331
76.719575
80.844715
85.92885
91.000619
95.40932
99.195502
101.94701
103.56911
104.62388
104.94689
104.9648
104.74765
104.43147
104.12791
60.214654
53.876919
50.238834
50.05599
53.385513
59.033223
65.97246
73.787105
81.741252
89.268575
95.945367
100.55951
102.73243
103.8613
104.29569
104.39638
104.26996
103.98601
103.76621
47.33403
37.734269
31.846464
31.57476
36.618795
46.63331
58.251193
70.158417
80.698111
89.306482
95.444491
99.074404
101.00514
102.21565
102.90331
103.1977
103.25841
103.12186
103.04147
59.17744
51.735157
47.33976
46.936311
50.131548
56.428483
64.92386
73.719667
81.929554
88.710052
93.747666
97.031692
99.135379
100.52971
101.47244
102.01292
102.25934
102.31035
102.32841
74.160734
70.727756
69.315798
70.353421
72.973636
76.640545
81.310194
86.004434
90.284656
93.884402
96.523687
98.393832
99.74471
100.67027
101.33255
101.78762
102.02788
102.10844
102.13195
83.835362
83.058483
83.318042
84.562486
86.549575
88.998869
91.612621
94.146846
96.295165
98.082746
99.446787
100.4105
101.13666
101.61158
101.95336
102.19695
102.3232
102.39055
102.35836
88.036865
88.894373
89.767929
91.093295
92.936294
94.842147
96.568828
98.153275
99.481216
100.52177
101.31182
101.86101
102.26475
102.51063
102.64924
102.77086
102.79525
102.79109
102.71259
88.340752
90.497403
92.574188
94.592245
96.448742
98.043893
99.421661
100.64901
101.66046
102.40131
102.8883
103.19743
103.38269
103.41441
103.37661
103.32969
103.31314
103.22452
103.07509
80.940892
85.706765
90.213992
93.927175
96.845953
98.928892
100.30345
101.60017
103.11033
104.01032
104.22587
104.26697
104.25654
104.13792
103.96276
103.80032
103.66477
103.54524
103.36374
82.76897
87.427124
91.793909
95.461654
98.383452
100.83065
102.35606
102.93288
102.84345
103.32645
104.15842
104.39373
104.36011
104.28496
104.10772
103.92619
103.71779
103.57407
103.40091
88.498275
90.731602
93.122654
95.447615
97.480121
99.207015
100.6074
101.55796
102.43257
103.69953
104.24052
104.10353
104.24576
104.05322
103.90359
103.71044
103.50032
103.30858
103.1582
93.110194
93.270307
93.776206
94.642602
95.592836
96.544201
97.514462
98.431829
100.15707
102.33708
102.95492
103.20465
103.33998
103.23234
103.15231
103.00736
102.85939
102.66391
102.53841
90.96621
89.603542
89.133562
90.072195
92.296805
95.009681
97.675195
99.728694
100.92731
101.81887
102.16161
102.2292
102.24634
102.18846
102.15056
102.07447
101.97372
101.87733
101.84849
91.419933
90.039036
89.429777
89.497906
90.443366
92.124164
93.951657
96.003853
98.062694
99.481409
100.13646
100.50158
100.777
100.94684
101.06264
101.1605
101.18969
101.20635
101.25853
96.362606
96.032698
96.101216
96.583659
97.408036
98.1495
98.466958
98.705807
99.077483
99.43362
99.683747
99.847803
100.09801
100.34916
100.52377
100.64356
100.71078
100.73464
100.78472
99.566757
99.207441
98.76936
98.273726
97.759179
97.585293
98.198721
98.99757
99.466245
99.740429
99.979459
100.1621
100.2279
100.23973
100.28782
100.35044
100.3916
100.39641
100.38322
80.446427
79.105693
77.716224
76.299048
74.903243
73.555236
72.245891
71.054943
69.933735
68.929725
67.974821
67.129698
66.439719
65.783553
65.344618
64.984457
64.813965
64.96353
65.166693
84.914968
83.417233
81.86252
80.265914
78.679358
77.129583
75.620022
74.186513
72.846474
71.579596
70.451389
69.389085
68.531942
67.781117
67.159608
66.756906
66.490472
66.550711
66.688911
89.153257
87.444805
85.742845
83.977977
82.239426
80.51908
78.847222
77.233873
75.710661
74.250908
72.91631
71.697565
70.633608
69.781234
69.023503
68.53084
68.22184
68.169055
68.363743
92.921677
91.096883
89.257005
87.393442
85.526394
83.70151
81.886198
80.137997
78.459024
76.84753
75.346614
73.973772
72.75709
71.739762
70.898065
70.294603
69.937685
69.819578
70.000856
96.138003
94.294636
92.39491
90.475682
88.538418
86.632364
84.734922
82.874272
81.089167
79.36282
77.73454
76.217627
74.861239
73.702299
72.73752
72.042468
71.60929
71.445487
71.604105
98.778354
97.008689
95.150942
93.243897
91.296934
89.352275
87.405763
85.476599
83.584191
81.771172
80.026091
78.417755
76.937565
75.653296
74.58117
73.779878
73.284009
73.07536
73.225699
100.74646
99.176421
97.451791
95.629777
93.736398
91.81
89.846441
87.900106
85.94584
84.066611
82.237415
80.526475
78.952126
77.552568
76.385169
75.49845
74.922457
74.666674
74.783956
102.0852
100.75909
99.260525
97.615641
95.838189
93.997267
92.074342
90.132448
88.16741
86.235356
84.346795
82.560241
80.903478
79.421627
78.164165
77.17473
76.547775
76.240604
76.347891
102.89894
101.83853
100.57576
99.159227
97.562125
95.849122
94.023263
92.136059
90.192942
88.254946
86.339186
84.487353
82.773519
81.204233
79.89244
78.810617
78.124392
77.782291
77.846352
103.33278
102.52976
101.51309
100.31902
98.934055
97.396291
95.704266
93.915379
92.044085
90.114135
88.215811
86.324052
84.565776
82.927107
81.556836
80.433295
79.65804
79.283007
79.323899
103.5916
102.95578
102.14525
101.16035
99.97983
98.627319
97.107253
95.428787
93.671848
91.79963
89.924524
88.037468
86.245502
84.571387
83.117833
81.972954
81.151664
80.735967
80.76351
103.72371
103.21495
102.55658
101.74178
100.76622
99.594554
98.257213
96.723595
95.082432
93.310148
91.48681
89.638267
87.834223
86.143404
84.631416
83.438603
82.586133
82.129152
82.11886
103.56616
103.24807
102.77148
102.11097
101.32718
100.3314
99.171885
97.805286
96.290154
94.631538
92.878834
91.085639
89.292715
87.611488
86.07102
84.826897
83.948895
83.481442
83.449741
103.11207
102.98734
102.74188
102.27135
101.67255
100.85971
99.864647
98.671807
97.303462
95.773884
94.115296
92.400227
90.640616
88.981617
87.433906
86.157801
85.235929
84.756773
84.710661
102.56123
102.59856
102.51419
102.23846
101.81318
101.1999
100.37724
99.355285
98.140232
96.751657
95.19892
93.567815
91.862945
90.203742
88.692465
87.408006
86.458679
85.957162
85.884362
102.26084
102.28428
102.25016
102.10313
101.81222
101.36506
100.71423
99.861442
98.795847
97.55627
96.130735
94.594098
92.97485
91.352719
89.854751
88.578204
87.621138
87.089775
87.055608
102.30134
102.18508
102.11183
102.00198
101.77915
101.43803
100.93598
100.24269
99.323386
98.228402
96.938236
95.498204
93.968255
92.409556
90.928571
89.65023
88.705682
88.149897
88.078623
102.52183
102.3235
102.15958
102.00505
101.78236
101.48302
101.07861
100.51173
99.722464
98.757115
97.602862
96.267466
94.825768
93.334116
91.902646
90.629774
89.695974
89.151218
89.065251
102.78397
102.57254
102.35412
102.14111
101.87889
101.58492
101.2237
100.74079
100.0619
99.209587
98.182881
96.962229
95.609942
94.184952
92.803292
91.562729
90.606567
90.076088
89.987403
103.02237
102.82608
102.58352
102.34076
102.04502
101.73363
101.3861
100.94127
100.34207
99.575722
98.645896
97.531658
96.268478
94.900718
93.544494
92.354457
91.413736
90.870026
90.751152
103.16316
103.02703
102.8047
102.56198
102.27177
101.95449
101.60466
101.15474
100.62413
99.933194
99.083135
98.053699
96.884548
95.632678
94.374308
93.141714
92.21253
91.671587
91.615738
103.0973
103.08496
102.95366
102.74041
102.49277
102.19012
101.83774
101.39751
100.87823
100.25337
99.456722
98.478181
97.353458
96.113821
94.845906
93.731894
92.817017
92.275373
92.107041
102.71024
102.83257
102.85817
102.77344
102.62636
102.3856
102.07144
101.67813
101.18078
100.59998
99.854908
98.956172
97.902272
96.757514
95.584788
94.401161
93.481572
92.950925
92.897056
102.13373
102.41056
102.63292
102.71033
102.67177
102.54049
102.28796
101.9384
101.4821
100.90494
100.17874
99.293659
98.254971
97.075892
95.856377
94.783405
93.876408
93.33325
93.152193
101.54175
101.84053
102.12244
102.35569
102.46353
102.46076
102.34841
102.11508
101.75746
101.26773
100.63566
99.830833
98.856945
97.761043
96.576119
95.395735
94.431668
93.851838
93.794433
101.05858
101.43336
101.79374
102.11761
102.36379
102.48551
102.46318
102.29263
101.98456
101.52112
100.89226
100.08888
99.08582
97.912598
96.698872
95.555953
94.607775
94.022322
93.870246
100.57838
100.82775
101.14037
101.47159
101.79816
102.07611
102.2641
102.32656
102.20028
101.91769
101.46644
100.80623
99.91215
98.802763
97.515066
96.196997
95.063859
94.32163
94.111542
65.622121
66.13933
66.867914
67.816221
68.915345
70.237715
71.663473
73.277936
75.015348
76.861288
78.846994
80.912006
83.088721
85.33374
87.648873
90.010587
92.402154
94.802584
97.206178
67.156561
67.762643
68.514445
69.500894
70.586837
71.901473
73.341006
74.939586
76.678049
78.504099
80.460604
82.487892
84.595144
86.76917
88.98446
91.236373
93.49597
95.730047
97.947821
68.772855
69.395439
70.168573
71.139528
72.260306
73.556368
75.012223
76.6047
78.328245
80.143233
82.044824
84.017651
86.056596
88.145413
90.265446
92.407321
94.529316
96.606585
98.640759
70.433812
71.01746
71.80286
72.76569
73.900416
75.187302
76.636332
78.223641
79.924368
81.715683
83.580199
85.495839
87.468984
89.475109
91.491351
93.514145
95.503712
97.434854
99.302369
72.031712
72.628905
73.41348
74.376639
75.509299
76.783626
78.225914
79.79803
81.475212
83.231565
85.063871
86.92425
88.809658
90.724431
92.626824
94.528033
96.380965
98.173128
99.88968
73.659319
74.244042
75.017412
75.962402
77.085464
78.354882
79.782784
81.326055
82.979572
84.707559
86.474415
88.267153
90.0612
91.873532
93.672476
95.466939
97.186572
98.819744
100.39274
75.217054
75.796703
76.561557
77.502683
78.61615
79.872344
81.279145
82.802841
84.415733
86.096478
87.795728
89.523688
91.245543
92.957954
94.642405
96.301101
97.892747
99.399601
100.85189
76.766686
77.336059
78.092364
79.02432
80.125963
81.362738
82.732665
84.223639
85.783696
87.41242
89.06059
90.717027
92.344603
93.946381
95.522383
97.059478
98.539351
99.918327
101.23369
78.269097
78.830597
79.578641
80.487225
81.561329
82.783171
84.112232
85.568579
87.093167
88.669123
90.254513
91.815804
93.345303
94.850038
96.332603
97.745886
99.100469
100.37099
101.57894
79.739759
80.281766
81.004919
81.905092
82.954086
84.1599
85.466641
86.870858
88.345306
89.847108
91.350408
92.82159
94.276636
95.686489
97.058
98.365806
99.627614
100.80548
101.88348
81.154894
81.682274
82.38783
83.278717
84.310345
85.46734
86.738078
88.080813
89.494159
90.926779
92.370876
93.780754
95.144168
96.442079
97.712259
98.939191
100.07795
101.14388
102.12613
82.516709
83.02592
83.723487
84.582388
85.586438
86.709606
87.938979
89.22955
90.593115
91.965286
93.323272
94.648411
95.922625
97.139109
98.303066
99.426356
100.48073
101.47924
102.38614
83.835087
84.318717
84.996381
85.823594
86.79949
87.891125
89.071871
90.322427
91.613963
92.915879
94.196919
95.451439
96.641316
97.772591
98.849554
99.883507
100.85912
101.75576
102.56532
85.092093
85.546119
86.192065
87.003989
87.950717
89.009324
90.143704
91.335835
92.559038
93.790682
94.993173
96.169368
97.277794
98.330277
99.333673
100.28407
101.17486
101.99847
102.75241
86.229239
86.706437
87.340657
88.131284
89.041521
90.058876
91.137158
92.266525
93.42482
94.59191
95.738878
96.844696
97.882172
98.851593
99.777595
100.65517
101.48396
102.2163
102.86958
87.372187
87.815689
88.416381
89.169632
90.046023
91.017629
92.052123
93.129859
94.233029
95.338379
96.422511
97.450161
98.414695
99.305207
100.16394
100.97678
101.72989
102.40455
103.01365
88.40876
88.836324
89.417868
90.143392
90.99167
91.925234
92.924739
93.94483
94.987118
96.020741
97.033373
97.989509
98.89327
99.735365
100.52923
101.2759
101.96534
102.59063
103.14541
89.390561
89.803951
90.368621
91.057439
91.870252
92.762935
93.711567
94.678101
95.656915
96.632663
97.58636
98.489944
99.338561
100.12651
100.85589
101.54176
102.17727
102.75282
103.25618
90.291749
90.697072
91.221174
91.881751
92.661977
93.521421
94.426162
95.348838
96.279139
97.20132
98.102926
98.955519
99.747296
100.47979
101.15429
101.79126
102.38611
102.92093
103.38168
91.082315
91.458439
91.998758
92.653427
93.408845
94.225623
95.086516
95.965665
96.8527
97.727507
98.572513
99.372531
100.11133
100.79423
101.43021
102.02654
102.57543
103.06451
103.48486
91.897148
92.259032
92.748101
93.362722
94.066871
94.842083
95.672274
96.515711
97.3606
98.197708
98.993737
99.750683
100.44942
101.09689
101.70443
102.26642
102.7718
103.21703
103.60632
92.431849