/*--------------------------------*- C++ -*----------------------------------*\
  =========                 |
  \\      /  F ield         | OpenFOAM: The Open Source CFD Toolbox
   \\    /   O peration     | Website:  https://openfoam.org
    \\  /    A nd           | Version:  11
     \\/     M anipulation  |
\*---------------------------------------------------------------------------*/
FoamFile
{
    format      ascii;
    class       volScalarField;
    location    "5.8";
    object      p;
}
// * * * * * * * * * * * * * * * * * * * * * * * * * * * * * * * * * * * * * //

dimensions      [0 2 -2 0 0 0 0];

internalField   nonuniform List<scalar> 
5472
(
104.65316
102.77424
100.86282
98.971288
97.123688
95.317086
93.576195
91.909474
90.336242
88.868412
87.523012
86.27849
85.165172
84.169281
83.347196
82.661671
82.191345
81.822616
81.605172
105.19369
103.45639
101.69589
99.926103
98.176936
96.459923
94.768215
93.154253
91.629347
90.163735
88.834828
87.598307
86.475849
85.490436
84.645319
83.947765
83.397047
82.981825
82.776415
105.69739
104.08905
102.46195
100.84036
99.1954
97.564395
95.946239
94.373039
92.8743
91.440194
90.126568
88.883311
87.776083
86.777632
85.91123
85.194198
84.613016
84.231241
83.941032
106.11419
104.64388
103.15882
101.66615
100.145
98.595437
97.049993
95.531695
94.081355
92.698025
91.376201
90.148219
89.060971
88.034583
87.153741
86.415687
85.832658
85.401021
85.122832
106.43351
105.11452
103.79609
102.42091
100.98865
99.529247
98.060188
96.621023
95.228151
93.86226
92.578353
91.373695
90.272153
89.253131
88.37339
87.627341
87.015341
86.578598
86.273993
106.70554
105.54621
104.3473
103.08538
101.77178
100.40494
99.025155
97.651616
96.285022
94.990288
93.74321
92.533863
91.441062
90.430535
89.55748
88.800496
88.19558
87.737134
87.40112
106.92255
105.87883
104.78848
103.649
102.4503
101.19576
99.895292
98.580233
97.299886
96.0511
94.816414
93.650385
92.568601
91.568973
90.694461
89.936393
89.326195
88.829816
88.513813
107.12629
106.18007
105.18091
104.14377
103.05289
101.89705
100.6871
99.459366
98.234328
97.027465
95.856622
94.727555
93.646547
92.670133
91.797557
91.042402
90.422012
89.943755
89.599008
107.26951
106.40247
105.50197
104.57567
103.58467
102.50868
101.37364
100.2326
99.090242
97.949729
96.820231
95.719022
94.672116
93.718127
92.854025
92.109438
91.479248
90.979758
90.629839
107.3543
106.57678
105.78097
104.94188
104.03685
103.06803
102.03604
100.96512
99.880304
98.797058
97.722851
96.656025
95.634683
94.697577
93.852182
93.125311
92.502877
92.02601
91.650008
107.38726
106.71316
106.01732
105.24756
104.41896
103.52917
102.58765
101.60908
100.60366
99.588679
98.562265
97.539364
96.556802
95.639914
94.813616
94.085037
93.464898
92.971188
92.610305
107.42462
106.83931
106.21475
105.53339
104.79026
103.95967
103.08211
102.16509
101.2428
100.28894
99.31435
98.346799
97.404805
96.521835
95.725261
95.014439
94.40437
93.91178
93.542797
107.43213
106.90792
106.33799
105.72783
105.07175
104.34099
103.55351
102.70575
101.83773
100.94016
100.02055
99.088625
98.18557
97.335141
96.566247
95.873862
95.275489
94.793597
94.420437
107.46572
106.99263
106.48228
105.92487
105.29925
104.62677
103.91384
103.15168
102.35438
101.52711
100.66753
99.79096
98.931614
98.106293
97.360401
96.687427
96.101816
95.621416
95.252148
107.40905
107.00392
106.57726
106.10073
105.5449
104.933
104.26412
103.5547
102.81277
102.04385
101.23427
100.41396
99.601185
98.817899
98.104419
97.45227
96.880851
96.419217
96.044003
107.41179
107.03058
106.62992
106.1942
105.70558
105.1558
104.5586
103.92475
103.24205
102.52131
101.75549
100.98444
100.21334
99.4678
98.779384
98.147978
97.588404
97.127936
96.769723
107.37879
107.06695
106.73195
106.32867
105.86704
105.35208
104.80246
104.22386
103.60658
102.93548
102.22276
101.49957
100.77243
100.07058
99.411771
98.809482
98.274367
97.840148
97.471222
107.33442
107.06276
106.76405
106.41591
106.01235
105.55019
105.0455
104.50804
103.93394
103.30564
102.64036
101.95359
101.27117
100.60241
99.971352
99.391903
98.872709
98.438316
98.089869
107.34742
107.09283
106.81383
106.49145
106.11837
105.69768
105.24078
104.75259
104.22258
103.64455
103.02441
102.38107
101.73776
101.10018
100.49428
99.927842
99.437758
99.036814
98.679818
107.3206
107.1131
106.87395
106.58679
106.23949
105.84689
105.42386
104.96566
104.46966
103.92796
103.34553
102.74734
102.1398
101.54243
100.96184
100.4029
99.900272
99.490696
99.175452
107.32401
107.12959
106.90984
106.64954
106.33747
105.98616
105.60291
105.18048
104.71886
104.20831
103.65395
103.08254
102.50215
101.935
101.39376
100.89367
100.45457
100.0564
99.699791
107.35405
107.18444
106.9798
106.73402
106.43883
106.10356
105.74126
105.35119
104.92596
104.45227
103.93782
103.38731
102.81216
102.23536
101.66312
101.12111
100.63518
100.29024
100.02861
107.35802
107.21795
107.04619
106.82944
106.5625
106.25445
105.91092
105.53202
105.11904
104.67035
104.19639
103.70429
103.20127
102.70041
102.19503
101.68578
101.23928
100.79707
100.47376
107.39361
107.2625
107.10633
106.91201
106.67431
106.3942
106.07695
105.71753
105.31455
104.85667
104.3535
103.8201
103.27765
102.75863
102.25279
101.79798
101.36067
100.97115
100.65027
107.43096
107.32405
107.18758
107.01655
106.80267
106.54723
106.257
105.93733
105.584
105.19153
104.76031
104.28376
103.77032
103.21854
102.68434
102.18359
101.72644
101.33075
101.01771
107.453
107.37346
107.26143
107.11238
106.91603
106.67027
106.37311
106.03097
105.6425
105.21238
104.74545
104.25089
103.74308
103.23269
102.72809
102.24377
101.80616
101.43435
101.12795
107.49178
107.45929
107.39164
107.28963
107.15256
106.97102
106.74007
106.45591
106.11732
105.7275
105.28465
104.78931
104.23462
103.64637
103.06049
102.50873
102.02418
101.60557
101.26474
81.549849
81.635806
81.848589
82.207098
82.67312
83.239301
83.873392
84.536083
85.296732
85.985445
86.713604
87.431771
88.119617
88.780604
89.358643
89.849007
90.253529
90.449375
90.502501
82.677607
82.772866
83.012528
83.374835
83.845516
84.479336
85.126574
85.868358
86.638182
87.376938
88.135734
88.859551
89.536511
90.159228
90.679231
91.103781
91.424551
91.557046
91.574249
83.859649
83.9148
84.152622
84.519242
85.035074
85.696946
86.388803
87.174277
87.952789
88.746478
89.5125
90.234644
90.905312
91.51345
92.011373
92.433872
92.739563
92.907769
92.973283
85.000023
85.033074
85.282974
85.654228
86.212076
86.879802
87.624683
88.401569
89.220774
90.026882
90.806163
91.513949
92.191975
92.785353
93.302901
93.760225
94.101042
94.362302
94.5519
86.107938
86.150344
86.369684
86.784404
87.355151
88.046347
88.808462
89.611388
90.448808
91.248672
92.013193
92.724443
93.400715
94.006479
94.563612
95.066809
95.513235
95.893549
96.239014
87.234997
87.241456
87.460978
87.900704
88.468009
89.188325
89.955107
90.791389
91.612513
92.409127
93.191893
93.912518
94.605388
95.252954
95.859153
96.432387
96.993028
97.504727
98.00259
88.295603
88.305258
88.541376
88.966503
89.549876
90.286297
91.07181
91.925075
92.730061
93.551911
94.346791
95.082913
95.816296
96.505528
97.183289
97.846105
98.498869
99.146186
99.768176
89.353882
89.364772
89.562929
90.010602
90.615393
91.360802
92.169007
93.0111
93.82504
94.674118
95.463659
96.251556
97.01497
97.76171
98.506889
99.243012
99.98999
100.71042
101.40999
90.383662
90.361951
90.565577
91.026897
91.633503
92.393654
93.203448
94.04948
94.890417
95.745086
96.562901
97.390018
98.181998
98.988715
99.769595
100.57848
101.34933
102.10284
102.81807
91.386277
91.326152
91.55464
92.001693
92.630465
93.394698
94.212082
95.068466
95.926276
96.794835
97.642028
98.492066
99.319245
100.15034
100.97049
101.78532
102.54058
103.29655
103.94368
92.332777
92.261267
92.509286
92.932527
93.593899
94.346118
95.177972
96.0382
96.914687
97.799346
98.667695
99.532555
100.37792
101.21881
102.03103
102.81087
103.53442
104.21065
104.76065
93.236915
93.186166
93.408433
93.839399
94.513818
95.25363
96.110316
96.968787
97.864521
98.757614
99.636438
100.50276
101.34007
102.15707
102.93926
103.66025
104.29173
104.83654
105.23461
94.102993
94.061079
94.265084
94.715763
95.360637
96.116894
96.979279
97.843474
98.763351
99.646259
100.51841
101.36657
102.1831
102.96054
103.6622
104.28456
104.80312
105.21286
105.49345
94.929993
94.879274
95.076428
95.544102
96.173238
96.953319
97.80654
98.681013
99.586673
100.44421
101.31359
102.12648
102.89805
103.59726
104.20074
104.71535
105.11677
105.43357
105.64637
95.720419
95.664689
95.8532
96.316315
96.937901
97.734427
98.57307
99.45268
100.33328
101.18117
102.0087
102.76184
103.47547
104.08142
104.5902
104.99303
105.3151
105.56786
105.74664
96.454192
96.381862
96.574662
97.033881
97.667735
98.464888
99.281626
100.15086
100.99368
101.80759
102.57858
103.28151
103.91429
104.41689
104.84214
105.14578
105.39614
105.58925
105.71505
97.148104
97.056726
97.253225
97.705962
98.350682
99.121123
99.928063
100.78327
101.58099
102.35416
103.06706
103.70328
104.22797
104.64254
104.97739
105.19053
105.36183
105.426
105.41255
97.76774
97.677091
97.883467
98.330172
98.97201
99.710481
100.50524
101.3155
102.07058
102.79685
103.43806
103.98352
104.40676
104.73986
104.95836
105.07108
105.10982
105.00437
104.84216
98.366215
98.263907
98.460054
98.892721
99.526212
100.25387
101.04117
101.79728
102.50936
103.16856
103.7236
104.17277
104.49649
104.72638
104.8194
104.8173
104.71801
104.53974
104.30815
98.861845
98.782572
98.967562
99.400478
100.01768
100.71329
101.45833
102.17363
102.84234
103.42083
103.88726
104.23715
104.46722
104.59158
104.58444
104.50228
104.3487
104.18303
104.0272
99.376603
99.256066
99.433494
99.866264
100.47019
101.17053
101.87778
102.52917
103.12106
103.60833
103.99775
104.25186
104.39106
104.42313
104.35774
104.24485
104.11832
104.01507
103.92855
99.740971
99.652461
99.833456
100.24727
100.82316
101.47758
102.13634
102.75479
103.29442
103.71584
104.02969
104.20298
104.27242
104.25198
104.18082
104.08538
103.99898
103.92775
103.83989
100.14237
100.02469
100.19727
100.6201
101.22033
101.87059
102.47093
103.0125
103.46122
103.81565
104.04015
104.14746
104.16252
104.10972
104.03282
103.95621
103.87715
103.78115
103.6488
100.3883
100.29566
100.46181
100.86749
101.41206
102.01047
102.60348
103.13647
103.56091
103.85439
104.02202
104.09003
104.07878
104.03878
103.9675
103.86429
103.74321
103.57825
103.3139
100.66838
100.54863
100.74111
101.19602
101.79406
102.40752
102.94751
103.3743
103.70726
103.92184
104.01281
104.00491
103.93501
103.83711
103.7026
103.51997
103.30892
103.02418
102.6486
100.80442
100.68042
100.86078
101.29424
101.85202
102.42712
102.95145
103.40978
103.74079
103.92997
103.99311
103.9948
103.94953
103.83135
103.62091
103.33485
102.95033
102.46617
101.95105
100.90664
100.78957
101.07418
101.6232
102.25106
102.85156
103.35127
103.70254
103.90753
103.96919
103.91536
103.7669
103.53906
103.23374
102.86123
102.40622
101.92171
101.43624
100.98765
90.31897
89.906535
89.215062
88.24699
86.872039
85.181823
83.003128
80.348471
77.188165
73.427863
69.169878
64.254718
59.059469
53.544319
48.270467
43.893407
41.317489
41.425263
44.909263
91.39749
91.011199
90.450733
89.671528
88.61478
87.32513
85.767285
83.923267
81.565658
79.046134
76.13935
72.802695
69.35453
65.79636
62.665178
60.105584
58.727321
59.010699
61.561828
92.899616
92.617361
92.200087
91.618906
90.788551
89.810911
88.716267
87.2613
85.692985
83.951566
81.805875
79.677064
77.394324
75.152541
73.184417
71.743108
70.983453
71.449816
73.44385
94.626172
94.526429
94.294965
93.905648
93.258327
92.594484
91.799647
90.758517
89.684292
88.41855
87.09856
85.562414
83.825975
82.432648
81.108217
80.054406
79.564095
79.992925
81.513574
96.4876
96.561186
96.521019
96.256301
95.838797
95.458952
94.891387
94.259241
93.59178
92.754508
91.68781
90.413314
89.231188
88.002167
86.647184
85.564159
84.86072
84.703547
85.381761
98.434859
98.6705
98.733483
98.574594
98.375974
98.149169
97.835711
97.447388
96.917611
96.17417
95.244423
94.102218
92.721661
91.284518
89.868771
88.330215
86.700132
85.305564
84.572578
100.33253
100.66729
100.77124
100.69851
100.60433
100.48543
100.30875
99.993601
99.559435
98.830448
97.832498
96.518938
95.055626
93.477134
91.284969
88.66262
86.183594
84.092306
82.327403
102.0226
102.39469
102.49758
102.5005
102.4964
102.48475
102.40291
102.18335
101.70964
100.96049
99.958617
98.598376
96.919124
94.549643
91.233167
87.510299
83.878887
80.179536
76.391783
103.40957
103.78374
103.905
103.99182
104.06427
104.16532
104.15659
103.94967
103.51863
102.85461
101.69333
100.04741
97.660029
94.054393
89.284905
83.728081
77.45062
70.337889
63.094924
104.50005
104.83147
104.98191
105.10261
105.23695
105.36588
105.35361
105.19788
104.8059
103.92132
102.47558
100.52611
97.434132
92.832807
87.176243
80.600057
72.465008
62.629051
51.500939
105.22055
105.47798
105.62271
105.72952
105.85653
105.909
105.84991
105.65462
105.14616
104.2425
102.83814
100.9001
97.97595
93.892494
88.78645
82.681959
75.129621
66.146249
55.92187
105.5767
105.77714
105.89012
105.94779
106.00185
105.97691
105.84951
105.57837
105.0737
104.42828
103.27886
101.78243
99.632861
96.52201
92.489343
87.527837
81.579857
74.834718
67.582714
105.75784
105.93834
106.03297
106.07853
106.12412
106.07314
105.91542
105.69858
105.4684
104.95408
104.04258
102.78807
100.99269
98.508526
95.398175
91.720732
87.528871
83.136937
78.878766
105.90731
106.09358
106.18451
106.2845
106.36649
106.38693
106.33535
106.06327
105.58321
104.96462
104.21338
102.63099
100.60061
98.220035
95.619122
92.981676
90.371139
87.940516
86.165338
105.98398
106.11562
106.19308
106.27288
106.2592
106.10146
105.73641
105.28606
104.86728
103.77592
102.01695
99.737851
97.125398
94.447239
92.155525
90.269045
88.865364
87.69072
86.932244
105.85022
105.94012
106.06826
106.16971
106.12722
105.91575
105.30935
104.42508
102.23524
99.601066
96.778566
93.47249
90.213795
87.407306
85.602059
84.650729
84.360424
84.913382
86.026381
105.35652
105.41647
105.56396
105.62149
105.56537
105.38475
104.86356
103.93897
101.44508
97.045622
90.696993
84.014132
78.287614
73.531448
70.000596
68.690999
69.960188
73.419273
77.847077
104.57416
104.57526
104.61458
104.53598
104.30485
103.9056
103.21215
102.02035
99.69128
95.718683
90.433177
83.854836
75.739038
67.773459
60.84019
57.267044
57.306318
60.899924
67.052043
103.99154
103.9392
103.85683
103.66205
103.28408
102.75834
101.96459
100.82444
99.000245
96.044075
91.838155
86.460354
80.332483
74.256164
69.264842
66.251442
65.932968
68.444211
73.269258
103.87585
103.84231
103.80221
103.678
103.44832
103.12832
102.69801
102.05588
101.08574
99.705423
97.674045
95.009714
91.85551
88.38065
85.065674
82.507584
81.163027
81.28167
82.735136
103.93281
103.98042
104.01717
103.98164
103.95843
103.91406
103.82823
103.65334
103.33666
102.84908
102.10386
101.00721
99.436782
97.510066
95.603902
93.940661
92.277453
90.752418
89.948319
103.90807
104.00346
104.05261
104.12669
104.25096
104.3558
104.42048
104.43161
104.41944
104.29858
104.08301
103.43479
102.18186
100.9353
99.607314
97.729866
95.49571
93.465583
91.557198
103.66827
103.73981
103.80764
103.93034
104.0506
104.15464
104.2882
104.33294
104.33466
103.98643
103.18841
102.53544
102.11625
101.16005
99.360218
96.828706
93.930887
90.98914
88.15963
103.14717
103.18573
103.33677
103.44011
103.53703
103.6309
103.72325
103.71822
103.64942
103.7604
103.13153
102.23489
101.65516
100.75149
99.534739
97.877997
95.874543
93.644304
91.364902
102.28804
102.35128
102.50655
102.58978
102.67223
102.71562
102.73393
102.74331
102.45439
102.23758
101.18654
99.395086
98.512996
97.961297
97.66492
97.254257
96.625376
96.081659
95.724596
101.48624
101.44119
101.4783
101.50659
101.51744
101.51032
101.53069
101.55474
101.53383
101.62459
101.84656
101.79995
100.97722
99.698986
98.208336
97.137389
96.680552
96.728819
97.213226
100.57833
100.55418
100.51927
100.45683
100.37473
100.27879
100.1702
99.989688
99.767353
99.270619
98.309891
97.539387
96.801305
96.099628
95.65902
95.645697
96.085384
96.904359
98.000115
51.700593
61.603961
73.380969
84.910369
95.959105
104.40665
110.3458
114.21238
115.84722
115.19552
113.08565
110.49248
107.45409
104.58084
101.71652
98.948203
96.411473
93.875889
91.626538
66.500198
73.709708
82.246171
90.951533
99.182471
105.81409
110.86842
115.16307
117.65152
118.09901
116.65104
114.47892
111.66357
108.75828
106.02424
103.2804
100.81139
98.368477
96.04026
77.274749
82.464485
88.62182
95.235404
101.82572
107.65474
112.51179
116.31196
118.22753
118.32234
117.47824
115.99797
114.03316
111.63249
109.24659
106.82889
104.51742
102.32286
100.04161
84.130036
87.67388
92.081949
97.119653
102.52844
107.75832
112.20084
115.53364
117.14764
117.14996
116.55863
115.36392
114.1448
112.52201
110.72794
108.83957
106.88932
105.03525
103.02882
86.691547
88.801536
91.941687
96.03739
100.59406
105.09252
109.11056
112.37572
114.28646
114.91781
114.93994
114.0373
113.19577
112.08183
110.81643
109.39677
107.88675
106.40422
104.79015
84.776283
86.111964
88.647782
91.812249
95.328506
99.36393
103.53914
107.29924
110.06354
111.82058
112.69249
112.62522
112.12777
111.30555
110.37345
109.3183
108.1362
106.98588
105.7087
81.13888
80.649633
80.991655
82.529057
85.495698
89.718102
94.520503
99.440945
103.63289
106.87027
108.85678
109.76118
109.64784
109.93222
109.51073
108.85417
107.97281
107.10055
106.14622
72.96068
70.154491
68.507206
68.797397
70.977297
75.122503
81.002151
87.607127
93.766362
98.881348
102.68793
105.42026
107.21347
108.18364
108.47324
108.13967
107.53829
106.82915
106.16284
56.28089
50.598538
46.807852
46.224152
49.423856
55.799549
63.614292
72.461972
81.639713
90.008374
96.831729
101.23607
104.41403
106.24686
106.92951
107.00233
106.66017
106.14114
105.65614
39.451497
27.366721
18.161334
15.602106
20.413904
31.076278
44.178529
58.479668
72.030705
83.461191
93.89752
99.309955
102.1135
103.81931
104.76572
105.18224
105.15386
104.91825
104.66273
44.801649
33.290409
24.011971
20.218699
22.329066
29.795454
41.046694
53.974965
66.726986
77.894781
86.830881
92.936323
97.209909
100.00812
101.7537
102.77565
103.22535
103.3349
103.41016
60.303889
53.701148
49.197517
48.05949
50.246775
55.014644
61.916897
69.591504
77.111678
83.823836
89.302607
93.434114
96.567994
98.810706
100.37238
101.42272
102.00819
102.2687
102.50822
74.934405
72.023739
70.698324
71.316053
73.705565
76.884132
80.570429
84.621602
88.375234
91.78795
94.592044
96.784743
98.473674
99.775924
100.74723
101.47378
101.89412
102.09998
102.26401
85.111341
84.333793
83.733196
83.867365
85.20037
87.519391
89.929717
92.458846
94.698663
96.558453
98.16063
99.390967
100.31349
101.06805
101.60217
102.06496
102.34266
102.45825
102.49982
87.106276
88.041615
89.224473
90.571291
92.216074
93.963802
95.454882
96.809391
98.193832
99.319002
100.29312
101.08127
101.64146
102.1089
102.43034
102.67668
102.88146
102.95368
102.9227
87.469037
89.266179
91.138148
92.947135
94.738998
96.514757
97.927986
99.055092
100.15151
101.0424
101.73755
102.27521
102.65143
102.92403
103.13567
103.27241
103.37256
103.40468
103.31853
82.33994
86.569377
90.064055
92.873289
95.287772
97.49979
99.171559
100.35688
101.34012
102.17098
102.79046
103.24245
103.53679
103.7116
103.80877
103.86025
103.88644
103.85371
103.72009
74.221102
81.242955
87.225223
91.792075
94.976323
97.396513
99.649903
101.60929
102.9411
103.58936
103.92984
104.22076
104.40404
104.4839
104.48371
104.40668
104.38099
104.30324
104.11216
79.002875
84.632594
89.834737
94.153871
97.586189
100.47043
102.36328
102.84702
102.53046
102.94627
104.16335
104.83843
105.02129
105.02184
104.92767
104.79371
104.65957
104.55641
104.38313
85.116204
88.017251
91.091315
94.026452
96.546464
98.692599
100.39345
101.64832
102.5345
103.7809
104.88095
104.85146
104.98971
105.08302
105.02206
104.89362
104.70699
104.55612
104.40894
90.032096
90.817121
92.171442
93.833702
95.487148
97.071514
98.463575
99.386057
100.47812
102.42941
104.26915
104.49167
104.80582
104.80031
104.73397
104.59411
104.3952
104.20757
104.08039
89.66778
88.044179
87.173689
87.161777
87.96806
89.903586
93.13072
97.227959
100.88134
102.87599
103.83078
103.99629
104.08253
104.01416
103.95234
103.85318
103.7285
103.57133
103.47113
85.84592
84.364995
84.141723
85.121214
87.168222
89.995982
92.327695
94.627915
97.430888
99.892009
101.36716
102.09016
102.49929
102.73609
102.86437
102.91751
102.90078
102.86523
102.8604
89.455781
88.290064
88.229702
89.301947
91.177772
93.585016
96.104678
98.276683
99.952042
101.05119
101.68544
102.00688
102.19842
102.33534
102.40317
102.46901
102.45201
102.42904
102.46962
95.672833
96.177279
97.382153
99.267847
101.12057
102.26734
102.7117
102.62575
102.50502
102.38453
102.24561
102.18007
102.16218
102.17487
102.18139
102.20241
102.20527
102.18266
102.19027
97.919324
98.512933
98.730752
98.477553
98.366753
98.560745
99.025774
100.07378
101.30205
101.82572
102.08419
102.20491
102.16435
102.0859
102.02235
101.9619
101.87356
101.7286
101.6378
99.290993
100.57556
101.6614
102.48944
103.05083
103.28792
103.53123
103.69083
103.31237
102.75018
102.41056
102.1567
101.91514
101.72754
101.5752
101.46813
101.37639
101.2486
101.11714
89.369798
87.226817
85.249052
83.297883
81.579769
79.873584
78.328455
76.954567
75.676101
74.609476
73.612409
72.778817
72.073301
71.47523
71.014901
70.684187
70.527399
70.517591
70.716257
93.735536
91.389432
89.270763
87.144312
85.211959
83.327667
81.540877
79.948455
78.420135
77.102591
75.881339
74.821515
73.931849
73.181151
72.602275
72.194013
71.973382
71.939434
72.111234
97.71428
95.289907
93.019935
90.778041
88.640962
86.611264
84.62249
82.831819
81.108657
79.578223
78.159624
76.896509
75.832607
74.937349
74.233091
73.727766
73.440633
73.377659
73.532819
100.82475
98.516611
96.215166
93.964893
91.725553
89.59375
87.502605
85.550671
83.691338
81.97567
80.40401
78.968805
77.737159
76.704991
75.876286
75.267637
74.907684
74.798855
74.937061
102.91441
100.90082
98.749906
96.594623
94.402646
92.240832
90.124175
88.066565
86.117174
84.274025
82.56767
81.01116
79.625708
78.460019
77.518973
76.810658
76.366876
76.216897
76.342123
104.19638
102.52405
100.66263
98.70543
96.665408
94.572493
92.483782
90.408254
88.390228
86.472622
84.65097
82.987878
81.486006
80.193253
79.146134
78.356926
77.83603
77.63227
77.739224
104.95411
103.59452
102.03789
100.32813
98.494952
96.559997
94.548608
92.521442
90.496135
88.530975
86.647016
84.882322
83.291163
81.894151
80.742217
79.863859
79.28503
79.032051
79.114241
105.27947
104.23025
102.98229
101.54164
99.933663
98.191894
96.331869
94.383704
92.412794
90.44011
88.535208
86.703635
85.03609
83.553155
82.314991
81.361463
80.710172
80.408571
80.478974
105.16306
104.45967
103.51376
102.35336
101.00316
99.464333
97.807919
95.996589
94.112809
92.179873
90.282627
88.426254
86.691338
85.141655
83.825512
82.815874
82.124477
81.753379
81.80952
104.55741
104.23015
103.66538
102.78591
101.72864
100.42547
98.968746
97.344569
95.592967
93.74302
91.877304
90.037826
88.27558
86.677529
85.300626
84.215172
83.495327
83.079833
83.097344
103.64431
103.64672
103.43616
102.89122
102.13618
101.09938
99.855947
98.428736
96.838827
95.117888
93.318001
91.513062
89.753302
88.120488
86.704843
85.558853
84.794375
84.381932
84.351095
102.86226
103.00512
102.99347
102.7428
102.25733
101.50258
100.50302
99.278608
97.861743
96.294968
94.600592
92.857683
91.126922
89.487221
88.043915
86.869916
86.038983
85.624109
85.571081
102.49715
102.56907
102.59176
102.50089
102.20764
101.68782
100.93088
99.92241
98.69131
97.281516
95.709714
94.05803
92.38838
90.77077
89.298171
88.109935
87.23017
86.797205
86.746447
102.53276
102.46761
102.41655
102.3366
102.12011
101.75715
101.19134
100.38938
99.35285
98.102709
96.669981
95.119093
93.516974
91.945053
90.485191
89.286642
88.384584
87.90955
87.86937
102.79189
102.60958
102.46942
102.32959
102.10903
101.80925
101.34715
100.71498
99.871442
98.789395
97.497009
96.050975
94.53267
93.017601
91.582338
90.384826
89.489951
88.961739
88.922031
103.13296
102.90464
102.68465
102.47203
102.21144
101.90941
101.49063
100.96132
100.25514
99.340379
98.190768
96.865323
95.424838
93.979299
92.593056
91.390357
90.524593
89.99076
89.913392
103.46115
103.24092
102.98888
102.71995
102.41037
102.08896
101.67846
101.19332
100.57877
99.785979
98.77067
97.582028
96.233478
94.848384
93.527459
92.333368
91.458356
90.952976
90.846116
103.7673
103.55041
103.28847
103.00689
102.67329
102.32512
101.90802
101.44617
100.88937
100.1483
99.243425
98.165201
96.947708
95.620218
94.352588
93.21187
92.31579
91.828616
91.723433
104.05774
103.84003
103.56982
103.28996
102.96383
102.60418
102.18794
101.72684
101.2069
100.50401
99.691556
98.694524
97.581172
96.334416
95.099922
94.01151
93.133639
92.627671
92.537151
104.20031
104.04521
103.80232
103.5219
103.22151
102.87017
102.47929
102.01054
101.49406
100.8363
100.07727
99.170781
98.090535
96.943629
95.765139
94.698698
93.859468
93.354752
93.273141
104.06537
104.03904
103.90645
103.69804
103.44571
103.11691
102.75399
102.30901
101.79903
101.20072
100.46533
99.62673
98.596594
97.512656
96.408602
95.359001
94.545312
94.040383
93.953406
103.66308
103.78702
103.82937
103.74418
103.5779
103.32008
102.98081
102.57928
102.08529
101.51172
100.81026
99.989173
99.023073
97.965464
96.904553
95.89323
95.089676
94.609074
94.52064
103.09747
103.30858
103.50402
103.57761
103.532
103.4
103.15521
102.81657
102.37201
101.83365
101.20064
100.40697
99.51115
98.500318
97.450499
96.474582
95.667059
95.168649
95.076015
102.68089
102.91776
103.15539
103.36512
103.45773
103.43311
103.28782
103.01458
102.62847
102.10724
101.46014
100.70917
99.809578
98.810308
97.777838
96.804034
96.033893
95.553
95.456618
102.31407
102.56432
102.77385
102.96832
103.13718
103.23208
103.22561
103.08909
102.82374
102.42907
101.9075
101.24596
100.40314
99.411769
98.348512
97.350071
96.522342
95.98898
95.863959
101.8892
102.24376
102.57551
102.86603
103.08146
103.22897
103.28457
103.22077
103.00407
102.60205
102.03069
101.3332
100.52156
99.546995
98.477135
97.474366
96.682263
96.179092
96.047031
101.3976
101.62529
101.91711
102.22935
102.53875
102.80678
103.01979
103.13677
103.1128
102.96298
102.58993
101.99319
101.22964
100.28528
99.172063
98.025263
97.077087
96.429862
96.252478
71.12478
71.613463
72.284552
73.105644
74.106464
75.264314
76.576599
78.052109
79.624618
81.333946
83.152942
85.059014
87.052235
89.129228
91.241825
93.38881
95.588343
97.808803
100.00546
72.468271
72.975859
73.700673
74.568228
75.570487
76.740286
78.044591
79.506854
81.077545
82.768726
84.558462
86.413689
88.35131
90.35286
92.362502
94.399733
96.483603
98.562888
100.59266
73.886288
74.396104
75.109166
75.995598
77.01177
78.184489
79.4971
80.943616
82.51081
84.178136
85.932999
87.749925
89.619015
91.527365
93.448812
95.399126
97.341829
99.253208
101.13012
75.300865
75.829029
76.52706
77.415645
78.44433
79.613754
80.92931
82.355609
83.904812
85.558093
87.276768
89.046964
90.847142
92.665075
94.485957
96.322164
98.132233
99.897339
101.62374
76.705829
77.23409
77.940493
78.814579
79.849142
81.012203
82.315614
83.738895
85.256074
86.878313
88.555939
90.275361
91.994515
93.720554
95.440573
97.160203
98.851479
100.46312
102.04077
78.108216
78.631605
79.333018
80.200563
81.226178
82.391765
83.671545
85.073535
86.570692
88.154177
89.78226
91.446894
93.09343
94.723737
96.32671
97.901267
99.46969
100.97905
102.42211
79.486801
80.003333
80.692491
81.571429
82.576955
83.721845
84.984394
86.366252
87.828088
89.364542
90.946239
92.529337
94.100326
95.622086
97.118513
98.588975
100.03824
101.40764
102.71413
80.834339
81.360018
82.033043
82.893666
83.892659
85.015968
86.258705
87.610291
89.031158
90.508
92.034218
93.536533
95.022009
96.45774
97.865479
99.217159
100.52659
101.79261
102.99857
82.15745
82.668101
83.334422
84.173023
85.16448
86.271962
87.486573
88.78997
90.181615
91.605091
93.059884
94.492915
95.8867
97.214179
98.510989
99.765894
100.97323
102.12712
103.20544
83.452202
83.940165
84.598083
85.419618
86.396074
87.472562
88.662405
89.921467
91.257439
92.619311
94.002084
95.354014
96.656278
97.908588
99.108465
100.26499
101.36222
102.41917
103.397
84.705295
85.171511
85.82609
86.629686
87.577924
88.62437
89.776637
90.995041
92.271607
93.572793
94.875681
96.168065
97.390858
98.543931
99.628564
100.68661
101.70937
102.66711
103.55149
85.920243
86.374302
87.014047
87.786082
88.694554
89.720842
90.833008
92.010483
93.228767
94.47135
95.692271
96.895736
98.023752
99.095964
100.1165
101.08369
102.00463
102.87301
103.67228
87.076123
87.518512
88.114751
88.870946
89.763117
90.767144
91.836932
92.965427
94.112432
95.282413
96.427447
97.550336
98.613247
99.613898
100.55305
101.4343
102.27043
103.04744
103.775
88.188243
88.617492
89.198585
89.942524
90.796412
91.75191
92.767286
93.831757
94.918939
96.019107
97.111718
98.167502
99.158875
100.07503
100.93626
101.73854
102.4938
103.19631
103.84843
89.237074
89.647565
90.205385
90.908534
91.726564
92.652052
93.638605
94.655762
95.697708
96.730683
97.752584
98.719755
99.624815
100.46765
101.26381
102.00263
102.69461
103.33977
103.92078
90.227358
90.628025
91.170274
91.851726
92.640374
93.518245
94.462713
95.420509
96.393837
97.349531
98.29055
99.197946
100.05002
100.84269
101.57751
102.24759
102.86877
103.45541
103.97775
91.154242
91.532911
92.058358
92.702138
93.460832
94.301326
95.195617
96.10393
97.019426
97.921582
98.808136
99.663174
100.45906
101.18858
101.84914
102.45331
103.01599
103.546
104.02095
92.019477
92.386319
92.889293
93.51233
94.235588
95.033387
95.88088
96.747466
97.615106
98.460291
99.280874
100.072
100.80106
101.46583
102.07316
102.63534
103.16033
103.64705
104.07728
92.819893
93.172072
93.652439
94.249103
94.936907
95.692245
96.501379
97.322585
98.134661
98.926407
99.685496
100.4229
101.11034
101.73746
102.30819
102.8269
103.3003
103.73694
104.1333
93.543061
93.88408
94.346764
94.91668
95.57559
96.304333
97.073879
97.849327
98.61118
99.358009
100.07666
100.76733
101.40936
101.99064
102.51596
102.99117
103.42275
103.82048
104.18329
94.208878
94.535794
94.982074
95.532932
96.172198
96.864443
97.58284
98.319255
99.042544
99.745976
100.42621
101.0735
101.67238
102.21389
102.69797
103.13936
103.55365
103.9269
104.25208
94.773877
95.088047
95.524769
96.056006