/*--------------------------------*- C++ -*----------------------------------*\
  =========                 |
  \\      /  F ield         | OpenFOAM: The Open Source CFD Toolbox
   \\    /   O peration     | Website:  https://openfoam.org
    \\  /    A nd           | Version:  11
     \\/     M anipulation  |
\*---------------------------------------------------------------------------*/
FoamFile
{
    format      ascii;
    class       surfaceScalarField;
    location    "5.8";
    object      phi;
}
// * * * * * * * * * * * * * * * * * * * * * * * * * * * * * * * * * * * * * //

dimensions      [0 3 -1 0 0 0 0];

internalField   nonuniform List<scalar> 
10792
(
0.071049599
-0.043055561
-0.07156554
0.043571502
0.070380944
-0.0409298
0.041598455
0.069630883
-0.038773184
0.039523245
0.068817534
-0.036498578
0.037311926
0.068079161
-0.034387889
0.035126262
0.067214733
-0.032069803
0.032934231
0.066373341
-0.02969305
0.030534442
0.06551369
-0.027293441
0.028153093
0.064688861
-0.024850075
0.025674903
0.063919597
-0.022434191
0.023203455
0.063093594
-0.019749067
0.02057507
0.062501473
-0.01741121
0.018003331
0.061784918
-0.014629647
0.015346202
0.061342878
-0.012227563
0.012669602
0.060829714
-0.0093972101
0.0099103737
0.06043712
-0.0069110212
0.0073036152
0.060177838
-0.003999224
0.0042585055
0.059985834
-0.0015090003
0.0017010038
0.001377536
0.060210709
-0.0016024112
0.075155806
-0.042405285
-0.075806082
0.074420467
-0.040194461
0.07363727
-0.037989986
0.072933444
-0.035794752
0.072163756
-0.033618201
0.071310303
-0.03121635
0.070495178
-0.028877925
0.069660639
-0.026458902
0.068867084
-0.02405652
0.067988155
-0.021555262
0.06733366
-0.019094573
0.066630784
-0.016708334
0.065988799
-0.013987662
0.065524688
-0.011763452
0.064975164
-0.0088476862
0.064711534
-0.0066473916
0.064496993
-0.0037846835
0.064410676
-0.0014226831
0.0014453272
0.064342884
0.079814105
-0.041820327
-0.080399062
0.079172034
-0.039552391
0.078545376
-0.037363328
0.077860862
-0.035110239
0.076974109
-0.032731448
0.07612384
-0.030366081
0.075279916
-0.028034001
0.074416724
-0.02559571
0.07351436
-0.023154157
0.072728626
-0.020769529
0.072045445
-0.018411392
0.071258729
-0.015921618
0.070733477
-0.01346241
0.070119201
-0.011149176
0.0697261
-0.0084545856
0.06940096
-0.006322252
0.069125263
-0.0035089866
0.068999143
-0.0012965638
0.0015141633
0.068930307
0.084501528
-0.041135559
-0.085186296
0.083904723
-0.038955586
0.083148435
-0.03660704
0.082250317
-0.034212121
0.081384808
-0.031865939
0.080585278
-0.02956655
0.079727449
-0.027176173
0.078881359
-0.024749619
0.078135068
-0.022407866
0.07741452
-0.020048981
0.076653006
-0.017649878
0.076033466
-0.015302078
0.075455365
-0.01288431
0.074905915
-0.010599726
0.074562499
-0.00811117
0.074142829
-0.005902582
0.073966642
-0.0033328002
0.07377303
-0.0011029523
0.0014928763
0.073794317
0.090010847
-0.040472031
-0.090674376
0.089239456
-0.038184195
0.088414315
-0.035781899
0.087652682
-0.033450488
0.086867131
-0.031080388
0.086075057
-0.028774476
0.085196448
-0.026297564
0.084440083
-0.023993254
0.083662151
-0.021629934
0.08286481
-0.01925164
0.082159351
-0.016944419
0.081473876
-0.014616603
0.080846537
-0.012256971
0.080231834
-0.0099850234
0.079774822
-0.0076541586
0.079380736
-0.0055084961
0.07914242
-0.0030944847
0.079006053
-0.00096658498
0.0015088436
0.078990085
0.095338505
-0.03961823
-0.096192306
0.094601483
-0.037447173
0.093808035
-0.034988451
0.093059641
-0.032702095
0.092210774
-0.030231521
0.091340454
-0.027904156
0.090535144
-0.025492254
0.089736867
-0.023194977
0.088844581
-0.020737648
0.08810834
-0.018515399
0.087346047
-0.016182125
0.086653926
-0.013924483
0.086024764
-0.01162781
0.085450809
-0.0094110683
0.085063449
-0.0072667993
0.084692208
-0.0051372551
0.084526656
-0.0029289327
0.084386253
-0.0008261829
0.0014445884
0.084450508
0.10158913
-0.038971456
-0.10223591
0.10083353
-0.03669157
0.1000105
-0.034165422
0.099178096
-0.031869692
0.09837489
-0.029428316
0.09763859
-0.027167855
0.096803427
-0.024657092
0.09593646
-0.022328009
0.095095305
-0.019896494
0.094306369
-0.017726463
0.093493964
-0.015369721
0.092830117
-0.013260636
0.092169866
-0.010967559
0.091646666
-0.0088878683
0.09121067
-0.0068308042
0.09087431
-0.0048008953
0.09069355
-0.0027481727
0.09052868
-0.0006613137
0.0013787275
0.090594541
0.10791103
-0.038183255
-0.10869923
0.10698661
-0.035767151
0.106145
-0.033323813
0.10532616
-0.031050853
0.10446634
-0.028568493
0.10358689
-0.026288412
0.10269695
-0.023767145
0.10182175
-0.021452809
0.10098467
-0.019059419
0.10016476
-0.016906555
0.099439284
-0.014644243
0.098818382
-0.012639734
0.098203795
-0.010352972
0.097719373
-0.0084034465
0.097222865
-0.0063342972
0.096914998
-0.0044930286
0.096660835
-0.0024940104
0.096589329
-0.00058980727
0.0013505088
0.096617547
0.11496846
-0.037374499
-0.11577721
0.11410799
-0.03490668
0.11333371
-0.032549538
0.11242781
-0.030144951
0.11156839
-0.027709075
0.11064715
-0.025367166
0.10973848
-0.022858482
0.1088764
-0.02059073
0.10804478
-0.018227796
0.10728572
-0.016147496
0.10654889
-0.013907411
0.10583005
-0.011920891
0.10516622
-0.0096891473
0.10462002
-0.0078572418
0.10413311
-0.0058473882
0.10383575
-0.0041956772
0.10364454
-0.0023027924
0.10365649
-0.00060176157
0.0013276757
0.10367932
0.12253809
-0.0362703
-0.12364229
0.1214223
-0.033790887
0.12041049
-0.031537731
0.11932831
-0.029062769
0.11840132
-0.026782088
0.11742865
-0.024394495
0.11659947
-0.022029297
0.1157676
-0.019758861
0.11497978
-0.017439976
0.11417296
-0.015340677
0.11343513
-0.013169583
0.11273445
-0.011220209
0.11215263
-0.0091073264
0.11164128
-0.0073458993
0.11119241
-0.0053985185
0.11087098
-0.0038742419
0.11062507
-0.0020568872
0.11059869
-0.00057537556
0.001265816
0.11066054
0.13053608
-0.035139196
-0.13166719
0.12954071
-0.032795513
0.12855871
-0.030555731
0.1275702
-0.028074261
0.12665256
-0.025864446
0.12565963
-0.023401573
0.12477099
-0.021140656
0.12382029
-0.018808161
0.12295701
-0.016576692
0.12211173
-0.014495395
0.12139592
-0.012453774
0.12071202
-0.010536314
0.12017652
-0.0085718261
0.11966211
-0.006831487
0.11926935
-0.0050057581
0.11889645
-0.0035013433
0.1187066
-0.0018670341
0.11860065
-0.00046943271
0.0011462421
0.11872023
0.13908784
-0.033799928
-0.14042711
0.13802108
-0.031728747
0.13679197
-0.029326625
0.13580221
-0.027084504
0.13479874
-0.024860976
0.13385043
-0.022453262
0.13293196
-0.02022218
0.13197525
-0.01785145
0.13108363
-0.015685073
0.1301733
-0.013585069
0.12939297
-0.011673442
0.12862169
-0.0097650389
0.12805506
-0.0080051901
0.1275387
-0.0063151326
0.12718277
-0.0046498223
0.12687786
-0.0031964402
0.12672845
-0.0017176246
0.12665202
-0.00039300298
0.00093775678
0.12686051
0.14876371
-0.032563926
-0.14999971
0.1476053
-0.030570335
0.14626029
-0.02798162
0.14509974
-0.025923952
0.14384756
-0.0236088
0.14284554
-0.021451238
0.141872
-0.019248641
0.14103918
-0.01701863
0.14020748
-0.014853372
0.13941272
-0.012790315
0.1386361
-0.010896823
0.13788728
-0.0090162158
0.1373155
-0.0074334143
0.13672464
-0.0057242727
0.13632195
-0.0042471263
0.13597946
-0.0028539546
0.13579253
-0.0015306941
0.13571248
-0.00031295105
0.00077516881
0.13587507
0.15855994
-0.03120168
-0.15992218
0.15722238
-0.029232775
0.15611206
-0.026871307
0.15504368
-0.024855566
0.15383679
-0.022401907
0.15272733
-0.020341782
0.15158061
-0.018101919
0.15065466
-0.01609268
0.1497397
-0.013938417
0.14893269
-0.011983306
0.14809666
-0.010060794
0.14734822
-0.0082677689
0.14668379
-0.0067689895
0.14613283
-0.0051733114
0.14570934
-0.0038236371
0.14541006
-0.0025546753
0.14524462
-0.0013652552
0.14521628
-0.00028461367
0.00061306029
0.14537839
0.16986989
-0.029677547
-0.17139402
0.16807578
-0.027438671
0.16668165
-0.025477171
0.16531741
-0.023491332
0.16417012
-0.02125461
0.16305235
-0.019224018
0.16193528
-0.016984844
0.16089876
-0.01505616
0.15988575
-0.012925414
0.1590178
-0.01111535
0.15819233
-0.0092353225
0.15749999
-0.0075754297
0.15681378
-0.0060827789
0.15626484
-0.0046243812
0.15579974
-0.0033585315
0.15548816
-0.0022430994
0.15528837
-0.0011654674
0.15529856
-0.00029479878
0.00047342613
0.15543819
0.181479
-0.028319995
-0.18283655
0.17996069
-0.025920362
0.17855636
-0.024072838
0.17691418
-0.021849151
0.17561256
-0.019952997
0.17427034
-0.017881792
0.17315489
-0.0158694
0.17202553
-0.013926793
0.17108509
-0.011984981
0.17021227
-0.010242531
0.16939338
-0.0084164277
0.1687049
-0.0068869485
0.16806559
-0.0054434738
0.16757683
-0.0041356234
0.16715117
-0.0029328648
0.16685496
-0.0019468931
0.16665763
-0.0009681347
0.16662741
-0.00026457856
0.00040720393
0.16669363
0.19371413
-0.026500336
-0.19553379
0.192151
-0.024357238
0.19064152
-0.022563358
0.18913573
-0.020343356
0.18774683
-0.018564095
0.18628757
-0.016422534
0.18510326
-0.014685095
0.18385642
-0.012679948
0.18286921
-0.010997777
0.18178447
-0.0091577861
0.18094555
-0.0075775122
0.18014266
-0.0060840572
0.17948829
-0.0047891056
0.17896099
-0.0036083217
0.17853665
-0.0025085227
0.17823491
-0.0016451538
0.17805822
-0.00079144474
0.1780139
-0.00022025746
0.00033003395
0.17809107
0.20714515
-0.024623548
-0.20902194
0.20550443
-0.02271652
0.20379158
-0.020850509
0.20231192
-0.018863691
0.2008382
-0.01709038
0.19946349
-0.01504782
0.19816779
-0.013389398
0.19696171
-0.011473866
0.19591925
-0.0099553204
0.19490142
-0.0081399525
0.19410775
-0.0067838455
0.19328351
-0.0052598192
0.1926782
-0.0041837965
0.19211494
-0.003045061
0.19174244
-0.0021360167
0.1914043
-0.0013070188
0.19127396
-0.00066110133
0.19123738
-0.00018368369
0.000234988
0.19133243
0.22103733
-0.022800658
-0.22286022
0.2193479
-0.021027093
0.21768868
-0.019191288
0.21618221
-0.017357219
0.21463929
-0.015547465
0.21325947
-0.013667999
0.21189036
-0.012020288
0.21071302
-0.010296529
0.20951113
-0.0087534299
0.20851648
-0.0071452958
0.20753818
-0.0058055465
0.20668826
-0.0044099033
0.2059877
-0.0034832315
0.20538145
-0.0024388123
0.20498873
-0.0017432993
0.20464001
-0.00095830013
0.20447945
-0.00050053817
0.20437115
-7.5389356e-05
0.0001291583
0.20447698
0.23672581
-0.02072782
-0.23879865
0.23474765
-0.019048926
0.23292917
-0.017372814
0.2312399
-0.015667951
0.22964989
-0.01395745
0.22820752
-0.01222563
0.2268655
-0.010678267
0.22566993
-0.0091009647
0.22453049
-0.007613984
0.22358094
-0.0061957459
0.22263617
-0.0048607755
0.22188836
-0.0036620928
0.22114188
-0.0027367509
0.22059261
-0.0018895492
0.22016452
-0.0013152091
0.21991782
-0.00071159594
0.21977498
-0.00035769947
0.21966906
3.0524694e-05
0.00015145369
0.21964677
0.2528954
-0.018880157
-0.25474306
0.25102418
-0.017177705
0.24917878
-0.015527424
0.24740568
-0.013894843
0.24572874
-0.012280511
0.24415183
-0.010648722
0.24269038
-0.009216814
0.24136229
-0.0077728821
0.24017661
-0.0064282996
0.23911875
-0.0051378903
0.23819231
-0.0039343303
0.23740983
-0.0028796118
0.23665261
-0.0019795349
0.23608847
-0.0013254112
0.23562283
-0.00084956679
0.23538016
-0.0004689294
0.23521904
-0.00019657407
0.2353024
-5.2832714e-05
9.5950791e-05
0.2353579
0.2701559
-0.016625397
-0.27241066
0.26816567
-0.015187473
0.2662924
-0.013654154
0.26456058
-0.012163026
0.26290212
-0.010622052
0.2613842
-0.0091308006
0.2599713
-0.0078039151
0.25866945
-0.0064710268
0.25754597
-0.0053048255
0.25652355
-0.0041154678
0.25567751
-0.0030882934
0.25494888
-0.0021509835
0.25429954
-0.0013301949
0.25369822
-0.0007240861
0.2532309
-0.00038224685
0.25289173
-0.00012976389
0.25269443
7.2623934e-07
0.25261858
2.3014548e-05
4.8999616e-05
0.25266554
0.28909146
-0.01418052
-0.29153634
0.28682198
-0.012917995
0.28474323
-0.011575403
0.28282897
-0.010248765
0.28111114
-0.0089042183
0.27954404
-0.0075637059
0.27808997
-0.0063498477
0.27677658
-0.005157635
0.27562328
-0.0041515186
0.27469152
-0.0031837102
0.27384973
-0.0022465069
0.27318414
-0.0014853948
0.27264588
-0.00079193134
0.27222266
-0.00030087178
0.27188112
-4.0707324e-05
0.27157534
0.00017602146
0.27144099
0.00013507518
0.27134748
0.00011652849
-2.3789839e-05
0.27142026
0.30940469
-0.011603121
-0.31198209
0.30702237
-0.010535674
0.30481208
-0.0093651161
0.30280436
-0.0082410413
0.30096625
-0.0070661111
0.29936929
-0.0059667495
0.29792805
-0.0049086049
0.29665243
-0.0038820105
0.29553897
-0.0030380649
0.29453523
-0.0021799727
0.29377266
-0.001483928
0.29312945
-0.00084219296
0.2926387
-0.00030117917
0.29224683
9.0997849e-05
0.29190937
0.00029674975
0.29170297
0.00038242807
0.29150151
0.00033653389
0.29142599
0.00019204468
-4.4453565e-06
0.29140665
0.33183563
-0.0083049687
-0.33513378
0.32887541
-0.0075754555
0.32624187
-0.0067315739
0.32392956
-0.0059287347
0.32189052
-0.0050270732
0.32014084
-0.0042170653
0.31865098
-0.0034187444
0.31741961
-0.0026506383
0.316413
-0.0020314603
0.31558292
-0.0013498956
0.31496963
-0.00087063238
0.31452536
-0.00039793024
0.3142955
-7.1317275e-05
0.31416454
0.00022196292
0.31404253
0.00041875996
0.31396801
0.00045694456
0.31387184
0.00043269909
0.31381673
0.00024716469
2.8794548e-05
0.31378348
0.35648055
-0.004443344
-0.36034218
0.35297868
-0.0040735795
0.3499244
-0.0036772975
0.34721474
-0.0032190725
0.34491818
-0.0027305122
0.34297014
-0.0022690328
0.34136124
-0.0018098449
0.34010442
-0.0013938119
0.339088
-0.0010150425
0.33839149
-0.00065338529
0.33789426
-0.0003734068
0.33760631
-0.00010997823
0.33745651
7.8487926e-05
0.33745826
0.00022020415
0.33754902
0.00032799958
0.3375907
0.00041526352
0.3376674
0.00035600876
0.33764809
0.00026647279
9.1034692e-05
0.33758585
0.38407246
-0.3885158
0.37999888
0.37632158
0.37310251
0.37037199
0.36810296
0.36629312
0.3648993
0.36388426
0.36323088
0.36285747
0.36274749
0.36282598
0.36304618
0.36337418
0.36378945
0.36414545
0.36441193
0.36450296
0.060133736
0.0041303199
-0.0040533477
0.060502517
0.0069457278
-0.0073145087
0.06094389
0.0095616272
-0.010003
0.061734401
0.01247004
-0.013260551
0.062642742
0.015074413
-0.015982754
0.063878968
0.018045748
-0.019281974
0.065268086
0.020655408
-0.022044526
0.066913551
0.023723626
-0.025369091
0.068745843
0.026427958
-0.028260251
0.070726084
0.029322728
-0.031302969
0.073046327
0.031980391
-0.034300634
0.075525989
0.034782289
-0.037261951
0.078268361
0.037534498
-0.04027687
0.081248528
0.040399864
-0.043380031
0.08452076
0.042883368
-0.0461556
0.088138483
0.045730402
-0.049348125
0.092290317
0.048059242
-0.052211076
0.096811904
0.050633442
-0.055155028
0.05297209
0.1020276
-0.058187782
0.064389775
0.0040834286
0.064768271
0.0065672324
0.065332381
0.0089975164
0.066270694
0.011531727
0.067345833
0.013999273
0.068756414
0.016635167
0.070301748
0.019110074
0.072201526
0.021823848
0.074192016
0.024437468
0.076467545
0.027047199
0.078900686
0.029547249
0.081630944
0.032052031
0.084511458
0.034653984
0.08772991
0.037181412
0.091276472
0.039336806
0.095022949
0.041983925
0.099454773
0.043627418
0.10407089
0.046017329
0.047494606
0.10954837
0.069036458
0.0039772774
0.069275862
0.0063278283
0.069999016
0.0082743621
0.070813405
0.010717338
0.072054272
0.012758407
0.073407833
0.015281606
0.075138477
0.01737943
0.076991496
0.019970829
0.079234321
0.022194643
0.081627854
0.024653665
0.084357898
0.026817204
0.087227883
0.029182046
0.090493368
0.031388499
0.094057186
0.033617593
0.097929636
0.035464356
0.10209595
0.037817613
0.10669738
0.039025988
0.11161912
0.041095589
0.041969554
0.11714417
0.073891149
0.0038804447
0.074279236
0.0059397418
0.07502357
0.0075300275
0.075975613
0.0097652958
0.077349483
0.011384537
0.078809499
0.01382159
0.080710513
0.015478415
0.082671737
0.018009605
0.085139694
0.019726686
0.087586361
0.022206998
0.090502941
0.023900624
0.093428878
0.026256109
0.096928894
0.027888483
0.1005169
0.030029591
0.10459094
0.031390309
0.10890045
0.033508105
0.11359576
0.034330675
0.11858242
0.036108929
0.036510975
0.124041
0.07909617
0.0037743592
0.079585727
0.0054501849
0.080316369
0.0067993861
0.081415067
0.0086665969
0.082687178
0.010112426
0.084316746
0.012192021
0.08612918
0.013665982
0.088257151
0.015881634
0.090685934
0.017297903
0.093304467
0.019588465
0.096246702
0.020958388
0.099488957
0.023013854
0.10292427
0.024453173
0.10670985
0.026244004
0.1106654
0.027434763
0.11502768
0.029145822
0.11949868
0.029859677
0.12428877
0.031318843
0.031341081
0.12945866
0.084602425
0.0036224416
0.085151411
0.004901199
0.085957337
0.0059934599
0.087130806
0.007493128
0.088489903
0.008753329
0.090302552
0.010379372
0.092185113
0.011783421
0.094601737
0.013465009
0.097023315
0.014876325
0.099861439
0.016750341
0.10282934
0.017990486
0.10606462
0.019778579
0.10946684
0.021050946
0.11314614
0.02256471
0.11685215
0.023728752
0.12097647
0.0250215
0.12494415
0.025891998
0.12932711
0.026935881
0.027272522
0.13339567
0.090672839
0.0035441432
0.091300804
0.0042732341
0.092090463
0.0052038003
0.093371374
0.0062122176
0.094803786
0.007320917
0.096680161
0.0085029965
0.098642876
0.0098207068
0.10109631
0.011011572
0.10348002
0.012492616
0.10646756
0.0137628
0.10931172
0.015146328
0.11261149
0.016478807
0.11581914
0.017843291
0.11927679
0.019107064
0.1226926
0.020312946
0.12619424
0.021519855
0.12963301
0.022453229
0.13294172
0.02362717
0.024513732
0.13570051
0.096869131
0.0032925586
0.097553425
0.0035889397
0.098395
0.0043622253
0.099770992
0.0048362253
0.10121579
0.005876117
0.10319145
0.0065273348
0.1052246
0.0077875559
0.10773883
0.0084973421
0.11020952
0.010021932
0.11314624
0.010826073
0.11586217
0.012430399
0.11904808
0.013292899
0.12191147
0.014979904
0.12517035
0.015848177
0.12785634
0.017626965
0.13090093
0.018475257
0.13323036
0.020123806
0.1353946
0.021462925
0.023001482
0.13690685
0.10403473
0.0029371542
0.10450903
0.0031146345
0.10549055
0.0033807062
0.10677395
0.0035528248
0.10834424
0.004305831
0.11036007
0.0045115057
0.11249683
0.0056507944
0.1149744
0.0060197662
0.11743053
0.0075658096
0.12019293
0.0080636729
0.12271381
0.0099095147
0.12551899
0.010487721
0.12791095
0.01258794
0.13053103
0.013228099
0.13234079
0.015817209
0.13436142
0.016454628
0.13512968
0.019355537
0.13615536
0.020437254
0.023389698
0.13576714
0.1111531
0.0024445996
0.11169389
0.0025738421
0.11293817
0.0021364232
0.11410935
0.0023816437
0.11591573
0.0024994534
0.11775068
0.0026765593
0.11998454
0.0034169367
0.12225548
0.0037488213
0.12469589
0.0051254016
0.12713657
0.0056229879
0.12952657
0.0075195131
0.13188054
0.0081337543
0.13377651
0.010691969
0.13549588
0.011508732
0.13651695
0.014796137
0.13723442
0.015737156
0.13662035
0.019969614
0.13580497
0.02125263
0.026110687
0.13308398
0.1190662
0.0020986224
0.11969337
0.0019466725
0.12086212
0.00096767733
0.12201241
0.0012313514
0.12393064
0.00058122539
0.12557226
0.0010349359
0.1279043
0.0010849023
0.12979022
0.0018628931
0.13206535
0.0028502795
0.13398917
0.0036991643
0.13606966
0.0054390183
0.13753255
0.0066708643
0.13874844
0.0094760821
0.13924504
0.011012128
0.13929268
0.014748497
0.13844926
0.016580581
0.13670736
0.021711508
0.1340087
0.023951298
0.030581639
0.12953775
0.12715178
0.0018073486
0.12800819
0.0010902634
0.12902029
-4.4419291e-05
0.13042378
-0.00017214203
0.13215488
-0.0011498738
0.13382964
-0.00063982575
0.13606025
-0.0011457073
0.13773722
0.00018592543
0.13990874
0.00067875203
0.14134864
0.0022592686
0.14290315
0.0038845025
0.14357948
0.0059945407
0.14406839
0.0089871689
0.14337388
0.011706638
0.14212346
0.015998913
0.13955466
0.019149388
0.13647795
0.024788212
0.13218799
0.028241259
0.035716115
0.12705352
0.13615722
0.0015251944
0.13701789
0.00022959166
0.13792114
-0.00094767128
0.13950232
-0.0017533151
0.14093796
-0.0025855208
0.1426834
-0.0023852667
0.14440663
-0.002868932
0.1459168
-0.0013242506
0.14755586
-0.0009603034
0.14827988
0.0015352526
0.14918377
0.0029806094
0.14890057
0.0062777405
0.14841803
0.009469704
0.14666039
0.013464285
0.14448966
0.018169641
0.14091545
0.022723593
0.13685098
0.028852682
0.13172906
0.033363187
0.041386858
0.12605831
0.14568414
0.0012194435
0.14653267
-0.00061894147
0.14750095
-0.001915946
0.1490002
-0.0032525661
0.15021955
-0.0038048719
0.15193734
-0.0041030541
0.15318437
-0.0041159665
0.15464888
-0.0027887581
0.1556365
-0.0019479215
0.15605106
0.0011206919
0.15599773
0.0030339385
0.15453502
0.007740449
0.15313137
0.010873352
0.15028169
0.01631397
0.14733063
0.021120701
0.14284509
0.027209126
0.13842165
0.033276127
0.13256633
0.039218509
0.047415126
0.12653806
0.15584985
0.00080778304
0.15660623
-0.0013753153
0.15755788
-0.0028676012
0.15888571
-0.0045803902
0.16003851
-0.0049576784
0.1615399
-0.0056044431
0.16237431
-0.0049503694
0.16351932
-0.0039337763
0.16370809
-0.0021366907
0.16369041
0.0011383719
0.16252655
0.0041977985
0.16082531
0.0094416951
0.1586189
0.013079753
0.15493709
0.019995788
0.15119928
0.024858509
0.14596676
0.032441646
0.14125891
0.037983974
0.1350131
0.045464322
0.053008112
0.12942011
0.16715089
0.00035051967
0.16779549
-0.0020199112
0.16877701
-0.0038491303
0.16989286
-0.0056962333
0.17096945
-0.0060342689
0.17208306
-0.0067180568
0.17256557
-0.0054328811
0.17305233
-0.0044205286
0.17234452
-0.0014288867
0.1715885
0.0018943942
0.16961496
0.0061713362
0.16768722
0.011369442
0.16434633
0.016420642
0.16051937
0.023822748
0.15637662
0.02900126
0.15150527
0.037312995
0.14742096
0.042068278
0.14247515
0.05041014
0.055424693
0.14005856
0.17859723
-0.00015564153
0.17922151
-0.0026441922
0.18011319
-0.004740808
0.18092206
-0.0065051003
0.18192416
-0.0070363708
0.18264737
-0.00744127
0.18290557
-0.0056910819
0.18276849
-0.0042834508
0.18168908
-0.00034946883
0.18051025
0.0030732193
0.17802906
0.0086525291
0.17545617
0.01394233
0.17138048
0.020496329
0.16799794
0.027205289
0.16397725
0.03302195
0.16087911
0.040411131
0.15871414
0.044233249
0.15806762
0.051056668
0.051112876
0.16237943
0.19178356
-0.00060676952
0.1923866
-0.0032472384
0.19302674
-0.0053809408
0.19345086
-0.0069292286
0.19404629
-0.0076317971
0.19413913
-0.00753411
0.19400745
-0.0055594
0.19317528
-0.0034512848
0.19180376
0.0010220583
0.19003573
0.0048412404
0.18728501
0.011403256
0.18451525
0.016712083
0.18104361
0.023967969
0.1788644
0.029384506
0.17656259
0.035323761
0.1769869
0.039986816
0.17884826
0.042371895
0.18503495
0.044869975
0.040671217
0.19547661
0.2048246
-0.00095438995
0.20533719
-0.0037598205
0.20594059
-0.0059843495
0.20647446
-0.0074630965
0.20678315
-0.0079404831
0.20637912
-0.0071300825
0.20593414
-0.005114419
0.20466026
-0.0021774055
0.20320859
0.0024737343
0.20083823
0.0072115992
0.19814118
0.0141003
0.19567282
0.019180445
0.19370075
0.02594004
0.19329651
0.029788742
0.19408579
0.034534484
0.19846066
0.035611942
0.20472152
0.036111042
0.21543407
0.034157421
0.029338022
0.22676727
0.21985918
-0.0011668004
0.22023378
-0.0041344246
0.22058057
-0.0063311365
0.22080555
-0.0076880722
0.22071263
-0.0078475677
0.22020674
-0.0066241961
0.21937293
-0.004280607
0.21770315
-0.00050761868
0.2160779
0.0040989781
0.21355256
0.0097369378
0.21193377
0.015719097
0.21066947
0.020444739
0.21107166
0.025537849
0.21313008
0.02773033
0.2175384
0.030126157
0.22475993
0.028390417
0.23330094
0.027570032
0.24398803
0.023470325
0.021351414
0.25197464
0.23557941
-0.0013883163
0.23575225
-0.0043072569
0.23584003
-0.0064189241
0.23571113
-0.0075591664
0.23517991
-0.0073163518
0.23430372
-0.0057480025
0.23299757
-0.002974452
0.23144599
0.0010439563
0.22961131
0.0059336547
0.22777998
0.011568276
0.22747219
0.016026881
0.22775198
0.020164952
0.23064941
0.022640416
0.23492848
0.023451263
0.2415987
0.023455935
0.24926456
0.020724562
0.25734295
0.019491634
0.26453789
0.016275393
0.018194633
0.26769467
0.25289757
-0.0016203522
0.25281695
-0.0042266394
0.25275378
-0.0063557483
0.2523554
-0.0071607824
0.25176909
-0.0067300487
0.25090182
-0.0048807287
0.2496489
-0.001721532
0.24821209
0.0024807616
0.24676886
0.0073768925
0.24653992
0.011797213
0.24751313
0.015053672
0.24998647
0.017691605
0.25448241
0.018144482
0.25968198
0.018251696
0.26652065
0.016617262
0.27266013
0.014585084
0.27781641
0.014335354
0.27996786
0.014123938
0.019715873
0.27844662
0.27131884
-0.0015189268
0.27106651
-0.0039743089
0.27058009
-0.0058693291
0.26965517
-0.0062358617
0.26841789
-0.0054927694
0.26693119
-0.0033940296
0.26572529
-0.00051563284
0.26469187
0.00351419
0.26444612
0.0076226397
0.265563
0.010680337
0.26780211
0.012814561
0.27192745
0.013566266
0.27671537
0.013356562
0.28223105
0.012736013
0.28769909
0.01114922
0.29082148
0.011462693
0.29223285
0.012923985
0.29041729
0.0159395
0.023207471
0.28692569
0.29139306
-0.0015053349
0.29120497
-0.0037862243
0.29061175
-0.0052761058
0.28993091
-0.0055550175
0.28901612
-0.0045779844
0.28797236
-0.002350273
0.28700058
0.00045614736
0.28672337
0.0037914069
0.28759543
0.0067505788
0.28963828
0.0086374836
0.29278592
0.0096669199
0.2965823
0.0097698899
0.30057221
0.0093666558
0.30485395
0.0084542737
0.30714923
0.0088539337
0.30743941
0.011172516
0.30656839
0.013795006
0.30416538
0.018342509
0.023567383
0.30380547
0.31339329
-0.0011151379
0.31250649
-0.0028994217
0.31117502
-0.0039446339
0.30942678
-0.0038067869
0.30765787
-0.0028090718
0.3065468
-0.0012391985
0.30613847
0.00086448102
0.3067311
0.0031987713
0.30853859
0.0049430953
0.31134615
0.0058299168
0.31494295
0.0060701206
0.31892164
0.0057912026
0.32271841
0.0055698864
0.32535883
0.0058138515
0.32628596
0.007926803
0.32734502
0.010113463
0.32809151
0.013048507
0.330636
0.015798023
0.017292664
0.33691072
0.33731016
-0.00083944635
0.33636929
-0.0019585572
0.33513214
-0.0027074857
0.33397074
-0.002645384
0.33310211
-0.0019404355
0.33280746
-0.00094455061
0.33331589
0.00035604706
0.33494925
0.0015654201
0.33726126
0.0026310794
0.33999136
0.0030998159
0.34264354
0.0034179407
0.34493215
0.003502592
0.34630501
0.0041970321
0.34723326
0.0048855976
0.34884643
0.0063136404
0.35189556
0.0070643241
0.35627284
0.0086712299
0.36387964
0.0081912205
0.0076654998
0.37350681
0.36366352
0.36170496
0.35899747
0.35635209
0.35441165
0.3534671
0.35382315
0.35538857
0.35801965
0.36111947
0.36453741
0.36804
0.37223703
0.37712263
0.38343627
0.39050059
0.39917182
0.40736304
0.41502854
0.10073656
0.06215583
-0.060864797
0.099957011
0.064616717
-0.063837166
0.099202356
0.067499846
-0.066745191
0.09899764
0.069317937
-0.069113221
0.098949849
0.072473732
-0.072425941
0.099518262
0.074437854
-0.075006267
0.1003654
0.07703139
-0.077878523
0.10213356
0.078602978
-0.080371144
0.10410153
0.08168067
-0.083648638
0.10689163
0.082677391
-0.085467487
0.11033154
0.08395651
-0.087396423
0.11297312
0.085632036
-0.088273613
0.11593753
0.084841774
-0.087806187
0.11813424
0.084026649
-0.086223357
0.11953416
0.08116692
-0.082566839
0.11892519
0.077074001
-0.076465031
0.11608947
0.070181122
-0.06734541
0.10939715
0.062500732
-0.055808406
0.052815593
0.099092894
-0.04251134
0.10826381
0.063440385
0.10738648
0.065494053
0.1068365
0.068049825
0.10676135
0.069393084
0.10719098
0.0720441
0.10782038
0.073808454
0.1091138
0.075737969
0.11092638
0.076790401
0.11349327
0.079113781
0.11626452
0.079906144
0.1196151
0.080605925
0.12382945
0.081417691
0.12732429
0.081346933
0.13072866
0.080622279
0.13307839
0.078817187
0.13362928
0.076523112
0.1321883
0.071622105
0.12826458
0.066424445
0.060306833
0.12077334
0.11576993
0.064814623
0.11457116
0.066692828
0.11368989
0.068931089
0.11329772
0.069785259
0.11355952
0.071782302
0.11405151
0.073316456
0.11552557
0.074263916
0.11724114
0.075074827
0.11976914
0.076585786
0.12247798
0.077197304
0.12547433
0.077609575
0.12973031
0.077161712
0.13310809
0.077969151
0.13676462
0.076965748
0.13949751
0.076084298
0.14167499
0.074345635
0.14135487
0.071942216
0.13890292
0.068876395
0.065784535
0.13342522
0.12252404
0.066331586
0.1210071
0.068209763
0.12007363
0.069864566
0.11934929
0.070509592
0.11901864
0.072112952
0.11933091
0.073004186
0.1204412
0.07315363
0.12183364
0.073682384
0.1239111
0.074508328
0.12635235
0.074756051
0.12926841
0.074693521
0.13287289
0.073557229
0.13594452
0.074897524
0.13865456
0.074255707
0.14140028
0.073338575
0.14366813
0.072077789
0.14472325
0.070887095
0.14367968
0.069919968
0.069229012
0.1402352
0.12728333
0.068506912
0.12562389
0.069869203
0.12450244
0.07098602
0.1235455
0.071466537
0.1231412
0.07251725
0.12310416
0.07304122
0.12373793
0.072519858
0.12449179
0.072928525
0.12586128
0.073138839
0.12821003
0.072407302
0.13111568
0.071787874
0.133607
0.071065906
0.13641731
0.072087221
0.1397382
0.070934813
0.14314402
0.06993275
0.14571898
0.069502834
0.14690714
0.069698934
0.14653577
0.070291338
0.071225969
0.14453881
0.1309734
0.070929178
0.12872083
0.072121781
0.12714501
0.072561837
0.12559486
0.073016691
0.12462632
0.073485782
0.12446697
0.073200572
0.12439156
0.072595267
0.12475345
0.072566635
0.12640083
0.071491457
0.1283476
0.07046054
0.13039776
0.069737709
0.13301148
0.06845219
0.13705885
0.06803985
0.14118916
0.066804498
0.14448091
0.066641004
0.1471081
0.066875646
0.14917435
0.06763268
0.1515586
0.067907089
0.07006764
0.15271693
0.13271673
0.073912955
0.13015701
0.074681502
0.12793133
0.07478752
0.12573182
0.075216199
0.12449489
0.074722715
0.12331435
0.074381107
0.12265499
0.073254632
0.12311649
0.072105129
0.12379247
0.070815484
0.12511089
0.069142116
0.12819814
0.066650458
0.13168419
0.064966139
0.13553356
0.064190482
0.13991017
0.06242789
0.1455823
0.060968873
0.15290865
0.059549296
0.16058156
0.059959774
0.16757865
0.060909992
0.065242929
0.17240336
0.13285072
0.077969087
0.12950514
0.078027078
0.12604777
0.078244892
0.12361055
0.077653419
0.12105249
0.077280771
0.11929737
0.076136233
0.1181279
0.074424101
0.11739705
0.07283598
0.11817197
0.070040564
0.12052268
0.066791404
0.12285958
0.064313552
0.1258723
0.061953423
0.13266884
0.05739394
0.14257511
0.052521619
0.15373469
0.049809297
0.16469229
0.048591695
0.17497193
0.04968013
0.18354977
0.052332154
0.05795225
0.19084045
0.13095014
0.082786081
0.1263319
0.082645326
0.12197142
0.082605365
0.1179929
0.08163194
0.11415917
0.081114501
0.11130867
0.07898674
0.10826141
0.077471362
0.10713072
0.073966668
0.1068171
0.070354183
0.10629397
0.067314538
0.10717643
0.063431086
0.11279765
0.056332202
0.12235433
0.047837261
0.13160714
0.043268815
0.13923945
0.042176984
0.14630698
0.041524168
0.15440144
0.041585668
0.16299602
0.043737574
0.047884474
0.17306379
0.12701152
0.088858544
0.12089829
0.088758552
0.11521626
0.0882874
0.10918566
0.087662532