/*--------------------------------*- C++ -*----------------------------------*\
  =========                 |
  \\      /  F ield         | OpenFOAM: The Open Source CFD Toolbox
   \\    /   O peration     | Website:  https://openfoam.org
    \\  /    A nd           | Version:  11
     \\/     M anipulation  |
\*---------------------------------------------------------------------------*/
FoamFile
{
    format      ascii;
    class       volScalarField;
    location    "0.7";
    object      p;
}
// * * * * * * * * * * * * * * * * * * * * * * * * * * * * * * * * * * * * * //

dimensions      [0 2 -2 0 0 0 0];

internalField   nonuniform List<scalar> 
4455
(
146.92417
147.02367
147.1969
147.47265
147.86378
148.41761
149.08507
150.34188
150.6882
146.87622
146.98557
147.17163
147.45708
147.88218
148.46541
149.2476
150.49066
151.34654
146.78158
146.90741
147.11088
147.41641
147.86358
148.49217
149.31413
150.65173
151.56855
146.64498
146.79509
147.02125
147.34438
147.81747
148.4744
149.34823
150.79778
151.92013
146.4745
146.65076
146.89672
147.23901
147.73689
148.4196
149.35489
150.92175
152.32778
146.27625
146.47716
146.74329
147.10689
147.63057
148.34934
149.3484
151.04915
152.74255
146.05886
146.28393
146.56938
146.95079
147.4958
148.24909
149.30469
151.17198
153.1951
145.83114
146.07572
146.37771
146.77558
147.33347
148.117
149.22039
151.2637
153.6186
145.60014
145.86212
146.17282
146.58201
147.14897
147.96118
149.11662
151.33189
154.07637
145.37519
145.16098
144.96472
144.79305
144.65443
144.55939
144.53698
144.62564
144.8194
145.64363
145.42488
145.21399
145.01191
144.81251
144.61237
144.38642
144.13258
143.86586
145.9548
145.73003
145.50513
145.28437
145.07937
144.8958
144.74433
144.67722
144.71898
146.36768
146.13847
145.90442
145.66094
145.39886
145.12423
144.82318
144.47279
144.07508
146.93752
146.70105
146.4488
146.19161
145.94182
145.70096
145.4749
145.25961
145.0252
147.78301
147.57201
147.33194
147.07408
146.78584
146.45265
146.08287
145.71591
145.33433
148.99287
148.84458
148.66102
148.43429
148.15356
147.82915
147.46758
147.10752
146.74918
151.39551
151.35147
151.19387
150.92497
150.56161
150.12675
149.63414
149.10608
148.52324
154.65671
155.08729
154.95034
154.35266
153.49537
152.50974
151.47835
150.41149
149.3658
144.97114
144.87971
144.7039
144.54926
144.43318
144.35946
144.28667
144.19548
144.08622
143.69272
143.58194
143.48564
143.39567
143.29219
143.12784
142.92539
142.68731
142.37022
144.78315
144.73251
144.60253
144.45886
144.31289
144.16727
144.02254
143.87191
143.70594
143.79284
143.60735
143.45226
143.28704
143.10572
142.89069
142.6464
142.4047
142.15722
144.83875
144.72689
144.64773
144.56015
144.43856
144.29992
144.13477
143.947
143.75836
145.0173
144.80709
144.63523
144.46292
144.25047
143.99984
143.71745
143.4068
143.09848
146.44478
146.25382
146.08763
145.91891
145.7144
145.45691
145.18958
144.92001
144.61729
147.99248
147.53069
147.0454
146.52928
145.99957
145.45094
144.86487
144.27961
143.7365
148.46931
147.64566
146.83314
146.00085
145.18529
144.42744
143.64779
142.92289
142.31631
141.85612
141.4313
141.32526
141.54995
142.06208
142.7857
143.57938
144.34454
145.18062
143.2661
142.87849
142.56556
142.29488
142.06846
141.92772
141.89554
141.97567
142.124
144.33639
144.1115
143.88649
143.65853
143.45525
143.26338
143.08234
142.93121
142.81014
142.81849
142.51872
142.18267
141.85414
141.53275
141.2157
140.90738
140.61061
140.31804
143.55807
143.36031
143.18111
142.98428
142.75331
142.50733
142.24624
141.9577
141.65087
141.85889
141.52804
141.19203
140.84353
140.48347
140.12258
139.75539
139.38017
138.99803
143.53777
143.39027
143.23959
143.06216
142.84859
142.59375
142.29543
141.96207
141.59333
142.03435
141.7019
141.34654
141.00482
140.67713
140.35382
140.02073
139.66727
139.2933
143.9558
143.81971
143.66729
143.4605
143.18092
142.84052
142.45917
142.04529
141.60113
141.13352
140.64761
140.14108
139.61128
139.05356
138.45887
137.82959
137.16237
136.44567
138.90148
138.48175
138.02889
137.57534
137.08807
136.52301
135.90471
135.28996
134.6334
141.18765
140.74002
140.25221
139.73035
139.1629
138.57102
137.93265
137.26259
136.55689
138.5985
138.18537
137.76017
137.33059
136.88621
136.43433
135.95518
135.44293
134.90997
141.32971
140.98704
140.62422
140.24166
139.84229
139.41858
138.97014
138.49255
137.9826
140.05086
139.79643
139.56223
139.33131
139.09766
138.88627
138.65868
138.43506
138.19579
142.7186
142.63642
142.57401
142.53679
142.499
142.495
142.48082
142.47002
142.46738
142.31162
142.56103
142.86617
143.2363
143.66723
144.14474
144.65021
145.19091
145.75167
146.11413
147.14554
148.18427
149.20005
150.26014
151.33754
152.45404
153.58218
154.72839
155.8719
146.30291
142.42825
137.93103
137.43689
134.33612
135.79845
133.92732
135.68
157.07362
146.86768
142.38051
137.64233
136.84371
133.72874
135.0088
133.1821
134.85683
158.32667
147.41594
142.30843
137.31561
136.20671
133.07925
134.1599
132.37567
133.97173
159.52675
147.91422
142.19315
136.9302
135.50361
132.36022
133.25909
131.52833
133.0185
160.69975
148.36243
142.01966
136.49048
134.74238
131.60113
132.31074
130.62237
131.99502
161.82315
148.71579
141.7674
135.98309
133.90944
130.77481
131.28122
129.65339
130.89322
162.84672
148.97203
141.41793
135.37465
132.98907
129.86634
130.19466
128.6385
129.71685
163.70132
149.05401
140.95268
134.66099
131.99409
128.88571
129.03397
127.55513
128.46977
164.1659
148.93494
140.32361
133.79909
130.90308
127.81046
127.7808
126.40217
127.16066
125.85251
125.1984
126.44934
126.63261
129.7011
132.7389
139.44732
148.45888
163.99833
124.59623
123.8942
125.02398
125.3312
128.29832
131.378
138.07014
147.00992
160.76249
123.15122
122.48173
123.50437
123.88042
126.7234
129.7563
136.18171
145.02827
157.90456
121.46889
120.97225
121.91406
122.28295
124.97097
127.9239
134.13204
142.90096
155.28977
119.67868
119.37039
120.24856
120.60582
123.09055
125.94132
131.90967
140.60855
152.59185
117.84121
117.6827
118.47965
118.81235
121.11662
123.84822
129.53827
138.14384
149.7939
115.95808
115.93756
116.63575
116.91633
118.98415
121.58504
127.03888
135.59728
147.08242
114.02665
114.14503
114.74351
114.96413
116.76563
119.2035
124.32905
132.79428
144.07192
112.06118
112.30653
112.79079
112.93631
114.43868
116.63761
121.41805
129.7469
141.16034
138.18677
126.52619
118.32362
113.95646
112.0399
110.82474
110.77394
110.42278
110.06467
135.02002
123.08825
114.97151
111.13709
109.54836
108.65842
108.73792
108.53188
108.07164
131.88026
119.42652
111.55111
108.23264
106.99904
106.46145
106.69118
106.6465
106.08344
128.51056
115.47741
107.94396
105.21658
104.40797
104.27032
104.67961
104.78299
104.15047
124.83908
111.28407
104.18143
102.10691
101.82523
102.10526
102.68316
102.95209
102.26799
121.05527
106.78193
100.26976
99.002793
99.279508
99.96148
100.75091
101.17864
100.48659
117.02063
102.01012
96.33729
95.933435
96.774404
97.894086
98.924047
99.48592
98.810034
112.77922
96.908418
92.294739
92.86718
94.39028
95.92986
97.197172
97.897483
97.279744
108.04927
91.523057
88.295023
89.914241
92.123291
94.08296
95.606949
96.428885
95.899727
94.70297
95.094731
94.163701
92.369499
89.960163
87.036526
84.13851
85.403032
102.48692
93.656895
93.929903
92.88224
90.84908
88.018237
84.30941
80.061577
78.517052
95.30457
92.786959
92.966688
91.79038
89.562415
86.334383
81.991425
76.391965
71.324125
87.150636
92.18035
92.211359
90.929046
88.555358
84.942742
80.144677
73.334348
64.458448
77.699096
91.764904
91.630581
90.247523
87.802054
83.86947
78.777162
71.003308
58.100647
66.883419
91.516468
91.207064
89.749565
87.328953
83.076472
77.864461
69.586742
52.966536
53.75368
91.415901
90.939722
89.3996
87.105213
82.524872
77.374256
69.217075
49.671627
37.5987
91.457339
90.841239
89.173802
87.135758
82.211269
77.169578
69.867975
48.850133
19.565997
91.586701
90.906331
89.026435
87.368043
82.053503
77.069495
71.083508
51.173878
4.0502257
91.71734
91.083505
88.901497
87.752623
81.875441
76.703315
71.936924
53.622451
-8.3893512
91.926914
91.291161
88.760416
87.86663
81.292922
75.523614
69.550631
43.770437
-22.189828
92.311443
91.509482
88.622086
87.676837
80.412129
73.762078
64.995871
30.589785
-33.279262
92.775255
91.772433
88.569463
87.54564
79.581233
71.89348
60.920713
18.920363
-17.11165
93.289655
92.148106
88.659105
87.606567
78.92142
70.085433
57.714944
7.1909173
-2.9001291
93.784853
92.59785
88.832379
87.813728
78.509908
68.540546
54.145882
-5.3060509
-9.6677973
94.319476
93.13035
89.043394
88.10379
78.239733
67.182567
49.800402
-16.69122
-23.668635
94.815502
93.70309
89.316096
88.454502
78.113997
66.090736
45.40104
-19.783082
-29.433195
95.307798
94.298373
89.650064
88.872509
78.137725
65.50265
41.100664
-15.320633
-26.767634
-26.558774
-15.967499
38.479858
65.369267
78.445622
89.319165
90.07096
94.898042
95.748429
-26.864988
-16.889989
37.411135
65.594645
78.982113
89.842703
90.613878
95.435939
96.183175
-26.786291
-17.156704
37.072499
66.019878
79.754261
90.426314
91.229569
95.951894
96.563713
-28.080869
-16.809747
37.083172
66.450215
80.728486
91.036472
91.844337
96.455049
96.911011
-29.537165
-16.770797
37.242898
66.98251
81.815567
91.611882
92.442986
96.911629
97.225492
-27.940835
-16.499153
37.738902
67.588939
82.93315
92.153901
93.038605
97.344873
97.531295
-25.923552
-16.335442
38.596929
68.32089
84.087832
92.671895
93.661567
97.702844
97.804815
-22.463454
-15.485857
39.722663
69.171611
85.273406
93.155072
94.280025
98.01565
98.06102
-18.971904
-15.235144
41.001918
70.241068
86.524653
93.624989
94.901795
98.266276
98.333578
-18.390498
-10.470288
46.23789
72.698043
88.789026
94.481289
95.95612
98.654977
98.704698
-16.301375
-1.6648647
52.21122
77.09048
91.353675
96.085244
97.123908
99.12567
99.248478
-13.515531
7.2952119
58.068768
82.000905
93.865142
97.412801
98.200712
99.339336
99.753128
-10.248121
16.207742
63.762509
86.711972
96.072997
98.301336
99.186867
99.241796
100.27068
-5.6640862
25.171225
69.440078
90.775038
97.740271
98.830733
100.13239
98.974341
101.02218
-1.9040152
33.905275
74.859117
94.12057
98.863927
99.196481
101.0383
98.439536
101.85871
4.478975
42.344341
79.829249
96.874148
99.525088
99.511269
101.7144
98.004964
103.27025
5.1076088
50.345083
84.008785
99.142571
99.874408
99.813545
102.16978
97.669521
105.02571
13.617055
58.788575
87.718059
100.84771
99.890715
100.09098
102.32994
98.109116
107.23155
19.652923
84.203473
98.522997
105.87232
102.10258
102.01113
101.60166
100.62724
101.17249
19.630676
84.081144
98.474783
105.8378
102.08737
101.9875
101.58684
100.63249
101.20463
19.588215
83.835555
98.379174
105.76961
102.05745
101.94023
101.55766
100.6423
101.26993
19.523251
83.465996
98.237707
105.6693
102.01361
101.86964
101.51492
100.65521
101.37126
19.436798
82.975595
98.050939
105.53941
101.95677
101.77557
101.46046
100.6636
101.51406
19.326123
82.34092
97.812638
105.3813
101.88997
101.65845
101.39396
100.66001
101.70563
19.191722
81.539883
97.523171
105.19136
101.81177
101.52452
101.30945
100.64373
101.94848
19.01494
80.621346
97.195892
104.98258
101.71712
101.36668
101.27476
100.5658
102.22569
18.835946
79.696999
96.825428
104.76282
101.62257
101.18834
101.33482
100.38624
102.52841
13.614971
58.789535
87.715586
100.84773
99.890438
100.09051
102.33002
98.108707
107.2319
5.1057426
50.346985
84.005921
99.142231
99.874141
99.812974
102.16985
97.669054
105.02593
4.4764668
42.346979
79.826173
96.873462
99.524607
99.510506
101.71444
98.004458
103.27033
-1.905951
33.908752
74.856067
94.119789
98.863382
99.195549
101.03826
98.438997
101.85871
-5.6667478
25.175671
69.43707
90.774093
97.739894
98.829727
100.13225
98.973795
101.02205
-10.250358
16.212626
63.759515
86.710801
96.072586
98.300331
99.186624
99.24124
100.27048
-13.520164
7.3018319
58.066111
81.999723
93.864585
97.411748
98.200384
99.338753
99.752856
-16.305806
-1.6562009
52.209539
77.089326
91.353087
96.084151
97.123504
99.125057
99.24813
-18.394365
-10.458981
46.237713
72.696858
88.788415
94.480173
95.955733
98.654366
98.704312
95.747632
94.897188
90.070275
89.317798
78.445331
65.367534
38.480991
-15.969064
-26.562542
96.182437
95.435071
90.613232
89.841345
78.981734
65.593046
37.412367
-16.890761
-26.86888
96.563004
95.951011
91.22892
90.424969
79.753992
66.018286
37.073774
-17.156021
-26.788014
96.910355
96.454141
91.843709
91.035127
80.728153
66.448707
37.084332
-16.806776
-28.081258
97.224894
96.910742
92.442357
91.610594
81.815164
66.981081
37.243941
-16.765087
-29.541579
97.530752
97.344018
93.037977
92.152668
82.932696
67.5876
37.739688
-16.490786
-27.946667
97.804298
97.702043
93.660897
92.670727
84.08731
68.319606
38.597408
-16.324983
-25.928655
98.06053
98.014922
94.279321
93.153937
85.272913
69.170397
39.723163
-15.473829
-22.467832
98.333126
98.265608
94.901212
93.623838
86.524129
70.239885
41.002498
-15.22283
-18.977758
-26.773287
-15.322239
41.101853
65.500471
78.137682
88.871162
89.64935
94.297522
95.306973
-29.438943
-19.784265
45.402628
66.08827
78.113833
88.453156
89.315419
93.702205
94.814658
-23.674797
-16.691035
49.801602
67.180131
78.239603
88.102406
89.042698
93.129468
94.318604
-9.6764703
-5.3055724
54.146579
68.538001
78.509779
87.8124
88.831708
92.596962
93.78394
-2.9074402
7.1909301
57.715975
70.082819
78.921172
87.605166
88.658409
92.147204
93.288718
-17.117501
18.920191
60.921938
71.890893
79.581064
87.544296
88.568792
91.771493
92.77432
-33.281384
30.58954
64.997131
73.75934
80.411863
87.675529
88.621502
91.508483
92.310463
-22.189854
43.770303
69.551926
75.520797
81.292719
87.865391
88.75989
91.290119
91.925844
-8.3897944
53.622261
71.938237
76.700848
81.874986
87.751401
88.900925
91.082474
91.716213
94.702014
95.093798
94.163116
92.368597
89.960126
87.036213
84.139789
85.40156
102.48771
93.655923
93.92896
92.881582
90.848062
88.017966
84.308787
80.062655
78.515626
95.304885
92.785929
92.965696
91.789672
89.56134
86.333883
81.990734
76.392973
71.323029
87.150918
92.179292
92.210318
90.928243
88.554183
84.942009
80.143926
73.335317
64.457293
77.699115
91.763987
91.629472
90.246514
87.800849
83.868819
78.77608
71.004146
58.099499
66.883176
91.515675
91.205967
89.748503
87.327693
83.075843
77.863234
69.587706
52.965711
53.75243
91.415129
90.938744
89.398722
87.103856
82.524054
77.372912
69.218301
49.670989
37.596499
91.456532
90.840302
89.173105
87.134454
82.210517
77.167849
69.869414
48.849457
19.563764
91.58571
90.905367
89.025772
87.366769
82.052795
77.067413
71.084877
51.173439
4.0484584
108.05117
91.521847
88.296286
89.913775
92.123434
94.082005
95.606295
96.427971
95.898787
112.78155
96.907701
92.295853
92.866248
94.390384
95.928773
97.19641
97.896521
97.27882
117.0218
102.00966
96.338548
95.932522
96.774452
97.893031
98.92331
99.484905
98.809127
121.05569
106.78178
100.27114
99.002245
99.27971
99.960796
100.75037
101.17768
100.48571
124.83915
111.28426
104.18263
102.10706
101.8257
102.10505
102.6829
102.95118
102.26716
128.51008
115.47774
107.94488
105.21771
104.40859
104.26985
104.67952
104.78211
104.14964
131.87973
119.42726
111.55207
108.23411
107.00008
106.46011
106.69085
106.64553
106.08258
135.02002
123.08967
114.97243
111.1369
109.54946
108.65668
108.73737
108.53076
108.07077
138.18633
126.5276
118.32443
113.95447
112.04069
110.82296
110.7734
110.42161
110.06378
125.85192
125.19797
126.44918
126.63183
129.70077
132.73744
139.44729
148.45959
163.99066
124.59558
123.89363
125.02374
125.33034
128.29791
131.37645
138.07049
147.01057
160.76005
123.15053
122.48091
123.50364
123.87924
126.7229
129.75475
136.18237
145.02953
157.90445
121.46812
120.9712
121.91312
122.28143
124.97033
127.92251
134.13252
142.90208
155.28889
119.67784
119.36921
120.24757
120.60431
123.08987
125.93978
131.91023
140.60941
152.59086
117.84031
117.68152
118.47844
118.81078
121.11619
123.84621
129.53897
138.1451
149.79414
115.95714
115.9364
116.63441
116.91442
118.98352
121.58263
127.03961
135.59897
147.08254
114.02572
114.14393
114.74254
114.96226
116.76495
119.20058
124.32984
132.79581
144.07168
112.06023
112.30542
112.79014
112.93459
114.43893
116.63502
121.41891
129.74814
141.15993
127.16018
128.4694
129.71651
130.89293
131.99475
133.01825
133.97151
134.85663
135.67981
126.40177
127.55479
128.63822
129.65307
130.62207
131.52808
132.3754
133.18188
133.92713
127.78055
129.03394
130.19453
131.28096
132.31062
133.25888
134.15965
135.00866
135.79823
127.80995
128.88531
129.86583
130.77443
131.60071
132.35974
133.07891
133.72841
134.33573
130.90281
131.99378
132.98873
133.90918
134.7422
135.50339
136.2066
136.84367
137.43685
133.79788
134.66019
135.3737
135.98224
136.48943
136.92909
137.31487
137.64159
137.9303
140.32404
140.95303
141.41802
141.76819
142.02086
142.19432
142.30989
142.38191
142.42958
148.93472
149.05451
148.97252
148.71682
148.36407
147.91518
147.41745
146.86974
146.3044
164.15691
163.6937
162.83992
161.81752
160.69506
159.52372
158.32392
157.07081
155.87134
136.4455
134.63321
136.5567
134.90971
137.98264
138.19528
142.46872
145.75281
154.72737
137.16221
135.28981
137.26243
135.44269
138.49257
138.43455
142.47091
145.19141
153.58067
137.82944
135.90458
137.93245
135.95492
138.97016
138.65823
142.4817
144.65102
152.45351
138.45874
136.5229
138.57086
136.43416
139.41864
138.8858
142.49568
144.14579
151.33786
139.05344
137.08799
139.16271
136.88607
139.84231
139.09716
142.49923
143.66776
150.2611
139.61118
137.57526
139.73018
137.33048
140.24165
139.33104
142.53735
143.2365
149.19925
140.141
138.02882
140.25203
137.76009
140.62417
139.56208
142.57468
142.86557
148.18454
140.64753
138.4817
140.73983
138.18532
140.987
139.7962
142.63702
142.56124
147.14693
141.13346
138.90145
141.18746
138.59849
141.32968
140.05051
142.71918
142.31224
146.11428
143.9556
142.03437
143.53769
141.85851
143.55814
142.8184
144.33666
143.26644
141.85732
143.8195
141.70192
143.39012
141.52763
143.3603
142.51873
144.11214
142.87843
141.43185
143.66712
141.34655
143.23935
141.19184
143.18117
142.18263
143.88701
142.56623
141.32596
143.46035
141.00484
143.06191
140.84355
142.98439
141.85421
143.6589
142.29536
141.55098
143.18078
140.67715
142.84833
140.48346
142.75333
141.53289
143.45603
142.06873
142.06261
142.8404
140.35383
142.59349
140.12251
142.5073
141.21558
143.26432
141.92848
142.78697
142.45907
140.02074
142.29517
139.75534
142.24625
140.90727
143.08307
141.89629
143.57974
142.04521
139.66727
141.9618
139.38017
141.95771
140.61049
142.93154
141.97611
144.34484
141.60107
139.29329
141.59309
138.99804
141.65083
140.31771
142.81035
142.12414
145.1817
142.31747
143.73719
144.61736
143.09834
143.75848
142.15694
143.70591
142.3702
144.08601
142.92438
144.27956
144.92035
143.40681
143.94706
142.40445
143.87196
142.68724
144.19528
143.65014
144.86492
145.19
143.71734
144.13491
142.64608
144.02267
142.92531
144.28647
144.42949
145.45126
145.45696
143.9995
144.30018
142.89027
144.16744
143.12776
144.35926
145.18643
145.99937
145.71458
144.25009
144.43884
143.10518
144.31312
143.29201
144.43297
146.00239
146.52922
145.9194
144.46244
144.56046
143.28634
144.4592
143.39535
144.54907
146.83431
147.04551
146.08799
144.63464
144.64809
143.45148
144.60298
143.48515
144.70379
147.64659
147.53046
146.25415
144.80651
144.72733
143.60651
144.73311
143.58132
144.8797
148.4705
147.99222
146.4454
145.01673
144.83923
143.79194
144.78384
143.69209
144.97119
149.36674
148.52307
146.74992
145.33376
145.02575
144.07419
144.71957
143.86534
144.81942
150.41225
149.10595
147.108
145.71537
145.26034
144.47211
144.67751
144.13215
144.62562
151.47906
149.63392
147.46783
146.0824
145.47548
144.82273
144.74431
144.38613
144.53685
152.5102
150.12661
147.82929
146.45219
145.70114
145.12393
144.89566
144.61215
144.55922
153.49579
150.56156
148.1536
146.78547
145.94176
145.3987
145.07923
144.81231
144.65424
154.35298
150.92484
148.43431
147.07389
146.19157
145.66085
145.28424
145.01174
144.79287
154.95057
151.1938
148.66104
147.33185
146.44876
145.90436
145.50502
145.21384
144.96455
155.08743
151.35146
148.84458
147.57196
146.70106
146.13844
145.72996
145.42475
145.16082
154.65669
151.39549
148.99286
147.78298
146.93752
146.36765
145.95474
145.64352
145.37504
146.92416
147.02366
147.1969
147.47265
147.86379
148.41761
149.08508
150.34188
150.68818
146.8762
146.98556
147.17162
147.45708
147.88219
148.46539
149.24758
150.49067
151.34651
146.78155
146.9074
147.11086
147.41641
147.86359
148.49214
149.3141
150.65174
151.5685
146.64494
146.79507
147.02122
147.34438
147.81747
148.47438
149.34823
150.79779
151.92008
146.47445
146.65073
146.8967
147.239
147.73688
148.41958
149.35489
150.92176
152.32771
146.27617
146.47712
146.74327
147.10688
147.63056
148.34933
149.34839
151.04913
152.74247
146.05877
146.28387
146.56935
146.95079
147.49578
148.24907
149.30469
151.172
153.19504
145.83102
146.07565
146.37768
146.77556
147.33345
148.11699
149.22038
151.26373
153.61853
145.6
145.86203
146.17278
146.58199
147.14896
147.96116
149.1166
151.33189
154.07631
153.3661
154.05577
154.75855
155.59118
156.55048
157.56439
158.63839
159.74959
160.83387
154.05571
154.70375
155.44126
156.30004
157.27078
158.28472
159.34701
160.44483
161.50886
154.75852
155.44127
156.21411
157.0909
158.05638
159.06402
160.11157
161.19878
162.27184
155.59117
156.30005
157.09092
157.96123
158.90689
159.89884
160.93102
162.02201
163.13922
156.55045
157.27077
158.05635
158.90686
159.8202
160.79603
161.82052
162.92363
164.11413
157.56436
158.28468
159.06395
159.89881
160.796
161.76292
162.79803
163.94078
165.19137
158.63828
159.34689
160.11149
160.93096
161.82046
162.79798
163.84938
165.06307
166.4275
159.74939
160.44463
161.19864
162.02185
162.92346
163.94063
165.06299
166.30118
167.65692
160.83356
161.50858
162.27161
163.13898
164.11388
165.19116
166.42732
167.65683
169.40469
173.78271
170.37655
169.21219
167.37599
166.07258
164.79881
163.7318
162.80606
162.03726
163.90274
164.91674
164.8838
164.81023
164.48335
163.9824
163.42148
162.75377
162.05611
160.26937
160.81701
160.93408
161.1635
161.18648
161.13161
161.01518
160.78668
160.41303
157.91194
158.20799
158.20762
158.37081
158.39181
158.41321
158.3983
158.36497
158.21309
156.12301
156.3092
156.29602
156.38047
156.36119
156.35983
156.32443
156.3148
156.22987
154.50028
154.62368
154.57624
154.65823
154.59563
154.6229
154.55457
154.54532
154.47697
153.07449
153.11179
153.08031
153.10016
153.0581
153.04581
152.99384
152.96581
152.91274
151.66819
151.66518
151.58633
151.60339
151.51809
151.51345
151.44471
151.41383
151.35814
150.32801
150.24872
150.1823
150.1231
150.05026
149.98919
149.92734
149.87832
149.81483
148.3735
146.97864
145.43178
143.69838
141.67931
139.01058
135.90117
132.11557
129.33029
148.45639
147.04967
145.49989
143.71558
141.63512
138.95055
135.70864
132.0314
128.50368
148.48344
147.07489
145.48286
143.67533
141.51452
138.81647
135.42994
131.68319
127.48985
148.57157
147.1207
145.55154
143.66805
141.50672
138.70399
135.21756
131.13516
126.43119
148.60769
147.17363
145.55963
143.70026
141.46818
138.64616
135.00966
130.63623
125.48588
148.69966
147.23899
145.63652
143.74047
141.48758
138.62356
134.91474
130.09288
124.66879
148.74535
147.31669
145.69231
143.83912
141.5345
138.72613
134.88543
129.89898
123.72623
148.82637
147.37293
145.76655
143.85922
141.60584
138.7059
134.92435
129.63048
125.29746
148.94044
147.51638
145.90163
144.07186
141.77702
139.06231
135.09967
129.96058
122.24088
129.83618
132.62379
135.96141
138.02284
139.32277
140.50895
141.98076
143.82739
145.28875
128.68513
131.7877
135.5078
137.76732
139.18425
140.45862
142.01886
143.91218
145.33914
127.31748
131.00847
135.14914
137.4781
138.91491
140.3499
142.02921
143.79349
145.26445
125.51384
130.19325
134.90296
137.34235
138.86269
140.41627
142.10402
143.8813
145.39368
123.18671
129.09288
134.35379
136.87396
138.46332
140.18698
142.01637
143.8133
145.32672
120.3807
128.98413
134.55688
136.94381
138.62211
140.35999
142.15519
143.89029
145.42806
114.81897
127.23983
133.89174
136.31925
138.21749
140.12564
142.01472
143.77479
145.32733
110.62221
127.69366
134.38469
136.53101
138.42523
140.28763
142.14281
143.87154
145.42136
99.912825
126.14367
133.96045
136.17442
138.20727
140.17182
142.0636
143.79735
145.36174
146.65897
148.09528
149.33293
150.38928
151.50823
152.72863
154.00529
155.3938
156.90672
146.68913
148.13883
149.37336
150.44269
151.56759
152.79815
154.08671
155.48104
157.00454
146.72015
148.16952
149.38431
150.49011
151.63125
152.86772
154.16
155.55778
157.0849
146.79443
148.19344
149.40743
150.53678
151.68692
152.9294
154.22312
155.63623
157.168
146.78385
148.18955
149.42078
150.56661
151.7299
152.97606
154.27531
155.69225
157.22358
146.84183
148.22974
149.45471
150.62003
151.7804
153.03359
154.32828
155.75774
157.28272
146.7723
148.17077
149.41887
150.59951
151.78024
153.03404
154.34027
155.76838
157.30801
146.84132
148.23036
149.47014
150.65702
151.82996
153.08743
154.3859
155.82074
157.34903
146.79487
148.18941
149.43777
150.63156
151.81348
153.0732
154.37655
155.81272
157.34764
158.59573
160.38435
162.29416
164.33838
166.53347
168.83404
171.25394
173.82021
175.48718
158.7067
160.51055
162.45258
164.53443
166.79423
169.178
171.72855
174.42555
176.4196
158.78881
160.60113
162.58009
164.71416
167.04104
169.51496
172.19383
175.03177
177.34841
158.89302
160.70618
162.71926
164.88129
167.27139
169.80529
172.61438
175.57576
178.22982
158.94632
160.78185
162.82244
165.00688
167.44981
170.04315
172.98662
176.09521
179.09153
159.02354
160.84662
162.91437
165.10804
167.6107
170.24112
173.32192
176.55994
179.9327
159.03796
160.88547
162.95477
165.18221
167.70209
170.38512
173.59039
176.96168
180.82163
159.08979
160.92632
163.01872
165.23519
167.8039
170.48165
173.81844
177.24661
181.83497
159.0877
160.93018
163.01888
165.25242
167.81585
170.53134
173.92298
177.45596
182.06273
177.33184
170.69693
167.21265
164.09908
160.70452
157.16148
153.79694
150.40883
147.171
178.50382
171.49093
167.88104
164.74374
161.25653
157.67889
154.27844
150.86603
147.61467
179.42403
172.20485
168.52945
165.37219
161.8176
158.22147
154.77927
151.34589
148.07721
180.41991
172.83176
169.09317
165.93407
162.29646
158.70803
155.22751
151.77844
148.48623
181.61732
173.60483
169.71934
166.50406
162.85352
159.23714
155.74848
152.28204
148.99321
182.65575
174.14113
170.16017
166.94422
163.20915
159.63197
156.08204
152.60934
149.28434
184.18251
175.2494
171.00089
167.67062
163.92933
160.28964
156.7491
153.24987
149.93046
184.72843
175.39143
171.12723
167.84787
164.06036
160.46104
156.88015
153.38541
150.04319
187.6481
177.09518
172.15499
168.71453
164.91513
161.27956
157.6867
154.1611
150.81655
143.81491
140.6029
137.26574
133.97002
130.39165
126.81361
122.93989
119.01952
114.75441
144.22963
141.02046
137.64562
134.34864
130.78101
127.16849
123.35653
119.37054
115.14704
144.68623
141.46952
138.08742
134.78923
131.2494
127.63551
123.85981
119.90911
115.70924
145.05702
141.86285
138.44061
135.1395
131.62811
127.98011
124.30409
120.24946
116.17527
145.57312
142.3571
138.9485
135.65243
132.14858
128.52151
124.82262
120.86152
116.73511
145.82474
142.63861
139.19648
135.88522
132.42494
128.74452
125.18228
121.07415
117.13659
146.46847
143.2647
139.8286
136.52552
133.06879
129.42587
125.83623
121.83575
117.8174
146.56617
143.37607
139.93318
136.61475
133.19502
129.50219
126.01143
121.9119
118.04488
147.31963
144.12531
140.68368
137.36935
133.96835
130.29975
126.83528
122.79148
118.90574
109.88536
104.01661
97.701823
90.829357
83.69997
77.480769
71.067585
62.669075
42.068391
110.28624
104.60303
98.389163
91.816581
84.667812
78.860703
72.794982
66.072047
48.383806
110.9593
105.45159
99.435354
93.096615
86.10418
79.917746
73.49067
66.72099
54.765429
111.40345
106.23383
100.23257
94.26341
87.207102
81.0904
74.961481
69.208107
61.393221
112.09046
107.01845
101.2879
95.423697
88.69689
82.325201
76.827585
70.440838
70.037978
112.42652
107.73791
101.96283
96.492694
89.758407
83.36593
77.072181
74.665148
76.607867
113.28336
108.6039
103.34888
97.786519
91.720425
85.074035
79.469244
69.873845
102.87623
113.44281
109.08216
103.68594
98.504241
92.331613
85.835705
78.368938
73.10679
89.681033
114.46545
110.29668
105.41654
100.34119
94.9949
88.714076
84.685984
58.117432
143.96704
3.3622131
-19.907461
-31.57338
-27.083406
-28.448271
-31.163142
-34.531456
-15.732139
0.95144528
4.7757507
-20.963683
-30.400378
-25.356467
-27.797308
-29.272523
-31.567485
-14.467628
1.2125604
5.5400944
-22.92613
-28.346033
-24.919566
-28.706788
-30.7181
-30.049986
-12.498493
1.8351219
4.1771806
-26.264761
-27.123732
-25.029886
-28.574965
-29.185867
-27.246177
-10.502076
3.0610915
-0.44836808
-30.300429
-22.13103
-24.627868
-29.023316
-29.244857
-24.552656
-8.5277121
4.1730846
-3.5326716
-28.518786
-20.199286
-26.169058
-28.609332
-27.303247
-21.922031
-6.0558878
5.2939525
3.1444974
-16.93671
-21.515745
-25.587547
-28.182901
-26.154527
-19.184535
-3.0261935
6.0530707
5.1628768
-25.548811
-20.799492
-27.037188
-28.060879
-24.677107
-17.230015
-0.88719397
6.6174499
-107.48413
-1.0980301
-26.167884
-26.870843
-26.911446
-22.577086
-14.36355
1.0792461
6.952236
4.6514338
4.5606373
1.3702742
-9.5100158
-19.939424
-22.704893
-5.9582709
-5.4668619
3.4946589
5.7811412
5.8977562
2.5993604
-8.8817638
-19.180541
-22.119917
-4.4866216
-3.8162997
3.7419339
6.0961743
6.5072483
2.3776446
-9.5018385
-19.591757
-19.006199
-3.0235588
-1.9470184
3.9609326
6.78979
7.3792269
2.3167515
-9.2190786
-18.571118
-15.911093
-1.5621081
-0.16260001
3.8980088
7.7065668
8.4620584
2.6986323
-9.0015845
-17.496387
-12.874435
-0.077721415
1.224593
3.9655318
8.5554182
9.5058706
3.2713217
-8.3926621
-16.000408
-9.8201803
1.4572788
2.2690538
4.06177
9.2561419
10.389398
3.9391779
-7.2382095
-14.573934
-6.7205154
2.9362209
3.0678084
4.2675548
9.7293233
10.862747
4.733566
-6.6297818
-13.30098
-4.8246571
3.3796479
3.4042354
4.2726721
10.002419
11.171454
4.3372255
-7.4238994
-11.953055
-2.1775055
4.661545
3.6114933
4.4926274
-0.19522457
0.76261817
1.5031938
0.84035074
0.25283465
1.7157446
4.3633576
7.1481947
11.168431
0.61603831
0.6996022
1.7823119
1.3881195
0.29302627
1.1272618
4.0536307
6.9877666
11.377321
1.6509239
1.0955009
2.2130547
1.9054891
0.37704114
0.49738125
3.3365539
6.4512472
11.420619
2.3368482
1.2103997
2.2303626
2.2147455
0.64454386