/*--------------------------------*- C++ -*----------------------------------*\
  =========                 |
  \\      /  F ield         | OpenFOAM: The Open Source CFD Toolbox
   \\    /   O peration     | Website:  https://openfoam.org
    \\  /    A nd           | Version:  11
     \\/     M anipulation  |
\*---------------------------------------------------------------------------*/
FoamFile
{
    format      ascii;
    class       volVectorField;
    location    "0.7";
    object      U;
}
// * * * * * * * * * * * * * * * * * * * * * * * * * * * * * * * * * * * * * //

dimensions      [0 1 -1 0 0 0 0];

internalField   nonuniform List<vector> 
4455
(
(99.983015 0.031239414 0)
(99.883689 0.030118981 -1.0282966e-18)
(99.696662 0.12022135 3.5429079e-18)
(99.405725 0.067198502 2.6012336e-20)
(98.931298 0.22796327 3.3786592e-18)
(98.407123 0.14602315 -1.2809683e-17)
(97.564094 0.44288415 5.7104294e-18)
(96.592129 0.2354884 0)
(95.025245 0.91703524 -3.5702773e-17)
(100.00352 0.079287539 -6.6777109e-18)
(99.893289 0.12182538 6.5249068e-18)
(99.693985 0.26743879 -8.0613839e-18)
(99.393642 0.23212899 1.3513439e-17)
(98.887134 0.3948736 -2.6077371e-17)
(98.35066 0.28425573 2.8671406e-17)
(97.402575 0.42672443 -2.7824529e-18)
(96.445285 0.17493052 4.060779e-18)
(94.553348 -0.0071247659 1.555973e-16)
(100.01689 0.10510081 -6.961484e-18)
(99.927229 0.22868094 8.834459e-18)
(99.689799 0.39409817 7.8920117e-18)
(99.404025 0.44504824 -7.8811702e-18)
(98.855839 0.58511058 3.4783503e-17)
(98.322313 0.5778678 -1.980559e-17)
(97.348796 0.69694449 2.5285845e-18)
(96.287307 0.24899953 -5.7887503e-17)
(94.417484 0.55785507 -1.1030686e-16)
(100.01957 0.13206608 5.9831515e-20)
(99.952706 0.31582751 -1.0220752e-18)
(99.701517 0.53793135 1.8661658e-17)
(99.411448 0.61438834 2.5790097e-18)
(98.88412 0.84486913 4.156413e-21)
(98.2771 0.78579792 -3.7824171e-18)
(97.285695 1.1761148 4.2635347e-17)
(96.063592 0.50687312 1.1585304e-16)
(94.038992 1.2899703 9.2529581e-17)
(100.04103 0.17370765 1.3454906e-17)
(99.96678 0.3717533 -1.5109269e-17)
(99.729266 0.68224886 1.9238249e-17)
(99.41905 0.76671843 2.9315108e-20)
(98.919658 1.0987291 -2.3782094e-17)
(98.273192 1.0150983 -7.3726689e-18)
(97.22158 1.4315968 -3.3614416e-17)
(95.913241 0.71873468 -5.454467e-17)
(93.682829 1.5866469 -2.7404729e-16)
(100.04718 0.19362531 0)
(99.995632 0.43703224 0)
(99.761333 0.80023124 -3.3593946e-17)
(99.446954 0.92270993 -3.8788762e-17)
(98.976689 1.3258993 0)
(98.308497 1.3311028 -5.3158505e-17)
(97.163144 1.8536439 -4.5416151e-18)
(95.658829 1.0731541 -3.3120348e-18)
(93.140504 2.1699082 3.3977546e-16)
(100.07817 0.21886995 0)
(99.993352 0.46709044 -9.0426397e-19)
(99.813328 0.91847598 1.01781e-18)
(99.482154 1.0532763 3.791214e-17)
(99.02727 1.5096273 -2.828965e-18)
(98.350715 1.5293253 1.1314576e-16)
(97.199367 2.1274662 0)
(95.526679 1.3336079 0)
(92.725914 2.7222693 1.5810681e-16)
(100.09411 0.23281138 2.5043424e-17)
(100.02029 0.50043402 0)
(99.837007 0.99341351 0)
(99.560727 1.2187018 0)
(99.114909 1.7408069 0)
(98.402974 1.8481837 -5.6468032e-17)
(97.154953 2.5479947 -6.1278897e-17)
(95.339828 1.7397031 9.0729205e-17)
(92.147406 3.4169237 2.7242116e-18)
(100.1164 0.23749015 -2.4660586e-17)
(100.03758 0.51947767 -8.6373562e-19)
(99.879018 1.0411415 -9.8992085e-19)
(99.594054 1.2841072 2.2266882e-18)
(99.223086 1.8737332 8.6800875e-17)
(98.512278 2.017124 9.905669e-17)
(97.263036 2.8502213 1.9496183e-16)
(95.185034 2.0924692 -8.9030209e-17)
(91.69362 4.0619213 -2.7224344e-16)
(100.12367 0.23731422 0)
(100.13437 0.22764698 4.5210133e-17)
(100.13255 0.21311075 -4.4851397e-17)
(100.12987 0.19076235 4.2672714e-17)
(100.1253 0.16617272 -4.1713745e-17)
(100.11157 0.13652917 8.2844662e-17)
(100.09569 0.10507895 -8.0425521e-17)
(100.07904 0.071798559 0)
(100.03673 0.0291138 0)
(100.07052 0.53812648 0)
(100.08602 0.53847948 7.8737818e-19)
(100.11579 0.53224497 0)
(100.12676 0.51150032 2.2302331e-18)
(100.1448 0.48153404 4.5221548e-17)
(100.16378 0.44420442 -1.3478619e-16)
(100.1596 0.39217634 8.7167018e-17)
(100.18643 0.34445235 -1.3247206e-18)
(100.14602 0.2336639 8.3492704e-17)
(99.929041 1.1126964 5.7824895e-17)
(99.985414 1.1516551 -1.1371888e-16)
(100.03921 1.1684727 1.0812034e-16)
(100.10893 1.1650661 -3.6018707e-18)
(100.14388 1.135217 -5.0697007e-17)
(100.22712 1.1043395 -1.5368791e-18)
(100.24477 1.0291942 0)
(100.34078 0.97940233 2.8712521e-18)
(100.33848 0.81029772 -1.3888612e-18)
(99.681635 1.4173375 6.0780158e-17)
(99.766185 1.5189348 -1.2328865e-16)
(99.850087 1.5859947 1.1676466e-16)
(99.973019 1.642971 -5.6473661e-17)
(100.04394 1.6462931 -3.5263074e-18)
(100.18381 1.6682558 1.6798858e-18)
(100.24573 1.6141196 0)
(100.40538 1.5994436 -1.5661198e-18)
(100.42438 1.4344792 9.3964243e-17)
(99.29484 2.0781687 -6.9720331e-17)
(99.474994 2.2847281 0)
(99.552559 2.4270697 -6.3669205e-17)
(99.760907 2.5800327 6.5641043e-17)
(99.851704 2.6489906 -5.8706366e-17)
(100.07029 2.7565819 6.0655994e-17)
(100.17494 2.7552274 0)
(100.41121 2.8312376 0)
(100.49729 2.687461 3.3478407e-18)
(98.576112 2.2987013 -8.6401411e-17)
(98.754193 2.6252828 -8.2021817e-17)
(98.853621 2.8496396 7.8847782e-17)
(99.060063 3.1477216 7.4891861e-17)
(99.205485 3.2904893 -7.220233e-17)
(99.437264 3.559631 0)
(99.621244 3.6052727 1.3147171e-16)
(99.873996 3.8478589 -1.0676522e-18)
(100.03485 3.7416464 -2.4316714e-16)
(97.247216 3.2236468 -1.0324145e-16)
(97.446424 3.8195229 0)
(97.546299 4.0929067 0)
(97.822524 4.616178 2.8594894e-18)
(98.03276 4.8037652 0)
(98.370861 5.3282365 0)
(98.670602 5.4457991 0)
(99.058935 5.9611291 0)
(99.355583 5.9430419 0)
(95.074836 2.5670953 4.2141393e-18)
(94.899764 3.52489 0)
(95.002271 4.135777 3.7864985e-18)
(94.993958 5.1709878 -6.8905222e-18)
(95.376734 5.65733 -1.0292598e-16)
(95.584606 6.5653091 -9.6323593e-17)
(96.106353 6.8769864 1.8621884e-16)
(96.443162 7.6365736 1.7729402e-16)
(97.015672 7.7863454 -1.677803e-16)
(90.86385 4.9050451 5.1837387e-16)
(90.349797 6.951958 -3.2065506e-16)
(90.177745 8.2686692 2.9721007e-16)
(90.721799 10.33851 -2.8275316e-16)
(91.336221 11.34659 -3.9265295e-16)
(92.383715 12.975908 7.2834731e-16)
(93.191522 13.608987 -4.5772726e-16)
(94.386531 14.905322 -2.1099143e-16)
(95.125384 15.154823 1.9851016e-16)
(100.0546 0.045884931 -1.0964066e-19)
(100.08347 0.064552383 1.124045e-16)
(100.12844 0.08964347 -1.399484e-19)
(100.18782 0.11776776 -1.1313058e-16)
(100.26043 0.14720772 1.1031658e-19)
(100.34814 0.17748056 1.1331864e-16)
(100.45159 0.20904883 -1.1387037e-16)
(100.5726 0.24128479 -1.1043489e-19)
(100.72334 0.28357346 -5.6839156e-17)
(100.21023 0.2626505 -1.1983419e-16)
(100.25288 0.35545485 1.2034582e-16)
(100.36264 0.36493907 -1.2040039e-16)
(100.4371 0.48780159 0)
(100.58793 0.48431044 1.2064404e-16)
(100.69542 0.63325458 -2.6532446e-19)
(100.88347 0.61329465 -2.1073206e-19)
(101.02632 0.78511493 -1.2060739e-16)
(101.25742 0.74459937 6.0184997e-17)
(100.47242 0.88341251 1.2764484e-16)
(100.51339 1.0567427 -1.2816359e-16)
(100.681 1.104784 -1.2845974e-16)
(100.73508 1.2892714 1.287528e-16)
(100.9258 1.3348917 -1.2912553e-16)
(100.99925 1.5451344 1.286823e-16)
(101.22691 1.5895469 -1.2909408e-16)
(101.32534 1.8360407 4.2588728e-19)
(101.59742 1.8732998 1.2880114e-16)
(100.61003 1.5539554 -1.3740279e-16)
(100.6392 1.794244 -5.3778393e-19)
(100.84308 1.8889448 5.4263168e-19)
(100.87016 2.1299682 0)
(101.09248 2.2224905 -3.9740339e-21)
(101.14113 2.4945818 -1.3767635e-16)
(101.40458 2.5863348 1.3995382e-16)
(101.48302 2.9027852 5.4335914e-19)
(101.79798 2.9836468 5.4266942e-19)
(100.73912 2.8698061 -5.8161754e-19)
(100.75814 3.1880671 -1.4977167e-16)
(100.98921 3.3364988 -7.4057926e-20)
(100.98369 3.6291193 1.5074444e-16)
(101.22839 3.7699016 1.509232e-16)
(101.25011 4.0962913 -1.5167874e-16)
(101.54214 4.234692 -5.8618859e-19)
(101.59807 4.6101435 -5.8587252e-19)
(101.94941 4.7349517 -5.8537168e-19)
(100.33336 3.989537 1.6575712e-16)
(100.32694 4.3916433 0)
(100.60264 4.5958063 0)
(100.56955 4.9677043 1.651665e-16)
(100.86571 5.1582317 -1.6737549e-16)
(100.8691 5.5671413 -1.6663695e-16)
(101.21727 5.7493482 3.3278705e-16)
(101.26068 6.2037798 -1.0979996e-18)
(101.66723 6.3638967 -3.3216798e-16)
(99.726789 6.3859487 -7.4327021e-19)
(99.781227 6.8620036 0)
(100.04731 7.1577189 7.4005392e-19)
(100.07405 7.5419976 1.8654e-16)
(100.37021 7.8016768 -1.8768984e-16)
(100.45616 8.1666977 1.8651448e-16)
(100.80818 8.4099245 -1.8692326e-16)
(100.94744 8.7519975 -7.2725533e-19)
(101.33371 8.9682501 1.849901e-16)
(97.419415 8.3573054 -2.1209448e-16)
(97.872894 8.9651769 2.1488694e-16)
(98.261583 9.3730278 -2.1222021e-16)
(98.74647 9.8787717 2.111474e-16)
(99.171503 10.190891 -2.0648535e-16)
(99.692418 10.607242 1.9397622e-18)
(100.13918 10.828333 2.0733913e-16)
(100.65682 11.146613 1.5868852e-18)
(101.07276 11.25475 1.0078669e-16)
(96.252379 16.07563 0)
(96.730871 16.537007 -2.3525349e-16)
(97.779278 17.157305 4.8834209e-18)
(98.268027 17.355933 5.6852133e-18)
(99.340385 17.658683 4.5482405e-16)
(99.842009 17.470136 -2.2571155e-16)
(101.04575 17.247825 -2.1930375e-16)
(101.45302 16.476504 2.2032001e-16)
(102.85057 15.435724 1.0834402e-16)
(102.97178 14.176134 -1.2643731e-16)
(103.61973 12.867246 0)
(103.48785 12.060294 1.243658e-16)
(103.62109 11.204369 -1.2435497e-16)
(102.92837 10.653199 0)
(102.59437 9.8938091 0)
(101.53184 9.3897331 0)
(101.0012 8.7703748 -1.3648991e-16)
(99.807968 8.4582076 1.3649093e-16)
(101.49363 11.444754 -1.1480212e-16)
(101.78637 11.5638 0)
(102.10319 11.625141 0)
(102.30134 11.647852 0)
(102.45856 11.626548 0)
(102.50136 11.642668 0)
(102.45775 11.646648 0)
(102.37212 11.723436 1.1090738e-16)
(102.14755 11.733888 -2.2333347e-16)
(101.48505 9.2598621 -1.4902485e-18)
(101.83974 9.5383159 -2.0193491e-16)
(101.96749 9.7772383 0)
(102.30113 10.027137 -9.8912725e-17)
(102.38524 10.250657 9.8912632e-17)
(102.67383 10.468863 0)
(102.69332 10.677376 0)
(102.92642 10.895541 0)
(102.86456 11.118488 0)
(101.70462 6.820367 1.7816605e-16)
(102.13037 7.0504836 0)
(102.17263 7.4938837 8.7208876e-17)
(102.60174 7.7149376 -1.7378422e-16)
(102.64405 8.1552795 8.6570682e-17)
(103.07421 8.377419 0)
(103.10526 8.8226711 0)
(103.53765 9.0616427 0)
(103.54441 9.5215024 8.3443674e-17)
(102.01407 5.1472824 0)
(102.40325 5.2983822 1.5642863e-16)
(102.48025 5.7337165 -2.3406855e-16)
(102.89959 5.8834674 7.7635209e-17)
(102.98757 6.3364778 7.6392806e-17)
(103.43344 6.4909386 -6.5408229e-19)
(103.52629 6.9637908 -1.5080151e-16)
(103.99914 7.1310703 1.494334e-16)
(104.08998 7.6286402 -7.4367584e-17)
(101.89375 3.3408618 0)
(102.25399 3.4370166 7.0766233e-17)
(102.37341 3.8273936 -7.0768429e-17)
(102.77613 3.9171576 0)
(102.92053 4.3378087 -1.3803223e-16)
(103.36572 4.4232203 1.3803375e-16)
(103.53354 4.8762597 6.7656318e-17)
(104.02422 4.9608477 -1.3457429e-16)
(104.21274 5.4504049 6.6916682e-17)
(101.71425 2.1571872 0)
(102.02951 2.2017154 0)
(102.17084 2.5220509 0)
(102.53126 2.5617624 -6.3960762e-17)
(102.69989 2.9186412 1.273699e-16)
(103.10726 2.953243 -1.2622602e-16)
(103.30554 3.3491424 6.2815497e-17)
(103.76554 3.3780403 -6.1500024e-17)
(103.99527 3.8172287 1.2227257e-16)
(101.42822 0.94256042 -1.2169412e-16)
(101.70705 0.89606722 4.2739231e-19)
(101.91268 1.1309793 6.0227768e-17)
(102.23526 1.0698777 -5.926393e-17)
(102.48005 1.3369388 5.9264411e-17)
(102.84894 1.2566424 0)
(103.13216 1.5512601 5.752072e-17)
(103.55196 1.451382 -1.1435982e-16)
(103.88159 1.7861836 5.6844574e-17)
(100.81541 0.33836256 3.0027208e-19)
(101.04194 0.34979467 5.7276039e-17)
(101.19542 0.4756463 5.6613084e-17)
(101.50156 0.47045461 -5.661309e-17)
(101.67285 0.59563516 0)
(102.00026 0.61776118 0)
(102.23228 0.72739309 -5.4848216e-17)
(102.62675 0.72075302 1.0914192e-16)
(102.90401 0.85869997 -5.4293685e-17)
(103.35458 0.890318 0)
(103.70576 1.0057306 -5.2292209e-17)
(104.23821 1.0334209 7.8994957e-19)
(104.64544 1.1825629 8.5550382e-19)
(105.244 1.2254858 9.2944729e-19)
(105.75319 1.3599735 4.9717304e-17)
(106.43946 1.4004976 4.7624106e-17)
(107.01512 1.5605766 -4.7624108e-17)
(107.80053 1.6372821 0)
(104.366 1.6668964 0)
(104.74126 2.043164 0)
(105.29 1.9050143 -5.3611982e-17)
(105.71798 2.3338899 9.6110547e-19)
(106.34487 2.1769787 1.0264302e-18)
(106.82425 2.6611536 5.1626642e-17)
(107.53159 2.4868499 4.9360712e-17)
(108.07402 3.0397323 -4.9361052e-17)
(108.88124 2.8467557 0)
(104.5138 3.8430934 -6.077268e-17)
(104.77609 4.3320022 0)
(105.35887 4.3550504 0)
(105.65576 4.8997472 -5.7332072e-17)
(106.3112 4.9239837 1.1365718e-16)
(106.64484 5.5339182 -1.0737661e-18)
(107.38008 5.559431 -1.1466465e-18)
(107.75558 6.2440462 -5.4102313e-17)
(108.58316 6.2731165 0)
(104.75238 5.5395474 -6.5315246e-17)
(104.95843 6.0715862 6.5314359e-17)
(105.5512 6.1714218 0)
(105.77219 6.7541907 0)
(106.42457 6.8717484 6.1574543e-17)
(106.66018 7.5173695 -6.1573677e-17)
(107.3811 7.6579395 5.938502e-17)
(107.63443 8.3809274 -3.0288693e-17)
(108.43771 8.5482404 -2.9094523e-17)
(104.59145 7.8185981 -7.2921739e-17)
(104.67385 8.3494818 7.2919534e-17)
(105.20811 8.5729703 0)
(105.27715 9.1506064 0)
(105.85242 9.4183791 0)
(105.90572 10.061425 0)
(106.53475 10.382422 0)
(106.57347 11.112658 0)
(107.27366 11.492765 0)
(103.97992 9.795547 -8.3443639e-17)
(103.94951 10.279952 8.2266705e-17)
(104.38995 10.610129 -8.2260646e-17)
(104.3122 11.135055 8.1141655e-17)
(104.76384 11.536263 -8.1132261e-17)
(104.63327 12.126818 0)
(105.11398 12.608295 0)
(104.9312 13.295 0)
(105.46825 13.864351 0)
(103.04246 11.381655 0)
(102.8999 11.624342 -9.6722113e-17)
(103.03673 11.973929 9.6689539e-17)
(102.78813 12.273337 0)
(102.91753 12.731076 9.6974688e-17)
(102.5546 13.121442 -9.6982862e-17)
(102.70928 13.711128 0)
(102.23066 14.227516 4.8810182e-17)
(102.44129 14.960019 -9.7726015e-17)
(101.98012 11.925863 1.1217138e-16)
(101.53449 12.055073 1.1408703e-16)
(101.30705 12.340028 -1.1411362e-16)
(100.68339 12.607709 1.1666138e-16)
(100.40699 12.997869 -2.3481894e-16)
(99.62016 13.430422 2.3786574e-16)
(99.309484 13.942099 -2.4111846e-16)
(98.374114 14.5712 1.2139013e-16)
(98.048396 15.224395 0)
(99.187882 8.0420931 -1.4323e-16)
(97.908932 7.9211004 1.4323084e-16)
(97.221521 7.6885311 0)
(95.861807 7.7395794 0)
(95.108354 7.6794997 0)
(93.647801 7.9096174 0)
(92.817252 8.0434678 0)
(91.23274 8.4848987 -8.4680864e-17)
(90.313017 8.849798 8.4679509e-17)
(88.593423 9.56903 8.8820695e-17)
(96.98083 16.088225 0)
(101.85827 15.651307 4.8929568e-17)
(105.2405 14.678876 0)
(107.30345 12.333247 0)
(108.71624 9.3668502 0)
(109.00863 7.0459146 2.5079237e-17)
(109.48718 3.4747912 2.2660591e-17)
(108.49439 1.7896477 2.1893789e-17)
(87.574912 10.228874 -8.8818754e-17)
(96.667019 16.905152 0)
(102.14229 16.50488 0)
(105.86501 15.339673 3.838275e-17)
(108.09563 12.774672 0)
(109.61854 9.56077 -2.7048251e-17)
(109.93966 7.0739175 -4.9404248e-17)
(110.39765 3.2631782 -4.4548012e-17)
(109.38228 1.8686364 -4.3039594e-17)
(85.717835 11.320894 0)
(95.49208 18.051173 0)
(101.49776 17.462335 4.9057909e-17)
(105.60712 16.314263 -3.8383878e-17)
(108.12708 13.748179 0)
(109.93441 10.493327 2.7047955e-17)
(110.42598 7.9441505 2.4325398e-17)
(111.08201 3.9823318 2.188852e-17)
(110.19709 2.0291634 2.1145799e-17)
(84.599983 12.380995 9.5175241e-17)
(95.228304 19.053547 0)
(101.85808 18.423694 -9.8055477e-17)
(106.35334 17.063757 0)
(109.03418 14.248135 0)
(110.95661 10.710017 -2.5410771e-17)
(111.4767 7.9682415 -2.2644382e-17)
(112.12357 3.7490274 0)
(111.21198 2.1302842 -1.9458429e-17)
(82.633167 13.995998 -9.5175218e-17)
(93.986544 20.538408 -6.6415469e-17)
(101.19007 19.678688 4.8996025e-17)
(106.09078 18.232399 0)
(109.08433 15.376754 0)
(111.32701 11.775312 2.5410813e-17)
(112.03814 8.9504001 2.2644538e-17)
(112.89608 4.5722039 0)
(112.14989 2.3070749 1.9458426e-17)
(81.456261 15.608824 0)
(93.830295 21.745379 6.6414339e-17)
(101.66149 20.750639 -4.859373e-17)
(106.97749 19.040246 0)
(110.12936 15.924848 0)
(112.4902 12.006028 -2.3487639e-17)
(113.21841 8.9600268 -2.0699186e-17)
(114.07985 4.3132256 0)
(113.31069 2.4253973 -1.7486972e-17)
(79.482536 17.971046 0)
(92.586874 23.636464 0)
(101.02356 22.343031 4.8593675e-17)
(106.78862 20.461843 -1.7669834e-17)
(110.22537 17.23104 -1.3979393e-17)
(112.9349 13.217204 3.4687679e-17)
(113.87357 10.059729 3.0505567e-17)
(114.91879 5.2254219 0)
(114.39205 2.6032851 2.5681469e-17)
(78.442775 20.344176 0)
(92.633746 25.047184 -3.3647935e-17)
(101.65792 23.51037 0)
(107.81128 21.297095 1.7662974e-17)
(111.41921 17.797688 1.3972848e-17)
(114.25705 13.448192 -5.9063096e-19)
(115.1955 10.040742 -1.9020695e-17)
(116.31956 5.0011244 0)
(115.68688 2.7407812 -8.1944994e-18)
(76.77857 23.795489 -5.0966797e-17)
(91.49468 27.475741 3.3639803e-17)
(101.11795 25.583769 0)
(107.767 23.085864 0)
(111.64876 19.420913 0)
(114.82894 14.89296 -2.0569583e-17)
(116.00987 11.321627 6.3749411e-19)
(117.19153 5.9255415 0)
(116.91086 2.9044853 0)
(118.55625 3.0549955 0)
(118.78702 5.7665931 0)
(117.45646 11.141221 1.7626278e-19)
(116.24384 14.9411 1.0423302e-17)
(112.99233 19.760138 0)
(108.98692 23.74143 -2.2578522e-18)
(102.1113 26.617327 -6.7305025e-19)
(92.077974 28.953421 -2.7723726e-17)
(76.398796 27.00516 9.4452851e-17)
(120.11123 3.1592937 -2.849009e-18)
(119.78195 6.5505326 -4.1791461e-19)
(118.47061 12.375284 4.3094262e-18)
(117.06982 16.329913 -8.1900886e-20)
(113.60985 21.358886 -4.9687303e-18)
(109.31843 25.565033 7.46426e-18)
(102.12596 28.900022 -3.1294713e-18)
(91.790967 31.941588 3.5393471e-17)
(76.367255 31.716184 -4.7795479e-17)
(121.70019 3.243459 5.35563e-18)
(121.57581 6.3325928 0)
(120.2147 12.160998 6.7920829e-18)
(118.67175 16.295263 -3.8640536e-18)
(115.27053 21.573272 4.9591762e-18)
(110.96643 26.07969 -1.3832362e-17)
(103.93213 29.749068 -1.3338016e-17)
(93.906307 33.119472 7.8456015e-18)
(79.718303 33.51956 1.5970209e-18)
(123.4013 3.3262285 -2.5066615e-18)
(122.70858 7.1454685 -3.2640813e-19)
(121.33168 13.368769 -2.8690299e-18)
(119.71882 17.811403 4.4388573e-18)
(116.18214 23.335107 1.8276784e-18)
(111.64672 28.071058 7.2023647e-18)
(104.44216 32.173654 1.0486655e-17)
(94.314815 36.005736 4.2961604e-18)
(80.216232 37.536121 -4.9196356e-18)
(125.22306 3.4160283 3.9345185e-19)
(124.71264 6.8570803 -4.4102006e-19)
(123.3733 13.191491 -3.4512794e-19)
(121.52098 17.639902 1.1140337e-18)
(118.10829 23.380704 -1.7809924e-18)
(113.61036 28.406645 -2.2483678e-18)
(106.64204 32.814572 -2.8009745e-18)
(96.808788 36.95459 3.1630658e-18)
(83.106079 38.853413 -6.2527715e-18)
(127.14992 3.5071788 -3.980825e-19)
(126.02105 7.7670891 4.4636624e-19)
(124.62106 14.340437 -2.8419153e-19)
(122.79548 19.245939 -3.9467403e-20)
(119.25897 25.224476 -4.4004588e-19)
(114.53853 30.473934 1.5544912e-18)
(107.40664 35.270525 -2.6575917e-18)
(97.433721 39.796637 3.0083516e-18)
(83.674191 42.404887 0)
(129.16592 3.5885434 -1.2325528e-19)
(128.20715 7.4279777 -1.4938105e-19)
(126.86961 14.121976 -1.3122686e-19)
(124.76703 18.919004 -3.3234643e-19)
(121.34683 25.104944 -4.0769765e-19)
(116.66477 30.634713 1.601757e-18)
(109.72595 35.713995 -4.2893836e-18)
(99.972209 40.515963 6.6776846e-18)
(86.567814 43.297871 -4.4436864e-18)
(131.26834 3.6548445 6.7672056e-20)
(129.73596 8.3270306 7.2726918e-20)
(128.28494 15.190537 4.2420717e-19)
(126.26513 20.579152 7.5728773e-19)
(122.72786 26.985712 1.2180155e-18)
(117.8509 32.741811 -4.8061821e-19)
(110.76676 38.172707 -2.3176888e-18)
(100.89463 43.318858 -1.0229006e-18)
(87.438597 46.522544 -5.2059487e-18)
(133.45807 3.6994803 8.3008396e-19)
(132.03784 8.0048082 -7.3633798e-20)
(130.72662 14.954942 -2.015637e-19)
(128.37927 20.085381 -5.3976676e-19)
(124.93758 26.685039 1.3002717e-18)
(120.12038 32.699125 1.6266291e-18)
(113.20626 38.386473 -9.8339686e-18)
(103.56868 43.792489 2.4152145e-18)
(90.386259 47.092144 9.7059193e-18)
(91.48045 50.10457 -8.9378835e-18)
(104.78786 46.551172 3.2319858e-18)
(114.55767 40.823421 1.29814e-17)
(121.59451 34.816646 -1.3102567e-18)
(126.57314 28.573551 -5.1531304e-19)
(130.10617 21.773724 -3.1760276e-19)
(132.30453 15.92754 -1.6235554e-19)
(133.72995 8.845731 6.3493066e-20)
(135.73733 3.7228828 -2.3245544e-18)
(94.419027 50.446343 3.221712e-17)
(107.60017 46.790602 1.8888947e-18)
(117.12482 40.77848 -1.5750689e-17)
(124.00074 34.537597 -1.5666082e-19)
(128.88939 28.058868 -6.9361632e-19)
(132.30277 21.103929 1.3788659e-19)
(134.89775 15.606067 3.4672991e-18)
(136.21016 8.530293 0)
(138.09935 3.7229126 1.5021331e-18)
(95.688033 53.327367 -4.1009129e-17)
(109.08885 49.50709 1.9166863e-17)
(118.79127 43.164571 7.4383598e-18)
(125.76693 36.626617 -2.6982956e-20)
(130.79992 29.916662 -1.9489336e-18)
(134.2571 22.73361 1.1300148e-19)
(136.66619 16.413699 1.1686097e-18)
(137.97812 9.281539 -5.0931304e-18)
(140.53477 3.7061001 -6.1347157e-18)
(98.587588 53.456322 -7.2353227e-18)
(112.02078 49.519562 5.1896261e-19)
(121.45349 42.842847 -1.0741006e-18)
(128.27648 36.09244 0)
(133.20036 29.156676 2.1486512e-18)
(136.57938 21.955834 0)
(139.40223 16.028397 -4.7452986e-18)
(140.61414 8.9871916 1.2084184e-17)
(143.03042 3.6591003 -1.6616325e-18)
(100.10164 56.263118 -2.4962744e-18)
(113.73831 52.139948 -1.118521e-17)
(123.43857 45.140882 7.4646224e-19)
(130.32458 38.110876 0)
(135.386 30.938419 6.9157435e-18)
(138.67621 23.437297 -7.7902288e-18)
(141.28867 16.668537 -4.4375337e-19)
(142.49192 9.6435371 -1.5909051e-17)
(145.57869 3.5881051 7.9655004e-18)
(103.03285 56.14329 -2.5600696e-17)
(116.85903 52.006084 -5.2048873e-18)
(126.15113 44.520755 -7.7919917e-19)
(132.90016 37.309788 3.4276131e-19)
(137.83112 29.918375 2.8851005e-18)
(141.13893 22.561041 1.8259586e-17)
(144.1458 16.172621 -5.6806572e-19)
(145.209 9.2720285 8.9110522e-18)
(148.16285 3.4871004 0)
(104.8844 58.912564 1.7652806e-17)
(118.80017 54.433185 7.1518454e-18)
(128.46136 46.67867 -7.8734747e-19)
(135.1853 39.201068 6.905681e-19)
(140.26661 31.57561 -8.404395e-18)
(143.35116 23.844237 -1.0906326e-17)
(146.11872 16.619989 -7.781727e-19)
(147.19078 9.8718306 7.1304517e-19)
(150.76793 3.358875 0)
(107.87839 58.502175 0)
(122.10368 54.144839 5.0175754e-19)
(131.22211 45.722104 -4.2766058e-19)
(137.86431 38.143703 2.4271292e-17)
(142.73906 30.282996 7.1207006e-19)
(145.91703 22.871766 -2.8874577e-17)
(149.02088 16.005837 3.0087421e-17)
(149.95519 9.440465 -2.9441537e-17)
(153.36812 3.1931051 -3.1441544e-17)
(110.21152 61.244095 2.0039551e-17)
(124.33297 56.301406 -1.4046989e-17)
(133.73413 47.677933 8.8851473e-19)
(140.23501 39.83889 -2.5605936e-17)
(145.26946 31.765944 1.0658877e-18)
(148.22215 23.910959 2.9344594e-17)
(151.0193 16.254374 -3.2465919e-17)
(152.00545 9.9278915 3.0829259e-17)
(155.9407 3.0151497 -3.7871861e-18)
(158.68016 2.767001 3.5306832e-17)
(154.78766 9.3954198 -3.7331747e-17)
(153.94873 15.490896 0)
(150.91202 22.762115 2.1757777e-18)
(147.90906 30.240801 -4.1430527e-17)
(143.17956 38.531099 -3.6454484e-17)
(136.71743 46.349482 0)
(128.01295 55.764893 -9.6096221e-18)
(113.50015 60.42925 -1.9304675e-17)
(161.06538 2.4548273 0)
(156.8958 9.6490705 3.8631422e-17)
(155.97714 15.449544 0)
(153.38303 23.428803 2.5468078e-18)
(150.7053 31.326326 8.3005914e-17)
(145.87218 39.851598 3.9686725e-17)
(139.75027 47.929139 -4.1734093e-17)
(131.03611 57.677284 2.244729e-17)
(117.33126 63.521056 -6.5356149e-18)
(163.38854 2.074546 0)
(159.70337 8.9513585 0)
(158.86022 14.526786 5.073059e-17)
(156.1585 22.032461 0)
(153.44883 29.531274 -4.6956319e-17)
(149.05725 38.228687 5.2416011e-17)
(143.0073 46.152088 3.7971893e-17)
(135.22381 56.609309 2.8248057e-18)
(121.20787 61.994996 -1.4644753e-17)
(165.64489 1.6535617 0)
(161.7137 9.0296572 0)
(160.81871 14.287617 -5.1783672e-17)
(158.61617 22.396698 -5.4813172e-17)
(156.28699 30.270233 -6.0945834e-17)
(151.79081 39.195587 -5.7704822e-17)
(146.08451 47.220441 0)
(138.48493 57.856201 -5.7583406e-17)
(126.21898 64.680911 2.1572827e-17)
(167.75122 1.2290081 -8.3977429e-19)
(164.43573 8.2459903 9.2361704e-19)
(163.5947 13.183669 0)
(161.33741 20.774801 -5.4976802e-18)
(158.99528 28.241538 1.3471178e-16)
(154.99939 37.321128 -4.3792133e-18)
(149.3121 45.10088 -6.8667853e-17)
(142.46584 56.263095 6.3083585e-17)
(130.29913 62.57717 -6.3348869e-17)
(169.68007 0.79807157 9.1515765e-19)
(166.27427 8.2081841 -1.0082591e-18)
(165.42031 12.772139 0)
(163.69342 20.840298 7.0804802e-17)
(161.78121 28.634644 -7.95758e-17)
(157.70974 37.961147 4.9867264e-18)
(152.26133 45.782497 7.1024959e-17)
(145.55 56.836637 0)
(136.39977 64.420848 6.3203187e-17)
(171.41941 0.36918101 -9.9051972e-19)
(168.79647 7.3252342 -6.8322367e-17)
(168.02392 11.534347 2.2123709e-18)
(166.24422 18.980821 -7.7078711e-17)
(164.36877 26.359951 -9.0911295e-17)
(160.878 35.878932 0)
(155.28635 43.510051 0)
(148.90123 54.689985 9.5999073e-17)
(141.2843 61.621688 0)
(173.06544 -0.12735059 0)
(170.37732 7.1493805 7.0847793e-17)
(169.61728 10.996525 0)
(168.40097 18.797798 8.6499245e-17)
(167.03116 26.402793 8.2178862e-17)
(163.54793 36.205647 -1.0240929e-16)
(157.98408 44.071185 0)
(151.31361 54.58555 -1.0664602e-16)
(148.21431 62.249907 1.5692603e-16)
(173.89586 -0.56761031 0)
(172.60139 6.1429356 0)
(171.97038 9.6633026 2.6134817e-18)
(170.69743 16.746763 2.7616479e-18)
(169.68246 23.576021 -6.3495245e-18)
(166.72833 33.838062 1.057142e-16)
(161.27789 41.584353 0)
(153.83964 51.469589 0)
(152.70725 58.917642 -1.5670502e-16)
(175.4046 -0.73388083 2.3901266e-18)
(173.82281 6.0097545 -8.668868e-20)
(173.30579 8.9851201 -9.0351188e-17)
(172.60395 16.381745 0)
(171.59234 23.866388 0)
(169.23867 33.963602 6.310951e-18)
(163.44128 43.537537 1.0648328e-16)
(154.26263 52.841778 -3.3883934e-18)
(158.04936 59.062748 0)
(176.61652 -1.2256505 2.3989797e-18)
(175.66393 5.579559 -7.0901219e-20)
(175.44787 8.7846303 8.178537e-17)
(174.65498 16.488786 0)
(174.10405 23.982927 0)
(172.11173 35.261987 -6.5024517e-18)
(164.54743 45.31103 -3.2768961e-16)
(153.78196 54.407954 3.3527788e-18)
(152.02345 57.969631 -2.9769378e-16)
(177.47074 -1.1763925 0)
(176.62397 5.3900311 -1.6360236e-16)
(176.52401 8.0241912 0)
(176.39904 15.926521 -5.8448767e-18)
(175.94763 24.206139 6.3812869e-18)
(173.81806 35.627993 6.629534e-18)
(167.13661 47.352551 4.4103763e-16)
(150.42761 55.958686 -3.3316573e-18)
(135.35435 56.938755 2.8186369e-16)
(178.06119 -1.488972 -1.5259354e-16)
(178.14734 4.6683267 1.5593252e-16)
(178.42154 7.6897 -1.7648507e-16)
(178.32832 15.893716 -1.9203947e-16)
(178.20239 24.190505 2.1808425e-16)
(176.40897 37.272566 -2.3327393e-16)
(167.64037 48.896359 -2.2904548e-16)
(146.64567 55.822219 -1.8054686e-16)
(115.08216 67.630222 0)
(178.46121 -1.436129 3.0244004e-16)
(178.90745 4.2979401 -1.6221107e-16)
(179.22883 6.8911305 1.7072676e-16)
(179.96493 15.095477 -7.74507e-18)
(180.04319 24.420087 -2.100951e-16)
(177.78241 37.637916 -5.9961482e-18)
(167.98601 50.853763 0)
(140.96916 60.217914 1.7407418e-16)
(82.087242 77.516188 0)
(178.63804 -1.721877 -2.9120765e-16)
(180.18153 3.2881752 1.5494655e-16)
(180.83151 6.426971 -1.8006864e-16)
(181.89242 14.823689 1.9234169e-16)
(182.16671 24.198084 6.6413339e-18)
(180.55004 39.07562 2.1963238e-16)
(166.56821 53.367818 -2.27302e-16)
(130.50861 57.463196 -1.8947901e-16)
(22.80123 22.506936 2.074136e-16)
(178.55205 -1.8972854 1.4419968e-16)
(180.7235 2.6946191 -4.9226962e-18)
(181.34557 5.6144009 1.7191641e-16)
(183.49135 13.666702 -6.0681109e-18)
(184.06567 24.327156 6.5460426e-18)
(181.70284 39.278209 2.4563606e-16)
(163.24592 53.812052 4.5067724e-16)
(106.46552 50.816191 1.7773416e-16)
(-4.01068 13.870001 -1.9659487e-16)
(178.28928 -2.0933663 2.2131045e-18)
(181.80967 1.4327053 -2.3886145e-18)
(182.63053 5.0239652 -1.7077715e-16)
(185.44744 13.087131 -1.9592836e-16)
(185.95061 23.844598 2.1894895e-16)
(183.82376 40.086646 -4.8252938e-16)
(157.60525 55.031933 -4.4992435e-16)
(81.076646 46.185122 -1.8107508e-16)
(-4.9127566 23.478637 1.9439752e-16)
(177.81372 -2.2749297 -1.3307419e-16)
(182.03785 0.73568706 2.4361147e-18)
(182.85753 4.2035861 -5.0046095e-18)
(186.94545 11.537533 1.9000546e-16)
(187.73121 23.772312 -2.0490181e-16)
(183.62688 40.590849 2.3933242e-16)
(147.4358 55.093545 2.1552977e-16)
(51.58027 28.675827 1.7017087e-16)
(-10.361854 27.255601 -1.8517635e-16)
(-12.665063 27.56597 -3.1347298e-16)
(28.9972 17.804301 -2.0318665e-18)
(138.00061 54.309838 5.2970156e-18)
(184.17711 39.986606 -4.5046663e-18)
(189.04755 23.175221 0)
(188.68745 10.726904 3.290725e-18)
(183.8154 3.4902868 3.5333087e-16)
(182.84926 -0.61342122 1.6453902e-16)
(177.14231 -2.4518793 2.6183165e-16)
(-13.899065 27.937378 3.0403544e-16)
(16.59018 11.520692 0)
(127.71551 53.966505 0)
(183.98636 39.393865 6.6531016e-16)
(190.64843 21.582305 0)
(189.79943 8.3346097 -4.477221e-16)
(183.77473 2.277352 -5.4118402e-16)
(182.62084 -1.4270092 -1.560099e-16)
(176.27405 -2.5958762 1.2422278e-16)
(-14.761818 27.806903 2.3992635e-18)
(12.454202 16.066278 -1.9322019e-18)
(116.9364 50.046457 0)
(183.41217 38.574125 -6.5117806e-16)
(191.54331 20.88801 0)
(191.18936 7.3681525 4.4326756e-16)
(184.42229 1.4550373 3.4961222e-16)
(183.06252 -2.7769991 3.6354299e-18)
(175.22917 -2.7085913 -2.5088038e-16)
(-15.521003 28.469004 5.72234e-16)
(16.707243 26.850044 -5.2270653e-16)
(107.73266 49.56998 4.0538358e-18)
(182.39827 37.545997 0)
(192.75857 19.052621 -5.4617707e-16)
(191.89228 4.9407758 0)
(184.06875 0.23295463 -2.690384e-18)
(182.40181 -3.5836725 3.5725245e-18)
(174.01893 -2.7933062 -1.0124719e-18)
(-16.289201 29.168564 -5.49767e-16)
(19.563498 36.579528 -2.1030472e-17)
(99.875589 46.543553 6.4332489e-16)
(180.83951 36.786194 -4.7856454e-18)
(193.29162 18.175841 -1.4138378e-17)
(192.91149 3.8765259 0)
(184.3945 -0.67545468 -3.4315723e-16)
(182.45674 -4.8953175 0)
(172.66642 -2.8533238 0)
(-16.717238 30.57459 2.2665729e-18)
(20.745034 42.426901 5.0106612e-16)
(93.42547 47.341918 -1.261719e-15)
(179.15705 35.243677 7.1313069e-16)
(194.07722 16.076062 5.4005634e-16)
(193.19025 1.4623113 4.5443201e-16)
(183.75108 -1.917829 3.3258223e-16)
(181.45041 -5.6439493 3.415866e-18)
(171.18429 -2.889374 -2.151318e-16)
(-16.803767 31.713376 2.2356745e-18)
(19.565101 46.807461 -5.2421551e-16)
(85.496774 43.92902 6.3232094e-16)
(176.57324 34.670951 -6.9924847e-16)
(194.23698 15.010965 4.0835048e-18)