/*--------------------------------*- C++ -*----------------------------------*\
  =========                 |
  \\      /  F ield         | OpenFOAM: The Open Source CFD Toolbox
   \\    /   O peration     | Website:  https://openfoam.org
    \\  /    A nd           | Version:  11
     \\/     M anipulation  |
\*---------------------------------------------------------------------------*/
FoamFile
{
    format      ascii;
    class       volVectorField;
    location    "0.3592367";
    object      U;
}
// * * * * * * * * * * * * * * * * * * * * * * * * * * * * * * * * * * * * * //

dimensions      [0 1 -1 0 0 0 0];

internalField   nonuniform List<vector> 
880
(
(24.99999999999999 -2.806242235878745e-12 0)
(24.99999998203183 -1.217463039820429e-08 0)
(24.99829022149984 -0.0005554027410768797 0)
(24.71736158244125 0.007624681255760765 0)
(24.99999999998872 -2.83143680927533e-11 0)
(24.99999994445427 -7.039929863931244e-08 0)
(24.99747955446655 -0.001722097924396391 0)
(24.63269500979955 -0.1593360123179648 0)
(24.99999999963697 -2.437867224190227e-10 0)
(24.99999976102305 -2.871904799965054e-07 0)
(24.99514550321785 -0.003584496236352761 0)
(24.51360079557395 -0.2644845202154689 0)
(24.99999999829957 1.052139131790242e-09 0)
(24.9999988181946 -1.16786406764356e-06 0)
(24.98908573089939 -0.007016814627856617 0)
(24.13724393499177 -0.4137218541811253 0)
(25.0000000111903 -4.11426790158215e-09 0)
(24.99999998001881 8.77856699250758e-09 0)
(24.99999953213299 -9.298624438820385e-07 0)
(24.99999314126271 -1.184388878932463e-05 0)
(24.99999376792576 -4.448730073183242e-06 0)
(24.99996304595517 -1.867023339873143e-05 0)
(24.99985589033688 1.067172262129389e-05 0)
(25.00017477378443 -0.001107689143307452 0)
(24.97171060767885 -0.01019839149636231 0)
(24.95164280464277 -0.006360470032689011 0)
(24.92414636223847 0.01073095545476048 0)
(24.91407745284883 -0.06683456213704947 0)
(23.4026398864513 -0.09542184098032536 0)
(22.69017171077239 0.6348509409442955 0)
(22.26855277864539 1.335027877579702 0)
(22.2443004228247 1.746229506304994 0)
(24.99988402682209 -6.197388734229509e-06 0)
(24.9996066148246 -0.0003640895190271101 0)
(24.9992537482156 -0.001529064907986122 0)
(24.99747568405139 -0.004522256679848942 0)
(24.99801875461292 -0.0006931055503658194 0)
(24.99019676549324 -0.0003535609999603622 0)
(24.97715020362758 0.005493425955669156 0)
(24.95441925691553 0.008911114337104134 0)
(24.75586030560257 -0.0108020715115611 0)
(24.63017720141258 0.09839506895750152 0)
(24.4616501907464 0.2785204269395647 0)
(24.31834544971903 0.4062586647346 0)
(21.98167033728739 2.340709033198499 0)
(21.98732436905586 2.77977333552899 0)
(21.88511992048015 3.317363363502341 0)
(22.3392570898825 3.758411556727398 0)
(23.38567421607843 4.323116035044737 0)
(24.1142228414825 4.173024187737224 0)
(24.45809714741229 3.76626922389437 0)
(24.81732851600114 3.316636136376898 0)
(24.07885752455762 0.7464000753518332 0)
(24.09385615812097 1.10440365682328 0)
(24.19611629362948 1.349490235564295 0)
(24.38213204615423 1.475562717357387 0)
(24.87564033761878 0.03529372340979322 0)
(24.7719019454017 0.1155049385338112 0)
(24.67953864805292 0.2412740765421364 0)
(24.63421322627782 0.3945581769043514 0)
(24.98787366269264 -0.01055576555713652 0)
(24.9723627568814 -0.02426024340548359 0)
(24.95024674196184 -0.04404411241057962 0)
(24.92405091564417 -0.0705623333612046 0)
(24.9014906929468 -0.1010175666732815 0)
(24.88771059242239 -0.1311321233766304 0)
(24.88284577750325 -0.1445278969578565 0)
(24.88832677642392 -0.1379820522652208 0)
(24.63263619253979 0.5574767889810703 0)
(24.67445608763048 0.7120266743850101 0)
(24.76092146152821 0.8382263766761459 0)
(24.87669073421216 0.8925706867693245 0)
(24.54953830077273 1.608775403176258 0)
(24.75257774008848 1.65494691079946 0)
(24.94052572119482 1.627184292881436 0)
(25.09323234630326 1.555468095302832 0)
(24.99115116112077 2.905793190557138 0)
(25.17872718155026 2.489599440944055 0)
(25.29112383955346 2.094358798778767 0)
(25.36345259369168 1.778076297609614 0)
(25.42831430914294 1.377471047009827 0)
(25.24435082011049 1.453732896649617 0)
(24.99915930123138 0.9127407969213542 0)
(24.8960742536565 -0.1212262370532746 0)
(24.54804958606964 1.559497517389126 0)
(25.34338483969506 1.289318793840756 0)
(25.14340388541745 0.8617805307440568 0)
(24.90333219985586 -0.09618307092172672 0)
(19.15444774835377 1.728677610600658 0)
(25.15904932564669 1.297217066396472 0)
(25.25814716999258 0.7517624161429969 0)
(24.91621888459504 -0.08053457636712309 0)
(14.12714705602037 2.095957485522535 0)
(23.702338224871 1.628797570880546 0)
(25.27711870662215 0.7747427157902987 0)
(24.94896385315642 -0.09185114967165948 0)
(24.9545305104681 -0.06679547582808121 0)
(25.21733372215051 0.718224080549294 0)
(22.05148620404603 2.269349557010036 0)
(12.48985380243428 3.860300835528068 0)
(24.83136563107317 -0.08882887296056768 0)
(24.99459818089811 0.8082384447162143 0)
(20.60601066245344 3.314556177511154 0)
(12.79858414465218 5.640550829337522 0)
(24.78950666477485 -0.1158510076351752 0)
(24.47445165248193 1.156900262620884 0)
(18.82497769772815 4.649474210758325 0)
(12.64752885991312 7.078642392022927 0)
(24.69831754211846 -0.1634664580163642 0)
(23.59934932360764 1.92881130675934 0)
(17.58776970105851 6.058367024251963 0)
(13.13583245253127 8.1441785606526 0)
(14.04754539047388 8.855728751509638 0)
(16.96792259947656 7.29379496403932 0)
(22.43003755198103 3.156624007054551 0)
(24.518319088873 -0.1864962628486392 0)
(15.13573008202904 9.393294708108499 0)
(17.24087910847786 8.219374559747967 0)
(21.21730416394375 4.641933992056162 0)
(24.19844995562618 -0.07129944297380277 0)
(16.37658981160273 9.684265618978621 0)
(18.11055367496045 8.754313119692183 0)
(20.70755763190123 5.995915701680136 0)
(23.69388775603926 0.2364165866976507 0)
(17.54806338122763 9.756787603505467 0)
(19.39762201822112 8.854126974119461 0)
(20.87608832694117 7.035974055546192 0)
(23.19628064332063 0.7229145341163423 0)
(22.91098092072738 0.8509627250506581 0)
(22.04903839024409 7.091144436887788 0)
(21.12109088760966 8.806652344547096 0)
(18.96385951180996 9.897792134894704 0)
(23.45621968563675 0.6463834328651717 0)
(23.50851268316963 6.648120968861833 0)
(23.10798373331865 8.415243652812114 0)
(20.90706533672913 9.810493260385803 0)
(24.04000487977448 0.3441154364359488 0)
(24.93162730986861 5.875074629221397 0)
(25.19364628041462 7.620151128430377 0)
(23.44735824624164 9.238276626526874 0)
(24.51868742925315 -0.2494422643070357 0)
(26.06332713316471 4.606850059675932 0)
(27.16639029783487 6.226688112603783 0)
(26.40060080117038 7.616387668413754 0)
(24.8841964873515 -0.3075635216068363 0)
(26.92926242022847 3.628092949435286 0)
(29.04979748764638 4.804324890873363 0)
(30.6834676990658 4.759028526799309 0)
(25.3004698256405 -0.498951259296532 0)
(27.49766053926234 2.601741065633642 0)
(30.11084915166876 3.390623242218604 0)
(34.00251737765262 0.7046202820314141 0)
(25.54327507148295 -0.5425580430774841 0)
(27.54996126786206 1.647316642812569 0)
(30.83477253141844 1.256059091974463 0)
(36.34819473977935 -4.253936496442767 0)
(25.65369400385682 -0.5437376251748105 0)
(27.22445626982967 1.022790589761601 0)
(30.31237550358314 -0.3107783183313371 0)
(37.77934611459337 -9.251927681180545 0)
(34.01921911789363 -7.32806159080932 0)
(29.13040582461967 -1.417310047131713 0)
(26.94233143907369 0.3554876865962003 0)
(25.69371495151256 -0.5467504308557751 0)
(25.63447491142977 -3.215021424995226 0)
(28.24646627107025 -1.93657054507171 0)
(26.64811133856309 -0.1001448045968737 0)
(25.62905553140317 -0.4720557261801838 0)
(23.08906231234063 -3.612736975319645 0)
(27.75006284109735 -2.841729456373569 0)
(26.39349906002491 -0.5594320397873407 0)
(25.50626854589785 -0.3592903747080188 0)
(19.90313100440853 -3.659484425478313 0)
(26.97783116635432 -3.450133917941913 0)
(26.0493088109445 -0.9532387669122616 0)
(25.38979840132265 -0.2751065409384221 0)
(18.08528826073645 -4.760151658975661 0)
(25.7242891434199 -4.391146173439029 0)
(25.48601730223479 -1.289825053245635 0)
(25.18021872908074 -0.2156702031352163 0)
(15.43325608161046 -6.813619494831625 0)
(24.08649379381415 -4.635061525787355 0)
(24.89652037368562 -1.125737191744146 0)
(25.00123634227759 -0.1079265320353435 0)
(14.37828865789441 -6.976663898124563 0)
(23.02532314861291 -4.048547361503695 0)
(24.6519285310679 -0.7359099492776151 0)
(24.97081072449953 -0.04913571564871402 0)
(14.33665638303324 -5.861273115722946 0)
(22.80033359900816 -3.600476029744068 0)
(24.67303613156783 -0.6014562092528116 0)
(24.9760847360704 -0.03607951959066892 0)
(14.22226422868109 -0.6632555314246904 0)
(20.34303752734511 -0.1132489896292062 0)
(23.64825554730086 0.01057949999113842 0)
(24.8555934161666 0.00198245017205698 0)
(14.20384992579643 -1.755753237184607 0)
(20.33967976965539 -0.5378038229697286 0)
(23.6631683066092 0.0006304412564774272 0)
(24.85253648069623 0.004365029923438059 0)
(14.41816755615031 -3.256077087583797 0)
(20.34759317282428 -0.9879088940969737 0)
(23.70248991663928 -0.07175786190076158 0)
(24.85178640517827 0.0002502329466858908 0)
(14.46998028913159 -4.649570717577653 0)
(20.55619199943177 -1.352439590108112 0)
(23.80222464268872 -0.1947186186683321 0)
(24.8601727026365 -0.0113905589195416 0)
(14.33665638304532 5.861273115701448 0)
(22.80033359903418 3.600476029736718 0)
(24.67303613168965 0.6014562092059386 0)
(24.97608473618127 0.03607951957130388 0)
(14.37828865790645 6.97666389809042 0)
(23.0253231486982 4.048547361556701 0)
(24.65192853113874 0.7359099492626709 0)
(24.97081072462011 0.04913571569491011 0)
(15.43325608165371 6.813619494851139 0)
(24.08649379383395 4.635061525826059 0)
(24.89652037367552 1.125737191788378 0)
(25.00123634230478 0.1079265320856811 0)
(18.08528826076519 4.760151658978602 0)
(25.72428914354676 4.391146173512524 0)
(25.48601730225673 1.289825053280235 0)
(25.18021872906135 0.2156702031830929 0)
(25.69371495148178 0.5467504307973814 0)
(26.94233143908007 -0.3554876866303788 0)
(29.13040582464551 1.417310047123968 0)
(34.01921911781843 7.328061590937342 0)
(25.62905553141396 0.4720557261290112 0)
(26.64811133857065 0.1001448045895784 0)
(28.24646627113988 1.936570545078266 0)
(25.63447491150824 3.215021425099929 0)
(25.50626854582983 0.3592903746616526 0)
(26.39349905996093 0.5594320398124331 0)
(27.75006284118297 2.841729456506251 0)
(23.0890623122648 3.612736975362244 0)
(25.38979840122344 0.2751065409176318 0)
(26.04930881087065 0.9532387668837907 0)
(26.97783116637495 3.450133918019379 0)
(19.90313100448569 3.65948442550832 0)
(37.77934611462477 9.251927681321314 0)
(30.3123755035671 0.3107783183258835 0)
(27.22445626983677 -1.022790589768511 0)
(25.65369400383253 0.5437376251272994 0)
(36.34819473979021 4.253936496492078 0)
(30.83477253145877 -1.256059091933129 0)
(27.54996126789419 -1.647316642818798 0)
(25.54327507149476 0.5425580430902947 0)
(34.00251737767078 -0.7046202819898967 0)
(30.11084915157163 -3.390623242195308 0)
(27.49766053928039 -2.601741065609402 0)
(25.30046982550097 0.4989512593650606 0)
(30.68346769901592 -4.759028526778416 0)
(29.04979748768395 -4.804324890843215 0)
(26.92926242034995 -3.628092949409907 0)
(24.88419648721322 0.3075635216944698 0)
(22.91098092063893 -0.8509627250314021 0)
(22.04903839018242 -7.091144436891049 0)
(21.12109088756351 -8.80665234454916 0)
(18.96385951183435 -9.897792134898072 0)
(23.45621968562373 -0.646383432820781 0)
(23.50851268317512 -6.648120968856968 0)
(23.10798373325794 -8.415243652789732 0)
(20.90706533675251 -9.810493260391102 0)
(24.04000487981707 -0.3441154364158275 0)
(24.93162730989953 -5.875074629231467 0)
(25.1936462803679 -7.620151128401492 0)
(23.44735824623768 -9.238276626513457 0)
(24.51868742920976 0.2494422643766254 0)
(26.06332713323836 -4.606850059654545 0)
(27.16639029786123 -6.226688112574685 0)
(26.4006008011302 -7.616387668398027 0)
(17.54806338124768 -9.756787603511242 0)
(19.39762201825395 -8.854126974145379 0)
(20.87608832690236 -7.035974055543668 0)
(23.19628064318796 -0.7229145341326438 0)
(16.37658981163946 -9.684265618998889 0)
(18.11055367500327 -8.754313119708732 0)
(20.70755763188315 -5.995915701688173 0)
(23.69388775601128 -0.2364165866944488 0)
(15.13573008203907 -9.393294708121608 0)
(17.2408791085492 -8.219374559756748 0)
(21.21730416396466 -4.641933992030751 0)
(24.19844995552966 0.07129944298079367 0)
(14.0475453905064 -8.85572875151238 0)
(16.96792259948203 -7.293794964008246 0)
(22.4300375518953 -3.156624007020715 0)
(24.51831908886135 0.1864962628502398 0)
(24.95453051050573 0.06679547585081429 0)
(25.21733372217163 -0.7182240805235643 0)
(22.05148620405901 -2.269349557022375 0)
(12.48985380248445 -3.860300835536888 0)
(24.83136563098213 0.08882887295885326 0)
(24.99459818089049 -0.8082384446724779 0)
(20.60601066247949 -3.314556177511597 0)
(12.79858414469527 -5.640550829361673 0)
(24.7895066646219 0.1158510076285512 0)
(24.47445165235057 -1.156900262556705 0)
(18.82497769778148 -4.649474210735419 0)
(12.64752885994652 -7.078642392031467 0)
(24.69831754206944 0.163466458019543 0)
(23.5993493236062 -1.928811306681282 0)
(17.58776970113232 -6.05836702423132 0)
(13.1358324525412 -8.144178560654273 0)
(24.94896385313303 0.0918511496854761 0)
(24.91621888462581 0.08053457637973817 0)
(24.90333219977548 0.09618307095136032 0)
(24.89607425364781 0.1212262370496378 0)
(25.27711870670143 -0.7747427157917718 0)
(25.25814717006039 -0.7517624161339195 0)
(25.14340388532137 -0.8617805307304948 0)
(24.99915930122141 -0.9127407969374929 0)
(23.70233822497038 -1.628797570900019 0)
(25.15904932567278 -1.297217066401466 0)
(25.34338483975658 -1.289318793853861 0)
(25.24435082013713 -1.453732896642408 0)
(14.12714705609178 -2.095957485527033 0)
(19.15444774842045 -1.72867761059633 0)
(24.54804958601908 -1.559497517362078 0)
(25.42831430913491 -1.377471046984214 0)
(24.88832677637075 0.137982052272427 0)
(24.87669073414065 -0.8925706867479808 0)
(25.09323234629302 -1.555468095277682 0)
(25.36345259375704 -1.778076297561931 0)
(24.88284577757065 0.1445278969386299 0)
(24.76092146149937 -0.8382263766692447 0)
(24.940525721261 -1.627184292862444 0)
(25.29112383958735 -2.09435879873851 0)
(24.88771059241106 0.1311321233673158 0)
(24.67445608762537 -0.712026674332971 0)
(24.75257774010468 -1.654946910809173 0)
(25.17872718160278 -2.48959944094381 0)
(24.90149069300038 0.1010175665923785 0)
(24.63263619258324 -0.5574767889597851 0)
(24.54953830079686 -1.608775403173137 0)
(24.99115116113812 -2.905793190548701 0)
(24.98787366269495 0.01055576547200058 0)
(24.87564033772324 -0.03529372331596037 0)
(24.07885752458355 -0.7464000753444991 0)
(23.38567421609151 -4.32311603502531 0)
(24.97236275689705 0.02426024328952928 0)
(24.77190194548049 -0.1155049384624647 0)
(24.09385615815724 -1.104403656789244 0)
(24.11422284155008 -4.173024187747199 0)
(24.95024674185465 0.04404411238365071 0)
(24.67953864819693 -0.2412740764714407 0)
(24.1961162936752 -1.349490235565164 0)
(24.45809714754695 -3.766269223947314 0)
(24.92405091566543 0.07056233329308589 0)
(24.63421322628876 -0.3945581768507038 0)
(24.38213204626432 -1.475562717324507 0)
(24.81732851605084 -3.316636136401773 0)
(22.33925708990782 -3.758411556715193 0)
(24.31834544969674 -0.4062586647375202 0)
(24.95441925699113 -0.008911114242294552 0)
(24.99747568403259 0.004522256666582283 0)
(21.88511992051355 -3.317363363486932 0)
(24.46165019073544 -0.2785204269436247 0)
(24.97715020368777 -0.005493425917691944 0)
(24.9992537482491 0.001529064876962729 0)
(21.98732436911908 -2.779773335521476 0)
(24.63017720146907 -0.09839506896342085 0)
(24.99019676565061 0.0003535610069660295 0)
(24.99960661479734 0.0003640893973587692 0)
(21.98167033726858 -2.340709033179759 0)
(24.75586030567469 0.01080207150406126 0)
(24.99801875468959 0.00069310556551782 0)
(24.99988402685024 6.197403001245252e-06 0)
(22.24430042280401 -1.746229506290588 0)
(24.91407745283983 0.06683456214156185 0)
(25.0001747738198 0.001107689162594036 0)
(24.99999314123308 1.184393202311371e-05 0)
(22.26855277859386 -1.335027877566621 0)
(24.92414636225048 -0.01073095545794028 0)
(24.99985589037205 -1.067172345864393e-05 0)
(24.99999953209123 9.298717141203484e-07 0)
(22.69017171061996 -0.6348509409531184 0)
(24.9516428046695 0.006360470023795983 0)
(24.99996304597278 1.867022414941909e-05 0)
(24.99999998004261 -8.823983725755051e-09 0)
(23.40263988621913 0.09542184093330371 0)
(24.97171060774994 0.01019839149107734 0)
(24.99999376806326 4.44874313093077e-06 0)
(25.00000001114298 4.117435968412989e-09 0)
(25.00000000000002 5.955024975100089e-12 0)
(24.99999998201898 1.21579209019745e-08 0)
(24.99829022149337 0.0005554027231781288 0)
(24.71736158241033 -0.007624681099035044 0)
(24.99999999997173 4.182472249542283e-11 0)
(24.99999994453042 7.037582624252837e-08 0)
(24.99747955442533 0.001722097902017232 0)
(24.63269500962616 0.1593360123885552 0)
(24.99999999962681 2.564935382195057e-10 0)
(24.99999976109916 2.871941784839121e-07 0)
(24.9951455032355 0.003584496222998591 0)
(24.51360079522507 0.264484520146087 0)
(24.99999999828481 -1.026247532690745e-09 0)
(24.99999881823999 1.167876722155839e-06 0)
(24.98908573090494 0.007016814617568174 0)
(24.13724393470716 0.4137218541254594 0)
(24.52527387491602 1.098698933823394e-10 0)
(24.35979608942891 0.1495548513947057 0)
(23.97404790697475 0.1736328907301709 0)
(23.03855445975396 0.01871718635488409 0)
(24.35979608964525 -0.1495548511777639 0)
(24.08843713493441 4.096640347005371e-11 0)
(23.40957666744528 -0.06031087840886996 0)
(21.96066966045331 -0.4863798905577613 0)
(23.97404790741685 -0.1736328906372423 0)
(23.40957666780154 0.06031087848481462 0)
(22.12862260788491 6.328752169285829e-11 0)
(20.03096576416449 -0.5819752592785512 0)
(23.03855446014341 -0.01871718637550672 0)
(21.96066966101179 0.4863798905001499 0)
(20.03096576444085 0.5819752592321552 0)
(17.78919339569984 -2.400771502715271e-10 0)
(17.25879006932303 2.521585066407243 0)
(17.89935647989347 2.9173501943472 0)
(19.54340145709788 2.655844152075364 0)
(21.08694159321051 1.887815416648471 0)
(18.24491550448501 4.246788555451874 0)
(18.30813014146479 4.203003258312878 0)
(19.0406636238693 4.114781837721711 0)
(20.07398207838046 3.952547572639423 0)
(17.68386246421289 5.193201576254988 0)
(18.8505790397229 4.491073627589448 0)
(19.52792794283375 4.691879400422612 0)
(20.05234044185301 4.563749993332285 0)
(18.33525782947941 5.754220352251044 0)
(19.70555974771813 4.717194625342993 0)
(20.2057198701428 4.891233320128836 0)
(20.49070443458811 4.805574838818709 0)
(20.79096869228344 4.932706225845863 0)
(21.02926066428713 5.061731215144435 0)
(21.40435394694997 5.120579505255463 0)
(22.16085043926252 5.280348661255005 0)
(20.72900604609201 4.994247757609635 0)
(21.03869205013987 5.101570074712693 0)
(21.53836976926214 5.117413356420844 0)
(22.65128767759649 5.50067175413897 0)
(20.4728505502025 4.931259403858604 0)
(20.97344083847338 5.105923046574055 0)
(21.55536791378006 5.158190971509104 0)
(24.10137040733064 5.943007067553577 0)
(18.97617242595978 5.851120363630796 0)
(19.59933247697967 5.875948447133552 0)
(20.50317583254714 5.734759185013703 0)
(25.83118988684011 7.125898100883437 0)
(25.81525486608642 3.187582022215782 0)
(26.40945190408321 0.8090348693688799 0)
(25.72185680212133 0.4870789508864481 0)
(25.5950984961393 0.3820584813446095 0)
(28.37610694200888 2.19878242294649 0)
(28.69592315884754 0.3397476205201063 0)
(27.56801951711945 0.2832496971344349 0)
(26.89269671712944 0.3137579006190329 0)
(31.54902139082284 1.904715288289049 0)
(30.14995066152074 0.04577655234818306 0)
(28.75773705716502 0.05144591915325084 0)
(27.77933195509498 0.09386632136937896 0)
(25.07990665898555 1.987933690648233 0)
(24.21747444226333 0.6522705786658952 0)
(24.07232445591858 0.08970295520262923 0)
(24.15978644760989 -0.2164446216758977 0)
(25.66542844249833 0.3867735112754814 0)
(25.71344087316736 0.3198132838688526 0)
(25.70095793035921 0.2051384810911643 0)
(25.65343450398713 0.1716687956104316 0)
(26.53712428152312 0.3417379041081525 0)
(26.22460168130144 0.2915143292973034 0)
(25.94663492123134 0.1915950072712835 0)
(25.72127508416342 0.1306868284621644 0)
(27.15030259849213 0.1478464080843039 0)
(26.59224801880758 0.1471935017777322 0)
(26.09881133456707 0.09830365980598796 0)
(25.66598482817484 0.08514193905047177 0)
(24.13124055120528 -0.462250234068852 0)
(23.90332138172667 -0.620733783447823 0)
(23.70232382670612 -0.7154384137115137 0)
(23.36994397111287 -0.6662482061029801 0)
(25.20553876377179 0.7717152032651834 0)
(20.09243274981618 5.098289925349964 0)
(13.71996744306957 3.924538009607283 0)
(9.345220054341205 1.059327659371452 0)
(24.62761321250928 1.255361793416992 0)
(16.07229557095577 4.951615149720817 0)
(8.863825072492956 2.740834337261057 0)
(4.471042776680293 -0.176436028776911 0)
(23.4357008253678 1.295046110069141 0)
(11.69337186066801 3.634457538871064 0)
(3.139686329161247 2.029143153683389 0)
(-0.7690237513212619 0.2418305880455704 0)
(19.41398840053649 -0.7286156132499617 0)
(7.302855057054779 -0.7957913328681514 0)
(0.2337298794023992 0.5429956397057463 0)
(-2.595586063700065 0.1743968380364855 0)
(8.569161800497042 2.693899240680927 0)
(10.58536049564146 4.559498412280809 0)
(11.49760563784227 6.28034732447268 0)
(12.44951948078912 7.625633456899683 0)
(6.136693625872518 1.993693052884111 0)
(9.511375121206669 4.411052955866128 0)
(11.20128470269058 6.226222228351994 0)
(12.40431065881259 7.672156795383836 0)
(2.933325906936795 0.01198547277554971 0)
(7.442493452818367 3.331970682414074 0)
(10.26714593396227 6.036196683118645 0)
(12.02122735303044 7.596919376598831 0)
(0.2395638569824065 -0.1062501390838105 0)
(3.470296808028021 2.475992303753295 0)
(7.538061524610536 3.976199348639804 0)
(10.63465635355074 5.463984467098705 0)
(13.63848835991661 8.986485603173145 0)
(14.77053524102336 10.00814905881997 0)
(15.91944992614414 10.56578576490666 0)
(16.81353087939534 10.85599255925691 0)
(13.55816226480352 8.921000300658861 0)
(14.71382384402146 9.954784329467632 0)
(15.82396681055168 10.54167245746881 0)
(16.6963999905471 10.88142172065675 0)
(13.2358577338293 8.764173354774611 0)
(14.5173786943463 9.775722479012121 0)
(15.74209383569779 10.47462725791294 0)
(16.62307252275312 10.96198161841309 0)
(13.11737791462986 6.748234203081246 0)
(14.6720335047646 8.448556596567562 0)
(15.76611800235028 10.30180425946445 0)
(16.64566038914754 10.93921511784507 0)
(17.82792198639838 11.27568567623936 0)
(19.42337717196649 11.76984940712598 0)
(21.77504724034082 11.69322640507809 0)
(24.77797892017775 10.42096139525814 0)
(17.62278218198244 11.27976562776897 0)
(19.07492437943824 11.72985456346987 0)
(21.21153606230788 11.74952331114652 0)
(24.97582464881332 12.47347414334046 0)
(17.47370548009978 11.36886002253698 0)
(18.72297440069877 11.78346206878102 0)
(21.34547413196139 12.58553911192235 0)
(31.48515517874438 18.4588386831579 0)
(17.43735626685712 11.39312484786206 0)
(18.64011930794573 11.79211315019312 0)
(22.06806940481547 13.17483951820752 0)
(43.24393960721626 25.51573539272795 0)
(30.59387800113246 5.261209479793218 0)
(32.03811744110002 -3.582407489590311 0)
(12.65433434871094 8.691265160810691 0)
(7.857739304055327 30.84080730463925 0)
(32.23135088407103 4.900230137314557 0)
(26.46680219207401 -1.952391252589297 0)
(8.976522786539768 17.41678754948642 0)
(8.448204947825475 29.02682789300918 0)
(31.97400840994121 3.292518441331276 0)
(17.20846654020162 -4.302862107781641 0)
(3.828907958521585 21.32886417739101 0)
(4.611996216698309 29.02654847044649 0)
(20.30819289318417 -8.299021908424557 0)
(7.328062108592485 -0.5716258882587019 0)
(2.088275715858829 24.81806491445415 0)
(2.648158141102337 28.73392712456251 0)
(7.017563623089239 24.62065721401655 0)
(2.699534047862363 17.69704447446185 0)
(-0.7734198374933463 14.87151430881859 0)
(-2.833102721652276 9.937941193976974 0)
(6.712189137868028 23.57248170705966 0)
(1.915035046265225 19.24742222152476 0)
(-0.4568351939482295 14.98168776717551 0)
(-1.253586531995969 7.687167043988116 0)
(3.278199110929136 22.61474551719854 0)
(1.430396976773287 18.10666142053698 0)
(-0.3154040671817861 12.35859853039987 0)
(-0.8159268195037931 4.900429154589079 0)
(0.7861749824843798 22.03873585981065 0)
(-0.4547227704750142 17.36656372472381 0)
(-1.909240957051516 10.96803151318237 0)
(-1.738857976306327 3.285186046635664 0)
(-6.073806963185369 3.289737561518133 0)
(-2.016700156199109 0.2621475462141595 0)
(2.429012007561137 -2.420508793870287 0)
(4.457013485121347 -6.632203619944019 0)
(-6.812424393130135 3.05111572062008 0)
(-5.955731162970778 0.3487348483057846 0)
(-1.266734661692932 -0.7973666787296043 0)
(2.67915789366474 -5.575509035005025 0)
(-6.212883484249041 2.12668982216168 0)
(-7.806393320579676 0.6687122352716616 0)
(-4.517884364672739 0.3046541026793377 0)
(0.03247028445760557 -4.086221952217429 0)
(-4.585739094842382 2.184279669134867 0)
(-7.136627266943141 2.668573681066457 0)
(-5.229461971005311 3.07271305756188 0)
(-0.6498887738162196 -1.052230947140203 0)
(2.361392416697389 -6.935596258427733 0)
(2.293302682042848 -7.541106378428108 0)
(3.156934021021877 -7.215770727188719 0)
(4.462991336328674 -6.469160321579044 0)
(1.465765288609773 -6.803518246620371 0)
(1.926647744016235 -6.275247223346685 0)
(3.127044406096404 -5.840695032233274 0)
(3.899687846574948 -4.924388777274903 0)
(0.45675073721864 -4.750777848838951 0)
(0.658520190826663 -3.491316933968556 0)
(1.655354959921788 -3.003655738431977 0)
(2.137352270638408 -1.923668288260401 0)
(1.658902573843318 -1.986373383222918 0)
(1.311120466054873 -0.7525115979832004 0)
(1.87705993347977 -0.3122932996932819 0)
(1.65320351865678 0.6367165726169575 0)
(0.780074966770017 1.147321557693239 0)
(-0.03299913444419451 1.284716273183089 0)
(-0.6587181583813564 0.9682860463066316 0)
(-0.9813115562448546 0.3366275624744612 0)
(1.587007089125365 -0.9804467696602012 0)
(0.586313154762254 -0.481535758230772 0)
(-0.2570321586432082 -0.05723580925758691 0)
(-0.6750651575721294 -0.02422474054844545 0)
(3.363750178318515 -3.80600231508984 0)
(2.444065378653147 -2.796863212485337 0)
(1.338041238027662 -1.704879532668206 0)
(0.6067355487873523 -0.6385202506646559 0)
(5.10701940143448 -4.816685525027816 0)
(4.969874191173647 -3.302400385089213 0)
(4.187893121001465 -2.022005508702339 0)
(3.720955864379908 -0.7293626545418891 0)
(-0.9813115562471445 -0.3366275624515786 0)
(-0.6750651575721581 0.02422474055822392 0)
(0.6067355487875803 0.6385202506592323 0)
(3.720955864381232 0.729362654522388 0)
(-0.6587181583851945 -0.968286046287011 0)
(-0.2570321586440938 0.05723580926710792 0)
(1.338041238032057 1.704879532665715 0)
(4.187893121029689 2.022005508683413 0)
(-0.03299913444801643 -1.284716273169977 0)
(0.5863131547607192 0.4815357582378703 0)
(2.444065378652761 2.796863212483707 0)
(4.969874191193764 3.302400385090085 0)
(0.7800749667674641 -1.14732155768256 0)
(1.587007089128071 0.9804467696653743 0)
(3.363750178310235 3.806002315092993 0)
(5.10701940143705 4.816685525036207 0)
(4.462991336310938 6.469160321553301 0)
(3.156934021024804 7.215770727176616 0)
(2.293302682046007 7.541106378416821 0)
(2.361392416712195 6.935596258414999 0)
(3.899687846574613 4.924388777274989 0)
(3.127044406105237 5.840695032226944 0)
(1.926647744032179 6.27524722333819 0)
(1.465765288630827 6.80351824660754 0)
(2.137352270639537 1.923668288258338 0)
(1.655354959925078 3.00365573842439 0)
(0.658520190837504 3.491316933968693 0)
(0.4567507372323097 4.750777848833048 0)
(1.653203518658488 -0.6367165726130233 0)
(1.877059933487424 0.3122932996976377 0)
(1.311120466064145 0.7525115979903253 0)
(1.658902573851913 1.986373383230846 0)
(-0.649888773798736 1.052230947142458 0)
(-5.229461970968561 -3.072713057533752 0)
(-7.136627266906386 -2.668573681035531 0)
(-4.585739094815037 -2.184279669126409 0)
(0.03247028447291845 4.086221952215374 0)
(-4.517884364650884 -0.3046541026568449 0)
(-7.806393320522634 -0.6687122352542856 0)
(-6.21288348418444 -2.126689822130872 0)
(2.679157893678004 5.575509034996547 0)
(-1.266734661660794 0.7973666787537191 0)
(-5.955731162899925 -0.3487348482799976 0)
(-6.812424393079126 -3.051115720568804 0)
(4.457013485133999 6.632203619939074 0)
(2.429012007585459 2.420508793891685 0)
(-2.016700156113278 -0.2621475461932822 0)
(-6.07380696308533 -3.289737561448225 0)
(-2.833102721645757 -9.937941193862333 0)
(-0.7734198375511639 -14.87151430882337 0)
(2.699534047900344 -17.69704447472114 0)
(7.017563622817714 -24.62065721413114 0)
(-1.253586531991701 -7.687167043923998 0)
(-0.4568351939592405 -14.98168776714733 0)
(1.915035046354124 -19.24742222161075 0)
(6.71218913790092 -23.57248170705698 0)
(-0.8159268195053996 -4.900429154564389 0)
(-0.3154040671864323 -12.35859853037409 0)
(1.430396976798979 -18.10666142057133 0)
(3.27819911094678 -22.61474551720764 0)
(-1.738857976301411 -3.285186046643654 0)
(-1.909240957057973 -10.96803151320196 0)
(-0.4547227704763939 -17.36656372472785 0)
(0.786174982494505 -22.03873585982683 0)
(7.857739303692384 -30.84080730466498 0)
(12.6543343484452 -8.691265161117997 0)
(32.0381174410522 3.582407489638473 0)
(30.59387800114869 -5.261209479781439 0)
(8.448204947679015 -29.02682789302399 0)
(8.976522786487577 -17.41678754969023 0)
(26.46680219210769 1.952391252563922 0)
(32.23135088401868 -4.900230137288087 0)
(4.611996216714179 -29.02654847051736 0)
(3.828907958467963 -21.3288641775064 0)
(17.20846654015683 4.302862107725757 0)
(31.97400840988041 -3.292518441319878 0)
(2.64815814110801 -28.73392712463347 0)
(2.088275715837235 -24.81806491458273 0)
(7.328062108615349 0.5716258881944249 0)
(20.30819289318639 8.299021908401949 0)
(24.7779789201658 -10.42096139523784 0)
(21.77504724032878 -11.69322640505194 0)
(19.42337717201054 -11.76984940712616 0)
(17.82792198638301 -11.27568567622695 0)
(24.97582464884336 -12.47347414334266 0)
(21.21153606234123 -11.74952331114202 0)
(19.07492437943957 -11.7298545634542 0)
(17.62278218203449 -11.27976562779403 0)
(31.48515517869495 -18.45883868311883 0)