/*--------------------------------*- C++ -*----------------------------------*\
  =========                 |
  \\      /  F ield         | OpenFOAM: The Open Source CFD Toolbox
   \\    /   O peration     | Website:  https://openfoam.org
    \\  /    A nd           | Version:  11
     \\/     M anipulation  |
\*---------------------------------------------------------------------------*/
FoamFile
{
    format      ascii;
    class       volScalarField;
    location    "0.35923655";
    object      rho;
}
// * * * * * * * * * * * * * * * * * * * * * * * * * * * * * * * * * * * * * //

dimensions      [0 0 0 0 0 0 0];

internalField   nonuniform List<scalar> 
880
(
0.2239950333699092
0.2239950336977215
0.2240219314200928
0.2277382513218619
0.2239950333702082
0.223995034333608
0.2240283851972704
0.229490693962348
0.2239950333717012
0.2239950371321023
0.2240567388840132
0.2315875483949142
0.2239950333941023
0.2239950499075351
0.2241222557782006
0.2347100079876777
0.223995033259515
0.2239950334139612
0.2239950459401247
0.2239952242250021
0.2239951096735356
0.2239953271741094
0.2239968608704035
0.2239977477543655
0.2242817671060406
0.2244566865725635
0.2247513456031942
0.2250683421716481
0.2401925017170468
0.2455343503759108
0.2500085103728085
0.2520202150536349
0.2239955037663076
0.2239988445432015
0.2240094183078455
0.2240395954763662
0.2240201690836949
0.2241022663363969
0.2242088537687519
0.2244461008679748
0.226458305166781
0.2276525033780821
0.2291734979785029
0.2311937931924087
0.2539939738402864
0.2568433106406435
0.2574509287934348
0.2560354452590282
0.2436279941642903
0.2366721024300645
0.233138523341911
0.2308249215657275
0.234744920330514
0.2358606874982575
0.2365383681365216
0.2365730397266626
0.2252532901959744
0.2262087775042267
0.2272170864052379
0.2279428672804608
0.2241532008058012
0.2243777862637557
0.2247180599962124
0.2251948723097441
0.2257495261772133
0.2263070150054761
0.2268586713074855
0.2272747083258584
0.2284637216760781
0.2287683491981169
0.2289177152595746
0.2289562517144788
0.2358869630308298
0.2349358227500657
0.2336846461913225
0.23238922346032
0.2284543724892076
0.22709985885543
0.2263600814993341
0.2255255973114305
0.2257913827328946
0.2314865461835762
0.2288735487114193
0.2275322460073713
0.2365887510797642
0.231097211651175
0.2286240094805838
0.2274951481731486
0.2954159322634385
0.2338488169899965
0.2283256794264698
0.2269978317914013
0.3573534118648156
0.2486713329808708
0.2292792920048549
0.2268111630904347
0.2267524417289548
0.2306964484343183
0.2665978679756029
0.3845281778847882
0.2257541648685632
0.2332911795772315
0.2862191860220429
0.3841152156560909
0.2261775592408732
0.2392095256875844
0.3116798560549438
0.3875968027523665
0.227776311144144
0.2496193405521327
0.3348899564292908
0.3832616764833491
0.3736731019829214
0.3470977004040816
0.2651512135007155
0.2312646063256716
0.3618910790209413
0.348442017885461
0.2820886178815553
0.2373727032661442
0.3493506294210291
0.3444409944775876
0.2966030481834072
0.2469824789975094
0.3360857277647009
0.3272445122433021
0.2987922583166598
0.2586680345276702
0.2688483385167459
0.2915294940932476
0.3056280910306273
0.320263830679603
0.2674710822906839
0.2769601081609167
0.2821379309337375
0.2973622685723326
0.2634549373270522
0.2629451124510382
0.2588575452891367
0.2680360757773013
0.2581468072537889
0.2516078930310571
0.2376535762077198
0.2330812805469488
0.2537299810341951
0.2402838294752779
0.216738939599722
0.1875799628921903
0.2465605191205322
0.229899529315282
0.1990007523796522
0.1311076888478009
0.241050576595024
0.2255981646367736
0.1852430418066295
0.08691818410041476
0.2363159754863245
0.2232416384446804
0.1728891693979071
0.0519850389105195
0.05321546654631638
0.1741784686676963
0.22139415246243
0.2320722049079746
0.07253502715851855
0.1742442339213129
0.2201203682733993
0.2291994186670034
0.07399471241996958
0.1723930996286222
0.2183943521311285
0.2272665783347355
0.06823135550209172
0.1690865066200867
0.216979933615483
0.2262495990547793
0.08121605782121934
0.1750670564851905
0.2166091641600167
0.2244899480044944
0.09692919042353268
0.1821351520748621
0.2169353189132635
0.2234647362356377
0.1160786366586005
0.1914404350444603
0.217661805150897
0.2234194753145838
0.1390485675168982
0.1994237467605448
0.2188313547256376
0.2235311375363269
0.1554765539925623
0.1757859033314288
0.2098486452480907
0.2225128238970843
0.1533133660001963
0.1786600762724518
0.2102828888976068
0.2224898149629261
0.1489453741644481
0.1829368438788722
0.2113251818827397
0.22248882765153
0.143727328972536
0.1876059456090641
0.2129160116223756
0.222613217102842
0.1390485675169315
0.1994237467605786
0.2188313547253495
0.2235311375355219
0.1160786366588504
0.191440435043731
0.2176618051503732
0.2234194753131287
0.09692919042360493
0.1821351520746816
0.2169353189126359
0.2234647362347618
0.08121605782131677
0.1750670564844873
0.2166091641597338
0.2244899480041641
0.2320722049084208
0.2213941524626263
0.174178468667447
0.05321546654550977
0.2291994186667975
0.2201203682733136
0.1742442339207424
0.07253502715780638
0.2272665783350069
0.2183943521316492
0.1723930996276963
0.07399471241986991
0.2262495990551745
0.2169799336160862
0.1690865066199903
0.06823135550193854
0.05198503891050246
0.1728891693978264
0.2232416384448616
0.2363159754866427
0.08691818410003847
0.185243041806634
0.2255981646369332
0.2410505765948001
0.1311076888474549
0.1990007523804641
0.2298995293155449
0.2465605191213259
0.1875799628924955
0.2167389395993629
0.2402838294743194
0.2537299810348916
0.2688483385176698
0.2915294940945273
0.3056280910315627
0.3202638306791247
0.267471082290581
0.2769601081606818
0.2821379309344095
0.2973622685719763
0.2634549373264424
0.2629451124508836
0.2588575452892873
0.2680360757772725
0.2581468072537126
0.2516078930305902
0.2376535762073035
0.2330812805472846
0.3360857277644177
0.327244512242945
0.2987922583173753
0.2586680345292715
0.349350629420393
0.3444409944772245
0.2966030481837631
0.2469824789977516
0.3618910790207136
0.3484420178846443
0.2820886178810991
0.2373727032670347
0.3736731019820309
0.3470977004045614
0.265151213501449
0.2312646063256981
0.2267524417286615
0.2306964484342154
0.266597867975653
0.3845281778838688
0.2257541648694924
0.2332911795774509
0.286219186021935
0.3841152156549997
0.2261775592423806
0.2392095256890995
0.3116798560542853
0.3875968027518367
0.2277763111444616
0.2496193405523314
0.3348899564289657
0.3832616764828752
0.2268111630905653
0.2269978317911329
0.2274951481739621
0.2275322460074776
0.2292792920040705
0.2283256794259089
0.2286240094812353
0.2288735487112805
0.2486713329799162
0.2338488169899643
0.2310972116506086
0.2314865461833125
0.3573534118634428
0.2954159322627187
0.2365887510802445
0.2257913827329721
0.2272747083264224
0.2289562517148606
0.2323892234606232
0.2255255973111927
0.2268586713067177
0.2289177152596415
0.2336846461911669
0.2263600814991906
0.2263070150055143
0.2287683491981069
0.2349358227503531
0.2270998588547646
0.2257495261766568
0.228463721675325
0.2358869630311798
0.2284543724893403
0.2241532008056802
0.2252532901953212
0.2347449203307123
0.2436279941642817
0.2243777862635419
0.2262087775034027
0.2358606874985688
0.2366721024294511
0.2247180599970287
0.227217086403901
0.2365383681365147
0.2331385233405544
0.2251948723095396
0.22794286728027
0.2365730397267187
0.230824921565138
0.2560354452587462
0.2311937931927585
0.2244461008676894
0.2240395954767985
0.2574509287932275
0.2291734979787139
0.2242088537683761
0.2240094183078448
0.2568433106402349
0.2276525033777289
0.2241022663348677
0.2239988445432616
0.2539939738404094
0.2264583051663011
0.2240201690831893
0.2239955037664682
0.2520202150533135
0.2250683421718994
0.2239977477542656
0.2239952242259381
0.250008510371851
0.2247513456031592
0.2239968608701015
0.2239950459407107
0.2455343503751299
0.2244566865724551
0.2239953271740876
0.2239950334137216
0.2401925017164824
0.2242817671056662
0.2239951096728749
0.2239950332612173
0.2239950333699093
0.2239950336979472
0.2240219314201607
0.2277382513216642
0.2239950333704065
0.2239950343328749
0.2240283851976808
0.2294906939618105
0.2239950333721685
0.2239950371315927
0.2240567388840064
0.2315875483955503
0.2239950333946447
0.2239950499073844
0.2241222557783039
0.234710007988054
0.2309860440463137
0.2340818395663838
0.2390621747499027
0.2488979219013876
0.234081839566968
0.2381173301140082
0.2455747355646842
0.2600340434650224
0.2390621747501825
0.245574735564489
0.2575888380919628
0.2748616418522276
0.2488979219018977
0.2600340434640689
0.2748616418531681
0.2928127819378065
0.3104166669475516
0.2953225307649449
0.2891128398726341
0.2745362996926684
0.3072131220833539
0.3028630903075914
0.3034058052806528
0.296368960552269
0.3073449120497014
0.3059055084396442
0.3051217518533895
0.3025786951075876
0.3028575901855308
0.3020909097152661
0.3018049404662045
0.3000916609388128
0.2950240380112793
0.2917401382435345
0.2853881355905885
0.2766609304113116
0.2958574710923723
0.2924022399451887
0.2858384111943477
0.2774974342569517
0.2966769202269121
0.2929358330746378
0.2859251295620309
0.2782979040956821
0.2970754022189924
0.2928005602784597
0.2862005426163235
0.2758410596566211
0.2263160454778046
0.2042670187011401
0.2017444319276869
0.2026249047486999
0.2115210401155228
0.1977466464933995
0.1990277210833552
0.2006370544198982
0.1993451695588029
0.1972927115768343
0.2000145199680452
0.2014855448540621
0.1809417611437869
0.1925853747359518
0.1978577400169297
0.1999101772161322
0.2023252750523878
0.2029380053741322
0.2046256756856499
0.2066685478960745
0.2009345280478242
0.2018168053134492
0.2037636183564914
0.2063169788153354
0.2016265547045575
0.2022706725111277
0.2039852485447192
0.2060234680975173
0.2003334358209673
0.2011786034746192
0.2033035419812297
0.2060924964208219
0.2180898974556594
0.2812248574382734
0.3614445538153004
0.3822065329152755
0.2229327704170659
0.2927333793409447
0.3544349345318718
0.3674467509725398
0.2263445716490561
0.2975607923102834
0.3517794612190707
0.3643076781417606
0.2283718370484687
0.306129386753889
0.3524201373191608
0.3640317462581069
0.4398969576215948
0.4300652205377867
0.4215543252182246
0.406084006984486
0.4369341402769642
0.4303674384157468
0.421806785751036
0.4064953127200132
0.4312653201254543
0.4288335610328551
0.4202849119064493
0.405502496252873
0.4223954890106025
0.4303390579208031
0.4216464680318803
0.4068339772501584
0.3875011964506822
0.3713087003040637
0.3555407597601122
0.3469266016311412
0.3887681442477808
0.3719723517711635
0.355532762599388
0.3465954238512083
0.388157165612222
0.370390910933604
0.3547422841158882
0.3453439331002169
0.3906691668218936
0.3717217386903062
0.3564605402422506
0.3464651995557394
0.3381631359560801
0.3240654171875395
0.3003142766244983
0.2623605694605397
0.3387633771007236
0.3267217518031078
0.3038970670298644
0.2701430963914732
0.3380921854384075
0.3272110054971008
0.3035346446970686
0.2700298495579637
0.3396839494683814
0.3305057540924817
0.3044648160119374
0.3119512382014552
0.1731391470913972
0.05034375226178135
0.008911899660305075
0.004212763278468869
0.1365655337641898
0.03448457819425346
0.0102739685371252
0.008104205318426367
0.1037545825790141
0.02499452616181481
0.01089994309588661
0.009786662038768766
0.07437612601351788
0.01516457793221433
0.01060710894164685
0.01059515951300308
0.007180862142704005
0.01439552784827501
0.02016570815399748
0.02856983610251387
0.01249882329480821
0.0187265563004021
0.02471765564990803
0.03400877751754328
0.0153574635024791
0.02183508768226918
0.02993095813520586
0.0397755509355579
0.01757985485201101
0.02469617462915082
0.035137989580649
0.04478696398835955
0.03597862497286657
0.05195650322595122
0.07156271945955997
0.09542400645474755
0.03896832470568921
0.05280890168389968
0.0702435366098433
0.09111892335927051
0.04275488303366445
0.05287648386746211
0.06805798360039493
0.08778029093597775
0.0417162222503025
0.04958585154137005
0.05995644408986345
0.08265001249080972
0.0997227287265972
0.09878541622742858
0.09918750304010034
0.1010378500247736
0.09008937414150799
0.0915597502579398
0.09365984805501062
0.09517703082213716
0.08610359584559299
0.09010299477884094
0.0920642046243554
0.09461475065411079
0.08127599160879072
0.08658440571758227
0.08919854287918405
0.09399551327736866
0.09891493354367048
0.1032401036023573
0.1060217842370357
0.10698888773541
0.09791345665075614
0.1011867630168553
0.1034641472844185
0.1045902845136469
0.09812566039847226
0.1013573468836935
0.1046579970605177
0.1063073744379487
0.105123115829114
0.1089087571744283
0.1123102903663677
0.1130949349341537
0.1069888877354246
0.1045902845136457
0.1063073744379551
0.1130949349341445
0.1060217842370873
0.1034641472844071
0.1046579970605181
0.1123102903663663
0.1032401036023733
0.1011867630169727
0.1013573468839054
0.1089087571744691
0.09891493354394658
0.09791345665077826
0.09812566039862133
0.1051231158291672
0.1010378500251193
0.09918750304021115
0.09878541622755822
0.09972272872670379
0.09517703082219464
0.09365984805513242
0.09155975025799069
0.09008937414161243
0.09461475065432161
0.09206420462466265
0.09010299477892093
0.0861035958457399
0.09399551327748908
0.08919854287928142
0.08658440571773995
0.08127599160893674
0.08265001249103689
0.05995644409021688
0.04958585154164267
0.04171622225054383
0.08778029093617197
0.06805798360052068
0.05287648386773543
0.0427548830340446
0.09111892335945412
0.07024353661009285
0.05280890168417438
0.03896832470594235
0.09542400645489406
0.07156271945983755
0.05195650322611501
0.03597862497326892
0.02856983610269056
0.02016570815408655
0.01439552784820226
0.007180862142646052
0.0340087775177091
0.02471765565004459
0.01872655630039449
0.0124988232948188
0.03977555093573305
0.02993095813540791
0.02183508768225782
0.01535746350247359
0.04478696398852546
0.03513798958075103
0.02469617462919794
0.01757985485201222
0.004212763278382749
0.008911899660143729
0.05034375226137463
0.1731391470910937
0.008104205318421169
0.01027396853706037
0.03448457819403875
0.1365655337641206
0.009786662038767267
0.01089994309583965
0.02499452616178872
0.1037545825790339
0.01059515951297252
0.01060710894159844
0.01516457793218227
0.07437612601349113
0.2623605694605119
0.3003142766243521
0.3240654171865994
0.3381631359562124
0.2701430963909193
0.3038970670290442
0.3267217518027637
0.3387633770996878
0.2700298495580053
0.3035346446967426
0.3272110054979653
0.338092185438187
0.3119512382014015
0.3044648160111501
0.3305057540931838
0.3396839494678954
0.3469266016306568
0.3555407597593074
0.3713087003037366
0.3875011964491695
0.3465954238507628
0.3555327625994246
0.3719723517694101
0.3887681442463672
0.3453439331006857
0.3547422841149434
0.3703909109323311
0.3881571656112654
0.3464651995550712
0.3564605402418513
0.3717217386895846
0.3906691668209366
0.406084006983669
0.4215543252179539
0.4300652205374475
0.4398969576220305
0.4064953127195082
0.421806785750533
0.4303674384151104
0.436934140277364
0.4055024962528362
0.4202849119061183
0.4288335610329388
0.4312653201252134
0.4068339772501534
0.4216464680317304
0.4303390579196922
0.4223954890115806
0.3822065329152859
0.3614445538148799
0.2812248574384478
0.2180898974562425
0.3674467509724421
0.3544349345316496
0.2927333793410904
0.2229327704176402
0.3643076781416967
0.3517794612189341
0.2975607923103619
0.2263445716496536
0.3640317462572109
0.3524201373190323
0.3061293867539708
0.2283718370490912
0.2066685478964303
0.2046256756848921
0.2029380053729693
0.2023252750514144
0.2063169788157889
0.2037636183563104
0.2018168053123484
0.2009345280473624
0.2060234680980391
0.2039852485444504
0.2022706725100943
0.2016265547041456
0.2060924964213344
0.2033035419807349
0.2011786034735567
0.2003334358201768
0.2026249047477588
0.2017444319269618
0.2042670187013458
0.2263160454780171
0.2006370544189816
0.1990277210825073
0.1977466464938173
0.2115210401156434
0.2014855448531619
0.2000145199672106
0.1972927115773823
0.1993451695588577
0.1999101772152192
0.1978577400159303
0.1925853747364989
0.1809417611439405
0.2766609304113201
0.2853881355905323
0.2917401382439676
0.2950240380110137
0.2774974342569918
0.2858384111949038
0.2924022399451624
0.2958574710918172
0.2782979040957259
0.285925129561981
0.29293583307456
0.2966769202265629
0.2758410596565822
0.2862005426169919
0.2928005602791324
0.2970754022187186
0.3000916609378245
0.3025786951055495
0.2963689605512043
0.2745362996925638
0.3018049404644657
0.3051217518522952
0.3034058052786122
0.2891128398715773
0.302090909714077
0.305905508438082
0.3028630903057044
0.2953225307629616
0.3028575901842596
0.3073449120484004
0.3072131220806051
0.3104166669443468
0.149915240457307
0.2006579150574835
0.2185669983984642
0.2235520830853914
0.1465635607962373
0.1988682378118113
0.217418577065224
0.2233523600823832
0.1435237124993777
0.196407210521127
0.216300809477961
0.2231149354482779
0.1411689626490164
0.1921316638504101
0.2146288930607235
0.2228457070503994
0.2225128238969341
0.2098486452481796
0.175785903331325
0.1554765539928875
0.2224898149626773
0.2102828888975307
0.1786600762722552
0.1533133660001596
0.2224888276513698
0.2113251818828744
0.1829368438786039
0.1489453741646719
0.2226132171024928
0.2129160116221544
0.1876059456088894
0.1437273289727769
0.2228457070497772
0.2231149354480922
0.2233523600816431
0.2235520830844689
0.2146288930601271
0.2163008094777263
0.2174185770641374
0.218566998397504
0.1921316638507103
0.1964072105207556
0.1988682378120248
0.2006579150578523
0.1411689626490583
0.1435237124992508
0.1465635607962306
0.14991524045756
)
;

boundaryField
{
    back
    {
        type            empty;
    }
    inlet
    {
        type            calculated;
        value           nonuniform List<scalar> 
16
(
0.2239950333699092
0.2239950333702082
0.2239950333717012
0.2239950333941023
0.223995033259515
0.2239950334139612
0.2239950459401247
0.223995224225002
0.2239952242259381
0.2239950459407107
0.2239950334137216
0.2239950332612173
0.2239950333699093
0.2239950333704065
0.2239950333721685
0.2239950333946447
)
;
    }
    front
    {
        type            empty;
    }
    top
    {
        type            calculated;
        value           nonuniform List<scalar> 
40
(
0.2239955037663076
0.2239988445432015
0.2240094183078455
0.2240395954763663
0.2241532008058011
0.2243777862637557
0.2247180599962124
0.2251948723097441
0.2257495261772133
0.2263070150054761
0.2268586713074855
0.2272747083258584
0.2275322460073713
0.2274951481731486
0.2269978317914013
0.2268111630904347
0.2267524417289548
0.2257541648685631
0.2261775592408732
0.227776311144144
0.2312646063256716
0.2373727032661442
0.2469824789975094
0.2586680345276702
0.2688483385167459
0.2674710822906839
0.2634549373270522
0.2581468072537889
0.2537299810341951
0.2465605191205322
0.241050576595024
0.2363159754863245
0.2320722049079746
0.2291994186670034
0.2272665783347355
0.2262495990547793
0.2244899480044944
0.2234647362356377
0.2234194753145839
0.2235311375363269
)
;
    }
    outlet
    {
        type            calculated;
        value           uniform 0.2239950333699093;
    }
    bottom
    {
        type            calculated;
        value           nonuniform List<scalar> 
40
(
0.2235311375355219
0.2234194753131287
0.2234647362347618
0.2244899480041641
0.2320722049084208
0.2291994186667975
0.2272665783350069
0.2262495990551746
0.2363159754866427
0.2410505765948001
0.2465605191213259
0.2537299810348916
0.2688483385176698
0.267471082290581
0.2634549373264424
0.2581468072537126
0.2586680345292715
0.2469824789977516
0.2373727032670347
0.2312646063256981
0.2267524417286615
0.2257541648694924
0.2261775592423806
0.2277763111444616
0.2268111630905653
0.2269978317911329
0.2274951481739621
0.2275322460074776
0.2272747083264224
0.2268586713067177
0.2263070150055144
0.2257495261766568
0.2241532008056802
0.2243777862635419
0.2247180599970287
0.2251948723095396
0.2240395954767985
0.2240094183078448
0.2239988445432616
0.2239955037664682
)
;
    }
    wall
    {
        type            calculated;
        value           nonuniform List<scalar> 
104
(
0.3104166669475516
0.3072131220833539
0.3073449120497014
0.3028575901855308
0.2970754022189924
0.2928005602784597
0.2862005426163235
0.2758410596566211
0.1809417611437869
0.1925853747359518
0.1978577400169297
0.1999101772161322
0.2003334358209673
0.2011786034746192
0.2033035419812297
0.2060924964208219
0.2283718370484687
0.306129386753889
0.3524201373191608
0.3640317462581069
0.4223954890106025
0.4303390579208031
0.4216464680318803
0.4068339772501584
0.3906691668218936
0.3717217386903062
0.3564605402422506
0.3464651995557394
0.3396839494683814
0.3305057540924817
0.3044648160119374
0.3119512382014552
0.07437612601351788
0.01516457793221433
0.01060710894164685
0.01059515951300308
0.01757985485201101
0.02469617462915082
0.035137989580649
0.04478696398835955
0.0417162222503025
0.04958585154137005
0.05995644408986345
0.08265001249080972
0.08127599160879072
0.08658440571758227
0.08919854287918405
0.09399551327736866
0.09891493354367048
0.1032401036023573
0.1060217842370356
0.10698888773541
0.1069888877354246
0.1060217842370873
0.1032401036023733
0.09891493354394658
0.09399551327748908
0.08919854287928142
0.08658440571773995
0.08127599160893674
0.08265001249103689
0.05995644409021689
0.04958585154164267
0.04171622225054383
0.04478696398852546
0.03513798958075103
0.02469617462919794
0.01757985485201222
0.01059515951297252
0.01060710894159844
0.01516457793218227
0.07437612601349113
0.3119512382014015
0.3044648160111501
0.3305057540931838
0.3396839494678954
0.3464651995550712
0.3564605402418513
0.3717217386895846
0.3906691668209366
0.4068339772501534
0.4216464680317304
0.4303390579196922
0.4223954890115806
0.3640317462572108
0.3524201373190323
0.3061293867539708
0.2283718370490912
0.2060924964213344
0.2033035419807349
0.2011786034735567
0.2003334358201768
0.1999101772152192
0.1978577400159303
0.192585374736499
0.1809417611439405
0.2758410596565822
0.2862005426169919
0.2928005602791324
0.2970754022187186
0.3028575901842596
0.3073449120484004
0.3072131220806051
0.3104166669443468
)
;
    }
}


// ************************************************************************* //
