/*--------------------------------*- C++ -*----------------------------------*\
  =========                 |
  \\      /  F ield         | OpenFOAM: The Open Source CFD Toolbox
   \\    /   O peration     | Website:  https://openfoam.org
    \\  /    A nd           | Version:  11
     \\/     M anipulation  |
\*---------------------------------------------------------------------------*/
FoamFile
{
    format      ascii;
    class       surfaceScalarField;
    location    "0.275";
    object      phi;
}
// * * * * * * * * * * * * * * * * * * * * * * * * * * * * * * * * * * * * * //

dimensions      [0 3 -1 0 0 0 0];

internalField   nonuniform List<scalar> 
8667
(
15.883252
1.894518
7.8864202e-06
13.985205
1.8980267
2.0067548e-05
12.066951
1.9182304
2.3748305e-05
10.166708
1.9001883
5.4768175e-05
8.2435261
1.9231293
5.2527165e-05
6.3543807
1.8890593
8.6108249e-05
4.4426543
1.9116308
9.5506398e-05
2.6015696
1.8409529
0.00013180846
1.805629
0.0001496207
0.79579097
15.885788
3.7865086
13.98214
3.8016745
12.070821
3.8295488
10.156441
3.8145691
8.2461929
3.833377
6.3381387
3.7971134
4.4424687
3.8073008
2.6011935
3.6822281
3.6326844
0.77413814
15.886976
5.6773107
13.980814
5.7078359
12.070856
5.7395068
10.1542
5.7312251
8.238637
5.7489404
6.3326511
5.7030994
4.4319233
5.7080286
2.5917284
5.522423
5.4697642
0.75464861
15.886546
7.5685427
13.98293
7.6114524
12.068451
7.6539855
10.155355
7.6443205
8.2310246
7.6732713
6.3241547
7.6099692
4.4159712
7.6162121
2.5717955
7.3665987
7.3090552
0.73250447
15.885796
9.4605229
13.985225
9.5120233
12.069885
9.5693259
10.15561
9.5585945
8.2305555
9.5983263
6.316063
9.5244617
4.4056006
9.5266745
2.5580722
9.2141271
9.1474076
0.71971986
15.885272
11.353029
13.987818
11.409477
12.074464
11.48268
10.157482
11.475577
8.2312218
11.524587
6.3081638
11.44752
4.3900117
11.444827
2.5339209
11.070218
10.981269
0.70005946
15.885453
13.245354
13.989954
13.304976
12.080213
13.392421
10.160988
13.394802
8.2322987
13.453276
6.3054583
13.37436
4.3800945
13.370191
2.5157042
12.934608
12.819597
0.67737666
15.887458
15.135675
13.992697
15.199737
12.085626
15.299491
10.166959
15.313469
8.2337394
15.386495
6.2999346
15.308165
4.3651764
15.304949
2.4885832
14.811201
14.653532
0.65464824
15.889716
17.023737
13.996897
17.092556
12.090319
17.206069
10.173444
17.230343
8.2389554
17.320984
6.3009047
17.246215
4.3561597
17.249694
2.4660422
16.701319
16.501069
0.6185049
18.848131
15.953384
20.669844
15.956065
22.488991
15.958637
24.306706
15.960066
26.12119
15.963276
27.932564
15.966406
29.742798
15.967545
31.547295
15.973283
15.969908
33.355167
18.923213
14.122727
20.751348
14.127929
22.5762
14.133786
24.396732
14.139533
26.216854
14.143154
28.032467
14.150793
29.846777
14.153235
31.653605
14.166455
14.167751
33.455762
19.055367
12.27343
20.901361
12.281935
22.744941
12.290206
24.582402
12.302072
26.416466
12.30909
28.24444
12.322819
30.06914
12.328536
31.898138
12.337456
12.345815
33.720075
19.095306
10.408467
20.957536
10.419705
22.821374
10.426367
24.683057
10.440389
26.543347
10.4488
28.401789
10.464377
30.256914
10.47341
32.108635
10.485736
10.499164
33.955286
19.209586
8.5198656
21.101823
8.5274681
22.996178
8.5320123
24.894473
8.5420941
26.79186
8.5514131
28.693087
8.5631505
30.593024
8.5734728
32.493792
8.5849681
8.5988655
34.39409
19.144272
6.6218086
21.054456
6.6172846
22.970619
6.615849
24.898291
6.6144226
26.829673
6.6200307
28.76923
6.6235939
30.705725
6.6369775
32.646997
6.6436959
6.6629798
34.582883
19.159174
4.7123286
21.091317
4.6851419
23.035272
4.6718931
25.008797
4.6408986
26.996572
4.6322556
29.008713
4.6114527
31.025542
4.6201485
33.060405
4.6088327
4.6248375
35.098547
18.586804
2.8268431
20.530594
2.7413522
22.520982
2.6815051
24.553083
2.6087971
26.607472
2.5778669
28.682449
2.5364755
30.769564
2.5330335
32.86433
2.5140673
2.5236476
34.965519
18.405691
0.92222125
20.497822
0.64922115
22.76199
0.41733715
25.076494
0.29429279
27.427154
0.22720718
29.76017
0.20345973
32.126165
0.16703794
34.470862
0.16937027
36.839865
0.15464528
33.247167
0.10799997
33.144717
0.1024495
33.043635
0.10108167
32.950026
0.093609628
32.857722
0.092303662
32.773246
0.084476611
32.690118
0.083127312
32.616121
0.073997056
0.073367314
32.542754
33.372356
0.19140653
33.290077
0.18472871
33.215542
0.17561641
33.141434
0.1677171
33.075284
0.15845399
33.010647
0.14911415
32.95336
0.14041439
32.901746
0.12561041
0.12280554
32.852308
33.650499
0.26098163
33.585736
0.24949242
33.523582
0.23776979
33.466282
0.22501773
33.41192
0.21281609
33.362598
0.19843551
33.31488
0.18813272
33.272477
0.16801294
0.16237908
33.232904
33.89741
0.31885804
33.849276
0.29762654
33.798215
0.28883096
33.756711
0.26652166
33.711575
0.25795205
33.675552
0.23445824
33.636907
0.22677804
33.605863
0.19905665
0.19236385
33.575878
34.344044
0.36890362
34.30016
0.34151105
34.258849
0.33014148
34.219999
0.30537204
34.182848
0.29510298
34.149127
0.26817917
34.117327
0.25857796
34.087886
0.22849783
0.22080573
34.059444
34.552208
0.39957814
34.523227
0.37049233
34.500841
0.35252759
34.47999
0.32622332
34.462197
0.31289561
34.442512
0.28786372
34.424855
0.27623542
34.402406
0.25094684
0.24096706
34.382245
35.087127
0.41099878
35.076562
0.38105726
35.064984
0.3641049
35.051451
0.33975694
35.036799
0.32754701
35.017555
0.30710774
34.995689
0.298102
34.96504
0.2815955
0.27649109
34.929516
35.050255
0.32626365
35.134195
0.2971169
35.21955
0.27875025
35.299921
0.25938526
35.373656
0.25381182
35.433697
0.24706685
35.474869
0.25693069
35.488275
0.26818883
0.30412259
35.460644
37.021985
0.14414362
37.173458
0.14564384
37.278225
0.17398296
37.351001
0.18660967
37.364347
0.24046516
37.322979
0.28843494
37.215647
0.36426276
37.033954
0.4498822
36.821364
0.51671181
36.659959
0.68787934
-0.52647358
36.370626
0.64797041
-0.35863793
35.988951
0.6277126
-0.24603749
35.606407
0.59770883
-0.21516472
35.197528
0.58504264
-0.17616345
34.80407
0.55980913
-0.16635158
34.389118
0.55089018
-0.13593844
33.995081
0.53331884
-0.13928182
0.53031438
33.581883
-0.1171157
35.534427
0.61409618
35.558158
0.62423937
35.554397
0.63147343
35.516778
0.63532852
35.462429
0.6393912
35.376842
0.64539576
35.277278
0.65045408
35.153731
0.65686586
0.66262652
35.021419
35.005716
0.53789615
35.075084
0.5548711
35.129
0.57755782
35.171436
0.59289218
35.196345
0.61448298
35.213142
0.62859816
35.214045
0.64955101
35.206476
0.66443509
0.68662525
35.182477
34.480052
0.44008898
34.581278
0.45364475
34.672535
0.4863013
34.765895
0.49953206
34.849347
0.53103111
34.934359
0.5435854
35.00781
0.57610077
35.082309
0.58993611
0.62403161
35.144902
34.157707
0.34182636
34.259115
0.35223697
34.358959
0.38645696
34.462067
0.39642378
34.561331
0.43176724
34.66343
0.44148627
34.760765
0.47876609
34.861823
0.48887841
0.52848007
34.957374
33.676518
0.24118655
33.781006
0.24774864
33.889872
0.27759085
34.002876
0.28342058
34.118097
0.3165457
34.237848
0.32173528
34.359023
0.35759107
34.485628
0.36227387
0.40219178
34.611916
33.323955
0.15013498
33.420584
0.15111987
33.521424
0.17675135
33.628138
0.17670605
33.738825
0.20585849
33.854904
0.20565689
33.976063
0.23643207
34.103023
0.23531392
0.27031969
34.234895
32.939216
0.063226455
33.026843
0.063493453
33.124589
0.079005663
33.223029
0.078265557
33.33395
0.094937834
33.444592
0.095014327
33.569429
0.11159492
33.694642
0.11010131
0.12885519
33.836107
32.60598
32.669474
32.748479
32.826745
32.921683
33.016697
33.128292
33.238393
33.367249
33.495395
-0.12814683
33.6459
-0.15050414
33.794538
-0.14863817
33.968208
-0.17367058
34.138565
-0.17035666
34.335298
-0.19673308
34.52944
-0.19414144
34.760437
-0.23099778
-0.22876444
34.989202
33.975793
-0.26783278
34.133088
-0.30779975
34.289772
-0.30532235
34.465458
-0.34935615
34.640544
-0.34544231
34.836057
-0.3922463
35.031558
-0.38964273
35.245839
-0.44527829
-0.44277555
35.45985
34.37385
-0.40678745
34.516968
-0.45091808
34.667063
-0.45541707
34.821378
-0.50367135
34.984717
-0.50878161
35.154896
-0.5624254
35.333382
-0.56812811
35.51607
-0.6279666
-0.63421845
35.707513
34.744557
-0.53942834
34.875979
-0.58233992
35.015412
-0.59485084
35.153272
-0.64153075
35.300691
-0.65620095
35.446009
-0.707743
35.602885
-0.72500426
35.757871
-0.78295297
-0.80299354
35.926646
35.057637
-0.63969095
35.151386
-0.67608875
35.251695
-0.69516007
35.345066
-0.73490153
35.44672
-0.75785499
35.541012
-0.80203538
35.645456
-0.8294488
35.742582
-0.88007846
-0.91258501
35.852173
35.208895
-0.70368383
35.260268
-0.72746134
35.314234
-0.74912654
35.35548
-0.77614724
35.401248
-0.80362276
35.435153
-0.83594039
35.476244
-0.87054052
35.506435
-0.91026874
-0.95253411
35.546384
35.153203
-0.67440979
35.110846
-0.68510353
35.06443
-0.70271146
35.00772
-0.71943706
34.947458
-0.74336055
34.879287
-0.76776963
34.808206
-0.79945909
34.731712
-0.83377479
-0.87413577
34.653314
34.866538
-0.51952844
34.706559
-0.52512465
34.526144
-0.52229666
34.342221
-0.53551341
34.137609
-0.53874906
33.930378
-0.56053873
33.7036
-0.57268117
33.475102
-0.60527642
-0.62769732
33.228664
33.194903
-0.13254845
32.785376
-0.11559787
32.402653
-0.13957358
31.991057
-0.12391792
31.607732
-0.15542398
31.187583
-0.14038899
30.795855
-0.18095334
30.356604
-0.1660261
29.947893
-0.21898615
0.67308565
29.479885
-0.20507758
0.92013434
32.981615
1.0022108
34.571237
0.97191876
35.576676
0.86866879
35.955423
0.70084198
36.094473
0.4987929
35.909562
0.25681764
35.701825
35.246019
0.7068431
29.049674
-0.27663214
0.96860992
32.719848
1.0511802
34.488667
1.0099482
35.617908
0.89257136
36.0728
0.70893043
36.278114
0.50025758
36.118235
0.25643334
35.945649
35.502453
0.76801577
28.547315
-0.26565638
1.0305447
32.457319
1.1149959
34.404216
1.0801169
35.652787
0.968354
36.184563
0.78569733
36.460771
0.56006019
36.343872
0.28643914
36.21927
35.788892
0.81713979
28.095097
-0.36492174
1.087536
32.186923
1.1701262
34.321625
1.1228966
35.700016
0.99477838
36.312681
0.79253631
36.663013
0.56084127
36.575567
0.29597939
36.484132
36.084871
0.89898069
27.56056
-0.36444382
1.168825
31.917079
1.2508714
34.239579
1.2056749
35.745213
1.0829046
36.435452
0.87928546
36.866632
0.63043044
36.824422
0.34355856
36.771004
36.42843
0.96653806
27.107169
-0.51314746
1.2352887
31.648328
1.3116384
34.163229
1.2510957
35.805755
1.1104773
36.57607
0.88627462
37.090835
0.63568396
37.075013
0.35377591
37.052912
36.782206
1.0672134
26.577313
-0.53735698
1.3390666
31.376475
1.4125278
34.089768
1.3494532
35.86883
1.2108202
36.714703
0.98100405
37.320651
0.70846255
37.347554
0.38271629
37.378658
37.164922
1.1596368
26.191447
-0.77377125
1.4148523
31.121259
1.4770094
34.027611
1.3956798
35.95016
1.2378627
36.87252
0.98754048
37.570973
0.71794578
37.617149
0.3775832
37.719021
37.542505
1.3093684
25.687374
-0.80529525
1.549459
30.881169
1.6063135
33.970756
1.5191559
36.037317
1.358123
37.033553
1.0972708
37.831825
0.79393339
37.920486
0.40008857
38.112866
37.942594
-0.04401961
37.986613
-0.0084852627
38.077331
0.046783034
37.865218
0.14454191
37.734066
0.27268862
36.905406
0.43737565
35.87263
0.62054244
33.78759
0.79371586
30.707995
25.838813
0.64227738
-0.077253793
38.063867
-0.066246416
38.066324
-0.040121333
37.839093
0.048047992
37.645897
0.16001041
36.793444
0.30751103
35.72513
0.4591839
33.635917
0.57738344
30.589796
25.899116
0.5170805
-0.095502366
38.15937
-0.058048185
38.02887
-0.020452194
37.801497
0.060458912
37.564986
0.16475119
36.689152
0.30131169
35.588569
0.44626392
33.490965
0.57420855
30.461851
25.91533
0.55799445
-0.11493825
38.274308
-0.11058717
38.024519
-0.10300097
37.793911
-0.037564308
37.499549
0.048977429
36.60261
0.17063272
35.466914
0.2989185
33.362679
0.40306364
30.357706
25.94975
0.3686428
-0.11507106
38.389379
-0.088737052
37.998185
-0.071291133
37.776465
-0.01218071
37.440439
0.071007262
36.519422
0.1857863
35.352135
0.31002836
33.238437
0.41618163
30.251553
25.949349
0.41658294
-0.12656778
38.515947
-0.13829537
38.009912
-0.14710268
37.785272
-0.10571042
37.399047
-0.04002979
36.453741
0.058924014
35.253181
0.16867268
33.128688
0.26015554
30.16007
25.94427
0.26523456
-0.11501728
38.630964
-0.12045474
38.01535
-0.10871056
37.773528
-0.068812759
37.359149
-0.0044905716
36.389419
0.08983093
35.15886
0.19558816
33.022931
0.29051173
30.065146
25.888885
0.34589676
-0.10782504
38.738789
-0.17221913
38.079744
-0.17634546
37.777654
-0.15156455
37.334368
-0.10593308
36.343788
-0.030621386
35.083548
0.063307377
32.929002
0.15666716
29.971787
25.815654
0.22989787
-0.060029325
38.798818
-0.13390186
38.153616
-0.12489627
37.768649
-0.10147387
37.310946
-0.054987367
36.297301
0.018349055
35.010211
0.10995896
32.837392
0.20610903
29.875636
25.707037
0.31472662
-0.087557634
25.583459
0.21113555
0.011864573
29.776214
0.092444245
32.756813
0.14397465
34.958681
0.16952175
36.271754
0.17597512
37.304492
0.15260414
37.79202
0.019949513
38.286271
38.818768
-0.15183356
25.439339
0.29595316
-0.05494188
29.679323
0.023709964
32.678161
0.075525007
34.906866
0.10162553
36.245653
0.10644369
37.299674
0.086298682
37.812165
-0.034901992
38.407472
38.783866
-0.044484608
25.283523
0.20030103
0.056324611
29.578513
0.11972708
32.614758
0.14458119
34.882012
0.15059141
36.239643
0.14216216
37.308103
0.085954648
37.868372
-0.063801211
38.557228
38.720065
-0.12112615
25.117452
0.28719696
-0.029287521
29.486675
0.029525327
32.555945
0.057898467
34.853639
0.067034586
36.230507
0.054290437
37.320847
0.013716762
37.908946
-0.098722863
38.669667
38.621342
-0.024543871
24.944797
0.19719855
0.068783737
29.393347
0.10679157
32.517938
0.10395134
34.856479
0.093759461
36.240699
0.068805228
37.345802
0.01004036
37.967711
-0.10619935
38.785907
38.515142
-0.11634332
24.773496
0.28764448
-0.037500298
29.314504
-0.0054917838
32.485929
-0.0014723066
34.852459
-0.0029502663
36.242177
-0.035476159
37.378328
-0.064279299
37.996514
-0.11466914
38.836297
38.400473
-0.031172956
24.605855
0.19881374
0.043883978
29.239447
0.046496109
32.483317
0.019008071
34.879948
0.0014808187
36.259704
-0.03885487
37.418663
-0.060151305
38.01781
-0.099079697
38.875225
38.301394
-0.14277095
24.458412
0.29021484
-0.089558206
29.186234
-0.091434342
32.485193
-0.11111728
34.89963
-0.11624602
36.264833
-0.15281145
37.455229
-0.13320179
37.998201
-0.094753344
38.836777
38.20664
-0.071389479
24.331442
0.19835927
-0.028523336
29.143368
-0.066925337
32.523595
-0.11949857
34.952204
-0.14129223
36.286627
-0.17394595
37.487882
-0.13257208
37.956827
-0.076107436
38.780312
38.130533
0.21106553
37.919467
0.47568097
38.515697
0.66501886
37.767489
0.73063416
37.422267
0.78060207
36.236659
0.75075359
34.982052
0.6614287
32.61292
0.54796086
29.256836
24.398775
0.48062747
0.21003414
37.709433
0.49037726
38.235353
0.72225746
37.535609
0.8173542
37.32717
0.85586085
36.198152
0.79643027
35.041483
0.66381133
32.745539
0.50376367
29.416884
24.534863
0.36767549
0.23831915
37.471114
0.57953815
37.894134
0.86378666
37.25136
0.9960683
37.194889
1.069518
36.124702
1.0461381
35.064863
0.92962147
32.862055
0.76324379
29.583261
24.763037
0.53507021
0.25427699
37.216837
0.59797639
37.550435
0.92692657
36.92241
1.1039656
37.01785
1.1773738
36.051294
1.1343415
35.107895
0.99496534
33.001432
0.77961569
29.798611
25.09334
0.44931226
0.30879946
36.908037
0.69665512
37.162579
1.0701789
36.548886
1.3013247
36.786704
1.4221206
35.930498
1.4134551
35.11656
1.3022463
33.112641
1.1024674
29.99839
25.59254
0.60326758
0.34468502
36.563352
0.73057045
36.776694
1.1357442
36.143712
1.4138856
36.508562
1.5523755
35.792008
1.5408865
35.128049
1.4200173
33.23351
1.2377336
30.180674
26.326589
0.50368434
0.41764583
36.145707
0.84305246
36.351287
1.2818839
35.704881
1.6132272
36.177219
1.8179018
35.587334
1.8547227
35.091228
1.751808
33.336424
1.6656276
30.266854
27.242594
0.74962326
0.46719213
35.678514
0.89607152
35.922408
1.3479638
35.252989
1.71482
35.810363
1.9565905
35.345563
2.0221175
35.025701
1.8606118
33.49793
1.8624185
30.265047
28.189134
0.91587875
0.55211658
35.126398
1.0291635
35.445361
1.5080601
34.774092
1.9448884
35.373535
2.2949957
34.995456
2.4817606
34.838937
2.3078384
33.671852
2.4164799
30.156406
28.769608
1.8360055
-1.1916834
36.318081
-2.4750235
36.728701
-3.7592538
36.058322
-5.1894698
36.803751
-6.6045022
36.410488
-8.0530527
36.287487
-9.3600952
34.978895
-9.8937046
30.690015
28.644705
-9.7688019
-1.1213165
37.439398
-2.411518
38.018903
-3.7162659
37.36307
-5.1935035
38.280988
-6.6443771
37.861362
-8.1438368
37.786947
-9.5214051
36.356463
-9.7479882
30.916598
26.691313
-7.794596
-1.0766553
38.516053
-2.3682851
39.310532
-3.6724749
38.66726
-5.1962706
39.804784
-6.6952293
39.360321
-8.2497001
39.341417
-9.628556
37.735319
-9.2928966
30.580939
20.209309
-2.8108924
-1.0054077
39.521461
-2.2841386
40.589263
-3.6106985
39.99382
-5.171665
41.36575
-6.7439412
40.932597
-8.3351578
40.932634
-9.6262338
39.026395
-8.8247146
29.77942
12.190957
-0.8063626
-0.9581803
40.479641
-2.2301848
41.861268
-3.5531305
41.316766
-5.1506404
42.96326
-6.781053
42.56301
-8.4125517
42.564133
-9.6401745
40.254018
-7.9830938
28.122339
4.4880308
-0.28016764
-0.88441738
41.364058
-2.1331927
43.110043
-3.4758581
42.659431
-5.1017739
44.589176
-6.7855313
44.246767
-8.4916321
44.270234
-9.4566843
41.21907
-5.7436439
24.409299
-1.4270702
0.17145715
-0.83878667
42.202845
-2.0728578
44.344114
-3.396964
43.983537
-5.056389
46.248601
-6.7981057
45.988484
-8.478061
45.950189
-8.9016776
41.642687
-4.2427534
19.750374
-6.1047172
0.4348936
-0.77077313
42.973618
-1.9727972
45.546138
-3.3055245
45.316265
-4.985504
47.928581
-6.758354
47.761334
-8.4004083
47.592243
-8.2533619
41.49564
-3.4930744
14.990087
-10.022703
0.42491135
-0.72926818
43.702886
-1.909046
46.725916
-3.2153719
46.62259
-4.9200329
49.633241
-6.7300124
49.571313
-8.2401628
49.102394
-7.4605141
40.715991
-2.6022907
10.131863
-13.455671
0.83067715
1.2073709
-15.196883
0.53384128
4.0046005
7.3346338
4.6081067
40.112485
3.6367867
50.073714
2.5017879
50.706312
1.4744624
50.660567
0.73182317
47.36523
0.16183057
47.295909
43.864717
0.91462153
-16.748929
0.6374246
3.6745295
4.5747258
4.4885819
39.298433
3.5215343
51.040761
2.373666
51.85418
1.3618297
51.672403
0.66006615
48.066993
0.1291802
47.826795
43.993897
0.56503103
-18.045034
0.73107375
3.2644087
1.8753481
4.398219
38.164622
3.4411635
51.997817
2.2860202
53.009324
1.2765174
52.681906
0.58170131
48.761809
0.090305486
48.318191
44.084203
0.21641029
-19.051987
0.79054257
2.8249061
-0.73314764
4.2415656
36.747963
3.3156807
52.923702
2.1558405
54.169164
1.1671336
53.670613
0.51532492
49.413618
0.065597361
48.767918
44.1498
-0.059656024
-19.849334
0.85700325
2.4555846
-3.2483883
4.1025928
35.100955
3.229569
53.796725
2.0663719
55.332361
1.0841762
54.652809
0.44489674
50.052898
0.035357662
49.177457
44.185158
-0.11369212
-20.607506
0.87186393
2.3247952
-5.6868756
3.9109186
33.514831
3.0825298
54.625114
1.9342116
56.480679
0.98249637
55.604524
0.38406255
50.651331
0.015856889
49.545663
44.201015
-0.059533131
-21.367422
0.81944989
2.3479858
-8.0943946
3.7737443
32.089073
2.9840482
55.41481
1.8419379
57.62279
0.90902371
56.537438
0.32888951
51.231466
-0.00014191666
49.874694
44.200873
-0.02986788
-22.274272
0.93671757
2.3142105
-10.438473
3.5780364
30.825247
2.8065394
56.186307
1.7045172
58.724812
0.81118958
57.430766
0.27493258
51.767723
-0.014580831
50.164208
44.186292
-0.028563867
-22.587214
0.34150557
2.1823029
-12.64934
3.4267347
29.580815
2.7258625
56.887179
1.6112864
59.839388
0.74884251
58.293209
0.23192057
52.284644
-0.018425203
50.414553
44.167867
2.939545
-24.874196
-0.65256314
2.7648382
-12.474633
0.39417957
31.951474
-1.9197731
59.201132
-2.818779
60.738394
-2.8997486
58.374179
-2.2832615
51.668157
-1.3659775
49.497269
42.801889
3.0047239
-26.765528
-1.1133915
2.1928989
-11.662808
-0.51755775
34.66193
-2.6841371
61.367711
-3.5404533
61.59471
-3.2690684
58.102794
-2.4009263
50.800015
-1.3566485
48.452992
41.445241
2.9500346
-27.740171
-1.9753913
1.7174551
-10.430228
-1.5752829
37.954668
-3.4866318
63.27906
-3.8237769
61.931855
-3.3387479
57.617765
-2.410789
49.872056
-1.2958031
47.338006
40.149438
2.8468196
-28.604996
-1.9819952
1.3288419
-8.9122508
-2.2183798
41.50189
-3.9521992
65.01288
-4.2205749
62.200231
-3.4142989
56.811489
-2.3469837
48.804741
-1.1922262
46.183248
38.957211
2.6614138
-28.565922
-2.7004871
0.78034995
-7.0311869
-3.0875115
45.369752
-4.4763539
66.401722
-4.2120063
61.935883
-3.2530106
55.852493
-2.2256792
47.77741
-1.0602465
45.017815
37.896965
2.5905938
-27.927588
-3.2289279
0.51261831
-4.9532114
-3.5685904
49.45096
-4.6894787
67.522611
-4.389214
61.635618
-3.238684
54.701963
-2.1643529
46.703079
-0.97268832
43.826151
36.924277
2.1127344
-26.687005
-3.3533178
-0.27512095
-2.565356
-4.3862933
53.562133
-5.0450494
68.181367
-4.2246818
60.815251
-3.0036993
53.480981
-1.9594744
45.658854
-0.73751552
42.604192
36.186761
2.0713339
-25.550047
-3.2082922
-0.38722434
-0.10679782
-4.6755731
57.850481
-5.0302333
68.536027
-4.2359082
60.020926
-2.938614
52.183687
-1.909182
44.629422
-0.63164329
41.326653
35.555118
1.4441594
-2.490623
-24.503583
-1.4477735
2.7851351
-5.7052377
62.107946
-5.3131974
68.143986
-3.9621817
58.66991
-2.6810433
50.902548
-1.670079
43.618458
-0.39071292
40.047287
35.164405
-2.9956238
2.3055363
0.68764193
0.0024454898
-6.0644848
3.0677409
0.0011202079
-6.1831299
0.12337342
-0.0047283906
-2.6688833
-3.509593
-0.0046535913
0.53854298
-3.2082486
0.00082233113
4.4468005
-3.9089988
0.0007412758
8.1224065
-3.6764957
0.00088969024
12.010484
-3.8887842
0.00070667203
-3.3916629
0.00036630623
-2.9771659
4.5807196
0.70198252
-5.9307111
6.0212861
-5.8380993
0.030761596
-2.2540402
-7.0936521
0.90223593
-6.3645247
4.7398107
-7.7465735
8.2931821
-7.2298671
12.099232
-7.694834
-6.7246611
-2.9219415
6.7873984
0.71526261
-5.6931452
8.7924898
-5.2951738
-0.36720985
-1.4812275
-10.907598
1.8416959
-9.6874481
5.5266872
-11.431565
8.8027519
-10.505932
12.373266
-11.265348
-9.898513
-2.833218
8.9011152
0.71950121
-5.2872651
11.246537
-4.5542407
-1.1002343
-0.67985545
-14.781984
2.990654
-13.357958
6.6893324
-15.130243
9.7513499
-13.567949
12.972896
-14.486894
-12.787535
-2.7247956
10.894236
0.73167521
-4.7402424
13.261984
-3.5865861
-2.2538906
0.20119466
-18.569764
4.031086
-17.187849
7.8050057
-18.904163
10.923412
-16.686355
13.887769
-17.451251
-15.334206
-2.5646334
12.735542
0.72332673
-4.1766465
14.873997
-2.5519086
-3.8786285
1.3326683
-22.454341
5.2904538
-21.145634
8.8738049
-22.487514
12.03372
-19.846271
14.895775
-20.313306
-17.604329
-2.4447609
14.458351
0.72195254
-3.5650416
15.994278
-1.3978776
-6.0457925
2.4395152
-26.291734
6.5432397
-25.249359
9.9618274
-25.906102
12.956129
-22.840572
15.667571
-23.024748
-19.706103
-2.2933142
16.030048
0.72161644
-2.9491667
16.65013
-0.19642944
-8.7985298
3.5562857
-30.044449
7.5360734
-29.229147
10.8616
-29.231628
13.677278
-25.65625
16.078141
-25.425611
-21.655673
-2.1612523
0.7225783
17.468722
-2.3694826
16.85836
0.80200792
-11.97002
4.6043806
-33.846822
8.5301429
-33.154909
11.638485
-32.33997
14.322997
-28.340762
16.464621
-27.567235
-23.39222
1.4442644
25.551812
-2.491164
-24.504912
-1.4481568
0.10255079
2.7898707
-5.705735
-57.854948
62.112526
-5.3132109
-68.53646
68.143936
-3.9620398
-60.019867
58.668696
-2.6808817
-52.182635
50.901476
-1.6699869
-44.628735
43.61784
-0.3907109
-41.325962
40.046686
-35.555053
35.164342
2.0715039
26.689126
-3.2088183
-0.38758451
2.5616392
-4.6760569
-53.566475
-5.0303468
-68.18217
-4.2358248
-60.814389
-2.9384945
-53.479965
-1.9090882
-45.658141
-0.63161287
-42.603437
-36.186666
2.112861
27.930001
-3.3537354
-0.27554575
4.9500459
-4.3868215
-49.4552
-5.0452724
-67.523719
-4.2247022
-61.634959
-3.0036202
-54.701047
-1.9593792
-46.702383
-0.7374692
-43.825347
-36.924135
2.5906451
28.568628
-3.2292723
0.51220768
7.0284833
-3.5690606
-45.373931
-4.689722
-66.403058
-4.3892233
-61.935458
-3.238606
-55.851664
-2.1642678
-47.776721
-0.97261588
-45.016999
-37.896751
2.6615469
28.607803
-2.7007222
0.77992675
8.9101034
-3.0880612
-41.505944
-4.4767131
-65.014406
-4.2121096
-62.200062
-3.2529576
-56.810816
-2.2256229
-48.804055
-1.0602009
-46.182421
-38.956952
2.8469666
27.742901
-1.9820645
1.3284655
10.428604
-2.2189026
-37.958575
-3.9524877
-63.280821
-4.2206583
-61.931891
-3.4143162
-57.617158
-2.3469224
-49.871449
-1.1921521
-47.337192
-40.149104
2.9501728
26.768176
-1.9754477
1.7171035
11.661674
-1.5758695
-34.665602
-3.4870866
-61.369604
-3.8240065
-61.594971
-3.3387958
-58.102369
-2.4107564
-50.799489
-1.2957466
-48.452201
-41.444851
3.0048954
24.876661
-1.1133813
2.1926601
12.473909
-0.5180626
-31.95488
-2.6845562
-59.20311
-3.5406635
-60.738864
-3.2691613
-58.373871
-2.4009384
-51.667712
-1.3565956
-49.496544
-42.801446
2.9397746
22.589346
-0.65245943
2.7646601
12.649023
0.39371024
-29.58393
-1.9202805
-56.889119
-2.8190149
-59.840129
-2.8998424
-58.293044
-2.283294
-52.28426
-1.3659491
-50.413889
-44.167395
-0.16177785
43.864435
-43.702657
-0.73173383
47.295576
-46.72562
-1.4743554
47.365028
-46.622407
-2.5016687
50.660733
-49.63342
-3.636695
50.707059
-49.572032
-4.6080839
50.074904
-49.103515
-4.0047455
40.114445
-40.717783
-1.2074998
7.3353455
-10.132591
-15.198167
13.456828
0.5338398
-0.12913641
43.993571
-0.65998485
47.826425
-1.3617154
48.066759
-2.3735053
51.672523
-3.5214102
51.854964
-4.4885539
51.042048
-3.6747121
39.300603
-0.91475183
4.5753852
-16.750383
0.63746367
-0.090268002
44.083839
-0.58161843
48.317775
-1.2764156
48.761556
-2.2858883
52.681995
-3.441049
53.010124
-4.3981844
51.999183
-3.2646583
38.167077
-0.56521113
1.8759379
-18.046726
0.73113182
-0.065563758
44.149403
-0.5152442
48.767456
-1.1670306
49.413343
-2.1556999
53.670665
-3.315553
54.169977
-4.2415212
52.925151
-2.8250983
36.750654
-0.21655664
-0.73260382
-19.053863
0.79058009
-0.035328046
44.184731
-0.44482733
49.176955
-1.0840928
50.052608
-2.0662518
54.652824
-3.2294477
55.333173
-4.1025624
53.798266
-2.4557
35.103791
0.059593023
-3.2478969
-19.851311
0.85704191
-0.015838953
44.20057
-0.38400562
49.545122
-0.98241381
50.651016
-1.9340888
55.604499
-3.0824017
56.481486
-3.9108816
54.626746
-2.3248201
33.51773
0.11371759
-5.6864346
-20.60952
0.87192571
0.00015645182
44.200413
-0.32883142
49.874109
-0.90894244
51.231127
-1.8418054
56.537362
-2.9839147
57.623595
-3.773713
55.416544
-2.3479887
32.092005
0.059579273
-8.0940026
-21.369448
0.81950777
0.014590051
44.185823
-0.27487979
50.163579
-0.81111974
51.767367
-1.7044081
57.43065
-2.8063981
58.725585
-3.5779874
56.188133
-2.3142519
30.82827
0.029866513
-10.438121
-22.276405
0.93682319
0.018427941
-0.23188203
-0.74877476
-1.6111683
-2.7257124
-3.4266982
-2.1823588
0.028543597
0.34148461
2.6025161
10.023613
0.83069882
7.4607831
-14.990858
8.2402039
-41.497204
6.7299226
-47.593234
4.919882
-47.761992
3.2152453
-47.928783
1.9089603
-45.316122
0.72921945
-45.545879
-42.973437
3.4932783
6.1053606
0.42497388
8.2535713
-19.751151
8.4004395
-41.644072
6.7582932
-45.951088
4.9853932
-45.989092
3.3054125
-46.248802
1.9727365
-43.983446
0.77074139
-44.343884
-42.202696
4.2429557
1.427526
0.43487882
8.901862
-24.410058
8.4781005
-41.220311
6.7980356
-44.271023
5.0562491
-44.247305
3.3968528
-44.589406
2.0728119
-42.659405
0.83876184
-43.109834
-41.363934
5.7436602
-4.4875166
0.17138241
9.4568593
-28.123257
8.4916701
-40.255122
6.7854959
-42.564849
5.1016973
-42.563507
3.4757699
-42.963479
2.1331484
-41.316783
0.88439654
-41.861083
-40.479538
7.983266
-12.190581
-0.28020159
9.6403515
-29.780342
8.412612
-39.027382
6.781023
-40.93326
5.1505637
-40.933047
3.5530681
-41.365983
2.2301579
-39.993873
0.95817022
-40.589095
-39.521367
8.8249225
-20.209106
-0.80639782
9.6264182
-30.581838
8.3352205
-37.736184
6.7439328
-39.341972
5.1716231
-39.360738
3.6106412
-39.805001
2.2841302
-38.667362
1.0054195
-39.310384
-38.515948
9.2931159
-26.691351
-2.8108703
9.6287316
-30.917453
8.2497631
-36.357216
6.6952181
-37.787427
5.1962083
-37.861728
3.6724182
-38.281211
2.3682824
-37.363226
1.0766682
-38.01877
-37.43928
9.7481902
-28.644925
-7.7946161
9.5215519
-30.690815
8.1438812
-34.979545
6.6443639
-36.287909
5.1934842
-36.410848
3.7162443
-36.803971
2.4115129
-36.058495
1.1213206
-36.728578
-36.317959
9.8938769
-28.769933
-9.7688692
9.3602054
-30.157144
8.0531045
-33.672444
6.6044936
-34.839299
5.1894072
-34.995762
3.7591885
-35.373752
2.4750042
-34.774311
1.191693
-35.445266
-35.126266
0.21109229
37.919677
-38.130769
0.47571875
38.5158
-38.780426
0.66507118
37.767743
-37.957095
0.73069284
37.422484
-37.488106
0.78067395
36.237029
-36.28701
0.75080444
34.982476
-34.952606
0.66142411
32.613344
-32.523964
0.54794153
29.257037
-29.143555
24.39904
-24.331743
0.48064403
0.21007522
37.709602
0.490434
38.235441
0.72232492
37.535852
0.81743117
37.327378
0.85594609
36.198514
0.79649456
35.041928
0.66380961
32.746029
0.50373745
29.417109
24.535075
0.36770293
0.23836938
37.471232
0.57960149
37.894209
0.86385253
37.251601
0.99614587
37.195084
1.0696088
36.125051
1.0462165
35.06532
0.92963514
32.862611
0.76321821
29.583526
24.763184
0.53510915
0.25434136
37.216891
0.59805274
37.550498
0.92699734
36.922656
1.1040503
37.018031
1.1774643
36.051637
1.1344432
35.108341
0.99500331
33.00205
0.77960169
29.798928
25.093465
0.44932023
0.30886827
36.908023
0.69673976
37.162626
1.070237
36.549159
1.3013846
36.786884
1.4222046
35.930817
1.4135442
35.117001
1.3023032
33.113291
1.1024634
29.998768
25.592618
0.60331074
0.34474413
36.563279
0.7306553
36.776715
1.1358198
36.143994
1.4139457
36.508758
1.5524436
35.792319
1.5409802
35.128465
1.4200969
33.234175
1.2377261
30.181139
26.326654
0.50368942
0.41768852
36.14559
0.84312985
36.351274
1.281964
35.70516
1.6132922
36.17743
1.8179641
35.587647
1.8548049
35.091624
1.7519052
33.337074
1.6656394
30.267405
27.242691
0.7496026
0.46721474
35.678375
0.89613593
35.922353
1.3480452
35.253251
1.7148937
35.810581
1.956667
35.345874
2.0222101
35.026081
1.8607269
33.498558
1.8624287
30.265703
28.189309
0.91581081
0.55210943
1.0291955
1.5081359
1.9449648
2.2950768
2.4818591
2.3079722
2.4165314
1.8359073
-0.07138537
-24.458713
0.19835522
-0.028524045
-29.186416
-0.066956395
-32.485532
-0.11955976
-34.900003
-0.14135712
-36.265212
-0.17399889