/*--------------------------------*- C++ -*----------------------------------*\
  =========                 |
  \\      /  F ield         | OpenFOAM: The Open Source CFD Toolbox
   \\    /   O peration     | Website:  https://openfoam.org
    \\  /    A nd           | Version:  11
     \\/     M anipulation  |
\*---------------------------------------------------------------------------*/
FoamFile
{
    format      ascii;
    class       volScalarField;
    location    "4.6";
    object      p;
}
// * * * * * * * * * * * * * * * * * * * * * * * * * * * * * * * * * * * * * //

dimensions      [0 2 -2 0 0 0 0];

internalField   nonuniform List<scalar> 
5472
(
110.45473
108.75327
107.0689
105.39212
103.74397
102.15262
100.60274
99.136723
97.761255
96.463733
95.274925
94.224479
93.263807
92.458442
91.789444
91.315296
90.939244
90.646108
90.559594
110.78675
109.26473
107.72172
106.13443
104.5915
103.08549
101.5909
100.16334
98.814497
97.557046
96.372232
95.320208
94.374676
93.55133
92.861166
92.301447
91.87117
91.586009
91.486869
111.10977
109.72023
108.29409
106.84933
105.40812
103.96234
102.55356
101.17104
99.837811
98.608916
97.442747
96.388789
95.444046
94.606142
93.883117
93.301957
92.871158
92.53918
92.404384
111.36533
110.09383
108.79482
107.47411
106.14401
104.8089
103.46849
102.11835
100.83826
99.624126
98.467918
97.432156
96.474555
95.622762
94.882293
94.294093
93.829871
93.493268
93.31366
111.55261
110.38032
109.19701
108.03007
106.81759
105.55147
104.26882
103.00408
101.76944
100.57566
99.457654
98.421868
97.478464
96.614498
95.869061
95.251897
94.755058
94.424876
94.1957
111.65079
110.61688
109.57078
108.51661
107.40489
106.22073
105.02807
103.81521
102.62782
101.49038
100.40165
99.372461
98.433769
97.576819
96.828015
96.188187
95.699043
95.321542
95.07587
111.7147
110.78356
109.8683
108.9061
107.89092
106.83211
105.70271
104.56582
103.43857
102.32518
101.27361
100.26948
99.350723
98.489977
97.73356
97.091413
96.574906
96.192417
95.934503
111.73859
110.92712
110.09598
109.22662
108.31152
107.33732
106.31788
105.26811
104.16641
103.11335
102.10964
101.12995
100.22047
99.365279
98.627706
97.97653
97.458243
97.058661
96.762676
111.74438
111.00197
110.26519
109.50132
108.67292
107.78789
106.8328
105.84139
104.83921
103.84876
102.86885
101.92989
101.01946
100.18843
99.447416
98.799544
98.284526
97.861406
97.56019
111.70859
111.05664
110.37996
109.69542
108.97258
108.17608
107.30115
106.38651
105.44749
104.50563
103.57451
102.68459
101.8071
100.99302
100.24772
99.610377
99.072884
98.653345
98.336784
111.63352
111.0497
110.47228
109.86964
109.20995
108.48818
107.69935
106.85585
105.98183
105.09537
104.21907
103.3554
102.5111
101.72173
100.99906
100.37645
99.830416
99.414657
99.069103
111.54443
111.03695
110.54252
110.00092
109.40612
108.7555
108.03808
107.27758
106.4821
105.65563
104.82463
103.99526
103.18062
102.40037
101.69363
101.06869
100.54537
100.12356
99.768081
111.44382
111.01267
110.56896
110.08877
109.56383
108.97383
108.32011
107.61105
106.88167
106.12302
105.34793
104.57112
103.79781
103.05336
102.36985
101.74621
101.22597
100.78686
100.43187
111.3143
110.95741
110.56775
110.15189
109.69197
109.17113
108.58389
107.94135
107.27025
106.55356
105.82006
105.07891
104.33463
103.62398
102.9728
102.36951
101.8601
101.41882
101.06013
111.22158
110.88705
110.549
110.18448
109.76628
109.29567
108.76613
108.19326
107.58926
106.94343
106.2662
105.56407
104.85263
104.1721
103.53463
102.94511
102.44356
102.00347
101.63965
111.10841
110.83408
110.54915
110.23308
109.85956
109.43305
108.9417
108.4072
107.84611
107.25793
106.63186
105.97617
105.30604
104.6642
104.0498
103.48371
102.98898
102.55079
102.18473
110.97275
110.7313
110.48359
110.2157
109.90203
109.52482
109.09169
108.61818
108.10472
107.55723
106.96322
106.34364
105.71062
105.10466
104.5178
103.97342
103.48603
103.05376
102.68879
110.89317
110.68511
110.47234
110.22431
109.92791
109.58007
109.19319
108.7683
108.31252
107.81362
107.26725
106.68609
106.0829
105.49449
104.93533
104.41345
103.93491
103.51027
103.14646
110.77777
110.61612
110.43916
110.22934
109.97246
109.65815
109.29526
108.90111
108.48024
108.01858
107.51627
106.97626
106.42605
105.87873
105.33395
104.82191
104.3493
103.93282
103.57081
110.71175
110.56147
110.40154
110.21493
109.98965
109.70983
109.38691
109.03573
108.64458
108.21427
107.73672
107.22173
106.69015
106.16062
105.65597
105.16863
104.70885
104.30058
103.94322
110.68035
110.54674
110.40203
110.22763
110.01339
109.75207
109.45705
109.13809
108.78488
108.3917
107.95158
107.47893
106.98771
106.47634
105.97587
105.49735
105.04702
104.64353
104.29156
110.62196
110.5123
110.39203
110.24294
110.05338
109.81706
109.54299
109.23759
108.9046
108.53207
108.10742
107.64762
107.16622
106.69116
106.21911
105.75435
105.31424
104.91648
104.56095
110.61498
110.51184
110.39696
110.26068
110.08784
109.874
109.62943
109.35207
109.03974
108.69533
108.3142
107.89988
107.4475
106.9677
106.49716
106.03554
105.59882
105.19977
104.84431
110.60958
110.52425
110.42465
110.30034
110.14195
109.94234
109.70904
109.44287
109.14169
108.79786
108.40502
107.9823
107.54709
107.09833
106.64228
106.19479
105.76917
105.37185
105.02203
110.62313
110.54639
110.4559
110.34989
110.21594
110.04441
109.83544
109.59559
109.33035
109.02931
108.68714
108.29356
107.84855
107.3809
106.90449
106.44094
105.99887
105.59077
105.22477
110.64634
110.58604
110.50234
110.40074
110.27218
110.1093
109.90532
109.65995
109.37455
109.05078
108.69192
108.29924
107.88103
107.42882
106.96457
106.50976
106.07449
105.67861
105.31527
110.66596
110.64299
110.59527
110.52227
110.42671
110.3045
110.1466
109.94889
109.70698
109.4204
109.09079
108.70795
108.25356
107.74803
107.22119
106.70805
106.24779
105.81746
105.42169
90.582081
90.766038
91.057819
91.454675
91.942981
92.502251
93.13145
93.84686
94.539631
95.301637
96.079436
96.875629
97.684242
98.477132
99.270036
100.02897
100.68823
101.22062
101.58637
91.495718
91.656647
91.933903
92.320952
92.820762
93.393601
94.07629
94.803194
95.50681
96.294724
97.029362
97.784581
98.499946
99.169413
99.770688
100.27302
100.62
100.82254
100.82006
92.383241
92.519353
92.77842
93.170628
93.688848
94.286969
95.003351
95.716834
96.475006
97.23856
97.955229
98.676176
99.280531
99.815353
100.25073
100.52642
100.63107
100.53149
100.22076
93.25774
93.372425
93.61242
94.013015
94.534642
95.151859
95.856747
96.562552
97.331177
98.032311
98.70704
99.337219
99.825704
100.22668
100.48934
100.59112
100.53613
100.20396
99.680575
94.120813
94.185772
94.428203
94.832181
95.357734
95.975351
96.660104
97.360045
98.083165
98.710575
99.31213
99.807179
100.19235
100.46765
100.5843
100.56354
100.36614
99.959816
99.450536
94.960383
95.000546
95.24681
95.632265
96.154214
96.762769
97.422167
98.094492
98.747882
99.305421
99.828296
100.23095
100.51588
100.69649
100.71544
100.62286
100.4146
100.05816
99.689601
95.765881
95.814016
96.035161
96.401408
96.910561
97.497132
98.130334
98.768348
99.343784
99.855733
100.29851
100.62306
100.84588
100.95357
100.95356
100.87857
100.73883
100.56329
100.39464
96.565442
96.59556
96.772886
97.142435
97.624516
98.19914
98.79775
99.380171
99.904946
100.3707
100.74574
101.01588
101.20084
101.299
101.33988
101.33911
101.34495
101.34335
101.38175
97.340028
97.3442
97.49964
97.854609
98.300097
98.861377
99.405578
99.952248
100.43789
100.85868
101.17856
101.42755
101.60883
101.73395
101.8542
101.96835
102.10368
102.2676
102.46778
98.087885
98.054871
98.183015
98.518617
98.951807
99.479487
99.99055
100.49899
100.93961
101.32256
101.6154
101.87691
102.07446
102.26949
102.47051
102.68119
102.94055
103.22538
103.49665
98.816042
98.723724
98.847985
99.152954
99.571404
100.06131
100.54261
101.0099
101.42027
101.77794
102.0735
102.35968
102.60145
102.86492
103.12067
103.42668
103.76105
104.07954
104.37404
99.493199
99.35895
99.50057
99.755136
100.16365
100.60881
101.05981
101.49723
101.88571
102.24261
102.5567
102.85985
103.1466
103.46551
103.7796
104.14073
104.48297
104.81064
105.10526
100.12211
99.990141
100.09881
100.31334
100.71728
101.1122
101.55164
101.96483
102.34697
102.70555
103.0333
103.36354
103.69412
104.04383
104.39358
104.7587
105.09423
105.40018
105.63381
100.72544
100.59774
100.64859
100.86154
101.22448
101.58768
102.02474
102.40962
102.80016
103.15961
103.50572
103.85989
104.20419
104.5683
104.925
105.26903
105.56258
105.79046
105.93642
101.29456
101.1503
101.15739
101.3763
101.68701
102.05503
102.46466
102.83741
103.23711
103.58275
103.95217
104.31275
104.67127
105.02866
105.35807
105.65084
105.87705
106.058
106.15657
101.8316
101.6544
101.63993
101.84516
102.11689
102.4921
102.86998
103.25043
103.62444
103.97924
104.36706
104.71143
105.06698
105.39162
105.67135
105.89829
106.07698
106.23012
106.33187
102.33072
102.1221
102.10326
102.27401
102.52698
102.89348
103.24361
103.62874
104.00012
104.37318
104.72662
105.05196
105.39283
105.65935
105.88972
106.05957
106.20312
106.3308
106.4109
102.77954
102.54314
102.5161
102.65106
102.91162
103.25239
103.58611
103.96216
104.31421
104.67172
105.00361
105.32506
105.60852
105.81881
106.00734
106.1187
106.2125
106.26775
106.24921
103.19607
102.94427
102.90275
103.00964
103.26165
103.56958
103.9175
104.28724
104.61826
104.94697
105.2533
105.53584
105.74661
105.90823
106.02095
106.05581
106.05372
105.9394
105.77488
103.55201
103.28757
103.21705
103.31636
103.55756
103.84589
104.17863
104.50179
104.82436
105.14376
105.41091
105.63189
105.7714
105.86772
105.87723
105.81375
105.66881
105.42266
105.14081
103.89946
103.61177
103.52316
103.61577
103.8375
104.12544
104.45664
104.75701
105.0513
105.30792
105.51216
105.66148
105.72599
105.72867
105.63013
105.46047
105.21209
104.9375
104.65633
104.16573
103.86376
103.77183
103.84509
104.03989
104.30897
104.58998
104.87363
105.15184
105.36229
105.51937
105.59451
105.58596
105.49155
105.3221
105.0936
104.83637
104.60998
104.3995
104.43383
104.13737
104.00393
104.0651
104.27046
104.5448
104.82359
105.07047
105.26642
105.40632
105.48852
105.47767
105.38789
105.21157
104.99197
104.76041
104.5394
104.3377
104.12278
104.61942
104.28709
104.14891
104.19845
104.37908
104.61431
104.85702
105.07776
105.26241
105.37404
105.39282
105.33267
105.19317
104.99539
104.78557
104.56691
104.33065
104.09507
103.84628
104.78786
104.44458
104.29089
104.36389
104.57274
104.82979
105.05275
105.21684
105.30423
105.3274
105.25733
105.09771
104.87197
104.62471
104.38808
104.14267
103.90064
103.63906
103.30582
104.89391
104.51399
104.3439
104.40372
104.59986
104.82805
105.02262
105.16496
105.25339
105.254
105.16837
105.02127
104.81643
104.59042
104.34373
104.04305
103.65965
103.18713
102.62226
104.94341
104.53845
104.3939
104.52125
104.77814
105.00806
105.1602
105.23246
105.21062
105.09761
104.88504
104.60368
104.28051
103.90469
103.47864
103.01083
102.48541
101.93687
101.40099
101.79079
101.85441
101.62399
100.95086
99.767063
97.642783
94.490024
89.629078
82.904222
73.99726
62.676277
48.645904
32.913646
20.036845
11.612972
7.926968
10.876392
17.848946
26.474791
100.65819
100.26938
99.516106
98.291815
96.436533
93.657651
89.710258
84.150478
76.608794
67.016185
55.408877
42.107676
28.284552
16.320175
7.7420269
4.0121413
6.1905855
13.512131
23.357882
99.697202
98.914253
97.788519
96.225551
94.063639
91.159639
87.210126
82.239151
75.755914
67.904735
58.831416
48.780969
38.727748
29.614179
22.952128
19.894149
21.158914
26.359955
34.491952
98.960427
98.032352
96.809748
95.264532
93.234629
90.629134
87.411692
83.550131
78.819402
73.365026
67.184702
60.591672
53.907502
47.796477
43.252622
40.894571
41.095503
43.952564
49.136274
98.749135
97.893034
96.886037
95.633195
93.983206
91.971211
89.647578
86.835412
83.68806
80.138221
76.223631
72.080719
68.037416
64.461195
61.553019
59.708835
59.207787
60.53943
63.703356
99.192933
98.577844
97.881007
96.921194
95.672076
94.230355
92.601795
90.709044
88.671728
86.364469
83.970345
81.444488
78.83129
76.351684
74.311139
73.119964
72.83565
73.424927
75.083257
100.13383
99.794123
99.319632
98.601093
97.688172
96.724301
95.591509
94.364818
93.025723
91.5312
89.928785
88.02757
86.210012
84.635895
83.201436
82.102914
81.694458
82.099476
83.033422
101.38037
101.23668
100.91309
100.36615
99.716571
99.038363
98.256443
97.468832
96.445702
95.3553
94.132403
92.759615
91.451186
90.055234
88.748118
87.781782
87.14487
86.899737
87.303236
102.63006
102.58415
102.34955
101.93819
101.48805
101.00427
100.49724
99.885687
99.129165
98.338955
97.279795
96.092352
94.786987
93.445895
92.145818
90.773187
89.189157
87.864537
87.222136
103.70477
103.73786
103.56653
103.27781
102.99457
102.66872
102.32319
101.88983
101.31489
100.54388
99.620584
98.521942
97.202339
95.762765
94.033797
91.893102
89.597224
87.729182
86.245297
104.63083
104.71283
104.58738
104.41132
104.21938
104.02941
103.79214
103.42549
102.90247
102.27389
101.45006
100.20514
98.660188
96.804607
94.346682
91.205663
87.993279
84.892534
81.631138
105.3674
105.42985
105.33845
105.21838
105.07324
104.92398
104.68204
104.33132
103.86814
103.19746
102.13151
100.5582
98.594337
96.002446
92.256343
87.382814
81.845053
75.482904
68.642982
105.83448
105.85921
105.79645
105.68775
105.53956
105.3595
105.08171
104.66853
104.09891
103.24464
102.06293
100.3258
98.109695
95.069327
90.566062
84.57669
77.129121
67.962178
57.147019
106.08956
106.13656
106.10698
105.9992
105.87393
105.70081
105.41096
104.98597
104.4658
103.8445
102.76076
101.07915
99.352727
96.845357
93.015554
87.777797
81.094728
72.90719
63.467565
106.34839
106.44453
106.44034
106.39059
106.35819
106.25743
106.06767
105.8723
105.56477
104.88099
103.87169
102.81629
101.16561
98.92055
95.780264
91.696803
86.730526
81.106526
75.221719
106.54026
106.64158
106.66074
106.69887
106.71215
106.6315
106.48046
106.05666
105.38217
105.35304
104.79161
103.24276
101.271
98.912465
96.228191
93.210211
89.983797
86.808292
84.023888
106.55654
106.62348
106.68214
106.74901
106.72115
106.60709
106.19745
105.76283
104.83866
103.4615
101.92199
100.01586
97.825591
95.503381
93.304519
91.352838
89.636335
88.2312
87.419746
106.24545
106.27868
106.41189
106.48521
106.46391
106.32482
105.83156
105.12113
103.2108
100.2026
97.063027
93.979698
91.296397
89.268346
87.861177
86.923433
86.574052
86.908548
87.842512
105.54379
105.56925
105.65502
105.69528
105.62712
105.49206
105.21518
104.71897
103.46401
100.61006
96.11267
89.997333
82.9037
76.678789
72.645139
71.166405
72.289056
75.351443
79.366477
104.77843
104.74318
104.70019
104.57232
104.27825
103.85359
103.2045
102.1832
100.31069
96.963902
92.127685
86.371152
80.715059
75.807825
71.911184
69.491211
69.082786
71.268812
75.143563
104.39789
104.32683
104.27039
104.11525
103.84233
103.49097
102.98138
102.26461
101.12646
99.390399
96.837527
93.551956
89.781465
85.666836
81.772036
78.889709
77.656566
78.270593
80.502315
104.28825
104.28715
104.30941
104.26146
104.1914
104.12993
104.00325
103.79852
103.42082
102.9074
102.02894
100.69118
98.878871
96.604285
94.247899
92.24186
90.556699
89.308335
89.119196
104.08967
104.16566
104.24358
104.30885
104.37652
104.46338
104.53822
104.64419
104.70223
104.62955
104.47633
104.16042
103.34456
102.12751
100.82014
99.266289
97.352607
95.582994
94.16316
103.77526
103.80778
103.88101
103.98255
104.08379
104.16708
104.3108
104.3395
104.41455
104.28599
103.76659
103.07906
102.50352
101.7335
100.32218
98.267243
96.02445
93.81557
91.63403
103.03638
103.09577
103.27533
103.39173
103.49301
103.59874
103.69443
103.79736
103.79404
103.91311
103.52175
102.51567
102.26791
101.62019
100.7284
99.423086
97.779352
95.903679
93.925004
102.06471
102.09916
102.24001
102.32023
102.39858
102.47734
102.52955
102.59979
102.38898
102.68376
102.78252
101.3381
100.18231
99.472812
99.087535
98.767544
98.311871
97.864631
97.497448
100.87499
100.92795
100.97373
101.00102
101.05872
101.15862
101.31837
101.54873
101.78377
101.82707
101.73759
102.02344
102.23596
102.06314
101.48055
100.82746
100.30622
99.986227
99.762877
37.870147
50.624914
61.842012
70.739671
78.261312
84.23607
88.313701
90.64757
91.834998
92.487647
92.416573
91.806681
90.920388
89.752826
88.478168
87.047523
85.650812
84.151554
82.600277
36.663408
50.537816
63.105898
73.943513
82.343347
88.374661
93.015317
96.06461
97.618602
98.177344
97.985296
97.313079
96.297597
94.999373
93.671659
92.137349
90.6969
89.164431
87.499688
44.848578
55.997736
68.213912
77.586852
85.733119
92.233219
97.017998
100.35534
102.30271
103.09845
102.9977
102.2479
101.22267
99.868778
98.38867
96.892211
95.346895
93.868243
92.11703
56.223252
64.455909
73.137128
81.161226
88.30303
94.79245
99.37897
103.31845
105.87176
106.76194
106.75143
106.10423
105.02983
103.77557
102.2541
100.76514
99.258781
97.776499
96.089255
68.279453
73.832425
79.982189
86.138623
91.92497
97.107964
101.38732
105.1954
107.88218
109.01791
109.01969
108.50524
107.53406
106.3082
104.9209
103.46708
102.10007
100.73581
99.174108
77.906866
81.703508
86.15118
90.84021
95.489007
99.898076
103.64752
106.76096
108.78007
109.61079
109.70112
109.32891
108.61114
107.57931
106.39956
105.11543
103.90844
102.73793
101.39228
84.795554
87.409422
90.505939
94.058262
97.958887
101.73045
104.91417
107.37198
108.8011
109.27395
109.22433
108.93961
108.4766
107.73263
106.85675
105.84095
104.86112
103.89542
102.79355
88.1801
89.60091
91.831322
94.739801
97.897254
100.94668
103.84105
106.17642
107.72732
108.37382
108.4376
108.07716
107.76533
107.27587
106.68513
105.94815
105.19234
104.45682
103.58156
87.356578
88.406428
90.214838
92.259003
94.505392
97.370875
100.45436
103.21255
105.41543
106.69384
107.18751
107.26287
107.11434
106.76901
106.35355
105.8306
105.21823
104.65803
103.98409
84.975937
84.209698
84.038638
84.995386
87.121074
90.158322
93.76889
97.534631
100.84654
103.30785
104.81078
105.52025
105.37702
105.77717
105.78009
105.53965
105.11707
104.67525
104.18376
78.398128
75.750436
74.107123
74.028624
75.421298
78.222925
82.710592
87.936392
92.731136
96.776922
100.08753
102.46098
103.96858
104.94681
105.28917
105.24697
104.97155
104.58248
104.21281
62.053258
56.906192
53.986326
53.727192
56.394388
61.286605
67.751745
75.272154
82.889093
89.808866
96.067974
100.48581
102.79753
104.12559
104.62917
104.72639
104.54989
104.21821
103.91875
45.825459
36.014235
29.771891
29.284301
34.659633
44.07726
55.458727
67.152811
79.527527
88.878303
95.757117
99.778802
101.69443
102.7875
103.38311
103.61421
103.60488
103.39591
103.24844
53.729552
44.944891
39.150475
37.708826
40.736683
47.636404
57.245351
67.551752
77.49387
85.872105
92.180949
96.240805
98.813745
100.46288
101.54184
102.11505
102.36337
102.39099
102.41365
69.533786
64.93363
62.575052
62.917463
65.370697
69.69641
75.359993
81.074223
86.48024
91.103425
94.595382
97.104312
98.913826
100.1376
101.00933
101.59176
101.86709
101.96881
102.00617
81.668415
80.12679
79.942195
81.511088
83.789029
86.115915
88.974351
91.883544
94.432936
96.642267
98.333164
99.549066
100.47119
101.11446
101.56662
101.91911
102.10429
102.16271
102.1447
87.37084
87.766769
88.325709
89.213979
90.976469
93.111835
95.043009
96.886743
98.389488
99.580803
100.54393
101.22112
101.73065
102.0658
102.27912
102.4707
102.54336
102.5693
102.51175
89.162934
90.524111
92.016453
93.767735
95.556481
97.217062
98.577515
99.761075
100.76917
101.5423
102.12258
102.52125
102.7865
102.9393
102.99625
103.04795
103.05123
102.9907
102.86222
83.723171
87.97205
91.478733
94.367873
96.91563
99.015778
100.58287
101.73781
102.49005
103.03549
103.41178
103.64356
103.77175
103.75837
103.67344
103.56861
103.52775
103.42188
103.22556
79.949051
85.187369
90.192758
94.234842
97.338213
99.594324
100.84682
101.24961
102.1231
103.41524
104.2212
104.34911
104.32439
104.27941
104.10737
103.94486
103.78915
103.66602
103.47999
83.878361
87.763225
91.586053
94.976854
97.711213
99.896433
101.45727
102.5638
102.9677
103.54952
104.04247
104.23441
104.34159
104.29459
104.15694
103.98459
103.77348
103.61806
103.45399
89.871125
91.210523
92.899324
94.728426
96.527081
98.277665
99.85874
100.82738
101.60305
102.89452
103.95029
103.97865
104.17356
104.0008
103.87165
103.69044
103.4859
103.27999
103.13567
92.912997
91.887083
91.387205
91.496361
92.143453
93.268688
94.966454
97.575216
100.52906
102.37131
102.99967
103.14988
103.22943
103.12302
103.04737
102.91444
102.77492
102.6017
102.48657
89.930887
88.99869
89.006864
89.988389
91.743153
94.257852
96.284318
97.7782
99.162198
100.61615
101.40616
101.72008
101.90266
101.96756
101.99615
101.98355
101.91418
101.84937
101.84716
92.123676
90.818105
90.280779
90.63769
91.801773
93.517773
95.607865
97.651539
99.179751
100.07453
100.44547
100.65842
100.86921
101.0157
101.11311
101.21424
101.26111
101.29348
101.35471
97.260205
97.295213
97.691494
98.317237
98.874028
99.001431
98.943492
99.047861
99.309191
99.650696
100.03302
100.33126
100.54838
100.69277
100.79467
100.85941
100.883
100.86791
100.87805
99.583079
99.319823
98.900046
98.555382
98.568277
98.983569
99.55611
100.08081
100.37057
100.48078
100.50977
100.49789
100.48234
100.49182
100.52329
100.57251
100.58653
100.56046
100.51348
81.044583
79.476636
77.91182
76.368081
74.84291
73.37816
72.017945
70.731484
69.586354
68.501435
67.58433
66.735184
65.986951
65.461703
64.960713
64.697246
64.500682
64.613131
64.981351
85.805744
84.013375
82.26427
80.498051
78.778209
77.078495
75.489046
73.960959
72.557801
71.263873
70.055217
69.048718
68.086581
67.418338
66.830349
66.443616
66.217828
66.210524
66.505295
90.23578
88.277076
86.326925
84.39409
82.478049
80.620393
78.809403
77.101997
75.471824
73.992541
72.582738
71.359302
70.263134
69.377248
68.707082
68.190363
67.93825
67.873652
68.105931
94.098013
92.058094
89.974059
87.936837
85.889118
83.909133
81.968861
80.092142
78.316005
76.63413
75.084753
73.655447
72.421248
71.368874
70.554491
69.953153
69.620075
69.534693
69.7334
97.25343
95.247523
93.164943
91.082441
88.990848
86.920282
84.89892
82.911377
81.007063
79.194514
77.504687
75.947885
74.550919
73.365713
72.410386
71.705964
71.294926
71.162596
71.332271
99.695897
97.851258
95.874518
93.847034
91.774623
89.694182
87.617242
85.583368
83.575934
81.663464
79.844038
78.161636
76.649602
75.331005
74.260544
73.456389
72.962562
72.789092
72.938082
101.39612
99.808464
98.052063
96.174292
94.190333
92.1689
90.092368
88.037314
85.986059
83.996763
82.098874
80.313948
78.692704
77.262783
76.068046
75.171281
74.608492
74.382017
74.50635
102.4961
101.18956
99.686028
98.041329
96.225677
94.31899
92.3248
90.291817
88.237336
86.212302
84.243185
82.377773
80.661778
79.139686
77.87135
76.864426
76.231974
75.956072
76.064892
103.13773
102.11611
100.87069
99.460889
97.86029
96.117708
94.242623
92.292541
90.279086
88.248801
86.265772
84.337569
82.564474
80.945953
79.604969
78.51608
77.805709
77.49546
77.570617
103.49403
102.69408
101.70052
100.51967
99.13874
97.592153
95.880643
94.038344
92.128128
90.127564
88.155184
86.198863
84.377245
82.69218
81.271837
80.142767
79.355844
78.991417
79.04414
103.6929
103.05353
102.24975
101.27485
100.1109
98.751738
97.235337
95.52564
93.727946
91.815031
89.877256
87.93143
86.075109
84.359356
82.86281
81.687393
80.862481
80.440565
80.478401
103.62647
103.19012
102.57698
101.77261
100.82322
99.65688
98.327143
96.788491
95.11662
93.31204
91.436534
89.539311
87.679335
85.944705
84.393257
83.160984
82.32247
81.860876
81.844938
103.20834
103.005
102.64438
102.04212
101.30011
100.32853
99.179964
97.824202
96.297736
94.61926
92.827734
90.99529
89.152419
87.423353
85.853539
84.557856
83.652114
83.208542
83.17079
102.62925
102.6106
102.46058
102.08404
101.54244
100.78395
99.815895
98.641192
97.274579
95.738669
94.052798
92.306648
90.513667
88.798095
87.229793
85.92644
84.978759
84.50121
84.446194
102.1919
102.23853
102.18414
101.98141
101.60581
101.04354
100.26799
99.277929
98.072755
96.689472
95.126322
93.470824
91.746337
90.056616
88.501769
87.1814
86.191838
85.690749
85.648781
102.14503
102.06744
101.9946
101.8657
101.59279
101.16687
100.55818
99.746123
98.697904
97.465662
96.042033
94.486722
92.850765
91.20964
89.675405
88.393995
87.410239
86.844773
86.795044
102.34352
102.1397
101.99142
101.8439
101.59866
101.24528
100.76
100.10256
99.205546
98.115266
96.834911
95.386542
93.839416
92.264358
90.758737
89.448431
88.49217
87.922377
87.846219
102.61911
102.38317
102.15856
101.94248
101.66906
101.33499
100.91662
100.36958
99.59978
98.636992
97.48807
96.152521
94.69616
93.191667
91.745515
90.425751
89.462439
88.935321
88.845275
102.89336
102.66988
102.41675
102.1562
101.83983
101.49602
101.10174
100.61069
99.939968
99.096285
98.061352
96.840628
95.480301
94.037342
92.655308
91.442003
90.471821
89.883608
89.760857
103.13937
102.93638
102.67269
102.39538
102.06536
101.71074
101.31282
100.8236
100.23451
99.47709
98.535906
97.410598
96.142002
94.764633
93.384842
92.125321
91.167884
90.646235
90.582029
103.25092
103.12241
102.89537
102.626
102.32229
101.97675
101.58575
101.08588
100.52922
99.849741
98.988522
97.933583
96.752788
95.478527
94.192426
93.047219
92.136434
91.531097
91.388473
103.12861
103.12852
103.01295
102.80948
102.55336
102.2262
101.85068
101.38136
100.82628
100.17672
99.355386
98.375235
97.244634
95.999953
94.712193
93.481864
92.523382
92.034947
91.978928
102.68366
102.8248
102.87714
102.80582
102.66122
102.42164
102.08873
101.68033
101.16599
100.54888
99.768574
98.854269
97.791739
96.618688
95.44504
94.366609
93.459403
92.853709
92.682829
102.12665
102.38824
102.61943
102.72449
102.69379
102.56406
102.31008
101.94772
101.4775
100.87436
100.12938
99.229354
98.174187
96.981356
95.710092
94.51605
93.584695
93.091792
93.038173
101.61083
101.8876
102.13572
102.35826
102.47564
102.47625
102.36274
102.1216
101.75155
101.24173
100.58523
99.759471
98.763881
97.651066
96.496337
95.364176
94.433481
93.774398
93.593564
101.13729
101.5114
101.85951
102.15567
102.38496
102.50319
102.47844
102.30607
101.98665
101.50988
100.86638
100.04803
99.025356
97.814067
96.530626
95.349768
94.379984
93.830814
93.729316
100.69789
100.93251
101.22925
101.54433
101.85185
102.11642
102.29994
102.34699
102.20914
101.91039
101.43965
100.76688
99.862371
98.731836
97.418547
96.078526
94.934138
94.199683
93.99321
65.344474
65.98357
66.717302
67.685038
68.808351
70.121197
71.61033
73.199069
74.968648
76.832151
78.822998
80.902887
83.084458
85.350015
87.669978
90.039695
92.436894
94.84364
97.263675
66.890475
67.578314
68.36342
69.337504
70.477957
71.775152
73.262875
74.850302
76.604292
78.456
80.405506
82.44826
84.567401
86.750485
88.983505
91.237305
93.505302
95.765498
97.998381
68.535227
69.176697
69.990974
70.972815
72.126351
73.421475
74.897513
76.493335
78.231273
80.073988
81.992739
83.986199
86.037759
88.13133
90.255893
92.39499
94.528686
96.63948
98.674127
70.188083
70.805146
71.612911
72.590907
73.747332
75.047452
76.507225
78.105376
79.824569
81.636679
83.520984
85.45067
87.427952
89.440888
91.460395
93.478377
95.479669
97.442318
99.31302
71.780475
72.400749
73.211961
74.179984
75.337072
76.639503
78.083901
79.660651
81.362583
83.140192
84.974703
86.851033
88.74234
90.668039
92.590527
94.490738
96.349643
98.155729
99.891797
73.395407
74.002025
74.80196
75.768304
76.9106
78.192229
79.625265
81.185602
82.852241
84.591242
86.374633
88.201693
90.007531
91.82112
93.61584
95.394399
97.143801
98.809304
100.39683
74.951361
75.558921
76.348004
77.302062
78.428368
79.697986
81.108611
82.645804
84.271399
85.978833
87.708308
89.447856
91.165869
92.879416
94.568834
96.234636
97.856539
99.370861
100.82078
76.518954
77.092123
77.868834
78.810402
79.922479
81.184908
82.561799
84.069421
85.650856
87.29544
88.953366
90.612227
92.257243
93.870998
95.450208
96.983503
98.478466
99.882152
101.21066
78.002098
78.579433
79.347116
80.283871
81.362337
82.606005
83.949213
85.406435
86.943726
88.529712
90.129344
91.713368
93.268316
94.766645
96.245191
97.67583
99.050139
100.32902
101.52747
79.465578
80.037243
80.777108
81.696612
82.751467
83.957477
85.28162
86.697557
88.188225
89.714322
91.249883
92.732913
94.179287
95.585987
96.973565
98.290463
99.543036
100.73498
101.83988
80.890126
81.438214
82.156679
83.050507
84.103375
85.274906
86.562673
87.921973
89.351843
90.799138
92.24679
93.657934
95.034881
96.353573
97.620534
98.849562
100.01139
101.10076
102.09158
82.250309
82.778616
83.488917
84.363452
85.387507
86.515588
87.761512
89.06651
90.430558
91.82253
93.199257
94.535308
95.818114
97.047735
98.212922
99.344527
100.40583
101.39953
102.32091
83.569323
84.076972
84.768826
85.61256
86.594794
87.694449
88.888898
90.153165
91.459631
92.781457
94.071915
95.329418
96.532589
97.679526
98.760254
99.793502
100.77413
101.68944
102.51473
84.825251
85.315426
85.971297
86.78611
87.74098
88.810559
89.962565
91.175668
92.411074
93.659791
94.87047
96.049103
97.172868
98.232981
99.239208
100.19451
101.09245
101.91736
102.68116
86.010397
86.485256
87.115804
87.915849
88.839571
89.870175
90.970201
92.114453
93.2795
94.452963
95.603803
96.716737
97.774431
98.754988
99.685024
100.5646
101.39297
102.14219
102.81789
87.140115
87.597169
88.20663
88.967184
89.852839
90.837609
91.887176
92.972511
94.081697
95.192235
96.288594
97.331244
98.316275
99.21791
100.06985
100.88147
101.64092
102.32962
102.94083
88.188934
88.618145
89.209402
89.940049
90.798809
91.740764
92.755763
93.791364
94.842255
95.885578
96.91055
97.879248
98.788729
99.634533
100.42931
101.18016
101.87741
102.51321
103.07898
89.176071
89.58925
90.160819
90.86187
91.682952
92.588834
93.554263
94.535345
95.519365
96.498081
97.459567
98.373118
99.228624
100.02594
100.76341
101.45308
102.093
102.67647
103.18954
90.078837
90.481148
91.026237
91.695198
92.480411
93.35107
94.269814
95.203212
96.140289
97.066734
97.974993
98.83952
99.641514
100.38438
101.06388
101.69909
102.29529
102.83965
103.31168
90.907224
91.294777
91.812751
92.467603
93.231127
94.062713
94.936559
95.824104
96.715702
97.597006
98.450726
99.261438
100.01097
100.70111
101.33797
101.93405
102.48776
102.98651
103.41629
91.679069
92.055149
92.577604
93.190293
93.905871
94.688551
95.524397
96.378598
97.226246
98.069688
98.876359
99.640374
100.34832
100.999
101.60616
102.17248
102.686
103.13753
103.53261
92.28849
92.663603
93.141285
93.732916
94.455067