/*--------------------------------*- C++ -*----------------------------------*\
  =========                 |
  \\      /  F ield         | OpenFOAM: The Open Source CFD Toolbox
   \\    /   O peration     | Website:  https://openfoam.org
    \\  /    A nd           | Version:  11
     \\/     M anipulation  |
\*---------------------------------------------------------------------------*/
FoamFile
{
    format      ascii;
    class       volScalarField;
    location    "0.0575";
    object      p;
}
// * * * * * * * * * * * * * * * * * * * * * * * * * * * * * * * * * * * * * //

dimensions      [0 2 -2 0 0 0 0];

internalField   nonuniform List<scalar> 
880
(
79.99999999999999
80
80.00000007077112
80.00000480565153
80.00000000000001
80
80.0000006934045
80.0002038088189
80
80.00000000000018
80.0000156705028
80.00860667318703
79.99999999999996
79.99999999999466
79.99999524450709
80.08526186775592
80
80
80.00000000000533
80.00000001772062
80.00000000011904
79.9999999990841
80.00000000757417
80.00000028736748
80.00068801524277
80.00187956357961
80.00696062859414
79.99063744405979
80.75212117613965
82.18675369959769
83.30699119823281
83.9241031366124
80.00000078845437
80.00000131372371
80.00000140347298
80.00000114811084
80.0000278472949
80.00005600322204
80.0000620610172
80.0000399807585
80.02611087712796
80.03590441120471
80.03740841952514
80.03406710043431
84.37545353671834
85.00979905831188
85.12162025063495
85.53059763703686
84.1941687086569
83.13381104832115
82.16717828933304
81.20036471493343
80.06435319996763
80.07624124506202
80.05737618901468
80.0283150888321
80.00015198173557
80.00018593264795
80.00014639312754
80.00006894010814
80.00000368938869
80.00000381051781
80.00000254422399
80.00000085875169
80.00000010733538
80.0000000031642
80.0000000000002
79.99999999999996
80.00001444371557
80.00000091841009
80.00000001187773
79.99999999984408
80.00710704634012
80.00060794839486
80.00001151208718
80.00000002439289
80.41527001983937
80.06234538029348
80.00261979996145
80.00001929059712
79.99999985712815
79.99999999808901
79.99999999999518
80
79.9999991344523
79.99999971275422
79.99999999072038
79.99999999998225
80.00263183859825
80.00001322979698
80.0000001376894
80.00000001755593
81.25448961444327
80.00192048650557
79.99984448392935
79.99999354943415
79.99999810531055
79.9999953880673
80.04243270512947
90.44576702983397
80.00000445696629
80.0001893176745
80.11508525347554
94.52744327230405
80.00001014881015
80.00041402451025
80.20258761651996
98.49177243422825
80.00001396256751
80.00057658096975
80.26724616449114
101.7074216277047
103.300626037451
80.31160204421819
80.00072203404812
80.00001811102562
105.1019161383271
80.38171269677898
80.00097779766219
80.0000245165584
106.3832237114325
80.44038191138783
80.00120179187138
80.00003161676285
108.3042497075397
80.55453783630377
80.00176620568564
80.00004767536591
80.0000495523453
80.00184903371824
80.64613329682774
111.0937631223057
80.00006730443519
80.00248116252132
80.77365673365289
111.9124464380716
80.00008450895665
80.00281585037982
80.74304963326686
106.9429007400046
80.00004682450063
80.00166341779243
80.38304852171105
94.00889304099287
80.00009375948272
80.0044165969049
80.29775543413594
82.44015699460755
79.99994812656064
79.99617849873977
79.85819534436314
73.29630347496115
79.9999856672332
79.99442483798842
79.38049967806091
64.82036331093792
79.99998443918125
79.99096545951861
78.80101866627767
57.10158127200864
56.44613311550795
79.08508890608383
79.99515470916801
79.99998947284053
56.01236844520205
79.14477148081932
79.99575716813602
79.99999152809565
59.0662550987838
79.44372375637001
79.99777411894704
79.9999958097128
58.49137331456983
79.39319801519983
79.99758417882524
79.99999568934204
65.44313641555871
79.77241144830398
79.99922669029452
79.99999846042637
72.53598802360385
79.94536708417159
79.99986687545986
79.99999978894455
76.69255501683769
79.98170846467131
79.99995442970916
79.99999992604205
78.25850843470015
79.98759240266695
79.99995877462518
79.99999990296517
76.30804878840551
79.92779055964839
79.99952987123019
79.99999854870725
76.39190273165886
79.92850168242317
79.99953146287498
79.99999855107842
76.47922677017397
79.92901382990456
79.99953384729315
79.99999855691055
76.8140931929784
79.93159851534936
79.99954504340515
79.99999859088805
78.25850843470261
79.98759240261168
79.99995877457503
79.99999990287435
76.69255501685448
79.9817084645676
79.99995442958195
79.99999992601232
72.53598802355472
79.94536708409217
79.99986687543813
79.99999978891937
65.44313641560382
79.77241144822013
79.99922669032952
79.99999846043191
79.99998947289006
79.99515470922422
79.085088906051
56.44613311527993
79.99999152808279
79.99575716813358
79.14477148095273
56.01236844502984
79.99999580973297
79.99777411892595
79.44372375627049
59.06625509864502
79.99999568935399
79.99758417891525
79.39319801520196
58.49137331460343
57.10158127194923
78.80101866628283
79.99096545945598
79.99998443920946
64.82036331089134
79.38049967805475
79.99442483804013
79.99998566717269
73.29630347490296
79.85819534438961
79.99617849872349
79.9999481266577
82.4401569945974
80.29775543405269
80.00441659681158
80.00009375954939
80.00004955231702
80.00184903376075
80.64613329697077
111.0937631223797
80.00006730445227
80.00248116251647
80.77365673372589
111.9124464382638
80.00008450888119
80.00281585041481
80.74304963325484
106.9429007399953
80.00004682453354
80.0016634177442
80.3830485217063
94.00889304097791
108.3042497076295
80.55453783619319
80.00176620572149
80.00004767550122
106.3832237115463
80.44038191135181
80.0012017918815
80.00003161676712
105.1019161383161
80.38171269691048
80.00097779766647
80.00002451656393
103.3006260373617
80.31160204410379
80.00072203406276
80.00001811105187
79.99999810533187
79.99999538809554
80.04243270506143
90.44576702978124
80.00000445705817
80.00018931779748
80.11508525354016
94.527443272421
80.00001014890709
80.00041402449916
80.20258761633093
98.49177243402453
80.00001396255357
80.0005765809851
80.26724616474785
101.7074216278343
79.99999354944404
80.00000001754374
79.99999999999254
80
79.99984448381579
80.00000013764553
79.99999999068653
79.99999999998052
80.001920486437
80.00001322983249
79.99999971271988
79.99999999806673
81.25448961440698
80.00263183861738
79.99999913450552
79.99999985712098
79.99999999999841
79.99999999985303
80.00000002441251
80.00001929061943
80.00000000000101
80.00000001190401
80.00001151210292
80.00261979999213
80.00000000316604
80.00000091843228
80.00060794834116
80.06234538022714
80.00000010730935
80.00001444370571
80.00710704636249
80.4152700198196
80.0000036893868
80.00015198165272
80.06435319998057
84.19416870872142
80.00000381042699
80.00018593269837
80.07624124510164
83.13381104832813
80.00000254425829
80.00014639306552
80.05737618896759
82.1671782892589
80.00000085872695
80.00006894009357
80.02831508887078
81.20036471486395
85.53059763699486
80.03406710041342
80.00003998070576
80.00000114820268
85.12162025057373
80.03740841960465
80.00006206091059
80.00000140348347
85.00979905835042
80.0359044112666
80.00005600310563
80.00000131364308
84.37545353666721
80.02611087702009
80.00002784724489
80.00000078855916
83.92410313658037
79.99063744418268
80.0000002873745
80.00000001775999
83.30699119821679
80.0069606285213
80.00000000749915
80.0000000000028
82.18675369956924
80.00187956356167
79.99999999907868
79.99999999999997
80.75212117610073
80.00068801520122
80.00000000011624
80.00000000000001
79.99999999999999
80
80.00000007080591
80.0000048056571
80
80
80.00000069340004
80.00020380884237
80
80.00000000000001
80.00001567050575
80.00860667318223
80
79.9999999999814
79.99999524447995
80.08526186768111
80.00001158389146
80.00046661784737
80.03608659121419
80.66626053287611
80.00046661773608
80.00806177025619
80.23059066048953
82.64899476732582
80.03608659124725
80.23059066058761
81.92198011152477
88.32535901441706
80.6662605329789
82.6489947674077
88.32535901447839
100.1954671901422
114.4910796547157
102.9290882551627
97.3358157240653
89.40381042068773
112.1378643458999
109.113923230426
108.5327686033684
103.1809142738722
111.9865993380437
110.7803279801061
110.635166170575
108.5427155601686
112.7949529653436
112.1321099923288
112.4586893004626
111.6699261988595
113.6667244008873
114.3388002790748
114.437570935497
115.2484336546186
113.9490201752978
114.9062517577035
115.074653843142
116.4735666451088
113.6360515694461
114.6420927866174
114.8082631618126
115.8145926337307
114.2038829579663
115.3388061872925
115.5986394628708
114.432093459956
94.73688832396938
85.53433383577492
83.56764612224141
82.31808456380142
86.54199481853847
82.17128611844568
82.59283003365314
82.04221861357679
79.45476628438418
81.72025758812657
83.0320415092616
82.53381323403892
69.47289369880306
78.55576601253243
81.45623975028762
81.74676369354185
81.03849330082076
80.23677204658811
80.01979910492877
80.00040182453861
81.03152724994452
80.28452428775806
80.02812161163899
80.00062557116053
81.30464097196992
80.3666100024036
80.03706591564371
80.00084050365662
80.80788574201756
80.15941531302697
80.01073305602394
80.00016609678737
80.00000142084889
79.99999702887885
80.13902968846701
99.94565349125777
80.00000225241084
79.99999666111123
80.39237638455643
107.8922837545028
80.00000248873988
79.9999970848441
80.73129734532503
111.1185636775416
80.00000008338642
79.99999821143686
81.48088935328114
111.6205848888393
157.8424608114061
160.5328533078194
166.4725945812947
172.4800433506384
171.6033342308839
167.4304800989179
170.3414458953538
176.3644260564173
171.1308918741604
165.1592124516483
169.9408245416591
175.6812774641009
179.6026561357214
168.8132024189336
168.8125635534937
174.0635455521199
175.269699692587
176.5365321687543
176.6464253616371
177.046449684091
179.6241629429806
180.8738598322055
180.8155802139505
180.8143804535655
179.012041750505
180.3873365487519
180.4275680677628
180.3882961927889
178.0585623262047
179.9220982954101
180.2008559216046
180.2475197165725
176.6279794933425
172.7574095534823
158.2381388581905
126.9469345552431
179.983018653021
175.6518843172333
161.9659002002614
138.6523607062982
180.0296575424401
176.1531696012544
163.255724986808
149.2951161650532
180.0435190886612
177.6163972129847
166.3226783840858
170.1646958147309
85.64930844264018
38.07326152779888
19.94718666726573
15.63926360244018
75.05124930829066
23.7565360016894
16.67854885002406
14.89635673312908
46.73454303319691
17.41672505228477
15.63695939776513
15.17522790982377
27.48984959451835
12.90733211443191
15.78464510956545
15.33987720741576
16.21452803726453
16.56825721826255
17.25093383555758
14.61325518742298
14.69994092733629
15.08116523814302
14.97381004250804
12.11181506637426
14.7875386134937
15.28600991644853
14.96037186116329
13.04303543480022
14.87852287773807
15.24259300048645
14.32364345621381
13.26461091821943
32.63117655392718
48.44545363972163
55.49288834372995
59.33030689710996
27.36002139849044
42.12630042653704
49.11042890772573
55.68316890627744
25.36568248613004
41.04699181726632
48.18549328859336
56.88217141405429
20.13716641503301
34.15831141480807
44.3895016659964
56.16263044090888
49.72853852009408
41.82077365428483
45.65631376054188
42.38930734191474
37.85530513305476
17.53059058979878
22.6576783177151
28.31024252331689
31.01891309714145
12.29541728010569
10.2948752524881
12.20242869120079
19.53448378469801
5.374120413729343
8.829041642276705
12.44454145585614
15.16797545869485
19.73972540735642
28.37782976936662
37.70744113454174
15.78535004632141
21.09800059071842
31.76134302071641
46.33842118567351
28.97572642910942
29.1648293182657
33.11313314848879
41.45365388093824
37.93953252647157
35.18393739607599
33.69298246295189
34.36038615513139
37.70744113454423
46.33842118567108
41.4536538809319
34.36038615512822
28.37782976936213
31.76134302071393
33.11313314848194
33.69298246295003
19.73972540735529
21.09800059072649
29.16482931827055
35.18393739607212
15.16797545870098
15.78535004632572
28.97572642910826
37.93953252646442
42.38930734191823
45.65631376057572
41.8207736543144
49.72853852009251
28.31024252332393
22.65767831772781
17.5305905897933
37.85530513304704
12.2024286912103
10.2948752524925
12.29541728011254
31.01891309713718
12.44454145586764
8.829041642287033
5.374120413734505
19.53448378469559
56.16263044090166
44.389501665993
34.15831141481582
20.13716641505776
56.88217141404678
48.18549328858772
41.04699181726373
25.36568248615766
55.68316890626934
49.11042890772457
42.12630042653383
27.36002139851387
59.33030689710405
55.49288834372846
48.44545363970058
32.63117655396353
14.6132551874314
17.25093383553819
16.56825721818768
16.2145280372275
12.11181506637781
14.9738100425029
15.08116523813457
14.69994092734529
13.04303543480366
14.96037186115839
15.28600991644669
14.78753861350497
13.2646109182293
14.32364345621037
15.24259300048926
14.87852287775159
15.63926360246317
19.94718666719904
38.07326152768528
85.64930844260503
14.89635673315476
16.67854885004446
23.75653600169642
75.0512493082189
15.17522790985498
15.63695939778839
17.41672505228839
46.73454303317671
15.33987720746043
15.78464510959664
12.90733211444154
27.48984959451577
126.9469345551812
158.2381388581572
172.7574095535054
176.6279794932601
138.6523607062632
161.965900200241
175.651884317182
179.9830186529429
149.2951161650257
163.2557249867822
176.1531696011954
180.0296575424323
170.1646958147197
166.3226783840617
177.616397212918
180.0435190886475
177.0464496841068
176.6464253617009
176.5365321686553
175.2696996924889
180.8143804535579
180.8155802139938
180.8738598321262
179.6241629428524
180.3882961928103
180.4275680677995
180.3873365486712
179.0120417504031
180.2475197166144
180.200855921648
179.9220982953332
178.0585623261355
172.4800433507866
166.4725945810375
160.532853307962
157.8424608113743
176.3644260565451
170.3414458950892
167.4304800990672
171.6033342308371
175.6812774642547
169.940824541414
165.15921245178
171.1308918741283
174.0635455522443
168.8125635532643
168.8132024190648
179.6026561356543
99.94565349118483
80.13902968840341
79.99999702889099
80.00000142094787
107.8922837543895
80.39237638446625
79.99999666096335
80.00000225252825
111.118563677403
80.73129734512648
79.99999708454197
80.00000248895454
111.6205848886656
81.48088935292964
79.99999821114233
80.00000008371183
80.0004018244833
80.01979910497774
80.23677204652232
81.03849330082555
80.00062557108402
80.02812161169612
80.28452428764435
81.03152724995728
80.00084050354884
80.03706591571287
80.36661000226479
81.3046409719945
80.00016609661374
80.01073305615257
80.15941531283673
80.80788574204674
82.31808456370497
83.56764612218575
85.53433383578381
94.73688832405031
82.04221861347879
82.59283003360771
82.17128611846422
86.54199481859149
82.53381323395125
83.0320415092327
81.7202575881456
79.45476628439982
81.74676369344253
81.45623975024597
78.5557660125762
69.47289369882496
115.2484336545911
114.4375709354408
114.3388002791204
113.6667244008738
116.4735666450518
115.0746538431445
114.906251757777
113.9490201752763
115.8145926336539
114.8082631618251
114.6420927866884
113.6360515694501
114.4320934598811
115.5986394628908
115.3388061873718
114.2038829579575
111.6699261988333
108.5427155601627
103.1809142738816
89.40381042069289
112.4586893004473
110.63516617057
108.5327686033483
97.33581572404447
112.1321099923021
110.7803279800897
109.1139232304079
102.9290882550896
112.7949529653463
111.986599338072
112.1378643458611
114.491079654663
78.96097894309472
79.98716179068356
79.9999386649632
79.99999984711873
78.18689550171243
79.97657467814093
79.99987355470194
79.99999963636282
77.73525630682624
79.95978804204935
79.99975487851631
79.99999926026679
76.62545452535232
79.93257947155008
79.99957657090674
79.99999874102393
79.99999854879644
79.99952987123567
79.92779055964968
76.30804878833065
79.9999985510381
79.99953146290856
79.928501682443
76.39190273164013
79.99999855691667
79.99953384723661
79.92901382990998
76.47922677013064
79.99999859091506
79.99954504337515
79.9315985153854
76.81409319293785
79.99999874094253
79.99999926030429
79.99999963639813
79.99999984705113
79.99957657083661
79.99975487850233
79.99987355471681
79.99993866500083
79.93257947153676
79.9597880420319
79.97657467819489
79.98716179066056
76.62545452531153
77.73525630678691
78.18689550174405
78.96097894312007
)
;

boundaryField
{
    back
    {
        type            empty;
    }
    inlet
    {
        type            zeroGradient;
    }
    front
    {
        type            empty;
    }
    top
    {
        type            zeroGradient;
    }
    outlet
    {
        type            fixedValue;
        value           uniform 80;
    }
    bottom
    {
        type            zeroGradient;
    }
    wall
    {
        type            zeroGradient;
    }
}


// ************************************************************************* //
