/*--------------------------------*- C++ -*----------------------------------*\
  =========                 |
  \\      /  F ield         | OpenFOAM: The Open Source CFD Toolbox
   \\    /   O peration     | Website:  https://openfoam.org
    \\  /    A nd           | Version:  11
     \\/     M anipulation  |
\*---------------------------------------------------------------------------*/
FoamFile
{
    format      ascii;
    class       volScalarField;
    location    "0.0395";
    object      T;
}
// * * * * * * * * * * * * * * * * * * * * * * * * * * * * * * * * * * * * * //

dimensions      [0 0 0 1 0 0 0];

internalField   nonuniform List<scalar> 
880
(
300
300
300
299.9999999752388
300
300
299.9999999999998
300.0000010940907
300
300
300
300.0000951574743
300.0000000000001
300
300
300.0000026144143
300
300
299.9999999999999
300
300
300
299.9999999999997
300
300.0000000000739
300.0000000012015
300.0000407172299
299.9997308562746
300.1115531383304
300.6948521474132
301.3201302211166
301.4631254134455
300.0000000047971
300.0000000060504
300.0000000066263
300.0000000023956
300.0000005316313
300.0000007128808
300.0000008000766
300.0000003567824
300.001375402492
300.0015234403644
300.0016413255731
300.0013237430582
301.5707224261475
301.6996437159966
301.7363208000667
301.9829826773119
301.9630681152526
301.1096872699415
300.3455212215432
300.0461977584837
300.0037476726359
300.0026456886066
300.0009883080282
300.0001495251523
300.000002829407
300.0000021661867
300.0000008602067
300.0000001268664
300.0000000293215
300.0000000211251
300.000000006467
300.0000000003823
299.9999999999932
300.0000000000001
300
299.9999999999999
300.0000000045635
300.0000000000075
300.0000000000001
300
300.0000059197273
300.0000000040694
299.9999999881626
299.9999999959985
300.0016376977658
299.9999955800165
299.9999955861147
299.999998961689
299.9999999646702
299.9999999999137
300.0000000000001
300
299.9999986535315
299.9999999573635
299.9999999990521
300
300.0005964755087
300.0000204898929
300.0000000329559
300.000000000153
299.6832482867419
299.99882419869
299.9999987033851
299.9999999993871
299.9999999999436
300.0000000343982
300.0003816552381
302.0344431317187
300.0000000165294
300.0000023989911
300.0064695168873
308.5875271316776
300.0000000263266
300.0000038865841
300.0099131429593
311.3993322316309
300.0000000330267
300.0000047944025
300.011477725143
312.1158868007475
312.7007311245471
300.0132463602833
300.0000059388446
300.0000000423011
313.3797026434603
300.0154994988588
300.0000074874511
300.0000000547058
314.0741673363076
300.0180549409352
300.0000093760923
300.000000070838
315.1026337638777
300.0224137034736
300.0000128300458
300.0000001009774
300.0000000728993
300.0000094312011
300.0193308295958
314.9682927838934
300.0000000779924
300.0000099269656
300.0193131760683
314.3266720261057
300.0000001288042
300.0000109397563
300.0192266128199
313.0723177630038
300.0000000014618
300.0000063998887
300.0097942580898
306.9762999981144
299.9999802918809
299.99814090482
300.0191767273045
304.8157529781305
299.9999990170334
299.9979850146351
299.8653527815939
300.5067770343971
299.9999997027167
299.9995564428507
299.8656502649942
295.6262162483429
299.9999997729226
299.9995546442952
299.8183942920413
292.534466568624
295.1003355873026
299.9187359595695
299.9997724440977
299.9999997894172
294.9075099223782
299.9241311628292
299.9998135442281
299.9999998531731
296.2127735414427
299.9497036611082
299.9998819124278
299.999999923191
295.6904201184933
299.937395211682
299.9998601122942
299.9999998904963
297.0457714514797
299.9879167692702
299.9999797322949
299.9999999847244
299.236407402879
299.9987866887982
299.9999987913843
299.9999999998208
299.8778178367821
299.9997945685623
299.9999997933592
299.9999999998167
299.7563575300061
299.9993525206606
299.999999153774
299.9999999983517
299.3331130456796
299.9935082874429
299.9999828131353
300.0000000585658
299.3307887442476
299.9935027854204
299.9999827631186
300.0000000578829
299.3199223972986
299.9934446458337
299.9999823121399
300.0000000465291
299.3276138483537
299.9934225989182
299.9999815959717
300.0000000257064
299.7563575295857
299.9993525203478
299.9999991533168
299.999999998544
299.8778178362676
299.9997945681849
299.9999997924851
299.9999999998455
299.2364074029713
299.9987866889348
299.9999987914256
299.9999999997368
297.0457714520572
299.9879167701806
299.9999797323464
299.99999998448
299.9999997899138
299.9997724452553
299.9187359598365
295.1003355877322
299.9999998535831
299.9998135443383
299.9241311633131
294.907509922263
299.999999922736
299.9998819129905
299.9497036611402
296.2127735423559
299.9999998905585
299.9998601125513
299.9373952123678
295.6904201180149
292.5344665676154
299.8183942914023
299.9995546436102
299.999999772736
295.6262162476546
299.8656502644631
299.9995564417958
299.9999997017475
300.5067770343134
299.8653527808769
299.997985014813
299.999999016254
304.8157529783369
300.0191767271379
299.9981409045155
299.9999802932305
300.0000000726957
300.0000094317193
300.0193308297951
314.9682927846565
300.0000000781003
300.0000099272528
300.019313176073
314.3266720261803
300.0000001293267
300.0000109397045
300.0192266124722
313.0723177629747
300.000000002372
300.0000063998458
300.0097942578047
306.9762999980072
315.1026337650426
300.0224137029206
300.0000128308291
300.0000001008632
314.074167337267
300.0180549423081
300.000009376198
300.0000000709235
313.3797026429526
300.0154994997912
300.0000074881519
300.0000000546383
312.7007311253257
300.0132463590928
300.0000059387995
300.00000004219
299.9999999999994
300.0000000349287
300.0003816551067
302.0344431309725
300.0000000161745
300.0000023984287
300.0064695172008
308.587527131314
300.0000000261512
300.0000038866088
300.0099131432428
311.3993322323168
300.000000032867
300.0000047945517
300.0114777248359
312.1158868005422
299.9999999993501
300.0000000002203
300
300
299.9999987027356
300.0000000329019
299.9999999994217
300.0000000000002
299.9988241989338
300.0000204902595
299.9999999570678
299.9999999998645
299.6832482867926
300.0005964755466
299.999998653562
299.9999999646868
299.9999999999999
300
299.9999999961224
299.9999989618451
300
300
299.9999999888076
299.9999955861401
300
300.0000000000154
300.0000000037244
299.9999955800848
299.9999999999879
300.0000000046385
300.000005920301
300.0016376975714
300.0000000288356
300.0000028288725
300.0037476721656
301.9630681151393
300.0000000206464
300.0000021662011
300.002645688542
301.1096872693948
300.0000000063484
300.0000008608649
300.0009883078206
300.3455212214698
300.0000000003051
300.0000001270816
300.0001495251417
300.0461977579247
301.9829826775324
300.0013237443631
300.0000003565125
300.0000000021878
301.7363207997768
300.0016413270167
300.0000007999759
300.00000000673
301.69964371714
300.0015234407693
300.000000713016
300.0000000059206
301.5707224257706
300.0013753997707
300.0000005314233
300.0000000048994
301.4631254137873
299.9997308571205
300
300
301.3201302208728
300.0000407162566
300
300.0000000000001
300.6948521477256
300.0000000008546
300
300
300.1115531381267
300.0000000002297
300
299.9999999999999
300
299.9999999999999
300
299.9999999946361
300.0000000000002
300
300
300.0000010924413
300
300
300
300.00009515754
300
300
299.9999999999999
300.0000026141357
299.9999863499424
299.9998435359456
299.9995088437392
300.0439401409482
299.9998435390232
299.9986988722134
299.9971938457784
300.0442790253302
299.9995088440256
299.9971938453118
300.0355318444664
302.2295577358976
300.0439401415293
300.0442790255997
302.2295577359658
318.8330628641365
346.9460160758179
324.7975037960589
312.9214598313671
303.9743616429245
345.3081895490871
338.5824728588299
332.9623944558646
320.5640482685293
344.2885205896994
343.9979331524568
342.1910335177794
333.5924796389119
345.1573856703909
346.8023162347748
345.6603778265189
337.5298785980598
338.8941921907024
339.267755410909
339.4126817013361
343.669690793699
346.5019111827614
346.6508165257948
346.7248137173577
352.7203099155387
347.5960426621018
347.7902981668534
347.8803246789731
350.9325080750588
345.5290703628954
345.6396966214492
345.7230818379556
343.9771209901024
329.5880240646645
313.573442395493
303.5918610757066
300.3792339827035
330.9511466181268
311.8098372923893
302.6277573265765
300.3014734711876
312.9792520705238
301.3831703370533
301.9691168559002
300.4376374570576
291.5726691510084
295.7378493701244
299.2031686117287
299.8324857327453
300.0091624666865
299.9996687793005
299.9999351728576
299.9999953696094
300.0043042767131
299.9993498088136
299.9999777062068
299.999999524457
300.0057528820785
299.999013497623
299.9999160008446
299.9999988742339
299.9710392815187
299.9969700801441
299.9998261293502
299.9999967930035
299.9999998297224
300.0000000133544
300.0001351173103
296.4408732802256
299.9999998768331
299.9999999884099
300.0000568010565
303.4141879219544
299.9999999628822
299.9999999983193
300.0000118621334
316.7745762231036
299.9999999853154
300.0000000009078
300.0000037549684
327.2098554041758
372.8484471325364
406.3499640946496
414.5800590297231
415.6705435639665
399.2371591523668
415.8457108838886
423.0959460464061
424.168119359358
405.083636431489
411.0357276817459
417.2352416082761
418.3067732558019
412.3702707088452
405.013735092097
408.4717864321804
409.898794115386
415.803315466219
415.9414650941886
416.0939887543401
416.2357899791842
424.1467994400556
424.1051603934369
424.075409962065
423.8916424834749
418.2972126610862
418.2671308021382
418.2463678790627
418.0928128391675
409.971914991193
409.9761807265826
409.9843906449661
409.8360290068781
414.0148270685542
411.4136085661248
404.6680993703239
378.2200926282474
423.2415586804158
421.6735906328828
416.7665520628475
406.6039922762283
418.3855887849033
417.5600681032516
412.7982344562422
413.8305300209698
410.109219549457
409.5283947885495
406.6459667498027
393.5265118332968
335.9043845446033
316.1366413578586
230.8838610822995
196.5133524502257
342.6127251656008
291.0648442975636
190.4176209916792
152.9351147828429
311.0313289919305
235.998479740024
153.4603009799167
122.0483481338903
233.5726480842053
154.6368726987928
121.1033040959935
104.9076492738546
198.6989961798706
199.8515962304221
201.3706364784484
189.2973343786552
150.4793207594783
151.6372529705211
157.5348882139841
157.1659060936646
118.6781763411565
119.77009139863
129.005354739906
150.4364688967314
101.1423801648899
101.9378379737778
112.6039665464556
134.8952537870181
271.431294964981
289.260124566006
294.5316629639763
291.2497364829428
261.8031133018066
278.9759061319019
285.1076676679853
290.0305584291828
234.4685649413533
273.0101993249528
279.2454772064463
292.0308581648543
185.5565118939734
252.3607913096493
272.5084212909448
277.8002079321167
288.0374747363375
280.8549831248697
271.7794869198841
258.5322398037964
255.8580366255356
237.4777171925347
237.7883689772457
220.0946688904726
228.3444311955514
157.2198454606701
178.2951369249496
189.3176493579694
188.5566881452381
124.7407908679977
105.2482114774027
115.7597674979426
113.8128590710493
94.79657145053839
82.19923201621667
81.06158353475534
169.527065344143
134.7966829872737
121.0356051380156
119.6930606678013
194.0544407716851
178.2222690465167
175.3561751819347
175.0538246153151
247.5031302513424
243.7790918297291
243.1470714055258
243.0163071645083
81.06158353477274
119.6930606678057
175.05382461521
243.016307164102
82.19923201648744
121.0356051380116
175.3561751818114
243.1470714052159
94.79657145070367
134.7966829874152
178.2222690462424
243.7790918302284
113.8128590711535
169.5270653442643
194.0544407715978
247.5031302510579
258.5322398036284
271.7794869195898
280.854983124463
288.0374747356094
220.0946688903287
237.7883689773689
237.4777171929591
255.8580366249757
189.3176493580344
178.2951369250848
157.219845460461
228.3444311954049
115.7597674980375
105.2482114774423
124.740790868102
188.5566881451622
277.8002079318726
272.5084212906551
252.3607913099534
185.5565118942436
292.0308581645766
279.2454772062183
273.0101993251618
234.4685649416826
290.0305584289559
285.1076676676109
278.9759061319949
261.8031133021493
291.2497364826754
294.5316629636428
289.2601245660708
271.4312949653326
189.2973343784692
201.3706364787482
199.8515962303453
198.6989961797511
157.1659060937663
157.534888214105
151.637252970591
150.4793207594707
150.436468897273
129.0053547399531
119.7700913989284
118.6781763414313
134.8952537874012
112.6039665465547
101.9378379740284
101.1423801652935
196.5133524491256
230.8838610814851
316.1366413580531
335.9043845446009
152.9351147825489
190.4176209911244
291.0648442973521
342.6127251654563
122.0483481342635
153.4603009795907
235.99847974003
311.0313289913785
104.9076492747565
121.1033040955184
154.6368726985899
233.5726480840081
378.2200926279025
404.6680993702819
411.4136085662078
414.0148270688211
406.6039922759657
416.7665520628228
421.6735906330468
423.2415586807314
413.8305300207571
412.7982344562137
417.5600681034164
418.385588785165
393.5265118330761
406.6459667498676
409.528394788694
410.1092195496447
416.235789979286
416.0939887545782
415.9414650940501
415.8033154664244
423.8916424835287
424.0754099622275
424.105160393471
424.1467994401458
418.0928128392408
418.2463678792311
418.2671308022406
418.297212661116
409.8360290070328
409.984390645144
409.9761807266656
409.9719149912196
415.6705435637429
414.5800590300432
406.3499640944062
372.8484471324894
424.1681193592692
423.0959460466104
415.8457108837088
399.2371591522865
418.3067732557533
417.2352416084077
411.0357276816844
405.0836364314483
409.8987941153468
408.4717864323327
405.0137350920369
412.3702707088141
296.4408732802685
300.0001351171773
300.0000000132763
299.9999998297474
303.4141879220244
300.0000568009839
299.9999999883763
299.9999998768507
316.7745762231801
300.0000118621097
299.9999999983058
299.999999962893
327.2098554041951
300.000003754954
300.0000000008973
299.9999999853256
299.9999953696915
299.9999351730781
299.9996687793027
300.0091624666998
299.9999995245076
299.9999777064939
299.9993498087917
300.0043042766646
299.999998874265
299.9999160011562
299.999013497565
300.0057528818224
299.9999967930295
299.9998261296695
299.9969700799502
299.9710392812381
300.379233982269
303.591861075682
313.573442395221
329.5880240645485
300.3014734709511
302.627757326576
311.8098372922522
330.9511466180675
300.4376374569964
301.969116855899
301.3831703369584
312.9792520704812
299.832485732619
299.2031686117588
295.7378493699479
291.5726691508961
343.6696907935599
339.4126817012979
339.2677554112137
338.8941921908581
352.720309915268
346.7248137173691
346.6508165258924
346.5019111830218
350.9325080747454
347.8803246787094
347.7902981663563
347.5960426622581
343.9771209897889
345.7230818376795
345.6396966210892
345.5290703630691
337.5298785982689
333.5924796386379
320.5640482688689
303.9743616429786
345.660377826594
342.1910335176239
332.9623944559871
312.9214598313118
346.8023162348258
343.9979331520126
338.5824728588836
324.7975037959816
345.1573856704412
344.2885205893872
345.3081895490964
346.94601607588
299.7790710183608
299.9988256340603
299.9999973939373
300.0000000047474
299.5662603398503
299.9969252146878
299.999992533209
300.000000016868
299.3096353005011
299.9943113387117
299.9999849941368
300.0000000088807
298.9670953991011
299.991710989218
299.9999787305553
300.0000000082275
300.000000058889
299.9999828129402
299.9935082875622
299.3331130456171
300.0000000581257
299.9999827635672
299.9935027848194
299.3307887444005
300.0000000462373
299.9999823126394
299.9934446458618
299.3199223968892
300.000000024785
299.9999815964926
299.9934225968087
299.327613848337
300.0000000081134
300.0000000087159
300.0000000158546
300.0000000036409
299.9999787306334
299.9999849941258
299.9999925330039
299.9999973933553
299.9917109898474
299.9943113380494
299.996925215381
299.9988256334951
298.9670953982908
299.3096352999198
299.5662603401153
299.7790710183376
)
;

boundaryField
{
    back
    {
        type            empty;
    }
    inlet
    {
        type            zeroGradient;
    }
    front
    {
        type            empty;
    }
    top
    {
        type            zeroGradient;
    }
    outlet
    {
        type            fixedValue;
        value           uniform 300;
    }
    bottom
    {
        type            zeroGradient;
    }
    wall
    {
        type            zeroGradient;
    }
}


// ************************************************************************* //
