/*--------------------------------*- C++ -*----------------------------------*\
  =========                 |
  \\      /  F ield         | OpenFOAM: The Open Source CFD Toolbox
   \\    /   O peration     | Website:  https://openfoam.org
    \\  /    A nd           | Version:  11
     \\/     M anipulation  |
\*---------------------------------------------------------------------------*/
FoamFile
{
    format      ascii;
    class       volVectorField;
    location    "0.0395";
    object      U;
}
// * * * * * * * * * * * * * * * * * * * * * * * * * * * * * * * * * * * * * //

dimensions      [0 1 -1 0 0 0 0];

internalField   nonuniform List<vector> 
880
(
(25 -7.768126373978579e-16 0)
(25 -5.683700466381007e-16 0)
(25 1.330349952777665e-15 0)
(24.99999996382868 5.86526911018143e-09 0)
(25 8.022502817585882e-16 0)
(25 -8.601462876221645e-16 0)
(25.00000000000002 3.929122413213572e-15 0)
(25.00000121295355 -1.018717965754286e-06 0)
(25 0 0)
(25.00000000000001 1.311257476399746e-15 0)
(25 -6.210759849434957e-14 0)
(24.99999761902396 -9.352426873394291e-06 0)
(25 0 0)
(25 -1.051587622934861e-15 0)
(25 2.434248451265494e-12 0)
(24.99961329222904 -0.0001581806211262648 0)
(25 -6.070140852636679e-16 0)
(25 -5.061861333362652e-16 0)
(25.00000000000001 1.715546563209929e-15 0)
(25 1.917981070847074e-13 0)
(25 -4.670828646694055e-16 0)
(25 1.263747242106838e-15 0)
(25.00000000000003 6.446360640966333e-15 0)
(25 1.261189164566695e-14 0)
(25.00000000005775 -6.590337179108285e-11 0)
(24.99999999877156 1.15975767126495e-09 0)
(25.00000297403069 5.093309860505197e-06 0)
(24.99998673970159 -3.834171599688495e-05 0)
(24.99287837236615 0.01389072234716364 0)
(24.96494303150374 0.0818401816684225 0)
(24.95241375650033 0.1546054100882453 0)
(24.95920295131587 0.1723609696525909 0)
(24.99999999923046 -6.151388256158517e-10 0)
(24.99999999886985 -8.578826545553231e-10 0)
(24.99999999871803 -9.723658597240707e-10 0)
(24.99999999971502 -3.690596497981167e-10 0)
(24.99999998469452 7.297555966130004e-08 0)
(24.9999999881745 9.937240580304905e-08 0)
(24.99999998849419 1.117054689678574e-07 0)
(24.99999996557581 4.437296111378852e-08 0)
(24.99996912606485 0.0001733729113586752 0)
(24.99996480169719 0.0001915871505740251 0)
(24.99996490844264 0.0002076555662391977 0)
(24.99992447453303 0.0001546162469366079 0)
(24.95716105120196 0.183661401431995 0)
(24.95813891233198 0.1994158299561857 0)
(24.95928199702733 0.2055406249226551 0)
(24.93328747689738 0.2238364204647755 0)
(25.00631846247744 0.2452352220974205 0)
(25.04520543148173 0.1497192205640705 0)
(25.02845815941541 0.04348389462867758 0)
(25.00508299312631 0.005110486722897044 0)
(24.99998770528785 0.0004915622360247236 0)
(25.00004940279188 0.0003667666174408894 0)
(25.00005138163689 0.0001384119219492123 0)
(25.00001175973706 1.974130748408529e-05 0)
(24.99999999154169 4.033371035214702e-07 0)
(25.00000003200543 3.161775960485614e-07 0)
(25.00000003573875 1.250143167113766e-07 0)
(25.00000000819593 1.766414778195418e-08 0)
(24.99999999481015 -3.617251332547321e-09 0)
(24.99999999562179 -2.788256111346068e-09 0)
(24.99999999822153 -9.986635970149939e-10 0)
(24.99999999977798 -1.265433245606328e-10 0)
(24.99999999999967 -4.492655708249665e-12 0)
(25.00000000000001 1.206072522741653e-14 0)
(25 4.399578373479863e-16 0)
(24.99999999999999 -6.811371498096196e-16 0)
(25.00000000034392 6.40283321498172e-10 0)
(24.99999999999948 2.70619334458623e-14 0)
(25 -1.42258639987132e-12 0)
(25 -3.507651562904443e-13 0)
(25.00000049018585 7.271646515639437e-07 0)
(25.00000000288925 -3.785538051817969e-10 0)
(24.99999999968991 -1.696146070933192e-09 0)
(24.99999999974459 -5.006255613177761e-10 0)
(25.00021216946674 0.0001572010457783273 0)
(25.00000136856692 -1.414491718691358e-06 0)
(24.99999978428729 -7.383970621306317e-07 0)
(24.9999998789265 -1.225033451699789e-07 0)
(24.99999999534914 -3.161319273228209e-09 0)
(24.99999999998343 -1.709681290257537e-11 0)
(25 6.249962732229811e-14 0)
(25 5.811348639321005e-16 0)
(24.99999986733282 -2.186910906365217e-07 0)
(24.99999999790008 -6.511076707993151e-09 0)
(24.9999999999932 -1.297372582363297e-10 0)
(25 -8.752242290543146e-14 0)
(25.00002023668727 0.0001152735934120834 0)
(25.00000010032955 3.033544694261821e-06 0)
(24.99999999954608 4.902608434696515e-09 0)
(24.99999999995783 -4.228057049004269e-11 0)
(25.01722765543502 -0.04349267116761439 0)
(25.00002953993573 -0.0001757873047410259 0)
(25.00000001376003 -1.903353559517301e-07 0)
(24.99999999999943 -1.200443044198066e-10 0)
(25.00000000000327 -8.909326425841653e-12 0)
(24.99999997597754 3.528793394914831e-10 0)
(24.99990921489908 2.030995605707338e-05 0)
(24.8069775058654 0.1037521008969374 0)
(24.99999999753602 -2.273387104719868e-09 0)
(24.99999987566506 2.829101851743912e-07 0)
(24.99962961544793 0.0005844051132256677 0)
(24.46317872474175 0.632736480668783 0)
(24.99999999579403 -3.717919094106641e-09 0)
(24.99999984966337 4.590632381629208e-07 0)
(24.99955720207242 0.0008974116312019865 0)
(24.45013782515311 0.8713755148522256 0)
(24.99999999469243 -4.733799664061474e-09 0)
(24.99999981558663 5.669337427188647e-07 0)
(24.99949259190835 0.001040003220588094 0)
(24.43096056530133 0.928248467234253 0)
(24.40136456260277 0.9754919626137782 0)
(24.99941137698326 0.001202097321736124 0)
(24.99999977030348 7.033753314792905e-07 0)
(24.99999999322588 -6.019558676880831e-09 0)
(24.37012326599496 1.029999910891946 0)
(24.99931433253819 0.001408426122180208 0)
(24.99999971305394 8.878816929779568e-07 0)
(24.999999991212 -7.778507740912659e-09 0)
(24.32788789562425 1.085019560708533 0)
(24.9991784495625 0.001642038703558966 0)
(24.99999962487209 1.113730583728617e-06 0)
(24.99999998876334 -1.002437704806396e-08 0)
(24.29337060234363 1.175993673284045 0)
(24.99903730694535 0.00205209118219853 0)
(24.99999953705606 1.53344897766317e-06 0)
(24.99999998378922 -1.432216981189192e-08 0)
(24.99999998756739 -1.091536512172866e-08 0)
(24.99999966558101 1.122334887883388e-06 0)
(24.99917060889856 0.001757509874360719 0)
(24.29990530461465 1.177408897913841 0)
(24.99999998735429 -1.13810927374128e-08 0)
(24.99999960689983 1.183041685444911e-06 0)
(24.99913288359736 0.001772527702919809 0)
(24.32448260462456 1.138701631926623 0)
(24.9999999946734 -1.180148135644352e-08 0)
(24.99999956406742 1.321195225068003e-06 0)
(24.99911693507598 0.001800560075446714 0)
(24.37513853810284 1.0599975994301 0)
(24.9999999733642 -1.217032590966909e-08 0)
(24.99999978437794 8.100524446678526e-07 0)
(24.99957956197664 0.001019364280573099 0)
(24.68405205456821 0.6100586532576977 0)
(24.99999963295582 -1.02297832604442e-06 0)
(24.99986227364247 -0.0001736921372823252 0)
(25.00111879078988 -0.004697493002898285 0)
(25.23741795599477 0.1376472451786311 0)
(24.99999993776185 -8.741168133912809e-08 0)
(24.99990201697214 -0.0001053907684751358 0)
(24.98172643866377 -0.01259683176859072 0)
(24.38998754475377 -0.6280183873897894 0)
(24.99999995901662 -5.17687926916645e-08 0)
(24.99993777684519 -5.079913839207139e-05 0)
(24.96874870797115 -0.01266500111706348 0)
(23.31358331025394 -0.4640671967427557 0)
(24.99999996548243 -3.865755289922609e-08 0)
(24.99992733907078 -4.347067297908893e-05 0)
(24.95576069794332 -0.00768887486203868 0)
(22.69844625156765 -0.04638850991814214 0)
(23.23077817152909 -0.05936870004371098 0)
(24.97921110520844 -0.009819533128186892 0)
(24.99996864512886 -3.413680834678714e-05 0)
(24.99999997708326 -3.880237905082563e-08 0)
(23.39547984259853 0.04628833787700593 0)
(24.98113829420123 -0.00708582667759686 0)
(24.9999726030132 -2.601263290989279e-05 0)
(24.99999998001709 -2.804385248043301e-08 0)
(23.64556905628243 -0.03939894243619407 0)
(24.98731910425768 -0.006061093185834785 0)
(24.9999842064064 -1.786979798412975e-05 0)
(24.99999998815728 -1.719871610810528e-08 0)
(23.35969634979739 0.1384662216532308 0)
(24.98216624266469 -0.006127552071690987 0)
(24.99997758185854 -2.048734414677594e-05 0)
(24.99999998631101 -2.112790000625403e-08 0)
(24.32400568048014 0.1246687737178941 0)
(24.99642927611488 -0.001310976483577368 0)
(24.99999617885608 -3.218222372095214e-06 0)
(24.99999999761075 -3.490926207432428e-09 0)
(24.89013210231224 0.0148686147916496 0)
(24.99977785058487 -0.0001377176502024769 0)
(24.99999984458793 -1.765815774836418e-07 0)
(24.9999999998568 -1.250363267164422e-10 0)
(24.99586690150571 -0.01207438412701616 0)
(24.99999683001156 -2.852837196213851e-05 0)
(24.99999999948495 -2.976080502042476e-08 0)
(24.99999999999979 -3.065573315992644e-11 0)
(25.00910101484551 -0.03538169879398818 0)
(25.00003755071661 -0.0001129910415380836 0)
(25.00000004937089 -1.553509318947033e-07 0)
(24.99999999957317 -2.292452257189533e-10 0)
(24.83231663792963 -0.0002016387028186405 0)
(24.99871837036553 -5.880670998809984e-07 0)
(24.99999704392571 -4.253187291473808e-10 0)
(25.00000000816001 5.141228392012726e-12 0)
(24.83257793553981 -0.0005418862469280049 0)
(24.99872015104789 -9.512624659213524e-07 0)
(24.99999704250453 7.44384144518555e-09 0)
(25.00000000795417 1.648921432490226e-10 0)
(24.83311043165548 -1.987758470125887e-05 0)
(24.99872006125047 4.508765531957212e-06 0)
(24.99999699248535 5.122196467887319e-08 0)
(25.00000000639535 1.090929553836205e-09 0)
(24.83146756857969 0.007450062352132543 0)
(24.99872357337843 3.975939624306954e-05 0)
(24.9999969051455 1.340142573222345e-07 0)
(25.00000000324162 1.625917340175201e-09 0)
(25.00910101488773 0.0353816987811985 0)
(25.00003755074547 0.0001129910466672552 0)
(25.00000004940892 1.553514434368276e-07 0)
(24.99999999955432 2.277630717960636e-10 0)
(24.99586690155449 0.01207438413306713 0)
(24.99999683004537 2.852837208618519e-05 0)
(24.9999999995618 2.977055444929096e-08 0)
(24.99999999999801 3.031378187556383e-11 0)
(24.89013210232651 -0.01486861475633183 0)
(24.99977785057704 0.0001377176642278404 0)
(24.99999984458584 1.765908081974937e-07 0)
(24.99999999986324 1.245476154483965e-10 0)
(24.32400568042228 -0.1246687737199085 0)
(24.99642927603814 0.001310976487539556 0)
(24.9999961788499 3.218221175216236e-06 0)
(24.99999999762843 3.490587330482843e-09 0)
(24.99999997703149 3.878940006440587e-08 0)
(24.99996864503747 3.413682417567872e-05 0)
(24.97921110516936 0.009819533125623177 0)
(23.23077817151126 0.05936870009733438 0)
(24.99999997998475 2.805638507924682e-08 0)
(24.99997260300281 2.601262751928859e-05 0)
(24.98113829416906 0.007085826694626199 0)
(23.39547984257754 -0.04628833793861706 0)
(24.99999998820067 1.720623612238603e-08 0)
(24.99998420635916 1.786978955623892e-05 0)
(24.9873191042572 0.006061093190211445 0)
(23.64556905619421 0.03939894241898384 0)
(24.99999998630413 2.111940982791753e-08 0)
(24.99997758184012 2.048735368770543e-05 0)
(24.98216624259866 0.006127552038927326 0)
(23.35969634982103 -0.1384662216116634 0)
(22.6984462515981 0.04638850986743298 0)
(24.95576069799003 0.007688874832337183 0)
(24.99992733910764 4.347063730194146e-05 0)
(24.99999996549564 3.864923427641683e-08 0)
(23.31358331030442 0.4640671967668807 0)
(24.96874870801931 0.0126650011161188 0)
(24.99993777692691 5.079914064526855e-05 0)
(24.99999995909862 5.176625234213242e-08 0)
(24.38998754475356 0.6280183874039499 0)
(24.98172643872298 0.01259683177868131 0)
(24.99990201697862 0.000105390774599792 0)
(24.99999993783009 8.742558767102787e-08 0)
(25.2374179559778 -0.1376472451853036 0)
(25.00111879081483 0.004697493002996375 0)
(24.99986227366926 0.0001736921516048847 0)
(24.99999963285286 1.022990645156212e-06 0)
(24.99999998758353 1.091433618820292e-08 0)
(24.99999966553743 -1.12233786805396e-06 0)
(24.99917060887029 -0.00175750987913826 0)
(24.29990530454884 -1.177408897912774 0)
(24.99999998734461 1.137985371428199e-08 0)
(24.99999960688108 -1.183040447899309e-06 0)
(24.99913288359524 -0.00177252769994734 0)
(24.32448260462855 -1.138701631916466 0)
(24.99999999462637 1.179974106948963e-08 0)
(24.99999956407 -1.321190242021404e-06 0)
(24.99911693511731 -0.001800560066260283 0)
(24.37513853810936 -1.059997599429185 0)
(24.99999997328272 1.216488841458129e-08 0)
(24.99999978438022 -8.100438494899323e-07 0)
(24.99957956200571 -0.001019364276322259 0)
(24.6840520545712 -0.6100586532582806 0)
(24.29337060223413 -1.175993673292143 0)
(24.99903730699406 -0.002052091172193814 0)
(24.99999953698925 -1.533454616696222e-06 0)
(24.9999999837984 1.432269991221671e-08 0)
(24.32788789552815 -1.085019560707999 0)
(24.99917844947027 -0.001642038699234109 0)
(24.99999962486016 -1.11373398305104e-06 0)
(24.99999998875131 1.002474899593998e-08 0)
(24.37012326602492 -1.02999991089364 0)
(24.9993143324468 -0.001408426131187951 0)
(24.99999971299561 -8.878840565840138e-07 0)
(24.99999999122203 7.778254289399044e-09 0)
(24.4013645625469 -0.9754919626203872 0)
(24.99941137706503 -0.001202097319733952 0)
(24.99999977030192 -7.033772266285311e-07 0)
(24.99999999323761 6.019544419603648e-09 0)
(24.99999999999999 8.999574879888376e-12 0)
(24.9999999759296 -3.558887943650339e-10 0)
(24.99990921490836 -2.030995082814203e-05 0)
(24.80697750595131 -0.1037521008967155 0)
(24.99999999756857 2.272917561398476e-09 0)
(24.99999987571293 -2.829089991825655e-07 0)
(24.99962961541516 -0.0005844051181320045 0)
(24.46317872474671 -0.6327364806596776 0)
(24.99999999580831 3.717855907432939e-09 0)
(24.99999984965921 -4.590639247009562e-07 0)
(24.99955720206307 -0.0008974116348428182 0)
(24.450137825109 -0.8713755148540416 0)
(24.99999999470881 4.733758884777515e-09 0)
(24.99999981557696 -5.66934812674965e-07 0)
(24.99949259193843 -0.001040003213697407 0)
(24.43096056529255 -0.9282484672354693 0)
(25.00000000000289 1.2017167681709e-10 0)
(24.99999999995177 4.23516046032472e-11 0)
(25 3.718570639731846e-14 0)
(25 -4.527064543361079e-16 0)
(25.00000001382338 1.903402945951473e-07 0)
(24.99999999955526 -4.903561839768015e-09 0)
(24.99999999995739 1.310556610822468e-10 0)
(25 -5.960117195780886e-14 0)
(25.00002953991975 0.0001757872961272725 0)
(25.00000010029144 -3.033541119448142e-06 0)
(24.99999999792839 6.508183126208973e-09 0)
(24.99999999998695 1.701148862459362e-11 0)
(25.01722765543224 0.04349267116599529 0)
(25.00002023668475 -0.0001152735917528059 0)
(24.99999986733087 2.186912848203909e-07 0)
(24.99999999534863 3.160842699273794e-09 0)
(25.00000000000002 -3.97647868058593e-15 0)
(25 3.396348904103785e-13 0)
(24.99999999973694 4.958236701163931e-10 0)
(24.99999987891167 1.225030427394205e-07 0)
(25 1.730883020529026e-15 0)
(25 1.343924959912169e-12 0)
(24.99999999962994 1.700068794465657e-09 0)
(24.99999978428555 7.383994124665774e-07 0)
(25 7.329955267106577e-15 0)
(24.99999999999954 -1.664898906478391e-13 0)
(25.00000000291721 3.797150713542365e-10 0)
(25.00000136856051 1.414491150433115e-06 0)
(24.99999999999998 4.508515521331063e-12 0)
(25.00000000034283 -6.4135423371856e-10 0)
(25.00000049014315 -7.271741561630625e-07 0)
(25.00021216948079 -0.0001572010377827944 0)
(24.9999999948547 3.614350377059866e-09 0)
(24.99999999159344 -4.033386725969868e-07 0)
(24.99998770532986 -0.0004915622437800187 0)
(25.00631846248859 -0.2452352221021947 0)
(24.99999999566297 2.786931819908864e-09 0)
(25.00000003199668 -3.161630889305242e-07 0)
(25.00004940279575 -0.0003667666067900064 0)
(25.0452054315298 -0.1497192205744776 0)
(24.99999999822981 1.002859506311269e-09 0)
(25.00000003567224 -1.250170012601702e-07 0)
(25.00005138165332 -0.0001384119194338587 0)
(25.02845815942472 -0.04348389463015391 0)
(24.9999999997836 1.269387751938376e-10 0)
(25.00000000817093 -1.767220358306159e-08 0)
(25.00001175973036 -1.974129623060707e-05 0)
(25.00508299317446 -0.005110486712898678 0)
(24.93328747687466 -0.2238364204435048 0)
(24.99992447444236 -0.0001546162944523607 0)
(24.99999996560511 -4.437703307432964e-08 0)
(24.99999999973345 3.669652820990482e-10 0)
(24.95928199704949 -0.2055406249123542 0)
(24.99996490831949 -0.0002076555765015145 0)
(24.99999998850437 -1.117045389476141e-07 0)
(24.99999999870831 9.728509826109315e-10 0)
(24.95813891226189 -0.199415830004264 0)
(24.99996480163874 -0.0001915871203178017 0)
(24.99999998817351 -9.937880880780546e-08 0)
(24.99999999888056 8.589840083839124e-10 0)
(24.95716105121885 -0.1836614014197719 0)
(24.99996912622996 -0.0001733727907502065 0)
(24.9999999847057 -7.297116237825732e-08 0)
(24.99999999922144 6.144324668826777e-10 0)
(24.959202951284 -0.1723609696499561 0)
(24.99998673970449 3.83416178949673e-05 0)
(25 -8.763775156733408e-14 0)
(25 -1.780525089017578e-13 0)
(24.95241375651781 -0.1546054100890391 0)
(25.00000297408961 -5.093282247698954e-06 0)
(25 5.786810595746405e-16 0)
(25.00000000000001 1.705482706554307e-15 0)
(24.96494303147019 -0.08184018165696759 0)
(24.99999999879589 -1.160180616832419e-09 0)
(25 3.709941798090211e-16 0)
(25.00000000000001 3.289879903714212e-15 0)
(24.99287837237242 -0.01389072233062593 0)
(25.00000000004501 6.248482811705042e-11 0)
(25 -1.116030552137684e-15 0)
(25.00000000000002 -3.795266907306354e-15 0)
(25 1.420908939734042e-15 0)
(25 1.423702356426197e-15 0)
(25 -2.433951046501265e-17 0)
(24.99999996333494 -5.723964524548863e-09 0)
(24.99999999999999 -2.843418720158383e-19 0)
(25 1.247596135247133e-15 0)
(25 -1.262939583990863e-16 0)
(25.00000121342999 1.018509981141964e-06 0)
(25 -1.351754429816253e-15 0)
(25 -7.574580434954586e-16 0)
(25 1.405525297713644e-14 0)
(24.99999761913085 9.352427125870273e-06 0)
(25 -8.196666527929939e-16 0)
(25 -1.489159861370983e-16 0)
(25.00000000000002 -1.316400183908377e-12 0)
(24.99961329223574 0.0001581805885027036 0)
(25.00000112725417 1.093409785088785e-09 0)
(25.00002780815667 -3.376672459945105e-07 0)
(25.00012623881457 4.756034827300588e-05 0)
(24.99675624479342 -0.003173926319454927 0)
(25.00002780816458 3.379316863365492e-07 0)
(25.00015612582829 -2.169384859255356e-11 0)
(25.00025690955951 -0.0002884639924211146 0)
(24.98299644355405 -0.02500452598904774 0)
(25.00012623880915 -4.756013616765418e-05 0)
(25.00025690959074 0.0002884639524825436 0)
(24.99555595321216 2.974383866231394e-12 0)
(24.74010571626468 -0.0769612810547073 0)
(24.99675624476291 0.003173926322017188 0)
(24.98299644353281 0.02500452593126068 0)
(24.74010571627145 0.07696128101918057 0)
(22.62808407467035 -4.862730985489692e-12 0)
(20.94366931587681 2.318920417073923 0)
(22.04783945125636 2.857487980063585 0)
(24.20039339035247 1.57659046493522 0)
(24.77905203829914 0.5057428458351978 0)
(21.426510746134 4.752318946525316 0)
(21.75129208789784 4.943020923711911 0)
(23.17556367189937 4.135624811278783 0)
(23.94585344542812 2.598748904892804 0)
(22.35138771059393 5.639073203823781 0)
(22.65712760006424 5.792755367629318 0)
(23.34296889175153 5.530527903151089 0)
(23.83455102008749 4.386651156957234 0)
(22.68564717895538 5.842414058718556 0)
(23.20757449558361 6.128385849875964 0)
(23.68056964684206 5.964192638406123 0)
(24.00046301085727 4.918649418768655 0)
(24.00380989420566 5.090728215287744 0)
(24.012894718893 5.141972734867311 0)
(24.02444233780638 5.157341861052681 0)
(23.66060475340978 5.610943191548194 0)
(23.69315113539456 6.082282100684485 0)
(23.70898071008606 6.110782244375747 0)
(23.72332477482363 6.117456346918159 0)
(23.85772293214318 6.460166068159153 0)
(23.25333516729193 6.213736942299509 0)
(23.28691492823438 6.227988719139089 0)
(23.30804053529675 6.231184113487067 0)
(24.07190579353524 7.228861310733742 0)
(22.67890145774031 5.855325772480072 0)
(22.69840345407881 5.862124189866644 0)
(22.7122576044596 5.864209322819264 0)
(25.35497027370824 8.082416507135973 0)
(25.65068937504642 4.15996221104959 0)
(26.0852113683961 1.863186370016996 0)
(25.43393686745741 0.4041129169472654 0)
(25.05703776342124 0.02920890941007458 0)
(26.67619462623671 4.269619037391078 0)
(27.07787021753231 1.272514822786721 0)
(25.70002677472687 0.1417391723903743 0)
(25.08228898335618 0.0004452242670168233 0)
(28.51445558744664 2.085359733084972 0)
(27.81416025934098 -0.722632991150564 0)
(25.98834735071182 -0.2863582505901306 0)
(25.13882452222927 -0.04689734030586572 0)
(21.77953306578381 0.6585704020617134 0)
(22.81143410841348 -0.1316003110577616 0)
(24.15127695431354 -0.2345730078335957 0)
(24.85076517473258 -0.0508658678356408 0)
(25.00208321057375 -9.356742153783211e-05 0)
(25.00002820375468 -6.28643909093612e-05 0)
(24.99999617827222 -1.479704621969718e-05 0)
(24.99999925151137 -6.084921735567923e-07 0)
(25.0029118616865 -0.001200982383550882 0)
(25.00012081969513 -0.0001544298154202674 0)
(25.00000822821352 -8.024636534846543e-06 0)
(24.99999989694984 -2.630360098011255e-08 0)
(25.00597396121834 -0.003279609820019591 0)
(25.00031615149565 -0.0002317352968424771 0)
(25.00001779859841 -1.279760294519569e-05 0)
(25.00000008720653 -2.071364385673686e-07 0)
(24.98777913967252 -0.004022157912409104 0)
(24.99910838572903 -0.0002864909209662912 0)
(24.99995737283889 -1.32824012307883e-05 0)
(24.99999936574676 -1.748771385659716e-07 0)
(24.99999997134624 -4.266223287315356e-10 0)
(25.00000005190845 6.164369102931929e-09 0)
(24.99998477300238 -2.136323742973992e-05 0)
(25.25251173478451 -0.4565184000674135 0)
(24.9999999766898 4.903264825371695e-09 0)
(25.00000000875506 1.856717563413622e-09 0)
(24.99999796070858 -7.923690429501367e-06 0)
(24.78461006600923 0.5031056380216807 0)
(24.99999999563306 1.868628532307199e-09 0)
(25.00000000029881 8.943625478352193e-10 0)
(25.00000024215851 -1.942141032557418e-06 0)
(22.42649012245177 1.570822317592354 0)
(25.00000000003071 8.72566577885981e-10 0)
(25.00000000080998 4.446897360219964e-10 0)
(24.99999958251228 3.168349868668028e-07 0)
(20.63761094514889 0.5646570934990471 0)
(18.39611734113761 5.827438977164098 0)
(17.49075016998806 9.856020244050915 0)
(17.9512841350212 11.10150915162928 0)
(18.02342307112207 11.25163444419479 0)
(14.92581329034315 7.497723778176616 0)
(16.40662898265071 10.91725263674854 0)
(17.27275866523219 12.2081842802447 0)
(17.4045715595378 12.34872322404767 0)
(12.73328245574297 7.227493246525875 0)
(16.05435099024145 10.7687948413115 0)
(17.40525340754605 11.95165347533806 0)
(17.57503663876944 12.03628609334567 0)
(12.44510513190793 5.463813506313724 0)
(14.5313960020986 9.18878436720092 0)
(15.3748981982607 10.22976211149367 0)
(15.58639849799036 10.2694195746071 0)
(18.01553090284821 11.27141151429002 0)
(18.00222181736434 11.28900690910084 0)
(17.98395320395093 11.31124102195051 0)
(17.99419455810507 11.34811902217454 0)
(17.40651869317411 12.34939471293012 0)
(17.40494866678279 12.34691795750009 0)
(17.40412545100699 12.34706968646141 0)
(17.42740926477482 12.35786812965818 0)
(17.57271052771214 12.03267081443649 0)
(17.57051532378355 12.02864469271683 0)
(17.57167685689289 12.02694177092895 0)
(17.58818564766624 12.03198816818437 0)
(15.59514531645453 10.26572803149969 0)
(15.59246955491163 10.26349581212895 0)
(15.5919001587901 10.26264231171509 0)
(15.56838061643347 10.23610781395404 0)
(18.17320488935369 11.18174150425847 0)
(18.29928895910199 10.96676806630513 0)
(18.70857695208124 10.44782424053406 0)
(20.19646005553483 7.928805535179704 0)
(17.48244785194796 12.34932778861857 0)
(17.5274472936272 12.23446605214244 0)
(18.2171824339821 11.78688335463241 0)
(20.56026277687977 10.67256358042088 0)
(17.51184285281009 12.05517911515992 0)
(17.47619632663135 11.98232517401584 0)
(18.32007054434476 11.88645345700612 0)
(23.58543700599055 14.46003739592196 0)
(15.69619477164921 10.33209688236105 0)
(15.78107367536619 10.38235321206249 0)
(17.3481338138189 11.07084397821633 0)
(29.53606138004408 17.88210271537392 0)
(25.97690127603553 3.302222304790633 0)
(20.70839205948402 -4.728594854935767 0)
(6.775703939816684 -3.493487922346536 0)
(3.961904864942863 -0.1772822630643021 0)
(24.71685644732745 5.24128099341076 0)
(16.1235627233307 -5.562692664566881 0)
(0.7802390245920318 -3.624186007421926 0)
(-2.54475097694515 -0.2572795098613768 0)
(22.24376748607773 1.98492182629654 0)
(10.70858503133762 -10.90923518932686 0)
(-2.453007710183679 -2.829904273729754 0)
(-3.769232924687381 -0.4741125240098862 0)
(16.26243379738596 -8.2823850852773 0)
(8.17848059018741 -4.747162171883447 0)
(-1.698427087907766 -1.296495511562683 0)
(-1.861228434996713 -0.3893371483290381 0)
(4.615897039009364 -0.04945967620193947 0)
(4.744373890497708 0.1573854030588829 0)
(5.011251923019301 0.5262475956707352 0)
(3.786451761474299 3.271759490191517 0)
(-2.585546336329605 -0.08114500514283356 0)
(-2.557522662468228 0.3057109378104546 0)
(-1.759288341283562 1.929139740078597 0)
(-0.8395778696536049 6.575502353741561 0)
(-4.031818599967192 -0.2161693952244454 0)
(-4.084247878193236 0.3884525270235381 0)
(-3.169160842425791 2.903605147071185 0)
(-0.4067960376342472 8.975636932272614 0)
(-1.806559876876737 -0.2224467092359456 0)
(-1.920062109416553 0.3651662937079259 0)
(-1.458248019167882 3.084251131417798 0)
(-0.6544038908482556 11.00697451298738 0)
(19.77944876743571 -3.683951633390949 0)
(23.20844987809623 -1.353911573952016 0)
(24.78033704375725 -0.7198544537529699 0)
(25.16531595712276 -1.123013334269211 0)
(14.19577748910092 -3.559340992080736 0)
(21.06124200771037 -2.485345009551343 0)
(24.12057573722746 -1.786437126071684 0)
(25.78392603189707 -1.532887989415712 0)
(8.566232619385698 0.2938859552210469 0)
(17.89238371049284 -1.915310071335631 0)
(22.91159317693335 -2.614848833834504 0)
(28.53221348866565 -1.451670599869542 0)
(5.86203335543114 7.038299008810962 0)
(13.35768617628542 6.295105684695553 0)
(19.26394771844553 2.004186357271459 0)
(34.47230309227818 -0.06635471466703897 0)
(25.16244483062633 -2.717868940873114 0)
(22.85042374828104 -5.424805702130604 0)
(18.84456855696655 -5.653978370013552 0)
(15.07344812305688 -3.729621367070296 0)
(28.87250149054179 -6.54738598726084 0)
(25.6390952623324 -12.73414581048063 0)
(16.13407182866096 -11.91225722163646 0)
(9.423049161461766 -8.794509287432877 0)
(30.39490639778011 -9.039128263572614 0)
(25.69219868691475 -13.43809809892951 0)
(13.85915313587343 -17.65991519071586 0)
(8.28829622200546 -13.49962917541006 0)
(20.10732095047943 -11.64409511278922 0)
(9.620227632173311 -14.32549367069674 0)
(1.528127260449179 -11.16088352912546 0)
(1.451179498828151 -8.676002216171584 0)
(1.417843513999167 -6.510811027475004 0)
(1.416443507225628 -2.68936730348406 0)
(1.44500284555745 -0.298869658511947 0)
(1.457309252255866 -0.02702350688999137 0)
(4.211046069176826 -9.610034045598244 0)
(2.669570368377287 -3.323361832743318 0)
(2.395631996080154 -0.6706759046937715 0)
(2.382978874730168 -0.1342358729220849 0)
(6.182098978243705 -3.747182287313555 0)
(5.386835421221166 -0.9062608445298859 0)
(5.138267412788682 -0.3312506044122727 0)
(5.075428505266117 -0.08967240975928627 0)
(13.34630178295057 -1.229159920651836 0)
(13.28732324658499 -0.3076084232127484 0)
(13.22212625807355 -0.1485718075434581 0)
(13.18914372165346 -0.04124708425016545 0)
(1.457309252254082 0.02702350691599991 0)
(2.382978874750328 0.1342358729185582 0)
(5.075428505260574 0.08967240976885191 0)
(13.18914372162844 0.0412470843059728 0)
(1.445002845545519 0.2988696585249165 0)
(2.395631996096494 0.6706759047129384 0)
(5.138267412811359 0.3312506043988002 0)
(13.22212625811209 0.1485718074523444 0)
(1.416443507222634 2.689367303470293 0)
(2.669570368371637 3.32336183276997 0)
(5.38683542123645 0.9062608444972661 0)
(13.28732324659655 0.3076084232281642 0)
(1.417843514007715 6.510811027471837 0)
(4.211046069176354 9.610034045602994 0)
(6.182098978254797 3.747182287315312 0)
(13.34630178298299 1.229159920576764 0)
(15.07344812307159 3.729621367090639 0)
(18.84456855698166 5.653978370016135 0)
(22.85042374833467 5.424805702089567 0)
(25.16244483070406 2.71786894089205 0)
(9.423049161476175 8.794509287458629 0)
(16.13407182863537 11.91225722164825 0)
(25.63909526227883 12.73414581042342 0)
(28.8725014905961 6.547385987256579 0)
(8.288296221997992 13.49962917540645 0)
(13.85915313585446 17.65991519069133 0)
(25.69219868689885 13.43809809894649 0)
(30.39490639778279 9.039128263545141 0)
(1.45117949882994 8.676002216166449 0)
(1.528127260446323 11.1608835291264 0)
(9.62022763217435 14.32549367068467 0)
(20.10732095047618 11.64409511281121 0)
(34.47230309227347 0.06635471466523978 0)
(19.26394771842525 -2.004186357239885 0)
(13.35768617631548 -6.295105684672845 0)
(5.862033355430992 -7.03829900879833 0)
(28.53221348868415 1.451670599864329 0)
(22.9115931769871 2.614848833820159 0)
(17.89238371048729 1.915310071360591 0)
(8.56623261938487 -0.2938859551997452 0)
(25.78392603192485 1.532887989402275 0)
(24.12057573728884 1.786437126075545 0)
(21.06124200770833 2.485345009570676 0)
(14.19577748909329 3.559340992113318 0)
(25.16531595714938 1.123013334255762 0)
(24.78033704379519 0.7198544537491167 0)
(23.20844987810385 1.353911573981694 0)
(19.77944876740349 3.683951633415102 0)
(3.7864517614815 -3.271759490163609 0)
(5.011251922999842 -0.5262475956675903 0)
(4.744373890494171 -0.1573854030938303 0)
(4.615897039006734 0.04945967621030716 0)
(-0.8395778696350962 -6.57550235371159 0)
(-1.759288341286275 -1.929139740065564 0)
(-2.557522662451407 -0.305710937814957 0)
(-2.585546336307258 0.08114500514508369 0)
(-0.4067960376254813 -8.975636932263411 0)
(-3.169160842406721 -2.903605147081544 0)
(-4.084247878196414 -0.3884525270231271 0)
(-4.03181859995264 0.2161693952303402 0)
(-0.6544038908417736 -11.0069745130065 0)
(-1.458248019161011 -3.084251131445853 0)
(-1.920062109429491 -0.3651662937054705 0)
(-1.806559876877428 0.2224467092486241 0)
(3.961904864962944 0.1772822630319666 0)
(6.775703939755282 3.493487922355369 0)
(20.70839205934534 4.72859485495062 0)
(25.9769012760279 -3.302222304784329 0)
(-2.544750976872614 0.257279509847134 0)
(0.7802390245408228 3.62418600739097 0)
(16.123562723258 5.562692664554585 0)
(24.71685644737433 -5.241280993423561 0)
(-3.769232924638688 0.4741125240027773 0)
(-2.453007710236327 2.829904273684725 0)
(10.70858503126911 10.90923518929092 0)
(22.24376748611725 -1.984921826313174 0)
(-1.861228434981772 0.3893371483215681 0)
(-1.698427087966897 1.296495511508347 0)
(8.178480590171281 4.747162171867676 0)
(16.2624337974161 8.282385085256051 0)
(20.19646005555593 -7.92880553516131 0)