/*--------------------------------*- C++ -*----------------------------------*\
  =========                 |
  \\      /  F ield         | OpenFOAM: The Open Source CFD Toolbox
   \\    /   O peration     | Website:  https://openfoam.org
    \\  /    A nd           | Version:  11
     \\/     M anipulation  |
\*---------------------------------------------------------------------------*/
FoamFile
{
    format      ascii;
    class       volScalarField;
    location    "0.35923545";
    object      rho;
}
// * * * * * * * * * * * * * * * * * * * * * * * * * * * * * * * * * * * * * //

dimensions      [0 0 0 0 0 0 0];

internalField   nonuniform List<scalar> 
880
(
0.2239950333699092
0.2239950336977215
0.224021930972134
0.2277382283179515
0.2239950333702082
0.223995034333608
0.2240283847786513
0.2294906645203851
0.2239950333717012
0.2239950371321023
0.2240567382240414
0.231587513109901
0.2239950333941023
0.2239950499075351
0.2241222546272519
0.2347099659692446
0.223995033259515
0.2239950334139612
0.2239950459401247
0.2239952242250021
0.2239951096717878
0.2239953271666514
0.2239968608590864
0.2239977477261588
0.2242817648162959
0.2244566832994598
0.2247513407125655
0.2250683332133794
0.2401924549794481
0.2455342999283728
0.25000845388875
0.2520201541920306
0.2239955037673632
0.2239988445111161
0.2240094181069461
0.2240395950184653
0.2240201688900392
0.2241022653030804
0.2242088517319373
0.2244460965080343
0.2264582929839894
0.2276524869495462
0.2291734745872284
0.2311937615102654
0.2539939152616134
0.2568432581376144
0.2574508810824823
0.2560354163259227
0.2436279766370941
0.2366720986252067
0.2331385378643127
0.2308249444459286
0.2347448840358731
0.2358606487490688
0.236538328861935
0.2365730035146595
0.2252532804293974
0.2262087601577303
0.2272170643554036
0.2279428424078857
0.2241531992052111
0.2243777828646818
0.2247180543063542
0.2251948634238101
0.2257495128170165
0.2263069969788296
0.2268586475909972
0.2272746783885694
0.2284636938965718
0.2287683203112802
0.228917688599825
0.228956227470463
0.2358869330018278
0.234935803111045
0.2336846406487773
0.232389221555497
0.2284543842894126
0.2270998936921753
0.2263601001004072
0.2255256389310361
0.2257914071177543
0.231486555197359
0.2288735261315008
0.2275322071867412
0.2365885351687851
0.2310972117936116
0.2286239975592894
0.2274951053169924
0.2954150986020289
0.2338487691366171
0.2283256592526965
0.2269977886207073
0.3573529764129978
0.2486711359064348
0.2292792565948635
0.2268111295050075
0.2267523751883525
0.2306963847443379
0.2665975968598417
0.3845280449061721
0.225754115098427
0.2332910723013115
0.2862187837232564
0.3841151566443816
0.2261775048283337
0.2392093241684112
0.311679344656012
0.3875968753019319
0.2277762282292793
0.2496189905902875
0.3348894874036184
0.3832618244832707
0.3736732774428397
0.3470974476034782
0.2651507157439407
0.2312644633664918
0.3618912846719441
0.3484420083716154
0.2820880632131835
0.2373724721925819
0.3493508352070684
0.3444410625514573
0.2966025955354057
0.2469821277290233
0.336085803987005
0.3272445936474603
0.2987919405462292
0.2586675648648997
0.2688478932691436
0.2915294113179189
0.3056281563474204
0.3202637962235104
0.267470698793543
0.2769599932700067
0.2821380009356197
0.2973622051028207
0.2634546229835686
0.2629450406861935
0.258857626430157
0.2680360224175075
0.2581465448007683
0.2516078458691864
0.2376536675908458
0.2330812891910263
0.2537297696629187
0.240283805712196
0.2167390517634136
0.1875799990598289
0.2465603577949043
0.2298995211441414
0.1990009321417779
0.1311077315578331
0.2410504363042773
0.2255981751137129
0.1852433137356381
0.0869182010913703
0.2363158658975751
0.2232416507555609
0.1728895444409402
0.05198495284492076
0.0532161541582301
0.174178812114014
0.2213941653028063
0.2320721280087439
0.07253549383308439
0.1742445072251895
0.2201204030023009
0.2291993480161785
0.07399487206916316
0.1723933553528182
0.2183944029815481
0.2272665129098169
0.06823145324180831
0.1690867670250731
0.2169799934633083
0.2262495422614916
0.08121616364453621
0.1750672769958082
0.2166092201823981
0.2244899188599906
0.09692935275544586
0.1821353227023798
0.2169353630037958
0.2234647331196001
0.1160787823644233
0.1914405963396255
0.2176618540527637
0.223419484921226
0.1390487466404185
0.1994238649508978
0.2188314030995224
0.2235311468776429
0.1554762845248552
0.1757860492010944
0.209848825491335
0.2225128603667809
0.1533130554884778
0.1786601991468263
0.2102830520726766
0.2224898501115861
0.1489450342887383
0.1829369644343013
0.2113253144333782
0.2224888596849562
0.1437272243276224
0.1876060729742047
0.2129161150158312
0.2226132431507002
0.1390487466404056
0.1994238649508528
0.218831403099339
0.2235311468768493
0.116078782364523
0.1914405963390019
0.2176618540524054
0.2234194849201649
0.09692935275545606
0.1821353227020636
0.2169353630031688
0.2234647331185865
0.08121616364465926
0.1750672769953508
0.2166092201821909
0.2244899188594284
0.2320721280092442
0.2213941653028711
0.1741788121138503
0.05321615415742505
0.2291993480161124
0.2201204030021892
0.1742445072247811
0.07253549383244573
0.2272665129099338
0.2183944029817295
0.1723933553518913
0.07399487206902042
0.2262495422616615
0.2169799934638424
0.1690867670249558
0.0682314532417424
0.05198495284479242
0.1728895444407407
0.2232416507554791
0.2363158658977777
0.0869182010909996
0.1852433137357142
0.2255981751138164
0.2410504363043608
0.1311077315575606
0.1990009321422552
0.2298995211442526
0.2465603577955704
0.1875799990599855
0.2167390517630234
0.2402838057114915
0.2537297696633587
0.2688478932697653
0.291529411319241
0.305628156348289
0.3202637962231086
0.2674706987934616
0.2769599932697979
0.2821380009360991
0.297362205102668
0.2634546229827715
0.2629450406860026
0.2588576264301474
0.2680360224174839
0.2581465448005842
0.2516078458688387
0.2376536675906207
0.2330812891912925
0.3360858039867898
0.3272445936475836
0.29879194054701
0.2586675648665941
0.3493508352065882
0.3444410625514097
0.29660259553577
0.2469821277293272
0.3618912846717164
0.3484420083711777
0.2820880632128442
0.2373724721933073
0.3736732774419199
0.3470974476040304
0.2651507157446687
0.2312644633666092
0.226752375188206
0.2306963847444184
0.2665975968596754
0.3845280449055142
0.2257541150994387
0.2332910723015814
0.2862187837231883
0.3841151566433961
0.2261775048299502
0.2392093241697759
0.3116793446558545
0.387596875301667
0.2277762282295988
0.2496189905901587
0.3348894874035501
0.3832618244826108
0.2268111295051172
0.2269977886205567
0.2274951053177587
0.2275322071868472
0.229279256594079
0.2283256592521546
0.2286239975595789
0.2288735261314495
0.2486711359055589
0.2338487691366643
0.2310972117930319
0.2314865551971126
0.3573529764119894
0.2954150986013108
0.2365885351690272
0.2257914071178322
0.2272746783890928
0.2289562274706562
0.2323892215558003
0.2255256389312087
0.2268586475902973
0.2289176886001423
0.2336846406490239
0.2263601001004994
0.226306996978804
0.2287683203112706
0.2349358031109262
0.2270998936914854
0.2257495128164667
0.2284636938960276
0.2358869330024655
0.2284543842895277
0.2241531992050554
0.2252532804288235
0.2347448840362593
0.2436279766374655
0.2243777828642185
0.2262087601568262
0.2358606487495457
0.2366720986249263
0.2247180543070529
0.2272170643543916
0.2365383288618326
0.2331385378632101
0.2251948634234217
0.2279428424076024
0.2365730035152029
0.2308249444453825
0.2560354163256695
0.2311937615104454
0.2244460965076251
0.2240395950192355
0.2574508810823268
0.2291734745874039
0.2242088517316605
0.2240094181069268
0.2568432581375726
0.2276524869492634
0.2241022653016068
0.2239988445107441
0.2539939152614882
0.2264582929835056
0.2240201688895331
0.2239955037679903
0.2520201541917762
0.2250683332134943
0.2239977477261905
0.2239952242259381
0.2500084538877994
0.2247513407125305
0.2239968608585741
0.2239950459407107
0.2455342999275679
0.2244566832993566
0.2239953271662765
0.2239950334137216
0.2401924549787745
0.2242817648160054
0.2239951096716073
0.2239950332612173
0.2239950333699093
0.2239950336979472
0.2240219309721837
0.2277382283177026
0.2239950333704065
0.2239950343328749
0.2240283847786386
0.2294906645202792
0.2239950333721685
0.2239950371315927
0.2240567382241496
0.2315875131104483
0.2239950333946447
0.2239950499073844
0.2241222546273552
0.2347099659694906
0.2309860039564645
0.2340817889207463
0.2390621100612434
0.2488978418836441
0.2340817889213304
0.2381172688065098
0.2455746601831668
0.2600339528005942
0.2390621100614652
0.2455746601831357
0.2575887502257723
0.2748615502693426
0.2488978418838096
0.2600339528000746
0.2748615502699132
0.2928126994775395
0.3104165986365266
0.2953224519944415
0.2891127543079741
0.2745362105673262
0.3072130483797588
0.3028630147746557
0.303405730873418
0.2963688806075077
0.3073448552622463
0.3059054502916889
0.3051216922647164
0.3025786293161269
0.3028575389200291
0.3020908582993481
0.3018048886177327
0.300091606189324
0.2950239871421686
0.2917401165401886
0.2853881179575752
0.2766609376923908
0.2958574213146332
0.2924022130542415
0.285838394428038
0.2774974382603295
0.2966768708943801
0.2929358057366099
0.285925113085429
0.2782979064743842
0.2970753537488894
0.2928005286347858
0.2862005209780085
0.2758410532201839
0.2263160585456336
0.204267045575468
0.2017444809052583
0.2026249552361561
0.2115210479625119
0.197746672119876
0.1990277723453813
0.2006371072690126
0.1993451732455519
0.1972927358069082
0.2000145702305436
0.2014855971377261
0.1809417603723992
0.1925854002553782
0.1978577929370135
0.1999102314792376
0.2023253543575693
0.2029380987073319
0.2046257582634938
0.2066686305919736
0.2009346065843347
0.2018168994473439
0.203763703010885
0.2063170611240425
0.2016266333708869
0.2022707678035626
0.2039853350825267
0.2060235612734047
0.2003335150376264
0.2011786973211396
0.2033036235300241
0.2060925854439587
0.218089661537513
0.2812241760813943
0.3614439304519
0.3822066249770925
0.2229324201881798
0.2927328157273463
0.3544345210734478
0.3674466729929116
0.2263441884300059
0.297560265021334
0.3517790087720835
0.3643075255979372
0.2283713972873352
0.3061288669626296
0.3524197733121203
0.3640314893617896
0.4398971593924951
0.4300655889677158
0.42155485127398
0.4060844333585359
0.4369343219937368
0.4303677944501541
0.4218071417508406
0.4064957028011643
0.4312654819716514
0.4288339077578448
0.4202852004223779
0.4055028292494176
0.4223956027635377
0.4303393999499496
0.4216466829320247
0.4068342569366349
0.3875017260343498
0.3713091544420953
0.3555409684353647
0.3469265766603503
0.3887687749806947
0.3719731091244298
0.3555330506507013
0.3465953978373802
0.3881577812521405
0.3703916541339137
0.3547426116728938
0.3453439247701303
0.3906697714978545
0.3717222323675689
0.3564607764332973
0.3464652147869826
0.3381630302068944
0.3240653284245817
0.3003142727673456
0.2623605602886422
0.3387632505072015
0.3267216539904249
0.3038970565183192
0.2701431037616402
0.3380920604253326
0.3272108999475972
0.3035345947545461
0.2700298658797969
0.3396838324325586
0.3305056363006697
0.3044647556217751
0.311951227933419
0.1731391691581253
0.05034379811690828
0.00891196789667228
0.00421284294667114
0.1365655611270657
0.03448462637300255
0.01027403250049369
0.008104275539232791
0.1037545920485817
0.0249945783295464
0.01090001390798194
0.009786724916232642
0.07437612422196956
0.0151646360744968
0.01060717932331545
0.01059523440857254
0.007180982906938727
0.01439569184034664
0.02016581029346128
0.02856991785183597
0.0124989113177027
0.01872669496019246
0.0247177610473859
0.03400886174136182
0.01535756896404288
0.02183522724557191
0.02993105413585527
0.0397756325439805
0.01757996134514026
0.02469630072184975
0.0351380713402151
0.04478703325593315
0.03597866908088347
0.05195661448574513
0.07156283235754454
0.09542419209183695
0.03896838367949606
0.0528090252088422
0.07024364187639992
0.09111909145551075
0.04275495932643995
0.05287659964597297
0.06805809304788209
0.08778043591170821
0.041716325194822
0.04958600182877882
0.05995655670047173
0.08265021860548395
0.09972302271501721
0.09878565365733127
0.09918763822333249
0.1010378410760628
0.09008952053323076
0.09155983474371153
0.09365988523629683
0.0951770040203616
0.08610362727864826
0.09010305611764653
0.09206426271948456
0.09461476107266953
0.0812758768493962
0.0865844479956555
0.08919856547205139
0.09399556274356805
0.09891503598553447
0.1032403030588776
0.1060220555848531
0.1069891975026527
0.09791347131709428
0.1011868322215303
0.1034642766937844
0.1045904601652147
0.09812561848183363
0.1013573323982025
0.1046580128768908
0.1063074287614576
0.1051230194568936
0.1089086208694988
0.1123102051241203
0.1130949509674003
0.1069891975026674
0.1045904601651716
0.1063074287615117
0.1130949509673914
0.1060220555849633
0.1034642766938114
0.1046580128769199
0.112310205124084
0.1032403030588739
0.1011868322216379
0.1013573323983292
0.1089086208695649
0.09891503598578202
0.0979134713170858
0.09812561848189701
0.1051230194569917
0.1010378410763243
0.09918763822338143
0.09878565365744695
0.09972302271507008
0.09517700402042605
0.09365988523641861
0.09155983474381763
0.0900895205333053
0.09461476107281451
0.09206426271970289
0.09010305611777471
0.08610362727879541
0.09399556274364204
0.08919856547214877
0.08658444799576631
0.08127587684954238
0.08265021860572742
0.05995655670080358
0.04958600182905135
0.04171632519506322
0.08778043591190196
0.06805809304807413
0.05287659964624617
0.0427549593267642
0.09111909145569434
0.0702436418766785
0.05280902520911696
0.03896838367973386
0.09542419209198298
0.07156283235782199
0.05195661448593666
0.03597866908124035
0.02856991785200613
0.02016581029354504
0.01439569184026751
0.007180982906874188
0.03400886174152597
0.02471776104751705
0.01872669496018387
0.01249891131770498
0.03977563254415394
0.02993105413602794
0.02183522724557861
0.01535756896403491
0.0447870332560961
0.03513807134034708
0.02469630072188764
0.01757996134512822
0.004212842946581442
0.008911967896508284
0.05034379811656035
0.1731391691580609
0.008104275539218763
0.01027403250043402
0.03448462637284096
0.1365655611268938
0.009786724916227325
0.01090001390793767
0.02499457832948419
0.1037545920485418
0.01059523440854451
0.01060717932327062
0.01516463607446558
0.07437612422185413
0.2623605602886146
0.3003142727670341
0.3240653284237797
0.3381630302066159
0.2701431037612594
0.3038970565179512
0.3267216539900626
0.3387632505065015
0.2700298658795478
0.3035345947541381
0.3272108999476858
0.3380920604250968
0.3119512279332621
0.3044647556213851
0.3305056363009318
0.3396838324320804
0.3469265766598818
0.3555409684344607
0.3713091544416259
0.3875017260331641
0.346595397836881
0.3555330506505529
0.3719731091227709
0.3887687749795038
0.3453439247703454
0.3547426116720228
0.3703916541324699
0.388157781251008
0.3464652147865854
0.3564607764327785
0.37172223236674
0.3906697714972464
0.4060844333578502
0.4215548512734462
0.4300655889673439
0.4398971593926835
0.4064957028008334
0.4218071417504067
0.4303677944494792
0.4369343219939973
0.4055028292492487
0.4202852004219273
0.4288339077575939
0.4312654819716165
0.4068342569366177
0.4216466829318021
0.4303393999490876
0.4223956027642297
0.3822066249771023
0.3614439304514795
0.2812241760815691
0.2180896615380974
0.3674466729928121
0.3544345210732259
0.2927328157274925
0.222932420188754
0.3643075255978736
0.3517790087719473
0.2975602650214119
0.2263441884306032
0.3640314893611127
0.3524197733119944
0.3061288669627116
0.2283713972879571
0.2066686305923292
0.2046257582627956
0.2029380987061689
0.2023253543567103
0.2063170611244956
0.2037637030106416
0.201816899446243
0.2009346065838729
0.2060235612739267
0.2039853350822129
0.2022707678025294
0.201626633370475
0.2060925854444713
0.2033036235295294
0.201178697320077
0.200333515036926
0.2026249552352148
0.2017444809045333
0.2042670455756737
0.2263160585458461
0.200637107268096
0.1990277723445331
0.1977466721202937
0.2115210479626325
0.2014855971368259
0.200014570229709
0.1972927358074562
0.1993451732456067
0.1999102314783246
0.1978577929360144
0.1925854002559254
0.1809417603725527
0.2766609376923828
0.2853881179574846
0.2917401165406023
0.2950239871419398
0.2774974382602411
0.285838394428594
0.292402213054485
0.2958574213141835
0.2782979064744281
0.285925113085349
0.2929358057365321
0.2966768708941325
0.2758410532200863
0.2862005209785942
0.2928005286354584
0.2970753537486163
0.3000916061883356
0.3025786293144976
0.2963688806058694
0.274536210567197
0.3018048886162031
0.3051216922631444
0.3034057308710447
0.2891127543070828
0.3020908582983218
0.3059054502899832
0.3028630147723973
0.2953224519927753
0.3028575389186777
0.3073448552609989
0.3072130483769558
0.3104165986332748
0.1499156287819144
0.2006580387006686
0.2185670554520595
0.2235520912497229
0.1465639946066558
0.1988683523787652
0.2174186395439372
0.2233523716089201
0.143524075574134
0.196407322440631
0.2163008750206922
0.2231149504652924
0.1411691375332791
0.1921317833301201
0.2146289735802425
0.2228457272798509
0.2225128603667374
0.2098488254913607
0.1757860492011026
0.155476284525026
0.2224898501113607
0.2102830520726362
0.1786601991468601
0.153313055488447
0.2224888596848647
0.2113253144335129
0.1829369644342669
0.1489450342888367
0.2226132431504988
0.2129161150156312
0.1876060729742167
0.1437272243277548
0.2228457272794554
0.2231149504650606
0.2233523716085198
0.2235520912489544
0.2146289735796461
0.2163008750204577
0.2174186395431919
0.2185670554515754
0.1921317833302187
0.1964073224404602
0.1988683523789463
0.200658038700977
0.1411691375332763
0.143524075574035
0.1465639946066453
0.1499156287819953
)
;

boundaryField
{
    back
    {
        type            empty;
    }
    inlet
    {
        type            calculated;
        value           nonuniform List<scalar> 
16
(
0.2239950333699092
0.2239950333702082
0.2239950333717012
0.2239950333941023
0.223995033259515
0.2239950334139612
0.2239950459401247
0.2239952242250021
0.2239952242259381
0.2239950459407107
0.2239950334137216
0.2239950332612173
0.2239950333699093
0.2239950333704065
0.2239950333721685
0.2239950333946447
)
;
    }
    front
    {
        type            empty;
    }
    top
    {
        type            calculated;
        value           nonuniform List<scalar> 
40
(
0.2239955037673632
0.2239988445111161
0.2240094181069461
0.2240395950184653
0.2241531992052111
0.2243777828646818
0.2247180543063542
0.2251948634238102
0.2257495128170165
0.2263069969788296
0.2268586475909972
0.2272746783885694
0.2275322071867411
0.2274951053169924
0.2269977886207073
0.2268111295050075
0.2267523751883525
0.225754115098427
0.2261775048283337
0.2277762282292793
0.2312644633664918
0.2373724721925819
0.2469821277290232
0.2586675648648997
0.2688478932691436
0.267470698793543
0.2634546229835686
0.2581465448007683
0.2537297696629187
0.2465603577949043
0.2410504363042773
0.2363158658975751
0.2320721280087439
0.2291993480161784
0.2272665129098169
0.2262495422614916
0.2244899188599906
0.2234647331196001
0.223419484921226
0.2235311468776429
)
;
    }
    outlet
    {
        type            calculated;
        value           uniform 0.2239950333699093;
    }
    bottom
    {
        type            calculated;
        value           nonuniform List<scalar> 
40
(
0.2235311468768493
0.2234194849201649
0.2234647331185865
0.2244899188594284
0.2320721280092442
0.2291993480161124
0.2272665129099338
0.2262495422616615
0.2363158658977777
0.2410504363043608
0.2465603577955704
0.2537297696633587
0.2688478932697653
0.2674706987934616
0.2634546229827715
0.2581465448005842
0.2586675648665941
0.2469821277293272
0.2373724721933073
0.2312644633666092
0.226752375188206
0.2257541150994387
0.2261775048299502
0.2277762282295988
0.2268111295051172
0.2269977886205567
0.2274951053177587
0.2275322071868472
0.2272746783890928
0.2268586475902973
0.226306996978804
0.2257495128164667
0.2241531992050554
0.2243777828642185
0.2247180543070529
0.2251948634234217
0.2240395950192355
0.2240094181069268
0.2239988445107441
0.2239955037679902
)
;
    }
    wall
    {
        type            calculated;
        value           nonuniform List<scalar> 
104
(
0.3104165986365266
0.3072130483797588
0.3073448552622463
0.3028575389200291
0.2970753537488894
0.2928005286347858
0.2862005209780085
0.2758410532201839
0.1809417603723992
0.1925854002553782
0.1978577929370135
0.1999102314792376
0.2003335150376264
0.2011786973211396
0.2033036235300241
0.2060925854439587
0.2283713972873352
0.3061288669626296
0.3524197733121203
0.3640314893617896
0.4223956027635377
0.4303393999499496
0.4216466829320247
0.4068342569366349
0.3906697714978545
0.3717222323675689
0.3564607764332973
0.3464652147869826
0.3396838324325587
0.3305056363006697
0.3044647556217751
0.311951227933419
0.07437612422196956
0.0151646360744968
0.01060717932331545
0.01059523440857254
0.01757996134514026
0.02469630072184975
0.0351380713402151
0.04478703325593315
0.041716325194822
0.04958600182877882
0.05995655670047173
0.08265021860548395
0.0812758768493962
0.0865844479956555
0.08919856547205139
0.09399556274356805
0.09891503598553449
0.1032403030588776
0.1060220555848531
0.1069891975026527
0.1069891975026674
0.1060220555849632
0.1032403030588739
0.09891503598578201
0.09399556274364204
0.08919856547214877
0.08658444799576631
0.08127587684954238
0.08265021860572742
0.05995655670080358
0.04958600182905135
0.04171632519506322
0.0447870332560961
0.03513807134034708
0.02469630072188764
0.01757996134512822
0.01059523440854451
0.01060717932327062
0.01516463607446558
0.07437612422185413
0.3119512279332621
0.3044647556213851
0.3305056363009318
0.3396838324320804
0.3464652147865854
0.3564607764327785
0.37172223236674
0.3906697714972464
0.4068342569366177
0.4216466829318021
0.4303393999490876
0.4223956027642297
0.3640314893611127
0.3524197733119944
0.3061288669627116
0.2283713972879571
0.2060925854444713
0.2033036235295294
0.201178697320077
0.200333515036926
0.1999102314783246
0.1978577929360144
0.1925854002559254
0.1809417603725527
0.2758410532200863
0.2862005209785942
0.2928005286354584
0.2970753537486163
0.3028575389186777
0.3073448552609989
0.3072130483769558
0.3104165986332748
)
;
    }
}


// ************************************************************************* //
