/*--------------------------------*- C++ -*----------------------------------*\
  =========                 |
  \\      /  F ield         | OpenFOAM: The Open Source CFD Toolbox
   \\    /   O peration     | Website:  https://openfoam.org
    \\  /    A nd           | Version:  11
     \\/     M anipulation  |
\*---------------------------------------------------------------------------*/
FoamFile
{
    format      ascii;
    class       volScalarField;
    location    "0.17";
    object      T;
}
// * * * * * * * * * * * * * * * * * * * * * * * * * * * * * * * * * * * * * //

dimensions      [0 0 0 1 0 0 0];

internalField   nonuniform List<scalar> 
880
(
500
500.0000000032555
500.0003650446768
500.1862132071939
500.0000000000001
500.0000000124036
500.0009082648928
500.510149137998
500
500.0000001768332
500.0030387424576
501.3080008346595
500.0000000000001
499.9999998698354
500.0105176628161
502.8085462325196
499.9999999998843
500.000000000753
500.0000000486669
500.0000039856102
500.0000001028986
500.0000011170345
500.0000696806719
500.0004233222519
500.0437740387684
500.0850526652276
500.2244481867422
500.0308700951292
507.1892667950561
512.3972276289302
516.6303931530495
518.6699302131965
500.0000478701566
500.0002733164794
500.0020758058437
500.0019537599154
500.0022589693102
500.0067898295334
500.0178792886143
500.026656685661
500.5922996744706
501.0601889491809
501.6419752432466
502.2192477221585
520.9358326456579
523.6796341305728
525.8309162141051
526.6282896690159
520.3654248807949
517.3169251032575
516.230365414379
514.8832725739196
504.3128992891345
505.416575776841
506.255422949667
506.3354690422742
500.098756073189
500.2108405082234
500.3342624489861
500.4434677863428
500.0070154534861
500.01958788464
500.0399243683725
500.0530915199106
500.0548296103015
500.0470961992843
500.0347336653496
500.0207380213235
500.5185946381421
500.5029031699952
500.4423739754937
500.3556112019231
506.2299028041453
505.6014279985874
504.8123292587134
503.9663042004871
513.6401993601841
512.4820201867021
510.8969245396835
509.2440404054714
507.7868544093544
503.1571047737423
500.2505253850114
500.0095609320822
506.0272373741607
502.2519519534978
500.1428050309368
500.0029577409728
508.6712994550215
501.2550765294779
500.044659952683
500.0000005752291
532.8173934481624
501.3258687382951
500.0144656807225
500.0003759498876
500.0010003634164
500.0269182539646
503.9317279608142
575.1315287965218
500.0040101838868
500.0855911062856
507.2495747090206
585.1732944705798
500.0116290882862
500.2016891188391
512.4156095825408
595.8138783304945
500.0305927717725
500.4822583172478
519.3770163961386
604.5071722500538
612.7273638770131
527.7799105251834
500.9212554003817
500.0637029171913
620.0529125653529
537.7037249854931
501.7321016509256
500.1254875923875
626.1160369844506
548.6167360412472
502.8849193249986
500.2078570165312
627.7790071815002
559.5213027200235
504.8328001357268
500.3565997652354
500.5547066965694
507.3726857499151
568.3281469319926
625.0319298292264
500.7793562731732
508.0348611490242
559.894419214438
609.845495620041
501.0080845207551
506.1040892725385
544.7650209001835
588.4703736814816
500.3026484550836
503.4289683869653
526.1433880118994
556.42422699346
500.6625496508394
504.4623858603704
517.9613108508587
522.5879759552861
500.5699363894915
502.8765293985157
507.7522563325305
497.4269782471357
500.2086927112474
502.0170746453549
507.7030711109436
501.412637325571
500.0186167686669
501.3472027420596
509.8185273732243
536.8824405555945
534.0067282058071
507.28025138916
500.094407610139
499.9509230736353
526.5631313312549
503.6694965800285
499.4201033586506
499.9200125185136
518.4883503231746
500.4282572225764
499.1143368316037
499.9288936119746
503.9763236652224
496.3695020322542
498.9296305441297
499.9663682175575
487.8534927702157
494.4141778096094
499.2909013821391
499.9867060637227
470.7998540440016
494.4070168678881
499.6720075993644
499.9960185219043
459.9951710934773
494.6772426106235
499.8187461952505
499.9984324040843
461.3240610484318
496.6704851310087
499.9529516017345
499.9994099221803
499.4497786334566
497.8329077504109
499.6444846335398
499.9918938501139
496.0409804238424
497.6040318234721
499.7027905618523
499.9934918099387
488.1886055155226
497.2617068094598
499.7679570069276
499.9950088048298
479.3003375101896
496.7859197144889
499.795378875644
499.9960964437192
461.3240610484243
496.6704851310918
499.9529516023513
499.9994099219265
459.9951710937004
494.6772426105595
499.8187461951227
499.9984324038166
470.7998540440159
494.40701686765
499.6720075988532
499.9960185216274
487.8534927701435
494.4141778092043
499.2909013821139
499.9867060636585
499.9509230738502
500.0944076104701
507.2802513895218
534.006728205562
499.9200125184982
499.4201033587686
503.6694965802445
526.5631313310541
499.9288936120197
499.1143368315998
500.4282572221461
518.4883503227663
499.9663682175874
498.9296305444182
496.3695020318775
503.9763236650602
536.8824405557477
509.818527373449
501.3472027419226
500.0186167688743
501.4126373258214
507.7030711110234
502.017074645411
500.2086927112076
497.4269782469594
507.7522563326863
502.8765293985725
500.5699363896961
522.5879759552163
517.961310850534
504.4623858596494
500.6625496513868
500.5547066961004
507.372685751057
568.3281469329968
625.0319298295695
500.7793562729701
508.0348611487141
559.8944192149785
609.8454956203465
501.0080845196044
506.1040892726618
544.7650208999453
588.4703736814528
500.3026484555127
503.4289683861756
526.1433880118476
556.4242269934211
627.7790071817108
559.5213027203437
504.8328001348368
500.3565997662315
626.1160369850041
548.6167360411469
502.8849193246212
500.2078570162053
620.0529125657881
537.7037249868877
501.7321016533298
500.1254875924305
612.727363877029
527.7799105244256
500.9212553989929
500.063702917121
500.0010003634661
500.0269182539776
503.9317279605542
575.1315287965834
500.0040101843801
500.085591106961
507.2495747089275
585.1732944704454
500.0116290887999
500.2016891190643
512.4156095827573
595.8138783304732
500.0305927715814
500.4822583179903
519.3770163964723
604.5071722502439
500.0003759498567
500.0000005751066
500.0029577411322
500.00956093216
500.0144656802614
500.0446599524404
500.1428050307032
500.2505253848028
501.3258687380887
501.2550765296131
502.2519519532984
503.1571047735181
532.8173934479969
508.6712994550936
506.0272373742751
507.7868544093657
500.0207380214508
500.3556112020632
503.9663042006996
509.2440404057144
500.0347336653172
500.4423739758016
504.8123292589386
510.8969245399046
500.047096199327
500.5029031702023
505.6014279983448
512.482020186075
500.054829610143
500.518594638055
506.2299028043181
513.6401993602508
500.0070154533582
500.0987560730512
504.3128992893605
520.3654248810915
500.0195878842334
500.2108405085126
505.4165757771699
517.3169251031578
500.0399243686006
500.3342624487949
506.2554229495355
516.2303654140491
500.0530915197811
500.4434677862818
506.3354690425305
514.8832725736139
526.628289668967
502.2192477220135
500.0266566856169
500.0019537600826
525.8309162140174
501.6419752433571
500.0178792883334
500.0020758058644
523.6796341307434
501.0601889493415
500.0067898288376
500.0002733161812
520.9358326456108
500.5922996741421
500.0022589690682
500.000047870552
518.6699302131009
500.0308700953624
500.0004233222741
500.0000039859597
516.6303931530283
500.2244481868257
500.0000696805952
500.0000000486837
512.3972276289225
500.0850526652021
500.0000011168752
500.000000000704
507.1892667950428
500.04377403862
500.000000102765
499.9999999999449
500.0000000000001
500.0000000032597
500.0003650447127
500.1862132069635
500
500.000000012291
500.0009082648862
500.5101491380414
500
500.000000176618
500.0030387424005
501.3080008346843
500.0000000000001
499.9999998697733
500.0105176627387
502.8085462323514
500.4726252239748
501.1799695023885
502.7968868515571
508.209889608482
501.179969502384
502.2411721741457
505.896318639921
515.7560276768871
502.7968868514607
505.8963186398595
513.9748299963588
528.6352206502821
508.2098896085511
515.7560276770535
528.6352206504981
546.921903705306
566.9818548058405
551.7960520064815
543.0966903509392
529.5180022449703
563.6107534622302
559.1533466243283
557.4172064611797
550.2589058606343
564.4020363728764
562.7598153875338
561.3259336974717
558.1290394998362
563.6471907024091
562.6706750119417
562.2414586833428
560.3411514775349
559.4240339130482
559.0889927251269
558.1575828097224
555.2975695954865
560.4046477542818
558.7340994252216
557.4247544238841
554.7271509829786
560.3306614790549
558.3856280867094
556.9499800036712
554.1988594104068
560.6679676092626
558.3215943103211
556.8527966798699
548.6407737460914
517.2238707490178
500.4806893396712
500.4303892020051
501.5504011515667
505.1099382052535
495.5810311383668
500.323241012596
502.4781497322708
491.8692221711713
494.7843386786654
501.2752265679799
504.2451164046551
469.5756197832536
489.6293544151366
499.6906130305072
502.9538089202491
502.3699917354826
503.1716249710835
503.6359599402574
503.6581235091421
503.3992691034655
503.9944752270394
504.2840499620166
504.1836032118943
504.7994762114546
504.9358135987716
504.7621688809161
504.5026931687696
504.0089996486785
504.8328715675668
505.2088568949423
504.83277356886
503.2917009682602
503.7637410980906
537.262588653388
597.6348589308503
503.5687075087578
504.2429294294736
550.5034374712933
606.2840876285065
503.7542740896154
505.169469996318
561.026023138289
610.4084081873233
504.1558010236287
506.005024421272
570.1582841089196
616.6734939236271
657.6013836478385
652.3422907552967
650.9333874979845
649.2101419938804
664.9985568848132
657.5147951887694
653.0804269649577
649.6815117591129
668.9303357229222
662.5743975200876
655.4167078485696
650.4179290083644
670.1436836807377
665.8743703943912
657.6711985232195
651.1916865621222
650.5501501601336
651.2762783850998
651.9111667334674
655.133475502788
650.1751243141961
650.018405030644
649.5928918100909
653.5427098492314
649.5478050200178
648.287022926065
647.1199294287288
650.7732729049824
649.7469411331359
647.8983285617752
646.4272735563105
649.654145900203
651.8900366560536
634.4585475972029
612.8885985771578
586.254867282251
653.2600811383389
637.5131172455189
615.3624578010467
614.8540148549907
652.5659185691446
640.4811895137949
625.1923721342708
644.1229193066433
651.5897565682152
644.4235429043656
641.5907654894405
631.6326152057612
545.6545264724766
466.2174919755496
350.8403513345788
361.1133786116533
534.2186813230579
428.6374323135003
306.3501707283471
299.3277357761389
488.6693185803488
363.3815658836742
283.7710218048528
277.4930685490689
391.4884064089869
297.8511993358092
281.0231361625375
270.9018106784195
391.6760041220371
418.5839408809059
438.8256806255309
437.8354776021271
335.1780276572076
375.4579964331653
408.2751903121534
424.4236080733202
305.4025542938717
345.5514915985449
384.8865583240672
419.3795491177567
298.3733489055891
339.8642906908293
384.188574033025
424.1535077581951
473.9917469671046
446.0274570669535
423.0645777392414
414.1409169978929
472.6619375174363
457.1428951186193
432.4604854975595
427.2517819719597
459.756867439885
462.6695332313265
447.4704902925872
446.3194296359845
444.0890568515454
463.9754068065645
460.1533042785935
471.6628842855744
390.1536479961264
395.0982585960379
412.284786403376
417.3420238288312
399.1743645488239
395.9839983829746
393.2657874447924
385.8405876089386
405.779582474388
406.1359189470739
400.3293602989899
382.4248656988464
387.2351564972032
400.1225972302372
390.2665832098177
368.6698076156119
353.0254894613595
348.3715580730574
348.0658278550321
347.8566412566698
362.4945389988085
353.2884906126667
352.1597502101523
352.4579629953011
375.4841430807856
372.2133890632867
371.3851338445464
370.6841267136855
406.8665302342101
400.3033029994741
396.2370558439138
394.0237352727648
347.8566412566603
352.4579629953348
370.6841267136825
394.0237352727744
348.0658278549953
352.1597502101217
371.3851338445684
396.2370558440405
348.3715580730009
353.2884906126205
372.2133890633057
400.3033029997121
353.0254894612742
362.4945389987155
375.4841430807792
406.8665302343342
417.342023828868
412.2847864035007
395.0982585961961
390.153647996251
385.8405876089452
393.2657874448225
395.9839983829101
399.1743645487658
382.4248656987199
400.3293602988833
406.1359189470376
405.7795824743746
368.6698076155158
390.2665832097382
400.1225972301499
387.2351564971426
471.6628842855652
460.1533042786997
463.9754068067067
444.0890568520034
446.3194296359456
447.4704902927569
462.6695332314764
459.7568674403206
427.2517819718869
432.4604854977584
457.1428951188376
472.661937517709
414.140916997845
423.0645777394486
446.027457067105
473.9917469670931
437.8354776025898
438.8256806259899
418.5839408813142
391.6760041221523
424.4236080739267
408.2751903127962
375.4579964336302
335.1780276571564
419.3795491183604
384.886558324753
345.551491598996
305.4025542938022
424.1535077588085
384.1885740337793
339.864290691359
298.3733489055775
361.1133786118934
350.8403513339507
466.2174919753335
545.6545264724241
299.3277357762673
306.3501707280923
428.6374323133811
534.2186813228609
277.4930685491042
283.7710218047197
363.3815658838599
488.669318580476
270.9018106784546
281.0231361624369
297.8511993359688
391.4884064092183
586.2548672821339
612.8885985773006
634.458547597352
651.8900366561843
614.8540148549658
615.3624578012023
637.5131172456538
653.260081138439
644.1229193066034
625.1923721343521
640.4811895138483
652.5659185691869
631.6326152058085
641.5907654895066
644.4235429044164
651.5897565682698
655.13347550289
651.9111667337195
651.2762783849583
650.5501501606931
653.5427098493319
649.5928918103755
650.0184050305606
650.1751243146177
650.7732729051434
647.1199294289772
648.2870229261994
649.5478050203511
649.6541459004493
646.4272735565994
647.8983285619731
649.7469411334182
649.2101419938668
650.9333874979071
652.3422907551188
657.6013836478472
649.6815117589342
653.0804269648492
657.5147951885398
664.9985568846495
650.4179290079719
655.4167078484434
662.574397519767
668.9303357225939
651.1916865617089
657.6711985231028
665.8743703939823
670.1436836803223
597.6348589306523
537.2625886532016
503.7637410982955
503.291700968416
606.2840876282302
550.5034374710089
504.2429294296236
503.5687075088954
610.408408187136
561.0260231379449
505.1694699964217
503.754274089674
616.6734939232986
570.1582841085207
506.0050244213381
504.1558010237482
503.6581235094135
503.6359599403119
503.1716249705784
502.3699917356528
504.1836032121286
504.2840499620283
503.9944752264563
503.3992691037525
504.5026931690603
504.7621688809611
504.9358135982282
504.799476211894
504.8327735691316
505.2088568949882
504.832871567022
504.0089996489928
501.5504011511931
500.4303892016132
500.4806893397366
517.2238707493533
502.4781497316679
500.3232410123928
495.5810311384811
505.1099382055518
504.245116403859
501.2752265677763
494.7843386788783
491.8692221713259
502.953808919476
499.6906130302119
489.6293544154327
469.5756197833919
555.2975695955871
558.1575828097099
559.0889927254407
559.4240339131507
554.7271509829842
557.4247544238365
558.7340994255537
560.4046477543857
554.1988594102943
556.9499800035751
558.3856280870313
560.3306614791676
548.6407737458823
556.852796679808
558.3215943106745
560.6679676093936
560.3411514772106
558.129039499767
550.258905860789
529.5180022451614
562.241458683011
561.3259336973827
557.4172064612602
543.0966903509992
562.6706750117269
562.7598153872897
559.153346624286
551.79605200644
563.6471907022052
564.4020363726634
563.6107534620807
566.9818548056901
458.0681399866172
496.2443634024546
499.8695850069255
499.9987843337937
456.8859054365009
495.4034654879246
499.8291505145206
499.9981816688794
464.1201870855572
495.6487788360483
499.8218898877528
499.9978218229603
472.189682201134
496.1766944114372
499.8107714260021
499.997131257461
499.9918938503079
499.6444846331734
497.8329077503782
499.4497786335995
499.9934918098498
499.7027905616258
497.6040318234116
496.0409804241265
499.9950088050468
499.7679570069293
497.2617068093164
488.1886055158605
499.9960964437741
499.7953788757981
496.7859197143869
479.3003375101902
499.997131257275
499.9978218228728
499.9981816690292
499.9987843337931
499.8107714259098
499.8218898876004
499.8291505142191
499.8695850068024
496.1766944114476
495.6487788359571
495.4034654880733
496.2443634026945
472.1896822008948
464.1201870852223
456.8859054362921
458.0681399864392
)
;

boundaryField
{
    back
    {
        type            empty;
    }
    inlet
    {
        type            zeroGradient;
    }
    front
    {
        type            empty;
    }
    top
    {
        type            zeroGradient;
    }
    outlet
    {
        type            fixedValue;
        value           uniform 500;
    }
    bottom
    {
        type            zeroGradient;
    }
    wall
    {
        type            zeroGradient;
    }
}


// ************************************************************************* //
