/*--------------------------------*- C++ -*----------------------------------*\
  =========                 |
  \\      /  F ield         | OpenFOAM: The Open Source CFD Toolbox
   \\    /   O peration     | Website:  https://openfoam.org
    \\  /    A nd           | Version:  11
     \\/     M anipulation  |
\*---------------------------------------------------------------------------*/
FoamFile
{
    format      ascii;
    class       surfaceScalarField;
    location    "0.047";
    object      phi;
}
// * * * * * * * * * * * * * * * * * * * * * * * * * * * * * * * * * * * * * //

dimensions      [0 3 -1 0 0 0 0];

internalField   nonuniform List<scalar> 
1652
(
2.843686947071611
0.8895636090847481
0
1.954123337988149
0.8895636090834618
0
1.064559728903287
0.889563609084858
-4.440892098500626e-16
0.8895635304891267
-3.776579049485917e-11
0.1749961629352891
2.843686947076741
1.779127218162428
1.954123337998014
1.779127218162188
1.064559728910183
1.779127218172615
1.779126420580332
0.1749965525734109
2.843686947090741
2.668690827246526
1.954123338008367
2.668690827244562
1.06455972891432
2.668690827270138
2.668669574261728
0.1749988276493264
2.843686947092868
3.558254436328659
1.954123338013008
3.558254436324421
1.064559728916186
3.558254436362299
3.558276662023894
0.1748960531432046
4.418652025448567
2.872852967045247
5.279049614570545
2.872852967043177
6.139447203693202
2.872852967042502
2.872852967040008
6.999844792809855
4.41865202543751
2.012455377932159
5.279049614550978
2.012455377929712
6.139447203664234
2.012455377929244
2.012455377926213
6.999844792778029
4.418652025532673
1.152057788860642
5.279049619028299
1.152057788101775
6.139346659945955
1.152059552884143
1.152050992236183
7.000195089230257
4.426487582631268
0.2702941756622435
5.335256183509927
0.1690911846041392
6.264732242599034
0.06541148251102524
7.169259901196457
0.01940253989711105
6.941512752015494
0.05833202792339298
6.883180711947027
0.05833202283148231
6.824848672078367
0.05833202035750173
0.0583320315678445
6.766516632916799
6.941512990061744
0.1166631354620669
6.883180983330523
0.116663024636838
6.824848936230905
0.1166629049480278
0.1166632110615134
6.766517253341864
6.941845735976325
0.1741502383116244
6.883539517780532
0.1740326566304279
6.825197690916226
0.1739669489903394
0.1739148451215757
6.767206445368164
7.135961593126167
0.002720153099066591
7.084471795861721
0.0005313608447086171
7.021070300238512
0.0004198474503128713
6.982234900339923
-0.02439159468369978
6.997760555848491
0.002078675940198838
-0.2088097575047331
6.916520070917748
0.001825689415056675
-0.08868631351291778
6.818342400110791
0.0009615559239709026
-0.02416107971752168
0.0002253420048757282
6.773132920711447
-0.004267952948002807
6.767301693678002
3.722260334293459e-06
6.767158655255826
3.223939392560382e-06
6.766769062625264
1.713936554348372e-06
4.125935136878311e-07
6.76654863941421
6.766517482108641
6.572970356888419e-08
6.766517346487157
5.764485577763878e-08
6.766516902909002
3.00541119768738e-08
6.767273630359227e-09
6.766516664048333
6.766516631081388
6.766516630798655
6.766516631990496
6.766516632902233
6.766516633043779
-4.554425725444844e-10
6.766516633047138
-6.333267243974205e-12
6.766516633048259
-1.111000180742394e-12
-1.080580069867665e-12
6.766516633049343
6.766516633691978
-3.050969321627406e-08
6.766516633047748
-3.938948056614322e-10
6.766516633047694
1.094246915300801e-11
6.72184530259301e-12
6.766516633049187
6.766517397241562
-1.62079331752496e-05
6.766516632185395
-1.859739732212873e-07
6.766516630531457
9.916411414234716e-09
5.546914316756357e-09
6.766516631714356
6.766698906838443
-0.0002418174896579584
6.766516624013776
4.889936925323024e-06
6.76651609407435
4.690619677116814e-07
6.76651642776106
9.083971735934782e-08
-7.876311824972504e-10
6.766516583651233
3.204278564705731e-09
-9.946488077616777e-13
6.766516632744671
-9.992007221626409e-16
6.766516633049126
6.766516633049344
-1.726923115619172e-08
6.766516698993269
-5.007512793309132e-09
-9.276049928175212e-10
6.766516630280124
-2.236322238502453e-12
6.766516632860417
6.766516633049363
6.003626206896318e-06
6.766524358896172
3.982034989025163e-06
3.097445246957875e-07
6.766518922007375
1.736009558328533e-09
6.76651664479727
6.766516633066389
-0.001709295142795109
6.757210043409652
-0.01569401329252224
-3.851958370604258e-06
6.766201750906904
-2.319168079800704e-09
6.766516522383878
6.766516632849882
0.155552067424923
6.610964565416968
0.3111040945738816
6.610964477569189
0.4660788103613022
6.61119765890346
6.687475209507048
0.2665020067651382
0.155552015495714
6.455412499625067
0.3111008316681951
6.455413110695709
0.4638809711259387
6.456032553912117
6.63414772069779
0.06126725069951844
0.1555519656250129
6.299860432806249
0.3110983075975356
6.299861169142983
0.4622892179016698
6.300570014017147
6.513294058700584
-0.02678044366211318
0.155551938757266
6.144308366262956
0.3110969312863743
6.144309205597649
0.4615801192743341
6.145049390287198
6.341132475308293
-0.0450733825295514
-0.4609646949588534
6.16768383642828
-0.04649760283332782
-0.3110956431945952
5.989550466028979
-0.1555520233986117
5.988757169232845
5.988756183557813
-0.4601819344723203
5.982483617192079
-0.04616482099824792
-0.3110935763023137
5.833990310792642
-0.1555519787941747
5.833205079587087
5.833204001452652
-0.459336052285142
5.803540527708033
-0.04652879947693067
-0.3110911844601528
5.678551860890232
-0.1555519267808361
5.677653241069646
5.677651820565158
-0.4580246805311574
5.61677161337895
-0.04598331179108972
-0.3110868173042465
5.522863446775077
-0.1555518188584173
5.522100896521946
5.522099637939078
0.1993007967230153
5.322798541211713
0.3985874977849269
5.32279949631
0.5889284984122509
5.323419448843298
5.385408149208692
-0.02348539985733966
0.1993007574869917
5.123497447075177
0.3985853704256561
5.12349842009616
0.5883164586145233
5.124045743268637
5.147812657760264
-0.007438937809367996
0.1993006973762754
4.924196339555706
0.3985831020573464
4.924197147131911
0.588176909057367
4.924598402457581
4.921151277667229
0.08629534639913916
0.199300832705027
4.7248952432566
0.3985897632925926
4.724895734499323
0.5924130976381694
4.725056628662493
4.715460354241854
0.3689938032924294
-0.3353887939833894
5.06030432252937
-0.6708170584360525
5.060252877111365
-1.013157508951913
5.058759763316831
4.991899524728451
-1.416122586308934
-0.3354082852613487
5.395713631999604
-0.6706307314591357
5.395639570693814
-0.9873427445912168
5.385021242281934
4.739820915663238
-0.5195259468435995
-0.3354087256383471
5.731122859545721
-0.6705239003804192
5.731041969442783
-0.9528521472631725
5.704090135003821
4.273170464214338
-0.06681575620316629
-0.3354086878735578
6.066532114002497
-0.6703833993909178
6.066489378570004
-0.91885190508409
6.039102827079168
4.257289663642959
-0.00616394239597387
0.4822972714519384
4.572460932262864
0.003195122558684982
0.3497936603712368
6.218285520393493
0.1749957437156319
6.24148795850136
6.241528241293549
0.4898099118223312
4.89181275517793
0.001173589166928987
0.3498337617117866
6.400216856756941
0.1749958296580584
6.416501970212691
6.416524377722633
0.498303917776143
5.122251383799432
-0.002395407287220999
0.3498912420801535
6.576504385435079
0.1749959467692873
6.591499240802962
6.591520498238685
0.4935506230652077
5.359564962520287
0.01221827219099925
0.3498696316242817
6.754880479438104
0.1749959190403297
6.766501135885829
6.766516621892258
-0.01228905639976607
6.287573354405556
0.2141996890129712
-5.241914950238069e-05
6.765345904706448
-9.886591056940119e-08
6.766515569489752
6.766516632376055
-0.002106624621896702
6.698735055418133
0.1211083559637813
-5.569093058266361e-06
6.766472081140322
-7.592854789351122e-09
6.766516608259826
6.766516633059207
-0.0004744082020429197
6.770352543725674
0.07068668656922178
-9.97100952471186e-07
6.766519774916775
-1.223771528557904e-09
6.766516646281217
6.766516633109299
-0.0007279865125604523
0.0719617117355944
6.771211919888582
-2.221994219731016e-06
6.76644555125604
-3.672744330884825e-09
6.766516206630244
6.7665166329591
1.100445429781616
-0.8472366938427589
-0.03427904769777793
-1.610622746284207e-11
1.983230376381031
-0.8747023160277716
-1.783462266757851e-11
2.858269780636967
-0.8749796490611339
2.039257651631488e-12
-0.8749805985019639
-6.066258606551855e-13
1.100451569495155
-1.694030346203658
-0.03496155556532004
1.983230434682827
-1.749398163846662
2.858269780613256
-1.74995927226627
-1.749961196502318
1.100416606278653
-2.538641478935758
-0.03964118976325035
1.983230281656616
-2.624068585744973
2.858269778996399
-2.62493884535298
-2.624941793622281
1.100407289263794
-0.05197275096147175
-3.383549771687177
1.983230442346108
-3.498788516634316
2.858269777382385
-3.499918536873559
-3.499922391495165
-0.0007279865129773411
-6.770352543733851
0.07196171173521654
6.771211919877867
-2.221994425566365e-06
-6.76651977491661
6.766445551254352
-3.672745663152455e-09
-6.766516646284882
6.766516206630885
-6.766516633105134
6.766516632961371
-0.000474408202129295
-6.698735055425212
0.07068668656866955
-9.971025729527128e-07
-6.766472081140958
-1.223990020449151e-09
-6.766516608265118
-6.766516633059043
-0.002106624624348741
-6.28757335441362
0.1211083559654315
-5.569095242297095e-06
-6.76534590470995
-7.592807493850273e-09
-6.766515569489935
-6.766516632378409
-0.0122890564001874
-5.359564962509499
0.2141996890135744
-5.24191489483794e-05
-6.75488047943556
-9.886565210948106e-08
-6.766501135885051
-6.766516621892063
-0.1749957437064044
6.241528241332235
-6.066532114047246
-0.3497936603491582
6.241487958537577
-6.066489378619335
-0.4822972714430031
6.21828552036276
-6.039102827027708
4.57246093222969
-4.257289663592525
0.003195122558638297
-0.1749958296453961
6.41652437774704
-0.3498337616905534
6.416501970234057
-0.4898099118126571
6.400216856735914
4.891812755146095
0.001173589166895611
-0.1749959467571558
6.591520498251129
-0.3498912420576322
6.591499240812653
-0.498303917765765
6.576504385425181
5.122251383783177
-0.002395407286363199
-0.1749959190285238
-0.3498696315982868
-0.4935506230526782
0.01221827219003896
0.9188519050921882
-4.273170464178349
-0.006163942396646624
0.6703833994188858
-5.704090134972399
0.3354086878876485
-5.731041969476983
-5.731122859577376
0.9528521472716798
-4.739820915640506
-0.06681575620229302
0.6705239004031205
-5.385021242263918
0.3354087256508395
-5.395639570716717
-5.395713632020142
0.9873427446033286
-4.99189952472128
-0.5195259468419379
0.6706307314814927
-5.058759763309271
0.3354082852702762
-5.060252877122978
-5.060304322539603
1.013157508964008
-4.715460354242006
-1.416122586313292
0.6708170584552693
-4.725056628662212
0.3353887939885393
-4.72489573450122
-4.724895243256933
0.1993007967291539
5.322798541229434
-5.522099637963411
0.3985874977993624
5.322799496328734
-5.522100896550523
0.5889284984200502
5.323419448822194
-5.522863446747358
5.385408149186856
-5.616771613350939
-0.02348539985487808
0.1993007574930634
5.123497447086292
0.3985853704395406
5.12349842011094
0.588316458622155
5.124045743254669
5.147812657744894
-0.007438937808520896
0.199300697382265
4.924196339561353
0.398583102070415
4.924197147139959
0.5881769090631705
4.924598402450743
4.921151277660151
0.08629534639937742
0.1993008327107353
0.3985897633050503
0.5924130976432871
0.368993803293848
-0.4580246805245526
-5.803540527686371
-0.04598331178645054
-0.3110868172914407
-5.678551860867636
-0.1555518188524571
-5.677653241091585
-5.677651820583699
-0.4593360522775189
-5.98248361718105
-0.04652879947572952
-0.3110911844470323
-5.833990310766628
-0.155551926774958
-5.833205079606582
-5.83320400146485
-0.4601819344665186
-6.16768383643828
-0.04616482099661734
-0.3110935762885657
-5.989550466027699
-0.1555519787878658
-5.988757169237291
-5.988756183563567
-0.4609646949538522
-6.341132475286023
-0.04649760283464999
-0.3110956431805459
-6.145049390304622
-0.1555520233921757
-6.144309205601179
-6.144308366262383
0.1555520674250001
6.610964565416589
-6.7665166328501
0.3111040945742626
6.610964477568626
-6.766516522382994
0.4660788103625871
6.611197658901518
-6.766201750905644
6.687475209508042
-6.757210043408666
0.2665020067624861
0.1555520154957514
6.455412499623241
0.3111008316684563
6.455413110694346
0.4638809711258883
6.456032553918739
6.634147720696196
0.06126725070070094
0.1555519656248265
6.299860432805861
0.3110983075970075
6.299861169143541
0.4622892179011149
6.300570013996867
6.513294058712422
-0.02678044366233745
0.1555519387570848
0.3110969312862334
0.461580119272649
-0.04507338252704374
-6.766516633066941
2.319292535801765e-09
-6.766516633049368
-1.736050858625049e-09
-6.766516633049343
2.051248060297439e-12
1.110223024625157e-16
-6.766516633049345
-6.766516644795487
3.851958619183193e-06
-6.766516632863734
-3.097465142154476e-07
-6.766516633049141
9.297889125292613e-10
1.146971406740249e-12
-6.766516633049188
-6.766518922010246
0.001709295142799772
-6.766516630277525
-6.003625173278682e-06
-6.766516632744769
1.726835080484435e-08
7.875472496365887e-10
-6.766516631712634
-6.766524358897126
-0.01569401329283149
-6.76651669899369
3.982032253102563e-06
-6.766516583650701
-5.008408132667341e-09
-6.766516427760727
3.204607190721021e-09
-1.09801057135428e-12
-6.766516633048242
6.695310972304469e-12
-6.766516633047723
5.546411940837714e-09
-6.7665166305339
-6.766516094073874
9.084010343940463e-08
-1.094235813070554e-12
-6.766516633047139
1.083744205487847e-11
-6.766516633047766
9.916933274567441e-09
-6.766516632187785
-6.76651662401326
4.690618193303742e-07
-6.331379864832343e-12
-6.766516633043807
-3.93847954249793e-10
-6.766516633691251
-1.859736419307367e-07
-6.766517397242221
-6.766698906838773
4.88993694680584e-06
-4.555064103684003e-10
-6.766516632902457
-3.050993779840638e-08
-6.76651666404755
-1.620793373929841e-05
-6.76654863941329
-6.77313292071093
-0.0002418174904494363
-6.573502886464411e-08
6.766516631066115
-6.766516632897267
-3.722270515926773e-06
6.766517482090471
-6.766517253318927
-0.002078675946114383
6.767301693694338
-6.767206445390193
6.997760555863888
-6.982234900357919
-0.2088097575042669
-5.764914967620882e-08
6.76651663078787
-3.223948011887856e-06
6.766517346482193
-0.001825689419247822
6.767158655267646
6.916520070926956
-0.08868631351444106
-3.005904813946358e-08
6.766516631985032
-1.713946478409945e-06
6.766516902910581
-0.0009615559290425679
6.766769062627808
6.818342400117294
-0.02416107971760273
-6.772975735813702e-09
-4.126044573782295e-07
-0.00022534200869051
-0.004267952949739751
-0.1739148451253524
-7.021070300249233
-0.02439159468144647
-0.1166632110804242
-6.825197690927076
-0.05833203157161326
-6.824848936223812
-6.824848672063016
-0.1739669489972422
-7.084471795868507
0.0004198474518032347
-0.1166629049678847
-6.883539517777908
-0.05833202036193219
-6.883180983339421
-6.883180711935957
-0.1740326566402204
-7.135961593134812
0.0005313608468920927
-0.1166630246564095
-6.941845735937338
-0.05833202283542727
-6.941512990095412
-6.941512752007659
-0.1741502383285154
-7.169259901187087
0.002720153097222733
-0.1166631354835189
-7.000195089138786
-0.05833202792817704
-6.999844792821207
-6.999844792807063
-1.152050992230235
-6.26473224259277
0.0194025398983112
-2.012455377910966
-6.139346659988568
-2.872852967039931
-6.139447203692224
-6.139447203690344
-1.152059552879565
-5.335256183504472
0.06541148251174722
-2.01245537791648
-5.279049619021847
-2.872852967042259
-5.279049614566445
-5.279049614567443
-1.152057788101597
-4.426487582616081
0.1690911846045396
-2.012455377921992
-4.418652025531388
-2.872852967044603
-4.418652025443834
-4.418652025446892
-1.152057788859616
-3.55827666198887
0.2702941756634177
-2.012455377927508
-3.558254436361016
-2.872852967046921
-3.558254436324422
-3.55825443632866
2.843686947076677
0.8895636090796828
1.954123337995112
0.8895636090815646
1.064559728908975
0.8895636090861323
0.8895635302108242
0.174996162994654
2.843686947077599
1.7791272181565
1.954123337999196
1.779127218159969
1.064559728911147
1.779127218174122
1.779126420610202
0.1749965525764863
2.843686947089469
2.668690827241873
1.95412333800662
2.668690827242819
1.064559728912887
2.668690827270558
2.668669574240774
0.174998827667678
2.843686947088214
1.954123338006611
1.064559728911061
0.1748960531469098
0.1749962587476274
0.1749962588548259
0.1749958548380699
0.1749967870559633
0.1749946680390249
0.1749980569334675
0.1747955917722094
0.1750774871397574
0.1749967870715803
0.1749958548531352
0.1749958074174564
0.1749958074192827
0.174998151586589
0.1749930721508819
0.1745667459897079
0.1748371503297685
0.1749980569278582
0.1749946680471304
0.1749930721484455
0.1749981515845175
0.1749431765441385
0.174943176547594
0.1721671650796043
0.1760399999128217
0.1747955917676021
0.1750774871434279
0.1745667459928563
0.1748371503268702
0.1721671650838884
0.1760399999117352
0.170929462483619
0.1709294624863942
-0.08654410230109494
0.2531401851733808
-0.1611941432045488
0.2413894996759897
-0.230652345669645
0.2353934950644533
0.2085106880578838
-0.01928416260055821
0.2736452686680911
-0.052973738317458
0.2729833955242441
-0.101525186375523
0.2777349489490269
0.2618052894766331
-0.004033653932073555
0.283950638426296
-0.01348410012098855
0.2947924865731447
-0.02563136142253908
0.2977080374342849
0.2921572725817858
0.00195752663905413
0.2894518487802982
0.006892615567606453
0.3069718894963241
0.005169655963340292
0.3083154400708983
0.3022818382681132
0.3037865966799044
-0.01358679931154094
0.3042193901805589
-0.01460859235298306
0.3044112697257012
-0.01441040833932661
-0.03682921054544464
0.3059397250119645
0.3102246653923994
-0.0136327812876087
0.3105471417323852
-0.01454929399443788
0.3107991905257073
-0.01437743017801502
-0.03777685423571953
0.3211594403480336
0.3091383745373241
-0.003369431807356327
0.3094364864466989
-0.00346411659707474
0.3096840171608924
-0.003304430093409361
-0.04788206233984815
0.332180439917666
0.2898438001796924
0.289880587965955
0.2900872138751558
0.2459133569895641
0.2881188114034633
-0.198043736081218
0.2617756766289978
-0.053828378144681
0.2417605496135487
-0.006376225250546153
-0.001505663583741157
0.2344369956013909
0.2859138349004394
-0.1366521613205591
0.2532563489745892
0.009131495349824215
0.2404314946848652
0.01350864414194725
0.002310280407383569
0.2347567356857892
0.2598971258053752
-0.0578040762724219
0.2517777181380091
0.02542459730649499
0.2476023866111588
0.02323512806739686
0.009357818542994445
0.2367635318331178
0.1882096153360111
0.2089163921918146
0.2254600941881219
0.2316169318904261
0.2333611133789635
-0.0001190148610740738
0.2333281703973412
5.561560592060033e-06
0.2333280682728508
5.677278372417938e-07
3.729028758003849e-08
0.23332814753441
0.2333816049736965
0.0002128239677343657
0.2333285125387681
1.955071740761261e-05
0.2333281693298779
1.28213779354569e-06
4.532459835226987e-08
0.2333281588537882
0.233451043000667
0.00147318945314151
0.2333291319105641
6.613592150467307e-05
0.2333281823409394
2.378881579889747e-06
7.842022198278897e-08
0.2333281597912739
0.2331788396237993
0.2333230032227661
0.2333280153147719
0.2333281574713332
0.2333281595375444
-8.583219135438469e-10
0.2333281614415109
-1.984142627975416e-09
0.2333287133999446
1.911183713065867e-06
-0.05666416829609683
0.2391623410992961
0.2333281586839087
-1.601633270453817e-10
0.2333281597879253
-9.545027546131735e-10
0.2333284802779621
6.82518344508054e-07
-0.0803101824045771
0.2288549853135464
0.2333281594750493
4.096347150372992e-10
0.2333281595205297
-1.172474894950426e-10
0.2333282782940407
2.224149630580818e-07
-0.05898275457156232
0.2026516923894938
0.2333281596319077
0.2333281600560264
0.2333281857524325
0.1763222836005545
0.2784014368098019
0.1900085062974546
0.3016853017466961
0.06066882874150503
0.3131881268092936
-0.01313814401554869
-0.02855453958600329
0.3148008630334627
0.267303905253372
0.1292098484707731
0.30048548828315
0.06404489010634873
0.3230693380581886
0.01501643859442592
0.005083173105262739
0.3267770556350303
0.2407855400149386
0.07551803604565466
0.2927043913252381
0.02879132604724244
0.3223197229322401
0.02146973365175342
0.02205882976010209
0.3275476226769412
0.2392323102719966
0.2597931197459967
0.2802246745605143
0.2877585359815956
0.314952435650985
-0.02973166241474745
0.3149385893405122
-0.0294236861766819
0.3149847879388823
-0.02947187660496697
-0.02863558017190104
0.3152431060703241
0.3269822189219169
0.003908800972086346
0.3269944929425338
0.004025124604363883
0.3270303761089854
0.003954380835663462
0.004804024982819732
0.3271647650640706
0.3276907253257202
0.02081485646389458
0.3276906476402371
0.0207717608791842
0.3276898669378895
0.02061141485885687
0.02170503355826126
0.3276850335801784
0.288126332250421
0.2881248584877153
0.2880124017971569
0.2887929772562376
0.3238026590910435
-0.01740017725994836
0.3348014904245256
-0.009082604035221653
0.3592104665652618
0.07628213382896898
0.291723673504466
0.4352773361590891
0.3330273221424622
0.01468053383343437
0.3418729521497609
0.02162788669355242
0.3656747565227475
0.09676618786245872
0.2223297708051437
0.4836309996543753
0.3368997603355326
0.02948001950574697
0.3499534813400618
0.0399718616879603
0.3835724999669677
0.09834579578539393
0.1053389393224444
0.5360415867065923
0.2974122697859959
0.3194058389574128
0.4111646732915498
0.4767440623039644
0.231041535462921
-1.232267739303398
0.03716044981050787
-0.282009228554163
0.004036723106550164
-0.0152093326000686
0.01288127243073012
9.81335721191353e-05
0.1580591706244249
-0.9031172875681945
0.01512980258631459
-0.1266743961312974
-0.0003003411655258283
0.01073596801376382
0.02334770132627953
0.0001673323967507695
0.09731965852414082
-0.4428388759761576
0.00903765994246095
-0.03721863935581481
-0.0001578407280232955
0.01917774294000996
0.02032713080036268
0.0005502475658615801
0.03254969106414737
-0.006263520486199239
0.0001218155804855684
0.0008931585092075544
0.001431280456210288
0.007498866063307144
0.002201511016081154
0.006023174163456078
0.003696906696204511
0.001485297297705933
-0.001783870281571016
0.02153873078208429
-0.00119754704854629
0.0173936496312331
-0.004466985163905985
0.01740146846714039
-0.007591353172075264
0.00867623403323808
-0.0003918429024482688
-0.002398742181093476
-0.001761174882606888
0.01806072322775264
-0.007092123595138531
0.01882235198348677
-0.01093616358465068
0.01004434059107675
0.003799937917014481
-0.01183196398903274
-0.001413507690676665
-0.006792514316622715
-0.01035720612504777
-0.009981211691267932
0.1571590347269436
0.1110378279134619
0.2105406389594492
0.1154353582777632
0.2348756806370113
0.09391849990532908
0.07809647179168261
0.2464321453031448
0.1033432572028243
0.0337170318677719
0.1828718906110008
0.07148135663563837
0.2240730117589557
0.1009090864226093
0.06681546459701521
0.258064650751489
0.04276192988214162
-0.002681231451935329
0.1387026908732207
0.0004009811886770964
0.2096005486378706
0.06991387700772342
0.03741817171752793
0.2714936947133539
-0.008897157613394598
0.02600582407119421
0.1414725811148602
0.2171143394791037
0.2091963339349814
-0.3097485671584574
0.3920171882801942
0.1734212635309686
-0.2286033316183086
0.3339393112601662
0.1204401884903118
-0.1739113263806837
0.2513544995994644
-0.1051068080193569
0.05321926936148634
0.160771773095358
0.199447843973093
-0.242876189615461
0.1723913493020418
-0.1436912424177984
0.1548068199573525
-0.05888406117834426
-0.05394391812032033
0.1080571921037434
0.1855936436060121
-0.1423694444505728
0.08192287641434477
-0.05523543513083087
0.07270596608828835
-0.01606187065261121
-0.009621125799396689
0.09454733003351884
0.08797000598315242
0.05561606961518799
0.03708655550192421
0.02881032512756554
0.02628545338430441
0.003355173968199036
0.01694940043376712
-0.002825338423232279
0.002543948865353167
-0.002231530687066744
-0.0005039114051558222
-2.579013391734719e-14
0.09325934501298845
0.01605012198811685
0.05272654806358375
0.01026529635702187
0.007497241017947191
0.003330673713633577
0.001359942478349887
-1.158448337257312e-14
0.0612052203268191
0.03323956221253667
0.01549382743223511
0.02103704420415652
0.001682733230806536
0.01182063033065254
0.01124007591819175
5.852957007945747e-15
0.02310490478913349
0.005179725192920218
0.0008215961028220781
6.754319326063296e-14
-0.0005039114051509676
-0.00254394886540473
0.001359942478389022
-0.007497241017991197
0.01124007591820574
-0.001682733230778881
-0.0008215961026308768
0.03427904769737811
-0.002231530687093477
-0.01694940043379606
0.003330673713667737
-0.05272654806355904
0.011820630330735
-0.01549382743211231
-0.005179725193096008
0.03496155556527051
-0.002825338423224574
-0.02628545338434696
0.01026529635704622
-0.09325934501289772
0.02103704420415171
-0.06120522032681188
-0.02310490478886366
0.03964118976334043
0.003355173968214992
-0.0288103251275889
0.01605012198811438
-0.09454733003346469
0.03323956221260246
-0.1080571921038083
-0.05321926936129244
0.05197275096152104
-0.1204401884898536
-0.1051068080191584
0.1607717730952224
-0.1734212635303328
-0.1739113263802692
0.2513544995989809
-0.2091963339347326
-0.2286033316183429
0.333939311260188
-0.3097485671583489
-0.2464321453033416
0.3920171882801879
-0.1548068199572273
-0.05394391812030406
-0.1723913493018253
-0.05888406117833831
-0.1994478439726753
-0.1436912424175493
-0.2428761896152827
-0.2580646507514227
-0.07270596608839928
-0.009621125799374922
-0.08192287641419123
-0.01606187065263891
-0.1855936436056874
-0.05523543513078408
-0.1423694444502971
-0.271493694713062
-0.03708655550189952
-0.05561606961522148
-0.08797000598309783
-0.2171143394787976
-0.1414725811148471
-0.03741817171750333
-0.02600582407161199
-0.06991387700789939
0.008897157613324123
-0.0004009811893606052
0.002681231451690219
0.009981211691299461
-0.2096005486380396
-0.06681546459644833
-0.1387026908735729
-0.1009090864226921
-0.04276192988234449
-0.07148135663662819
-0.03371703186817304
0.01183196398897195
-0.2240730117590623
-0.07809647179103735
-0.1828718906113538
-0.09391849990536622
-0.103343257203013
-0.1154353582790838
-0.1110378279138586
0.002398742181015937
-0.2348756806370212
-0.2105406389597703
-0.1571590347271805
-0.02153873078195118
-0.003696906696329199
-0.001783870281670357
-0.002201511016032297
0.001485297297910956
-0.001431280456216124
0.006023174163513768
0.007498866063315297
-9.813357197212269e-05
0.007591353171981384
-0.0003918429025584376
0.004466985163960608
0.008676234033155188
0.001197547048551677
0.01740146846709315
0.01739364963112497
-0.0001673323967379568
0.01093616358461745
0.003799937916997106
0.00709212359518166
0.01004434059094366
0.001761174882612387
0.01882235198343823
0.01806072322764425
-0.0005502475658628915
0.01035720612508207
0.006792514316668812
0.001413507690693533
-0.0008931585092022583
-0.004036723106389032
0.01288127243004602
-0.03716044980966445
-0.01520933259972661
-0.2310415354612816
-0.2820092285527736
-1.232267739305587
-0.4352773361594782
0.000300341165465819
0.02334770132539277
-0.01512980258599862
0.01073596801405765
-0.1580591706232421
-0.1266743961306203
-0.9031172875687455
-0.4836309996544488
0.0001578407279783228
0.02032713079966063
-0.009037659942231782
0.01917774294022499
-0.09731965852347195
-0.03721863935547458
-0.442838875976225
-0.5360415867065881
-0.0001218155804279652
0.006263520486275071
-0.03254969106394377
-0.4767440623038792
-0.3592104665654078
0.2917236735057388
-0.3348014904241206
0.07628213382933624
-0.3238026590906629
-0.009082604034648334
-0.0174001772577812
-0.3152431060698085
-0.3656747565228983
0.2223297708059523
-0.3418729521495578
0.09676618786283753
-0.3330273221422503
0.02162788669424587
0.01468053383525336
-0.3271647650638028
-0.3835724999670216
0.1053389393224146
-0.3499534813404593
0.09834579578568214
-0.3368997603358359
0.03997186168877453
0.02948001950576651
-0.3276850335804139
-0.4111646732920067
-0.3194058389575468
-0.2974122697884172
-0.2887929772581985
-0.3149847879384375
-0.02863558016785517
-0.3149385893406718
-0.02947187660331996
-0.3149524356508897
-0.0294236861760524
-0.02973166241493663
-0.3148008630326712
-0.3270303761087117
0.004804024985628819
-0.326994492942642
0.003954380837859595
-0.3269822189220332
0.004025124605536723
0.003908800971897497
-0.3267770556346608
-0.3276898669381675
0.02170503355978348
-0.3276906476404553
0.02061141486062257
-0.3276907253259371
0.02077176087997723
0.02081485646338421
-0.3275476226769646
-0.2880124017983608
-0.2881248584880601
-0.2881263322507576
-0.2877585359821768
-0.3131881268095916
-0.02855453958448151
-0.3016853017466815
-0.01313814401558999
-0.2784014368102372
0.06066882874318902
0.1900085062955308
-0.2391623410992475
-0.3230693380583506
0.005083173106413486
-0.3004854882832289
0.01501643859445345
-0.2673039052535675
0.0640448901073436
0.1292098484701411
-0.2288549853134375
-0.3223197229323613
0.02205882976073004
-0.2927043913253565
0.02146973365184002
-0.2407855400149583
0.02879132604831136
0.0755180360460721
-0.2026516923893655
-0.280224674560891
-0.2597931197461533
-0.2392323102719561
-0.1763222836003086
-0.233328713399477
-0.05666416829671533
-0.2333281614411914
1.911182161196123e-06
-0.2333281595374477
-1.984544195643423e-09
-8.580415822301291e-10
-0.233328147534394
-0.2333284802776642
-0.08031018240519577
-0.2333281597877781
6.825176024904955e-07
-0.2333281586839466
-9.546401447124708e-10
-1.599942400787313e-10
-0.2333281588538201
-0.2333282782938816
-0.05898275457190588
-0.2333281595204723
2.224146534168803e-07
-0.2333281594752898
-1.172707486674085e-10
4.097805428315837e-10
-0.2333281597912749
-0.2333281857523771
-0.2333281600560087
-0.2333281596318889
-0.2333281574713222
-0.2333280682727802
3.729058201118463e-08
-0.233328170397277
5.67727776401572e-07
-0.2333611133790545
5.561560288414036e-06
-0.0001190148617329911
-0.2344369956016292
-0.2333281693297517
4.532472108742525e-08
-0.2333285125381807
1.282137428559871e-06
-0.2333816049742631
1.955071735709746e-05
0.0002128239674077936
-0.2347567356854467
-0.2333281823407886
7.842013682868298e-08
-0.2333291319095996
2.3788810081804e-06
-0.2334510430017741
6.613592216569986e-05
0.001473189452779411
-0.2367635318326931
-0.2333280153148586