/*--------------------------------*- C++ -*----------------------------------*\
  =========                 |
  \\      /  F ield         | OpenFOAM: The Open Source CFD Toolbox
   \\    /   O peration     | Website:  https://openfoam.org
    \\  /    A nd           | Version:  11
     \\/     M anipulation  |
\*---------------------------------------------------------------------------*/
FoamFile
{
    format      ascii;
    class       volScalarField;
    location    "0.1365";
    object      p;
}
// * * * * * * * * * * * * * * * * * * * * * * * * * * * * * * * * * * * * * //

dimensions      [0 2 -2 0 0 0 0];

internalField   nonuniform List<scalar> 
880
(
80
80
80.00000000050653
80.0006199082418
80
80
80.00000000489403
80.00224548561076
80
79.99999999999999
80.0000000428664
80.01248745551925
80
80
80.00000084907953
80.03348395130683
80
80.00000000000001
79.99999999999994
79.99999999730777
79.99999999999999
80
79.99999999999983
80
79.99999188055915
80.00003100681624
80.03845140895181
79.94674020131845
81.27009126165889
84.39265104110997
86.77606492287978
87.76880032526256
80.00000706474751
80.00005562137778
80.00008614802539
80.00006865663734
80.00018237626077
80.00045161164363
80.00160792661376
80.00146378263221
80.07644495811442
80.16723474077106
80.31159026472577
80.37588601131158
88.91828801774793
90.44122731171832
91.89476490551642
93.86322450458998
93.45553219355399
90.60799224592556
88.35585153178008
87.34093913781308
80.67194474428983
81.38033452421436
81.63696883429758
81.60030530325139
80.00415706742912
80.01369587931406
80.02735155908537
80.03518880198561
80.00021594993615
80.00061814538012
80.00141713516368
80.00172686174501
80.00151708132519
80.00099053855699
80.00040221500716
80.00007442856904
80.03377938290151
80.02801526460406
80.01820667130286
80.00735354491647
81.40102102444749
81.13879773264487
80.82329421990656
80.47187663331987
86.39555350299936
85.21585533572701
84.00547286918568
82.84670174464881
81.76447290603271
80.16716548892219
80.00134234584202
80.00000297619624
80.84770469890874
80.03143159118628
80.00010760511971
80.00000042395834
80.16749530562791
80.00145152927414
79.99999112966464
79.99999959102229
82.95446516597671
80.02339768837588
79.99987077087545
79.99999214609181
79.99994780852631
79.99991492520388
80.11932492219113
101.0432835472869
80.00000087475803
80.00201631171913
80.64661744692198
117.8147812591748
80.00019759315143
80.00464133976908
81.2899209238857
127.6461214201583
80.00073359362167
80.01490385783052
82.30291534687753
135.7677019758614
141.6508663055575
83.44763997496229
80.0231725705077
80.00124082995488
149.2636508052589
85.01866132099352
80.0487275646707
80.00256300817594
156.4452367825833
86.65682329147492
80.0644996624718
80.00302165579357
165.5346640297663
88.52443182232557
80.10258563200004
80.00540722550559
80.00662407015987
80.14076022051839
91.07007133694138
173.2912871416909
80.01062507981922
80.21397901232906
93.55720317542885
173.302823647068
80.02225761954821
80.28657248727808
93.31541263113718
158.8550734745345
79.99848634338566
80.14586416678807
88.53576009510058
132.2134642079517
80.03469850277264
80.5597706779737
88.02765631137821
100.5136714650355
80.04583162961903
80.57433068105408
82.64492503307417
69.25677971197346
80.01678145457721
80.23693613390161
80.41045913117624
52.41005318806779
79.99954439136755
79.99106068864502
78.09234968995418
46.25899942815219
46.04627505168578
76.52058524794944
79.84852242969528
79.99668611324864
44.20068065756931
75.37987720010092
79.80726186866164
79.99749375907861
43.3430225800542
74.86564881562325
79.81444407840073
79.99877451290736
40.3163985752123
74.2688358031882
79.821378501599
79.99902048092291
44.55553274099819
75.99634749725313
79.92570071908422
79.99965038701438
49.63985400260522
77.8534132312151
79.97688986263678
79.99991076640949
54.94454973055625
78.85611352262039
79.9912616382903
79.99997154157923
60.65018345718666
79.59252817438762
79.99801009426461
79.99998863449488
69.88265946171582
78.97232257651598
79.96935543408858
79.99969905022358
70.60135398487454
79.03492547756488
79.9692310229138
79.99969528673543
70.51050933154154
79.06996347719662
79.96877471167703
79.99968198027834
71.32180522261636
79.19855001686668
79.96938705248954
79.99966358140159
60.65018345701164
79.59252817389323
79.99801009369115
79.99998863529397
54.94454973020512
78.85611352228966
79.99126163644004
79.99997154134444
49.6398540021816
77.85341323159827
79.97688986248396
79.99991076675167
44.55553274108169
75.99634749831323
79.92570071900663
79.99965038657243
79.99668611430339
79.84852243105246
76.52058524813567
46.04627505150889
79.99749375923621
79.80726186931662
75.37987720074776
44.20068065782328
79.9987745118529
79.81444407963788
74.86564881548448
43.34302258015516
79.99902048131085
79.82137850204691
74.26883580485155
40.31639857498241
46.25899942728373
78.09234968881178
79.99106068744977
79.99954439094599
52.41005318695327
80.41045913022199
80.23693613304634
80.01678145272997
69.25677971203046
82.64492503204721
80.57433068133939
80.04583162851981
100.5136714652197
88.02765631114043
80.55977067717673
80.03469850493167
80.00662406963187
80.14076022372505
91.07007133750517
173.2912871426341
80.01062507997166
80.21397901266235
93.55720317571445
173.302823647314
80.02225761919904
80.28657248700564
93.31541263023553
158.8550734745183
79.99848634736355
80.14586416664496
88.53576009444404
132.2134642078157
165.534664031297
88.52443182055463
80.10258563198562
80.00540722562141
156.4452367859685
86.65682329592202
80.06449966386911
80.00302165615248
149.2636508063233
85.01866132231453
80.04872756805965
80.00256300763542
141.6508663059351
83.44763997226711
80.0231725688475
80.00124082954081
79.99994780975281
79.99991492594677
80.11932492234136
101.0432835459414
80.00000087425549
80.00201631094014
80.64661744707735
117.8147812592237
80.00019759230364
80.0046413392509
81.28992092467023
127.6461214215578
80.00073359267778
80.01490385833333
82.30291534679824
135.7677019754378
79.99999214548581
79.99999959159096
80.00000042396019
80.00000297593617
79.99987076944352
79.99999113002728
80.00010760658596
80.00134234478931
80.02339768872561
80.00145152969809
80.03143159008657
80.16716548874514
82.95446516616303
80.16749530580401
80.84770469865273
81.76447290614264
80.00007442725612
80.00735354512179
80.47187663409251
82.84670174509512
80.00040221475889
80.01820667093641
80.82329422142632
84.00547286952207
80.00099053941609
80.02801526462034
81.13879773209445
85.21585533554534
80.00151708169025
80.03377938290009
81.40102102520079
86.3955535026749
80.0002159485331
80.00415706623491
80.67194474352819
93.45553219353017
80.00061814408009
80.01369587933266
81.38033452369606
90.60799224510502
80.00141713457189
80.0273515604211
81.63696883426235
88.35585153143055
80.00172686126056
80.03518880298716
81.60030530348607
87.34093913707532
93.86322450526559
80.37588601299967
80.00146378182822
80.00006865593865
91.89476490581323
80.31159026794279
80.00160792631613
80.00008614678121
90.44122731284706
80.16723474268881
80.00045161163165
80.0000556225317
88.918288016894
80.07644495659679
80.00018237605632
80.00000706518199
87.76880032482323
79.9467401995278
80
79.99999999769905
86.77606492223271
80.03845140700743
80
79.99999999999999
84.39265104125863
80.00003100651826
80
79.99999999999999
81.27009126183896
79.99999188006652
80
79.99999999999989
80
79.99999999999997
80.00000000061689
80.00061991165386
80.00000000000003
80.00000000000001
80.00000000498525
80.00224548511187
80
80
80.00000004291289
80.012487453006
80
80
80.00000084826024
80.03348395172004
80.00152131580899
80.00563048717282
80.02377872958975
80.276078132102
80.00563050326008
80.00809436670701
80.03028195017653
81.01426205583662
80.02377876423674
80.03028187340007
80.41565270218427
85.97570204978369
80.27607808838168
81.01426199961404
85.97570219482517
104.2402093889504
134.1894394745927
113.4667695611393
102.0159745522213
90.58775389743478
129.1204143965325
124.7154626756261
122.5835505444752
113.6600858546307
126.7361271044648
125.2263212536706
124.7525762144099
120.6426560689844
125.7728282698162
125.1446011167643
125.4303071208918
122.8484647586262
124.1894901266822
124.1880174926946
124.8889898678214
126.5631980493696
125.6965986839517
125.0619969394268
125.6877383123343
127.565118109949
126.2561161705514
125.5577192495235
125.9069656162429
127.2888435205148
126.9271236822038
125.794314615073
125.8686404663585
125.014196708482
106.0048997934708
84.77172948576033
78.53896994194766
80.05776104570262
96.54300626676863
77.49939361123126
76.63160036552389
79.71939641187758
87.03183439256188
74.64845119192664
77.41704836773606
80.72485868101236
69.0215750233659
69.97600954525767
76.35389750190195
79.97849085795526
81.49316245744934
81.91429764591213
81.99261425658155
81.86946729174269
81.31960504467169
81.69591254715611
81.65573328478399
81.7784907169497
81.85659104029483
81.93699529448899
81.74212867921759
81.94364412747944
81.14197455387968
81.36989649345161
81.22978624651198
81.47016572236328
81.89478392757862
81.43259690680095
80.61938178153342
110.4052424081173
81.81363353020053
81.30043693720856
80.75368133021395
124.8250342123422
81.95466990537952
81.4253482126099
81.34306197532632
131.8229093225049
81.75869785389486
81.20507076143996
82.02768287740952
136.2494707212754
204.4991812873924
216.4335720091457
216.9130749131956
214.728044328511
223.9843253635236
224.1703277999206
220.0801536124511
216.5782642469237
220.6583075553253
219.5298889420002
219.8315799141182
217.8836189113692
230.6001882483078
224.298549392485
221.1658856700339
218.5566532944115
208.9758711216534
209.2264094257089
210.9738493524479
216.3061439976003
210.2019969745654
209.8009591154953
210.7148963335862
215.628776825781
210.5020262494175
209.9329128111212
210.7408180096466
215.0529082187803
211.4972682956902
210.0716542011396
210.4655642752126
214.542979149619
219.13769915667
212.1709462321598
195.7871210241703
162.0900513035043
218.5270929598601
212.9862685988384
195.8716906665647
172.1980638959184
218.4375192530794
213.9971463611026
197.5416995082699
182.763119833669
218.1790466675419
215.4660493311597
201.4508587784573
202.6555921472396
96.29472500115287
19.03779920611037
4.099937483971515
5.7161479303858
75.38935465382295
11.06668409441511
4.9869592634496
5.875075438913262
51.59634630871025
5.870092039056221
4.240180625315546
6.463847642861966
28.24191550373559
2.461110256779584
4.617380717267579
6.68811018544624
8.407083128521013
10.14274566950015
11.38059330912794
10.75730894495435
8.241709586803275
9.972222173685006
10.93279049025291
10.62261319006737
8.81428663045828
10.44845545044043
11.15430925045123
11.13534173907504
8.919101075034144
10.73572557504332
11.54785757357751
12.4795103292778
19.9124030395157
25.57557888745036
30.84292331266624
38.29896145857312
18.64891005069471
24.5431663176152
28.7418328075243
36.46830387710073
16.68156702603148
22.82998001205196
27.23006075836718
34.18326899732928
14.19092450429267
19.70960440228148
24.25328807110141
33.29171555134752
26.89728151806378
16.8017403223255
10.24355624005485
11.90630958367505
24.30880004238826
13.35947087236299
13.11455183831905
14.3481662756909
19.72611620223749
11.62408745850119
16.34541202913588
14.15002051307046
13.06273469620706
14.91270969023526
18.7081213957827
16.3419787856085
14.51744935868563
13.30619069510609
12.78012577912149
12.14678592264959
12.06373258323402
11.79958727121173
11.86003879222184
11.77883459090747
12.04493678018626
12.88237443026246
14.30021381735
14.79507291907704
17.55633652180801
20.47628281212636
20.51050002535306
20.50451059921414
12.14678592265879
11.77883459091837
14.795072919081
20.50451059914162
12.78012577914122
11.86003879224804
14.30021381738637
20.51050002526497
13.30619069511446
11.79958727124709
12.8823744302898
20.47628281202409
14.51744935868226
12.06373258324464
12.04493678019274
17.55633652179336
11.906309583654
10.24355623999899
16.80174032218785
26.89728151780669
14.34816627564782
13.11455183831426
13.35947087233702
24.30880004223355
14.15002051304858
16.34541202914765
11.62408745848973
19.72611620217713
16.34197878557919
18.70812139576731
14.91270969025781
13.06273469617657
33.29171555125681
24.25328807093002
19.70960440194336
14.19092450404371
34.18326899723596
27.23006075828005
22.82998001173946
16.68156702572853
36.46830387697067
28.74183280744881
24.54316631733195
18.64891005038159
38.29896145842262
30.84292331256903
25.57557888718467
19.91240303921435
10.75730894479321
11.38059330914162
10.14274566952338
8.407083128456323
10.62261318996326
10.93279049023096
9.972222173712856
8.24170958675397
11.13534173897932
11.15430925042584
10.44845545044218
8.814286630429834
12.4795103291294
11.54785757353105
10.73572557504
8.91910107501206
5.716147930252747
4.099937483847674
19.03779920589287
96.29472500089516
5.875075438825032
4.986959263332082
11.06668409429844
75.38935465339648
6.463847642771789
4.240180625213026
5.870092038995531
51.59634630853712
6.688110185382333
4.617380717157626
2.461110256717379
28.24191550366369
162.0900513030012
195.7871210242704
212.1709462326393
219.137699157757
172.1980638955552
195.8716906671745
212.9862685994026
218.5270929610263
182.7631198334575
197.5416995083723
213.9971463618263
218.4375192543092
202.6555921471551
201.4508587788378
215.4660493318625
218.1790466688968
216.30614399957
210.9738493543161
209.2264094260277
208.9758711231709
215.6287768276843
210.7148963351497
209.8009591160927
210.2019969760471
215.0529082206922
210.7408180110065
209.9329128118511
210.502026250905
214.5429791517302
210.4655642764623
210.071654202109
211.4972682973983
214.7280443286821
216.9130749124236
216.4335720088148
204.49918128473
216.5782642470031
220.0801536115813
224.1703277996333
223.9843253613196
217.8836189111734
219.8315799132028
219.5298889410598
220.6583075531511
218.5566532934828
221.1658856699282
224.2985493915246
230.600188245555
110.4052424072564
80.61938178072791
81.43259690733791
81.89478392769985
124.8250342103478
80.75368132894681
81.30043693799774
81.81363353035796
131.822909319107
81.34306197380022
81.42534821379765
81.95466990551843
136.249470716608
82.02768287493255
81.20507076297092
81.75869785456922
81.86946729222848
81.99261425680888
81.91429764583199
81.49316245726979
81.77849071764861
81.65573328488998
81.69591254713491
81.3196050444373
81.94364412797427
81.74212867917616
81.9369952944932
81.85659103994878
81.47016572256845
81.22978624668957
81.36989649338034
81.14197455350998
80.05776104504073
78.53896994155846
84.77172948524682
106.0048997934859
79.71939641115293
76.63160036507526
77.49939361065333
96.54300626693538
80.7248586803085
77.41704836736818
74.64845119116511
87.03183439283558
79.97849085719994
76.35389750146282
69.97600954417436
69.02157502339041
126.5631980491458
124.8889898670704
124.1880174942067
124.1894901277754
127.5651181092733
125.6877383120203
125.0619969414966
125.6965986842286
127.2888435197252
125.9069656161191
125.5577192515639
126.2561161708318
125.0141967084853
125.8686404662844
125.7943146165372
126.9271236822383
122.848464758294
120.6426560668775
113.6600858530434
90.58775391179236
125.4303071193396
124.7525762121977
122.5835505447754
102.0159745461538
125.1446011154418
125.226321252834
124.71546267616
113.4667695371385
125.7728282682161
126.7361271031802
129.1204143923347
134.1894394771907
63.23327979422553
79.38016784589416
79.99300628583164
79.99996711546513
64.82075957263731
79.36849892383667
79.99125563169707
79.99994368279117
67.41712699187387
79.37028317183892
79.98827333840484
79.99990685281722
69.41055253216463
79.29917736068614
79.9786859164352
79.99978270196613
79.99969905061451
79.96935543471018
78.97232257529254
69.88265945937512
79.99969528726932
79.9692310238036
79.03492547655283
70.60135398405498
79.99968197937113
79.96877471218797
79.06996347702209
70.51050933124181
79.99966357907347
79.96938705334632
79.1985500156547
71.32180522226608
79.99978270089301
79.9999068516729
79.99994367988489
79.9999671126954
79.97868591695183
79.98827333842686
79.99125563144163
79.99300628504544
79.29917736012764
79.37028317052904
79.36849892463241
79.38016784557591
69.41055253183677
67.41712699088116
64.82075957197392
63.23327979475207
)
;

boundaryField
{
    back
    {
        type            empty;
    }
    inlet
    {
        type            zeroGradient;
    }
    front
    {
        type            empty;
    }
    top
    {
        type            zeroGradient;
    }
    outlet
    {
        type            fixedValue;
        value           uniform 80;
    }
    bottom
    {
        type            zeroGradient;
    }
    wall
    {
        type            zeroGradient;
    }
}


// ************************************************************************* //
