/*--------------------------------*- C++ -*----------------------------------*\
  =========                 |
  \\      /  F ield         | OpenFOAM: The Open Source CFD Toolbox
   \\    /   O peration     | Website:  https://openfoam.org
    \\  /    A nd           | Version:  11
     \\/     M anipulation  |
\*---------------------------------------------------------------------------*/
FoamFile
{
    format      ascii;
    class       surfaceScalarField;
    location    "8.75";
    object      phi;
}
// * * * * * * * * * * * * * * * * * * * * * * * * * * * * * * * * * * * * * //

dimensions      [0 3 -1 0 0 0 0];

internalField   nonuniform List<scalar> 
8667
(
15.881832
1.9454606
-0.049514594
13.976622
2.1153069
-0.21009661
12.050524
2.3032817
-0.37718403
10.121927
2.5295489
-0.60095198
8.1828393
2.7374766
-0.7983889
6.2255428
3.0451897
-1.0878932
4.2712235
3.3229425
-1.3686232
2.2807398
3.768867
-1.7783833
4.3540248
-2.4799548
0.40666976
15.883042
3.8401973
13.976185
4.0221632
12.057553
4.221914
10.127821
4.4592811
8.1857719
4.6795253
6.2257854
5.0051762
4.2715252
5.2772026
2.2612018
5.7791904
6.250368
0.36485857
15.884124
5.7338509
13.980146
5.9261412
12.063486
6.138574
10.133598
6.38917
8.192734
6.620389
6.2272027
6.9707074
4.2686068
7.2357986
2.2441109
7.8036863
8.1510166
0.34346231
15.885166
7.6264624
13.98433
7.8269777
12.071444
8.0514597
10.141454
8.3191603
8.2000269
8.5618159
6.2349693
8.935765
4.2576058
9.213162
2.2148048
9.8464873
10.058771
0.30705043
15.886542
9.5176969
13.989288
9.7242315
12.079512
9.9612353
10.1533
10.245372
8.2062024
10.508914
6.2430955
10.898872
4.2619975
11.19426
2.1991463
11.909338
11.974876
0.28304116
15.889159
11.406316
13.995926
11.617464
12.086961
11.870201
10.166899
12.165433
8.2201222
12.455691
6.2466643
12.87233
4.2516877
13.189237
2.1723282
13.988698
13.908047
0.23915738
15.889846
13.294249
14.002458
13.504852
12.098486
13.774173
10.175587
14.088332
8.2313107
14.399967
6.2623669
14.841274
4.2597421
15.191861
2.1536735
16.094767
15.855782
0.20593897
15.891744
15.180282
14.006897
15.389698
12.109546
15.671524
10.192007
16.005872
8.242201
16.349773
6.2620103
16.821464
4.255565
17.198307
2.1296351
18.220696
17.862535
0.12288188
15.894301
17.063759
14.013809
17.270191
12.115987
17.569347
10.204279
17.917579
8.2608754
18.293177
6.2776342
18.804705
4.2640279
19.211913
2.1171909
20.367533
19.885578
0.094147188
18.8854
15.956137
20.703037
15.960142
22.517774
15.963047
24.331456
15.964098
26.141468
15.967749
27.948672
15.970575
29.755501
15.970952
31.553675
15.979605
15.977165
33.354291
19.090141
14.136186
20.909423
14.14086
22.723653
14.148817
24.534366
14.153385
26.345281
14.156833
28.148352
14.167505
29.951284
14.16802
31.744406
14.186483
14.183137
33.538434
19.413809
12.291723
21.25079
12.30388
23.08507
12.314536
24.90776
12.330695
26.727581
12.337012
28.538182
12.356904
30.345541
12.360661
32.151527
12.380497
12.381549
33.953115
19.788361
10.420941
21.651456
10.440785
23.513353
10.452638
25.36959
10.474458
27.222235
10.484368
29.072196
10.506942
30.922743
10.510114
32.767618
10.535623
10.535428
34.613739
20.211225
8.5028937
22.125001
8.5270087
24.038193
8.5394461
25.945846
8.5668052
27.848296
8.5819175
29.741638
8.6136007
31.62442
8.6273315
33.501865
8.6581778
8.673215
35.364078
20.779239
6.5283598
22.763886
6.5423616
24.751916
6.5514161
26.747543
6.5711786
28.743522
6.5859381
30.750044
6.6070792
32.74894
6.6284351
34.748342
6.6587764
6.6740126
36.747544
21.250183
4.4900895
23.308905
4.4836401
25.363
4.4973209
27.433453
4.5007252
29.496748
4.5226439
31.562234
4.5415933
33.616779
4.5738899
35.676212
4.5993435
4.6418796
37.708345
22.61256
2.2450633
24.869664
2.2265358
27.1179
2.2490854
29.322876
2.2957491
31.497566
2.3479538
33.647143
2.3920155
35.784326
2.4367075
37.905933
2.4777366
2.5135799
40.034232
22.252068
-0.12142612
24.756269
-0.27766492
27.040386
-0.035031622
29.33442
0.0017148946
31.681604
0.00076983173
34.081532
-0.0079127564
36.530735
-0.012495279
39.026711
-0.01823905
41.567531
-0.027240918
33.254013
0.10027726
33.16312
0.090893256
33.074694
0.088425561
32.999206
0.075488549
32.925337
0.073869182
32.866867
0.05846981
32.808689
0.058178187
32.768029
0.040659663
0.041676406
32.726353
33.476136
0.16257526
33.426826
0.14020258
33.379497
0.13575516
33.345761
0.10922432
33.312634
0.10699622
33.293352
0.077752121
33.273566
0.077963692
33.268417
0.045808523
0.049328374
33.260765
33.932657
0.18303341
33.919829
0.15303013
33.909214
0.1463702
33.904763
0.11367574
33.902756
0.10900281
33.906402
0.074106223
33.91291
0.071455279
33.925325
0.03339375
0.033578553
33.941075
34.607814
0.18895917
34.606817
0.15402673
34.607274
0.1459133
34.613341
0.10760836
34.621409
0.10093512
34.634138
0.061376889
34.648851
0.056742943
34.666443
0.015801218
0.015447891
34.684574
35.401427
0.15161028
35.442656
0.11279761
35.485836
0.10273322
35.529373
0.064070846
35.573824
0.056484854
35.61496
0.020241002
35.656463
0.015239522
35.689992
-0.017727791
-0.017667398
35.723107
36.7689
0.13025406
36.781566
0.10013191
36.79335
0.090949195
36.792949
0.064472338
36.790224
0.059209373
36.772601
0.037863959
36.749697
0.038143264
36.709575
0.022394309
0.026353896
36.665554
37.758084
0.080514933
37.78935
0.068865671
37.816604
0.063694965
37.82706
0.05401649
37.833277
0.052992436
37.823406
0.0477351
37.808225
0.053323668
37.776692
0.053927715
0.062304784
37.740741
39.980912
0.13383513
39.927514
0.12226403
39.866252
0.12495732
39.778563
0.14170525
39.673876
0.15767946
39.550775
0.17083563
39.415777
0.18832221
39.253603
0.21610124
0.25358559
39.062322
41.644909
0.056457142
41.587199
0.17997478
41.450751
0.26140482
41.293344
0.2991119
41.133602
0.31742148
40.957321
0.34711713
40.766916
0.37872722
40.511574
0.4714437
40.178482
0.58667722
39.953432
0.82036694
-0.59531715
39.600432
0.76731548
-0.41431484
39.140599
0.73624751
-0.27641488
38.665762
0.68821371
-0.21337644
38.166058
0.66144024
-0.16173684
37.71386
0.61524454
-0.16304586
37.279101
0.5984471
-0.16368844
36.90942
0.56392754
-0.1942463
0.57039329
36.536928
-0.19790138
39.018987
0.86370244
38.923776
0.86252685
38.79498
0.8650431
38.623129
0.86006509
38.430412
0.85415725
38.200787
0.84486864
37.959303
0.83993166
37.693715
0.82951515
0.8234583
37.44065
37.814228
0.79021528
37.876169
0.80058656
37.922929
0.81828233
37.95436
0.82863479
37.963999
0.8445184
37.954993
0.85387467
37.925916
0.86900829
37.877718
0.87771262
0.89138333
37.809793
36.762222
0.69354707
36.862169
0.70063977
36.949518
0.730933
37.040825
0.73732834
37.118168
0.76717523
37.199288
0.77275503
37.265224
0.80307209
37.333976
0.80896026
0.8402164
37.385143
35.868411
0.54824348
36.015659
0.55339207
36.149294
0.59729708
36.285537
0.60108622
36.408631
0.64408075
36.534086
0.6473005
36.649764
0.6873934
36.766667
0.69205749
0.73059851
36.876285
34.844212
0.38860522
35.00712
0.39048446
35.169168
0.43524912
35.335681
0.4345732
35.498839
0.48092263
35.665945
0.48019399
35.829078
0.52426107
35.995825
0.52531027
0.56855687
36.157867
34.087816
0.24186443
34.240139
0.23816083
34.396802
0.27858626
34.558494
0.27288133
34.722422
0.31699434
34.894403
0.30821342
35.064324
0.35434045
35.246991
0.3426425
0.39163431
35.423914
33.400568
0.10206123
33.538588
0.10014144
33.690508
0.12666648
33.840908
0.1224813
34.007608
0.15029392
34.172783
0.14303807
34.355341
0.1717827
34.535483
0.16250034
0.19363838
34.733479
32.828414
32.928555
33.055222
33.177703
33.327997
33.471035
33.642818
33.805318
33.998957
34.182955
-0.18399888
34.397117
-0.21416118
34.607102
-0.20998557
34.839904
-0.23280225
35.074922
-0.23501742
35.329771
-0.25484938
35.589988
-0.26021644
35.866592
-0.27660438
-0.28783841
36.15443
34.92795
-0.37846924
35.140137
-0.4263488
35.351711
-0.42155962
35.57626
-0.45735104
35.806372
-0.4651298
36.04602
-0.49449688
36.292661
-0.50685782
36.551509
-0.53545243
-0.5503161
36.813987
35.614366
-0.56892167
35.800209
-0.61219192
35.9969
-0.61825053
36.192989
-0.65343975
36.397974
-0.67011473
36.604866
-0.70138841
36.818051
-0.72004361
37.038325
-0.75572588
-0.77619724
37.264206
36.324089
-0.7351442
36.487927
-0.77603017
36.652743
-0.78306585
36.821203
-0.82190006
36.986737
-0.83564856
37.160873
-0.87552411
37.330839
-0.89001
37.511007
-0.9358943
-0.95591616
37.690726
36.988196
-0.84705511
37.093123
-0.88095751
37.199298
-0.88924045
37.302812
-0.92541451
37.404708
-0.93754459
37.50662
-0.97743564
37.610908
-0.99429857
37.715868
-1.0408543
-1.062422
37.822374
37.438765
-0.90067732
37.474392
-0.91658433
37.51499
-0.92983797
37.539628
-0.95005302
37.571653
-0.96956998
37.589967
-0.99574869
37.617243
-1.0215754
37.633495
-1.0571057
-1.0889973
37.66007
37.730128
-0.82101176
37.637443
-0.82389945
37.540928
-0.83332283
37.436125
-0.84525017
37.331329
-0.86477424
37.221219
-0.88563799
37.113424
-0.91378134
37.002618
-0.94629963
-0.98245224
36.896073
37.176359
-0.55672093
36.932722
-0.58026174
36.677505
-0.57810658
36.438198
-0.60594227
36.184594
-0.61117022
35.938695
-0.63973921
35.678573
-0.65365919
35.422005
-0.68973175
-0.71330585
35.152858
36.218186
-0.23797934
35.869023
-0.23109834
35.535374
-0.244458
35.122833
-0.19340073
34.702921
-0.19125802
34.212921
-0.14973997
33.734216
-0.17495368
33.194642
-0.15015813
32.683921
-0.20258476
0.76178851
32.120673
-0.19854018
1.0295881
34.885059
1.1373544
36.788307
1.1171191
37.680305
1.0022561
37.937237
0.8127388
37.880243
0.58328196
37.493663
0.30386983
37.093399
36.4583
0.79833381
31.601162
-0.27882259
1.0740612
34.609331
1.1757069
36.686661
1.1439124
37.7121
1.0315185
38.049631
0.8406092
38.071153
0.59619067
37.738081
0.31262527
37.376965
36.770926
0.86312131
31.012084
-0.27404423
1.1379378
34.334515
1.2389691
36.58563
1.2088402
37.742229
1.0826965
38.175775
0.87581172
38.278038
0.63224078
37.981652
0.3334496
37.675756
37.104375
0.91434468
30.463969
-0.36622893
1.1917809
34.057079
1.2835442
36.493867
1.2385593
37.787214
1.1143912
38.299943
0.90846858
38.48396
0.6506448
38.239476
0.34487488
37.981526
37.44925
1.0014694
29.842353
-0.37985353
1.2749902
33.783558
1.3653288
36.403528
1.3174542
37.835088
1.1762264
38.441171
0.95004443
38.710142
0.68598909
38.503531
0.36305938
38.304455
37.812309
1.076731
29.325108
-0.55948593
1.3381698
33.522119
1.414184
36.327514
1.3484859
37.900786
1.2078175
38.581839
0.97936406
38.938596
0.70586019
38.777035
0.37692974
38.633386
38.189239
1.1948221
28.771387
-0.64110121
1.4447528
33.272188
1.5161198
36.256147
1.4401852
37.976721
1.2798934
38.742131
1.0264122
39.192077
0.74302204
39.060425
0.3978141
38.978594
38.587053
1.2897562
28.385836
-0.90420549
1.5163307
33.045614
1.5701095
36.202368
1.4757954
38.071035
1.3123523
38.905574
1.0583707
39.446058
0.76695304
39.351843
0.4103918
39.335155
38.997445
1.4315512
27.859854
-0.90556901
1.6516833
32.825482
1.6964197
36.157632
1.5820566
38.185398
1.3945962
39.093035
1.1064784
39.734176
0.80122297
39.657098
0.43300104
39.703377
39.430446
-0.045316672
39.475763
-0.0044529787
39.662513
0.056719631
39.595926
0.17289702
39.617999
0.30923535
38.956696
0.48206201
38.012572
0.66248056
35.977213
0.86882398
32.619138
27.885896
0.84278199
-0.05043433
39.526197
-0.011807347
39.623886
0.041279345
39.542839
0.13329001
39.525988
0.23900724
38.850979
0.37723079
37.874348
0.51145894
35.842985
0.64783991
32.482757
27.888312
0.645424
-0.04998189
39.576179
-0.023436891
39.597341
0.026794767
39.492607
0.12674608
39.426037
0.23286653
38.744859
0.36827714
37.738937
0.5010222
35.71024
0.63990823
32.343871
27.817263
0.71095734
-0.048457533
39.624637
-0.018999261
39.567883
0.022034592
39.451574
0.091459468
39.356612
0.16472861
38.671589
0.26675079
37.636915
0.36165119
35.615339
0.45839741
32.247125
27.802246
0.47341437
-0.044146783
39.668783
-0.026055642
39.549792
0.0098447142
39.415673
0.097684029
39.268773
0.17795751
38.591316
0.27831168
37.536561
0.37938068
35.51427
0.46664168
32.159864
27.760619
0.50826894
-0.041493342
39.710277
-0.0091803862
39.517479
0.025813546
39.380679
0.07168116
39.222905
0.11728717
38.54571
0.18664384
37.467204
0.24758187
35.453332
0.30600121
32.101445
27.72186
0.34476016
-0.029400504
39.739677
-0.01022671
39.498305
0.019357231
39.351095
0.096692628
39.14557
0.15274141
38.489661
0.21459134
37.405354
0.28343699
35.384487
0.34089507
32.043987
27.645222
0.41753226
-0.022607531
39.762285
0.014540591
39.461157
0.053610948
39.312025
0.080863607
39.118317
0.10168514
38.46884
0.13811635
37.368923
0.16286038
35.359743
0.20146071
32.005386
27.571805
0.27487807
0.00090752995
39.761377
0.028072149
39.433992
0.060400176
39.279697
0.12680699
39.05191
0.16048104
38.435166
0.18529972
37.344105
0.22126107
35.323781
0.26082784
31.965819
27.470542
0.36209089
-0.13866821
27.363187
0.24602328
-0.11553636
31.942688
-0.12836079
35.336606
-0.12821151
37.343955
-0.12721635
38.43417
-0.11214585
39.03684
-0.06580776
39.233359
-0.015269773
39.383454
39.746107
-0.21761932
27.255356
0.32545048
-0.19903872
31.924107
-0.19946239
35.337029
-0.21052803
37.355021
-0.19491551
38.418558
-0.13851651
38.980441
-0.09855719
39.1934
-0.049274101
39.334171
39.696833
-0.10796326
27.117797
0.24552231
-0.11102874
31.927172
-0.16867816
35.394679
-0.20847483
37.394818
-0.22197957
38.432063
-0.20670789
38.965169
-0.14714493
39.133837
-0.070684114
39.25771
39.626149
-0.20557272
27.027449
0.29592083
-0.22272244
31.944322
-0.27056498
35.442521
-0.31003359
37.434286
-0.30800585
38.430035
-0.25737155
38.914535
-0.19638292
39.072848
-0.1116795
39.173007
39.51447
-0.10862645
26.864078
0.27199696
-0.1566893
31.992385
-0.27063923
35.556471
-0.34779002
37.511437
-0.37333334
38.455578
-0.34857578
38.889777
-0.2618113
38.986083
-0.14385721
39.055053
39.370612
-0.22924741
26.814826
0.27849905
-0.30096933
32.064107
-0.40448702
35.659989
-0.46994233
37.576892
-0.47429429
38.45993
-0.41597668
38.831459
-0.32350155
38.893608
-0.19062073
38.922172
39.179992
-0.14846456
26.665096
0.29819461
-0.26657298
32.182215
-0.44171107
35.835127
-0.5508487
37.68603
-0.5813054
38.490387
-0.53238518
38.782539
-0.40645103
38.767674
-0.23408568
38.749807
38.945906
-0.2975529
26.686882
0.27576768
-0.44519356
32.329856
-0.61069188
36.000625
-0.69719424
37.772532
-0.69696577
38.490158
-0.61980249
38.705376
-0.48551516
38.633387
-0.2899871
38.554279
38.655919
-0.24129876
26.61172
0.31646082
-0.45377477
32.542332
-0.6919475
36.238798
-0.81767607
37.898261
-0.83782748
38.51031
-0.75611855
38.623667
-0.57970056
38.456969
-0.34084618
38.315424
38.315073
0.53356468
37.781508
0.93524685
37.913742
1.2556712
38.136544
1.4847242
38.394614
1.592256
38.402778
1.532956
37.957561
1.2617909
36.509963
0.84712894
32.956994
27.016177
0.44267198
0.59203415
37.189474
1.0564501
37.449326
1.4330856
37.759909
1.6806308
38.147069
1.7898162
38.293593
1.725689
38.021688
1.385584
36.850068
0.85323295
33.489345
27.291385
0.57802472
0.64330085
36.546173
1.1496483
36.942979
1.5598138
37.349743
1.8706715
37.836211
2.0457432
38.118521
2.0445094
38.022922
1.7676999
37.126878
1.2228186
34.034226
28.009133
0.50507049
0.70752516
35.838648
1.2714428
36.379061
1.740332
36.880854
2.0645418
37.512001
2.2562513
37.926811
2.2789275
38.000246
1.9747328
37.431073
1.3255152
34.683444
28.64293
0.69171847
0.76365174
35.074996
1.3534586
35.789254
1.8705892
36.363724
2.268268
37.114323
2.5356082
37.659471
2.6188715
37.916982
2.4345763
37.615368
1.8111529
35.306867
29.843993
0.61008951
0.8405972
34.234399
1.4781064
35.151745
2.0461349
35.795695
2.4479108
36.712547
2.7384798
37.368902
2.8710325
37.78443
2.7080048
37.778396
2.1099382
35.904934
31.142768
0.81116332
0.88512886
33.34927
1.5484445
34.488429
2.1767874
35.167352
2.6589788
36.230355
3.0230554
37.004826
3.2409698
37.566515
3.207706
37.811659
2.752724
36.359916
32.96287
0.93262183
0.95546156
32.393808
1.6683837
33.775507
2.3327486
34.502987
2.8167931
35.746311
3.2194795
36.602139
3.4819925
37.304002
3.48479
37.808862
3.1798902
36.664816
34.529601
1.6131591
0.98471732
31.409091
1.723406
33.036818
2.4683708
33.758023
3.0406747
35.174007
3.5354251
36.107389
3.9151143
36.924313
4.0789327
37.645043
4.0461455
36.697603
35.657062
2.9186843
-0.553449
31.96254
-1.5202285
34.003598
-2.6307338
34.868528
-4.0625672
36.60584
-5.6428112
37.687633
-7.4283506
38.709852
-9.3197746
39.536467
-11.004956
38.382784
36.16644
-11.514333
-0.50356977
32.46611
-1.4426806
34.942709
-2.5021132
35.92796
-3.94282
38.046547
-5.5662171
39.31103
-7.496258
40.639893
-9.5464718
41.586681
-11.012452
39.848764
34.755862
-9.6018735
-0.41871411
32.884824
-1.3242162
35.848211
-2.4001579
37.003902
-3.8788195
39.525209
-5.5736915
41.005902
-7.5507791
42.616981
-9.5823016
43.618204
-10.63592
40.902383
28.21518
-4.0952383
-0.37439645
33.25922
-1.2375245
36.711339
-2.249094
38.015471
-3.7241316
41.000246
-5.4723591
42.754129
-7.5907753
44.735397
-9.6149586
45.642387
-10.417051
41.704475
18.784296
-0.98616756
-0.28324418
33.542465
-1.1009877
37.529082
-2.1337041
39.048188
-3.6461455
42.512688
-5.450193
44.558177
-7.6170878
46.902292
-9.6271409
47.65244
-9.6917786
41.769113
9.4244585
-0.33194083
-0.24047061
33.782935
-1.0093294
38.297941
-1.9677275
40.006586
-3.4637025
44.008663
-5.3212835
46.415758
-7.6203016
49.20131
-9.6261099
49.658249
-9.0380554
41.181058
0.49714035
-0.11073716
-0.15850162
33.941437
-0.87533191
39.014771
-1.8337566
40.965011
-3.3408164
45.515722
-5.2638554
48.338797
-7.5929962
51.530451
-9.3453151
51.410567
-5.8159889
37.651732
-6.1196216
0.80077312
-0.12073412
34.062171
-0.78314585
39.677183
-1.6882809
41.870146
-3.1923408
47.019782
-5.1310164
50.277472
-7.4463902
53.845824
-8.9175553
52.881732
-4.6938667
33.428043
-11.618652
0.80516335
-0.058697347
34.120868
-0.65096724
40.269453
-1.52617
42.745349
-2.9990406
48.492653
-5.0167157
52.295148
-7.2891635
56.118272
-8.2574684
53.850037
-3.95708
29.127655
-16.566606
0.99087477
1.9467679
-19.240533
0.72715897
4.2675186
26.806904
3.4949198
54.622636
2.0347115
57.578481
0.77722059
53.552638
0.0016711413
49.268202
-0.31503504
43.062055
-0.38577012
40.340188
33.735098
1.7890344
-21.826555
0.79698739
4.0564607
24.539478
3.346981
55.332116
1.8664398
59.059022
0.58748629
54.831592
-0.13626943
49.991958
-0.41490412
43.340689
-0.43736036
40.362644
33.297738
1.56467
-24.310479
0.91925428
3.869373
22.234775
3.228319
55.97317
1.7471489
60.540192
0.47691109
56.10183
-0.24119375
50.710063
-0.47038474
43.56988
-0.4547314
40.346991
32.843006
1.4117099
-26.712232
0.99004293
3.6335248
20.01296
3.0624574
56.544237
1.5740924
62.028557
0.29147512
57.384447
-0.35472793
51.356266
-0.55484984
43.770002
-0.50383192
40.295973
32.339174
1.2201401
-28.979637
1.0472649
3.4414379
17.791662
2.9345199
57.051155
1.4452838
63.517793
0.1868881
58.642843
-0.45110642
51.99426
-0.59759629
43.916492
-0.50627762
40.204654
31.832897
1.1130493
-31.129691
1.0370049
3.1934835
15.711228
2.7590073
57.485631
1.2683649
65.008435
0.0055302214
59.905677
-0.54795048
52.547741
-0.66890118
44.037443
-0.54244725
40.078201
31.29045
0.94655751
-33.075028
0.9987792
3.0085818
13.649203
2.631279
57.862934
1.1367161
66.502998
-0.091094876
61.133488
-0.6316825
53.088329
-0.70389567
44.109656
-0.52328697
39.897592
30.767163
0.84772482
-35.026818
1.1040654
2.7522767
11.744652
2.4423722
58.172839
0.95456668
67.990804
-0.26671669
62.354772
-0.71356425
53.535176
-0.76081826
44.15691
-0.54566906
39.682443
30.221494
0.66358029
-36.056552
0.36615393
2.5125842
9.8956476
2.3194631
58.36596
0.82124431
69.489022
-0.35465852
63.530674
-0.77944932
53.959967
-0.78460407
44.162065
-0.49617774
39.394016
29.725316
3.2443762
-38.66547
-0.63545818
-0.98336933
14.123393
-4.7491133
62.131704
-6.8344241
71.574333
-7.1283742
63.824624
-5.7629278
52.594521
-4.1304358
42.529573
-2.0406683
37.304249
27.684647
3.0572334
-41.750818
0.028114857
-1.9181186
19.098745
-5.8962649
66.10985
-7.8976008
73.575669
-7.5153157
63.442339
-5.6424086
50.721614
-3.8082473
40.695411
-1.3316189
34.82762
26.353029
2.6225171
-43.037929
-1.3354064
-3.0343104
24.755573
-6.7038174
69.779357
-8.221473
75.093325
-7.5830543
62.803921
-5.524798
48.663357
-3.7672373
38.93785
-1.0723431
32.132726
25.280685
2.2833817
-42.74353
-2.5777801
-3.624439
30.663393
-7.4995407
73.654459
-8.82043
76.414214
-7.5369506
61.520441
-5.1526586
46.279065
-3.1270507
36.912243
0.013739439
28.991936
25.294425
1.6327906
-40.71817
-3.6581507
-4.6257167
36.921901
-8.098262
77.127004
-8.6788688
76.994821
-7.278139
60.119711
-4.7469912
43.747918
-2.4714429
34.636694
0.38100054
26.139493
25.675425
1.1996475
-37.274337
-4.6434807
-5.1039563
43.225505
-8.6563012
80.679349
-9.1745279
77.513048
-7.0306028
57.975786
-3.866156
40.583471
-1.0292046
31.799743
1.8623524
23.247936
27.537778
0.35917614
-32.329952
-5.3035614
-6.0796036
49.664284
-9.1452589
83.745004
-8.6683226
77.036111
-6.3146212
55.622085
-3.4413345
37.710184
-0.11155366
28.469962
2.2187568
20.917625
29.756535
-0.25061032
-26.777212
-5.3021296
-6.3846163
55.79829
-9.4307915
86.791179
-8.9972005
76.60252
-6.3057316
52.930616
-2.6588899
34.063342
1.7829288
24.028143
3.9671216
18.733432
33.723656
-1.0750542
-4.5740293
-21.128128
-7.3995244
62.12276
-9.9028511
89.294506
-8.3868426
75.086512
-4.9772217
49.520995
-0.98698378
30.073104
3.2338698
19.80729
3.8460786
18.121224
37.569735
-0.23359806
33.090943
0.23081882
-33.088163
1.3598883
-8.2215732
6.6280868
2.6206925
-52.329386
51.068582
2.9462039
-65.898505
65.572993
3.4821973
-60.765889
60.229895
6.2661368
-17.151785
14.367846
9.1749075
16.674977
-19.583748
10.445126
36.706068
-37.976287
32.71783
-33.902432
-0.16598448
33.033621
0.2233067
1.5408061
-9.9283636
2.9040393
-53.69262
3.3377355
-66.332201
3.6285843
-61.056738
5.9155217
-19.438723
8.6172118
13.973287
9.8809096
35.442371
31.499132
-0.1125489
32.92819
0.21797972
1.742091
-11.783004
3.2299625
-55.180491
3.7103114
-66.81255
3.8355183
-61.181945
5.7347202
-21.337925
8.2490843
11.458923
9.4233817
34.268073
30.28089
-0.069980603
32.784749
0.21342175
1.8999802
-13.752964
3.4970134
-56.777524
4.0468117
-67.362348
4.0418299
-61.176963
5.6232104
-22.919305
8.0154865
9.0666469
9.0567853
33.226774
29.088428
-0.016280151
32.59063
0.21039899
2.1067348
-15.875979
3.7835695
-58.454359
4.3931217
-67.9719
4.2836706
-61.067512
5.5549129
-24.190547
7.8109253
6.8106345
8.777862
32.259838
27.817261
0.039287807
32.343462
0.20787981
2.3019747
-18.138666
4.0558671
-60.208251
4.745875
-68.661908
4.5572182
-60.878855
5.5064086
-25.139738
7.5329778
4.7840652
8.533985
31.258831
26.290676
0.077720144
32.05871
0.20703229
2.4535579
-20.514504
4.3219621
-62.076656
5.0809465
-69.420892
4.780407
-60.578316
5.4934114
-25.852742
7.3294414
2.9480351
8.4107544
30.177518
24.451385
0.12284259
31.728371
0.20749641
2.6343646
-23.026026
4.6551212
-64.097412
5.4511363
-70.216908
4.9609689
-60.088148
5.5281983
-26.419971
7.2920008
1.1842326
8.5652455
28.904273
22.174866
0.1733814
0.20581707
31.349173
2.829983
-25.682627
4.9556981
-66.223127
5.7707012
-71.031911
5.1115827
-59.42903
5.639295
-26.947684
7.4533516
-0.6298241
9.1450825
27.212542
19.166662
-4.5165724
-25.850398
3.3422444
27.024726
-0.023419999
-16.425079
11.931931
6.0344944
27.64834
-33.706258
4.973587
8.6250811
-7.5641736
-0.36607215
-47.295441
52.6351
-3.915563
-68.12889
71.678381
-3.9165959
-67.703079
67.704112
-2.0201583
-59.61693
57.720492
-47.633516
45.613358
-4.9726386
-23.838755
2.9609953
-1.2683969
-20.12932
5.5835612
20.796381
6.0943128
8.1143294
1.4654884
-42.666617
-2.2996107
-64.363791
-3.6165119
-66.386178
-2.3440316
-60.88941
-49.977548
-5.1277184
-21.085311
2.3742746
-2.4237513
-22.833287
4.7056987
13.66693
6.4498719
6.3701561
2.3931124
-38.609857
-1.3454197
-60.625259
-2.7226967
-65.008901
-2.0451914
-61.566915
-52.022739
-4.7725918
-18.019535
1.7068165
-2.8227366
-24.783142
4.3297058
6.5144878
6.8149085
3.8849535
3.6060895
-35.401038
-0.02262483
-56.996545
-2.2846274
-62.746899
-2.0104812
-61.841062
-54.03322
-4.6816305
-14.339761
1.0018569
-3.4970309
-25.967741
3.3171664
-0.29970977
6.7357677
0.46635211
4.4288909
-33.094161
1.0206197
-53.588274
-1.1161705
-60.610108
-1.5684044
-61.388828
-55.601625
-4.5486421
-8.3741211
-1.4169978
-4.6062726
-25.910111
2.1364119
-7.0423941
6.650859
-4.0480951
5.3002098
-31.743512
2.0749009
-50.362965
-0.48063005
-58.054577
-1.4792632
-60.390195
-57.080888
-4.4104342
-2.6117046
-1.3519814
-5.5304757
-24.790069
1.1271748
-13.700045
6.4849246
-9.4058446
5.7916705
-31.050258
3.0003823
-47.571677
0.66445193
-55.718647
-0.69522322
-59.030519
-57.776111
-4.3312789
2.5249421
-0.80536694
-5.8721712
-23.249176
0.67311748
-20.245334
6.3797936
-15.112521
6.3275945
-30.99806
3.7553796
-44.999462
1.2519685
-53.215236
-0.44536134
-57.33319
-58.221473
-3.8942869
6.0492085
0.37002146
-5.8473203
-21.296142
0.15484427
-26.247499
5.8398965
-20.797572
6.2473505
-31.405514
4.2837765
-43.035888
2.2103831
-51.141843
0.28883142
-55.411638
-57.932641
-1.1964069
49.377336
-48.180929
-2.2796814
45.292379
-44.209105
-3.1584325
42.538937
-41.660186
-3.5990327
37.73886
-37.29826
-3.4476525
34.406169
-34.557549
-2.8592626
32.833015
-33.421405
-2.4203991
35.96296
-36.401823
-0.64876889
29.994124
-31.765754
-3.3792974
1.7562033
0.97432545
-1.2001484
50.577484
-2.3310324
46.423263
-3.2310994
43.439004
-3.7082951
38.216056
-3.514154
34.212028
-2.6708958
31.989756
-2.0813435
35.373407
-0.5260851
28.438866
-4.6314875
0.72610506
-1.1745597
51.752044
-2.3354468
47.58415
-3.2953764
44.398934
-3.8101819
38.730861
-3.5411382
33.942985
-2.5667226
31.015341
-1.7669563
34.573641
-0.3345591
27.006469
-5.6207136
0.6546672
-1.1677546
52.919799
-2.3673503
48.783746
-3.3472769
45.37886
-3.9128785
39.296463
-3.6003515
33.630458
-2.3816213
29.79661
-1.4994305
33.69145
-0.1959673
25.703006
-6.5564863
0.73980555
-1.0978286
54.017627
-2.3541829
50.0401
-3.4035173
46.428194
-4.0259772
39.918923
-3.6545423
33.259023
-2.2687082
28.410776
-1.2470928
32.669835
-0.042067915
24.497981
-7.3807448
0.78219064
-1.0694597
55.087087
-2.3636922
51.334333
-3.4482783
47.51278
-4.1331112
40.603756
-3.7553354
32.881246
-2.1975521
26.852994
-0.88234716
31.354629
0.17866277
23.436972
-7.9386422
0.73656091
-1.0108955
56.097982
-2.332816
52.656253
-3.4881283
48.668092
-4.2297671
41.345395
-3.7606394
32.412118
-1.9682812
25.060636
-0.53090456
29.917252
0.33855701
22.567511
-8.2244994
0.62441517
-0.96874187
57.066724
-2.3308187
54.01833
-3.5212295
49.858503
-4.3487597
42.172925
-3.8990128
31.962371
-1.8392093
23.000833
-0.21227502
28.290317
0.47318239
21.882055
-7.4155663
-0.33574964
-0.86591709
-2.2592254
-3.5425651
-4.4055283
-3.8486716
-1.645411
0.39740755
0.98332008
-0.38303783
1.684104
-2.1656927
2.2377921
5.3696097
-35.45126
5.6081243
-36.640338
5.7639432
-33.577223
5.4649425
-34.258549
4.632745
-36.466062
3.3321538
-40.359595
1.7912382
-42.668189
-46.389691
4.3227139
-7.3315678
0.84316124
6.1302573
-37.258803
5.8800105
-36.390091
5.7262328
-33.423446
5.3415394
-33.873855
4.5223058
-35.646829
3.2345693
-39.071858
1.7314324
-41.165052
-44.658259
6.2178988
-13.466388
-0.08307859
6.5831482
-37.624053
6.0910144
-35.897957
5.7295169
-33.061948
5.2307345
-33.375073
4.4172571
-34.833352
3.1954001
-37.850001
1.7307412
-39.700393
-42.927517
7.0489465
-20.482135
-0.03319979
6.9137354
-37.488842
6.2594577
-35.24368
5.7258228
-32.528313
5.134056
-32.783306
4.317678
-34.016974
3.0919928
-36.624316
1.6758931
-38.284294
-41.251624
7.8705006
-28.215783
-0.13685174
7.2877128
-36.906054
6.3508603
-34.306827
5.692275
-31.869728
5.0317615
-32.122793
4.2036723
-33.188884
3.0420764
-35.46272
1.6844309
-36.926648
-39.567193
8.5279319
-36.053853
-0.68986183
7.5040151
-35.882137
6.3926292
-33.195441
5.6623042
-31.139403
4.9705802
-31.431069
4.1190608
-32.337365
2.9411017
-34.284761
1.591528
-35.577075
-37.975665
9.1052064
-39.593316
-5.5657438
7.6510944
-34.428025
6.4149313
-31.959278
5.6201094
-30.344581
4.8907212
-30.70168
4.0135732
-31.460217
2.8936764
-33.164864
1.5842908
-34.267689
-36.391375
9.4246371
-38.329173
-10.68878
7.5869973
-32.590385
6.3948923
-30.767173
5.5874526
-29.537142
4.8453627
-29.959591
3.9450057
-30.55986
2.7978359
-32.017695
1.5043399
-32.974193
-34.887035
9.3490578
-35.774966
-11.903265
7.4541506
-30.695478
6.3757458
-29.688768
5.5522854
-28.713681
4.7564593
-29.163765
3.8461458
-29.649546
2.7490851
-30.920634
1.495473
-31.720581
-33.391562
0.18185384
34.896468
-35.078322
0.45174767
33.922316
-34.19221
0.72603174
33.570072
-33.844356
1.0517464
33.060491
-33.386206
1.3476522
33.030006
-33.325912
1.5762505
32.900539
-33.129138
1.5181715
33.097397
-33.039318
1.0383005
31.28043
-30.800559
26.50138
-25.909233
0.44615406
0.16978819
34.72668
0.4175474
33.674557
0.71544966
33.272169
1.0854693
32.690472
1.4311854
32.68429
1.7258797
32.605845
1.703318
33.119959
1.2174745
31.766274
27.161586
0.55726767
0.19553734
34.531143
0.48745574
33.382639
0.79072695
32.968898
1.1724625
32.308736
1.564959
32.291793
1.9138939
32.25691
2.0301477
33.003705
1.5275153
32.268906
28.265751
0.42335053
0.17227928
34.358864
0.43753311
33.117385
0.77449271
32.631939
1.1962311
31.886998
1.6295307
31.858494
2.0790268
31.807414
2.2760295
32.806703
1.9139182
32.631017
29.620981
0.55868825
0.20000313
34.15886
0.50327647
32.814112
0.82801412
32.307201
1.2524871
31.462525
1.7317653
31.379216
2.2309195
31.30826
2.6177586
32.419864
2.3798249
32.868951
31.332004
0.66880178
0.17265213
33.986208
0.44052495
32.546239
0.7971451
31.950581
1.2574566
31.002213
1.7773077
30.859364
2.3644093
30.721158
2.8566591
31.927614
2.8867451
32.838865
33.170587
1.0481623
0.19953839
33.78667
0.50014331
32.245634
0.83877418
31.61195
1.2823544
30.558633
1.8332943
30.308425
2.4426448
30.111808
3.0912799
31.278979
3.4106238
32.519521
34.446059
2.1351521
0.17920688
33.607463
0.43182824
31.993012
0.79488622
31.248892
1.2600738
30.093445
1.82885
29.739648
2.5210558
29.419602
3.217256
30.582778
3.895761
31.841016
35.433027
2.9087925
0.21590123
0.48833277
0.8165905
1.2604893
1.836373
2.542294
3.436304
4.5818425
4.2399042
-0.4804102
-25.769514
0.34069154
-0.73614518
-30.544824
-0.848929
-32.926535
-0.71066065
-33.267406
-0.53001712
-33.506555
-0.31157833
-33.604645
-0.15260284
-34.003331
-0.040719748
-34.304093
-35.119042
-0.43685836
-25.621575
0.28891933
-0.67133224
-30.31035
-0.76051243
-32.837354
-0.66208425
-33.365834