/*--------------------------------*- C++ -*----------------------------------*\
  =========                 |
  \\      /  F ield         | OpenFOAM: The Open Source CFD Toolbox
   \\    /   O peration     | Website:  https://openfoam.org
    \\  /    A nd           | Version:  11
     \\/     M anipulation  |
\*---------------------------------------------------------------------------*/
FoamFile
{
    format      ascii;
    class       volScalarField;
    location    "0.26";
    object      p;
}
// * * * * * * * * * * * * * * * * * * * * * * * * * * * * * * * * * * * * * //

dimensions      [0 2 -2 0 0 0 0];

internalField   nonuniform List<scalar> 
880
(
79.99999999999999
80.00000004739331
80.00238453962837
80.83263560019971
80.00000000000001
80.00000002288401
80.00423786104416
81.37556941900797
80.00000000001964
80.00000007332433
80.00978765831815
82.16766501873606
80.00000000096549
80.00000041793712
80.02456579541973
83.42190761633891
79.99999998123164
79.99999998878248
79.99999984693352
80.00004730880474
80.00000384587264
80.00001918852871
80.00044039674921
80.00039766476058
80.06306175089416
80.11317428293307
80.21084252521219
80.20208561078756
86.05102126128138
88.83025543247052
91.12955152228709
92.12450527409493
80.00010783078132
80.00072971695556
80.00130553152255
80.00699339684213
80.0062390760489
80.01786715780732
80.03898923284665
80.0725102234308
80.70864624101264
81.16622507917904
81.6528303026799
82.31031396595658
93.34099733444015
95.12228974200431
95.80459761660883
95.85795276759562
90.20417992491912
87.44645328502445
86.46560832486389
85.52410982622852
83.94076537937708
84.54106906592365
84.99382856158149
85.12011304414716
80.25863126221154
80.46439178439363
80.7018011131173
80.93561714370377
80.02541413182493
80.06864536737501
80.13639296899798
80.22374837718002
80.31250646653514
80.37532847237208
80.39634515609087
80.38007998118985
81.11046093412899
81.22611088254175
81.31166047291882
81.38497329944039
85.042371662208
84.80616784804694
84.5615458727446
84.24479948588377
84.79897634812683
84.27223889816406
84.08352259513475
83.84712857132277
83.47172810294981
83.97682917180684
81.36780546506688
80.32758730144064
84.58099736404215
83.63152100659066
81.23459919613587
80.26140610790446
93.34076062864283
83.68937931515451
80.96479410950766
80.1696073584347
126.3022568653693
85.98707464581281
80.86508183498006
80.088156950201
80.03511476697952
80.79442036459642
90.56129159181366
157.8813542052717
80.03443572322671
80.81669017890449
95.21503587116257
161.0591844837519
80.08372102790339
81.27551686586072
102.505333601904
167.1351275971652
80.21426130778505
82.40190610317492
110.7000439017699
168.6528373815643
168.4804433724747
120.8615538947018
84.59276870797221
80.48698473910687
165.9092630489077
130.711935212781
88.32705345912377
81.030290483896
161.283206302806
137.6870236591956
93.36243812655916
81.93488083230903
153.2317044266867
139.67431831472
99.15032238247878
83.38168697373187
85.40723586973587
102.9459544077115
133.1476755333042
142.217934395824
86.22282772483298
98.93682704740525
119.6910823807059
128.6110584751118
85.98224525684665
94.55139983760608
106.9066283156414
112.2368471362094
84.87428163329703
89.82474044319812
95.20215583592594
94.03694377885044
84.72436404992861
87.02049595725862
86.16547145664981
72.07493657696038
83.38628407871182
83.71773695706224
78.92341748868155
46.31246173192309
82.15535116046358
81.94191664635376
75.59375918207296
31.03675097613957
81.26286647841737
81.25939183921619
73.24403835808511
29.04466452803361
34.48125077257097
71.67933807816236
80.31375818770138
80.52235560594733
34.97952817382001
70.60012127351224
79.88346814843801
80.101480430921
35.67368660829095
69.98530113395104
79.42811798168397
79.96412122607407
33.7023039538797
68.91015306098083
78.80814905677585
79.9098586903213
38.72916401397727
69.43781024721723
78.35674568890535
79.87603100923566
44.13792114815608
70.82682102484588
78.59600299839514
79.92458491901775
48.19891859456732
72.09124433259245
78.94082586045027
79.96109736328457
52.95148128099861
73.59412272255338
79.39612594183869
79.98215773276776
42.80208151060584
70.0858148543003
78.79052974347819
79.94170850794562
44.58866182272882
69.96983634027453
78.7082642069024
79.94126342627098
47.78403387943314
69.84864455948282
78.60816214218281
79.93998286917702
51.78130419477611
69.85531916103042
78.53471363499169
79.93938885549845
52.95148128092338
73.59412272249665
79.396125941907
79.9821577323988
48.19891859451856
72.09124433243728
78.94082586031726
79.96109736293791
44.13792114808719
70.82682102467487
78.59600299815547
79.92458491873361
38.72916401400261
69.43781024697431
78.35674568882168
79.87603100915342
80.52235560602732
80.3137581877275
71.67933807818592
34.4812507723879
80.10148043096214
79.88346814842005
70.60012127345138
34.97952817369111
79.96412122627666
79.42811798169521
69.98530113349548
35.67368660818007
79.90985869045448
78.80814905699617
68.91015306074154
33.70230395389363
29.04466452791905
73.24403835809569
81.25939183910043
81.26286647835809
31.03675097605067
75.59375918210367
81.94191664639685
82.15535116017475
46.31246173184724
78.92341748874233
83.71773695716266
83.38628407852113
72.07493657704549
86.16547145657607
87.02049595694575
84.72436404996161
85.40723586974805
102.9459544089341
133.1476755343498
142.2179343958996
86.22282772464857
98.93682704754195
119.6910823810665
128.6110584753377
85.98224525664554
94.55139983784802
106.9066283157051
112.2368471363583
84.87428163331485
89.82474044293062
95.20215583597196
94.03694377901789
153.231704426663
139.6743183146998
99.15032238269058
83.38168697442342
161.2832063028428
137.6870236591942
93.3624381266164
81.93488083232239
165.909263048887
130.7119352127511
88.3270534587169
81.03029048412259
168.4804433723753
120.8615538950878
84.5927687087263
80.48698473913596
80.03511476703719
80.79442036455247
90.56129159164597
157.881354204794
80.03443572363611
80.81669017932794
95.21503587137356
161.059184483642
80.0837210284902
81.27551686616357
102.5053336017933
167.1351275972007
80.21426130801105
82.40190610274666
110.7000439015754
168.6528373812379
80.08815695016943
80.16960735840982
80.2614061081327
80.32758730146134
80.86508183453928
80.96479410932898
81.23459919606529
81.36780546495486
85.98707464556921
83.68937931519585
83.63152100635058
83.9768291716547
126.3022568650513
93.34076062863737
84.58099736404952
83.4717281029646
80.38007998132446
81.38497329966519
84.2447994861492
83.84712857146761
80.39634515599828
81.31166047311024
84.56154587296295
84.08352259514116
80.37532847236989
81.2261108826077
84.8061678480112
84.2722388977971
80.31250646634663
81.1104609339644
85.04237166231472
84.7989763480463
80.02541413174882
80.25863126192078
83.94076537956531
90.20417992503759
80.06864536705298
80.46439178427204
84.54106906624078
87.44645328502575
80.13639296912801
80.70180111287152
84.99382856145381
86.46560832444248
80.22374837702475
80.93561714355603
85.12011304433241
85.52410982592799
95.85795276747734
82.31031396600885
80.07251022326621
80.00699339707505
95.80459761654744
81.6528303027972
80.03898923253955
80.00130553148297
95.12228974219254
81.16622507923067
80.01786715727349
80.00072971671717
93.34099733447667
80.70864624091324
80.00623907587897
80.00010783114726
92.1245052740466
80.20208561088707
80.0003976648122
80.00004730917675
91.12955152223928
80.21084252515756
80.00044039653044
79.99999984699645
88.83025543241237
80.11317428284603
80.00001918836145
79.99999998874479
86.05102126122371
80.06306175079938
80.00000384577871
79.9999999815653
79.99999999999999
80.00000004757533
80.00238453968969
80.83263559729936
80
80.00000002262706
80.0042378610223
81.37556941892795
80.00000000012224
80.00000007317456
80.00978765826737
82.16766501865627
80.00000000110926
80.00000041773644
80.02456579533683
83.42190761625045
81.65317010524157
82.67250698505664
84.4405277483695
88.74978244911341
82.67250698521808
83.99596905530176
87.2489995251679
94.04443499498905
84.44052774862581
87.24899952502733
92.98303104518676
102.0200798000044
88.74978244901281
94.04443499491948
102.0200798003139
112.6434167923434
124.0361876508509
114.6229274017472
110.3615305509027
102.0521787221941
121.8494438265052
119.1373687181584
119.0965814782544
114.7557297174133
122.2889290086634
121.3866991156712
120.949601647999
119.2717565018244
120.3059860234001
119.9420568289752
119.8185430299462
118.7648567884253
116.7503106635942
116.0312508374224
113.4394754413315
109.8923332793959
117.3335368790667
116.0193659848939
113.5747890368841
110.2676068922571
117.4857987329499
116.2237562149552
113.7646279086345
110.6377321912933
117.7364598785813
116.2057354429906
113.8252631097856
108.4598156550361
83.84943894499118
73.48639033674033
72.98717369793049
73.86125924949138
76.67618569769554
70.68207355115307
72.22902400505893
73.37247740892595
70.63909638643645
70.59856436134442
72.78510942399355
73.91685844760401
61.2887677451477
68.29481435814942
71.87008317825838
73.12327905138845
74.58020968562805
75.45394100688222
76.43116676030914
77.47022858931994
74.16295270114918
75.14195493029597
76.24763123022727
77.35112545323454
74.53863991181188
75.39994991173369
76.07207296655167
77.34020442755184
73.89019246330446
74.91278772769691
76.11542441031723
77.41290313266417
78.54384206037884
88.70669339456376
127.3490146793215
167.9500910363651
78.6513383479318
92.97798793935239
134.6885870353755
160.8572653700381
78.68473438472894
95.18051365256964
138.6224751900885
156.6031016745982
78.73393331793338
97.34943382166853
142.9727352714885
156.5889153238357
212.6193139597854
200.2264688416607
195.950741659929
197.0430616196666
213.4225502241542
202.8591976428048
197.0914116872914
198.0044492940893
213.01529062324
204.9220977075071
197.6971011816719
197.875902214043
208.8917249810343
207.026751267447
198.9617750038456
198.4577979765579
194.3284422501654
184.1719062245412
172.0027258249748
160.8792785333085
195.0956236749526
185.9242494530396
173.3505373089746
162.1029989075448
195.8844986361461
187.7287980092916
175.3738159736812
163.911817366555
196.5339285735237
188.7389926351357
176.9939598182881
168.5460278197616
147.7554683585568
136.2667353459132
122.7429647439428
107.093300617246
149.4766740011746
137.0652398130116
123.0639488826276
114.562521725444
151.209277593727
138.2606495069771
124.6881214514404
118.1690016806311
154.149499944448
141.2023128685933
127.4767989854223
131.079066077574
64.32557959601577
15.13314407831676
3.408728798276235
2.70276844033043
49.29117471703123
9.760369794128668
3.326339143241762
3.018510699201365
34.13158760216799
6.349153457238379
3.445721914775701
3.513018161383358
19.13073808299012
3.449464769994
3.415387996481302
3.705967933202008
5.336723531181703
8.187486138544164
11.08905804837813
14.95003692372559
5.631965410731499
8.746498526762862
11.9137177876986
15.83043040866131
5.936449510251859
8.866854016996378
12.31540443529431
16.96290140619654
6.255005539229484
9.454276545880786
13.86834594940623
18.4743633857421
21.22439891381951
27.69088621013288
31.80067519739647
35.46172143746715
20.46445901581826
26.60368324436744
31.65430949854644
36.20157186993024
19.77555942623228
25.56337286202787
30.45588202013396
36.73488758538792
18.16502200375666
23.59880415747925
27.97702208114294
38.7071881920247
34.5122122495192
33.89939376388745
34.6790029985911
33.41222016475675
29.09899790385286
29.55483327981315
32.02365515997368
31.59377537570786
24.28311255424302
25.38899303599834
28.44024032597532
28.15721558679215
19.50060369496724
22.49609588174942
24.94749143618552
26.11692486501746
27.21460533465357
28.13724516881243
28.85468083177061
29.23926310233406
28.38055729914567
29.00526316946144
29.67027407541402
30.19079454675393
30.86482283274929
30.82793937763304
31.14299779288749
31.39115279539309
31.60674370745275
30.57269726667199
30.61694556092303
31.06090652047926
29.2392631023311
30.19079454675588
31.39115279539449
31.06090652048024
28.85468083176404
29.67027407541804
31.14299779289021
30.61694556093095
28.13724516879985
29.0052631694594
30.82793937763126
30.57269726667435
27.21460533463249
28.38055729913015
30.86482283273162
31.60674370742858
33.41222016473472
34.67900299857631
33.89939376385191
34.51221224944769
31.59377537567479
32.02365515993988
29.55483327977449
29.09899790379684
28.15721558676362
28.44024032594144
25.38899303597684
24.28311255421232
26.11692486499047
24.94749143615743
22.49609588173028
19.50060369494641
38.70718819196736
27.97702208112903
23.59880415748792
18.16502200380809
36.73488758534075
30.45588202011017
25.5633728620291
19.7755594262747
36.20157186987748
31.65430949852019
26.60368324436743
20.46445901587797
35.4617214374004
31.80067519736026
27.69088621011831
21.22439891387805
14.9500369238087
11.08905804843912
8.187486138563767
5.336723531180406
15.8304304087508
11.91371778776944
8.746498526810461
5.631965410750192
16.96290140628118
12.31540443536863
8.866854017050713
5.936449510273846
18.4743633858022
13.86834594948563
9.454276545949554
6.255005539259479
2.70276844033161
3.408728798247453
15.13314407823162
64.32557959606426
3.018510699211468
3.326339143240481
9.760369794119516
49.29117471706955
3.513018161393514
3.445721914773234
6.349153457254529
34.13158760219426
3.705967933216264
3.415387996486224
3.449464770007941
19.13073808302306
107.0933006173892
122.7429647439991
136.2667353458802
147.7554683583813
114.5625217255963
123.063948882687
137.0652398129565
149.4766740009774
118.1690016807848
124.6881214514997
138.260649506907
151.209277593547
131.0790660777355
127.4767989854799
141.2023128685383
154.1494999443752
160.8792785331723
172.0027258248968
184.1719062244482
194.3284422500993
162.1029989072448
173.3505373089245
185.924249453017
195.0956236748367
163.9118173661202
175.3738159736355
187.728798009236
195.8844986360108
168.546027819868
176.9939598181549
188.7389926350721
196.5339285732769
197.043061619637
195.9507416598944
200.2264688412833
212.6193139592308
198.0044492939427
197.0914116873656
202.859197642335
213.4225502236218
197.8759022138809
197.697101181896
204.9220977069141
213.0152906227635
198.4577979764358
198.9617750041144
207.026751266773
208.8917249806157
167.9500910360633
127.3490146791943
88.70669339464824
78.54384206045762
160.8572653697831
134.6885870352537
92.9779879393746
78.65133834802916
156.6031016743169
138.6224751899617
95.18051365256413
78.68473438482638
156.5889153235722
142.9727352713491
97.349433821644
78.73393331803926
77.47022858952199
76.43116676027807
75.45394100657393
74.58020968555915
77.35112545343544
76.24763123014056
75.1419549299827
74.1629527010642
77.34020442774747
76.07207296647144
75.39994991142675
74.53863991171825
77.41290313287186
76.11542441023337
74.9127877273713
73.89019246322172
73.86125924917964
72.98717369764081
73.48639033683007
83.84943894512806
73.37247740855676
72.22902400478027
70.68207355130521
76.67618569780682
73.91685844721401
72.78510942373117
70.59856436152764
70.63909638652076
73.12327905099231
71.87008317794678
68.29481435830679
61.28876774518935
109.8923332794144
113.4394754414442
116.031250837773
116.7503106637382
110.2676068922824
113.5747890370634
116.0193659852421
117.3335368791832
110.6377321913125
113.7646279088398
116.223756215296
117.4857987330625
108.459815655146
113.8252631100161
116.2057354433344
117.7364598786928
118.7648567882287
119.2717565016958
114.7557297173711
102.052178722354
119.8185430297978
120.9496016478746
119.0965814781273
110.3615305508905
119.942056828838
121.3866991155156
119.1373687180206
114.6229274015629
120.3059860232737
122.288929008499
121.8494438263402
124.0361876504992
56.46465908279701
73.4167903477794
79.25308352834902
79.97733708441254
54.80223014666402
72.21722168257163
78.97197473213426
79.96270119643803
55.55567647594268
71.42475236977907
78.74238217185494
79.94917917201438
54.22899806421758
70.57435725790234
78.58542379988292
79.94179500273991
79.94170850786598
78.79052974360253
70.08581485422818
42.80208151061046
79.94126342627376
78.7082642070061
69.96983634022028
44.5886618227368
79.93998286928968
78.60816214206557
69.84864455942873
47.78403387942686
79.93938885551209
78.53471363484805
69.85531916097746
51.7813041947355
79.94179500262962
79.94917917189657
79.96270119643438
79.97733708422591
78.58542379966381
78.74238217172729
78.97197473198497
79.25308352837408
70.57435725792334
71.4247523697905
72.21722168265519
73.4167903478304
54.22899806418485
55.55567647591257
54.80223014661067
56.46465908271728
)
;

boundaryField
{
    back
    {
        type            empty;
    }
    inlet
    {
        type            zeroGradient;
    }
    front
    {
        type            empty;
    }
    top
    {
        type            zeroGradient;
    }
    outlet
    {
        type            fixedValue;
        value           uniform 80;
    }
    bottom
    {
        type            zeroGradient;
    }
    wall
    {
        type            zeroGradient;
    }
}


// ************************************************************************* //
