/*--------------------------------*- C++ -*----------------------------------*\
  =========                 |
  \\      /  F ield         | OpenFOAM: The Open Source CFD Toolbox
   \\    /   O peration     | Website:  https://openfoam.org
    \\  /    A nd           | Version:  11
     \\/     M anipulation  |
\*---------------------------------------------------------------------------*/
FoamFile
{
    format      ascii;
    class       volScalarField;
    location    "0.0425";
    object      rho;
}
// * * * * * * * * * * * * * * * * * * * * * * * * * * * * * * * * * * * * * //

dimensions      [0 0 0 0 0 0 0];

internalField   nonuniform List<scalar> 
880
(
0.3733250556165154
0.3733250556165154
0.3733250556165154
0.3733250557889682
0.3733250556165154
0.3733250556165154
0.3733250556165152
0.3733250540148654
0.3733250556165154
0.3733250556165153
0.3733250556165154
0.3733254446827585
0.3733250556165154
0.3733250556165154
0.3733250556165154
0.3733279028365868
0.3733250556165154
0.3733250556165155
0.3733250556165152
0.3733250556165154
0.3733250556165154
0.3733250556165154
0.3733250556165151
0.3733250556165154
0.3733250556164657
0.3733250556106759
0.3733253064348264
0.3733236317505317
0.3737319908713087
0.375516671487325
0.3772197823647112
0.3776841542406019
0.3733250556468676
0.3733250556558508
0.3733250556604701
0.3733250556326571
0.3733250583806357
0.3733250593954963
0.3733250598982372
0.3733250574465872
0.37333089083972
0.3733314587366354
0.3733320401221192
0.3733301723506974
0.3779813048017943
0.3783649538770605
0.3785733329736901
0.3787675517101589
0.3793150623618528
0.377292920827131
0.3749190487053463
0.3736120929379512
0.3733410707721379
0.373337660395172
0.3733307816041865
0.3733261566028164
0.3733250703301058
0.3733250677049951
0.3733250611508404
0.373325056626265
0.3733250557934567
0.3733250557493054
0.3733250556641398
0.3733250556222109
0.3733250556165152
0.3733250556165152
0.3733250556165154
0.3733250556165155
0.3733250556659914
0.3733250556168859
0.3733250556165154
0.3733250556165155
0.3733251135543681
0.3733250559842434
0.3733250555608584
0.3733250555896058
0.3733398721230763
0.3733251333973462
0.3733250376768665
0.373325049469624
0.3733250551941353
0.3733250556148521
0.3733250556165154
0.3733250556165154
0.3733250503223322
0.3733250554205595
0.373325055611732
0.3733250556165153
0.373327137329402
0.3733251417856547
0.3733250557941127
0.373325055618299
0.372348104254866
0.3733194017589617
0.3733250490573533
0.3733250556122865
0.3733250556161533
0.3733250559567186
0.3733270378543095
0.3785955160565561
0.3733250557315724
0.3733250670618939
0.3733452221951303
0.3894298156033352
0.3733250558093374
0.3733250747912905
0.373355519711088
0.3937608659689705
0.3733250558611555
0.3733250794349182
0.3733605803356083
0.3952438083586745
0.3964460853213587
0.3733662429271534
0.3733250852182448
0.3733250559292067
0.3978906721130722
0.3733735779892839
0.3733250931472788
0.3733250560227547
0.3993289119561612
0.373381811094016
0.3733251026885088
0.3733250561420959
0.4013554751066227
0.3733956415653333
0.3733251204570389
0.3733250563696618
0.3733250561884868
0.3733251052110975
0.373388153736275
0.4021756077190187
0.3733250562450652
0.3733251101505796
0.3733915145444889
0.4019634749795737
0.3733250565064353
0.3733251181298627
0.3733948585629807
0.4005690210745914
0.3733250559130337
0.3733250952787421
0.3733655268786572
0.3890665653787135
0.3733250215051916
0.3733199496944909
0.3732936928342172
0.3746732565602148
0.3733250521099977
0.3733224761696632
0.3727641449413969
0.3437073727697599
0.3733250535380982
0.3733225095531289
0.3723106713127236
0.3130781878361706
0.3733250538760709
0.3733221819164427
0.3718615899787686
0.2959900518297857
0.3095941993479183
0.3726027151038651
0.3733235732854498
0.373325054147124
0.3138842921649232
0.3726808356985054
0.3733238339695772
0.3733250545385144
0.3215049192310728
0.372881873432142
0.3733242928097154
0.373325055009544
0.3142617251652695
0.3727553194558891
0.3733241184118573
0.3733250548462795
0.3484359496028799
0.3732129200719035
0.3733248986536535
0.3733250554872149
0.3685987863006251
0.3733163587517322
0.3733250464870662
0.3733250556120562
0.3726590539316965
0.3733238654941708
0.3733250543172769
0.3733250556158289
0.3723002757124912
0.3733221240445308
0.3733250514397051
0.3733250556094596
0.3672114294897774
0.3732796152958612
0.3733249355355135
0.3733250557095589
0.3672203304958613
0.3732796718201278
0.373324935482539
0.37332505570576
0.3672148824116202
0.3732796091633859
0.3733249342452242
0.3733250556679037
0.3673028104993922
0.3732799639337578
0.3733249330068572
0.3733250556015001
0.3723002757122406
0.3733221240441004
0.3733250514391286
0.3733250556097786
0.3726590539308919
0.3733238654936311
0.3733250543160216
0.3733250556158646
0.368598786300351
0.3733163587517861
0.3733250464869947
0.3733250556121717
0.3484359496035206
0.3732129200729937
0.3733248986537555
0.3733250554869456
0.3733250541481345
0.3733235732868155
0.3726027151043355
0.3095941993485576
0.3733250545389512
0.3733238339698655
0.3726808356990185
0.3138842921648819
0.3733250550087439
0.3733242928104824
0.3728818734321396
0.3215049192320523
0.3733250548465211
0.3733241184119768
0.3727553194573019
0.3142617251643048
0.2959900518281348
0.3718615899782113
0.3733221819160333
0.3733250538759189
0.3130781878347033
0.3723106713119296
0.3733225095517971
0.3733250535367691
0.3437073727692856
0.3727641449402891
0.3733224761696368
0.3733250521086574
0.3746732565605074
0.3732936928337924
0.3733199496940349
0.373325021506774
0.3733250561882439
0.3733251052117738
0.3733881537369114
0.4021756077200386
0.3733250562452622
0.3733251101507898
0.3733915145444814
0.4019634749792558
0.3733250565072265
0.3733251181298915
0.3733948585621853
0.4005690210744267
0.3733250559144576
0.3733250952787329
0.3733655268781075
0.3890665653786475
0.4013554751086049
0.373395641564448
0.3733251204581469
0.373325056369498
0.3993289119579566
0.3733818110950168
0.3733251026889153
0.3733250561423373
0.397890672113616
0.3733735779910239
0.3733250931481581
0.3733250560225748
0.3964460853214782
0.3733662429266233
0.3733250852183864
0.3733250559289801
0.3733250556165151
0.3733250559575421
0.3733270378542345
0.3785955160550635
0.3733250557309482
0.3733250670611783
0.3733452221956099
0.3894298156035191
0.3733250558090733
0.3733250747913006
0.3733555197114978
0.3937608659696012
0.373325055860822
0.3733250794351419
0.3733605803343109
0.3952438083592484
0.3733250556122102
0.3733250556184124
0.3733250556165154
0.3733250556165154
0.3733250490560849
0.3733250557938544
0.3733250556124206
0.3733250556165153
0.373319401759144
0.3733251417863959
0.373325055420004
0.3733250556147555
0.3723481042548202
0.3733271373294816
0.3733250503223724
0.3733250551941242
0.3733250556165152
0.3733250556165154
0.3733250555897054
0.3733250494698491
0.3733250556165154
0.3733250556165153
0.3733250555620536
0.373325037676899
0.3733250556165154
0.3733250556168853
0.3733250559837955
0.3733251333974575
0.3733250556165163
0.3733250556657302
0.3733251135550108
0.3733398721228394
0.3733250557926265
0.3733250703290912
0.3733410707714334
0.3793150623615656
0.3733250557485709
0.3733250677053934
0.3733376603953034
0.3772929208261756
0.3733250556640135
0.3733250611522123
0.3733307816039085
0.3749190487052298
0.3733250556221108
0.3733250566267791
0.3733261566029099
0.3736120929373071
0.3787675517104376
0.3733301723518789
0.3733250574459146
0.373325055632328
0.3785733329732839
0.3733320401241334
0.3733250598979508
0.373325055660689
0.3783649538782811
0.3733314587374035
0.3733250593957057
0.3733250556556628
0.377981304801536
0.3733308908368689
0.3733250583804122
0.3733250556470198
0.3776841542411393
0.3733236317513478
0.3733250556165154
0.3733250556165154
0.3772197823643682
0.3733253064333107
0.3733250556165154
0.3733250556165154
0.3755166714879223
0.3733250556105882
0.3733250556165154
0.3733250556165153
0.3737319908709231
0.3733250556164211
0.3733250556165154
0.3733250556165151
0.3733250556165154
0.3733250556165154
0.3733250556165154
0.3733250558382147
0.3733250556165152
0.3733250556165155
0.3733250556165153
0.3733250540157884
0.3733250556165154
0.3733250556165154
0.3733250556165154
0.3733254446838118
0.3733250556165154
0.3733250556165154
0.3733250556165151
0.3733279028362392
0.3733250025862263
0.3733244780628736
0.3733240069664336
0.3735022110440125
0.3733244780750524
0.3733212668081407
0.3733183469555605
0.3735403299238323
0.3733240069665139
0.3733183469519583
0.3734675715873638
0.3800294472332535
0.3735022110459049
0.3735403299242018
0.3800294472337383
0.4244228319018438
0.5094318804795045
0.4434248260082004
0.4141637766812385
0.3868622856458175
0.5100766065737355
0.4902297068149681
0.4769031792195741
0.4393371204987216
0.5099191488056148
0.5108875703094173
0.5066652649762976
0.4825401012534463
0.5165633690212921
0.5243026773341243
0.5208562155164137
0.4978638336920212
0.5028084594447294
0.5038798492411904
0.5043526454627463
0.5163614404571863
0.5247872770245229
0.5249907318274841
0.5251044578808284
0.5454183314379107
0.5278758714068296
0.5278014620317508
0.5278133005677478
0.5454237368686045
0.5181253244728034
0.5178279194803882
0.5178165492174315
0.5267627339832494
0.4629968372549552
0.4159829065202513
0.3862154411089738
0.3752563815753107
0.4536759603851566
0.3934362835746945
0.37931277017177
0.3747136374286004
0.3915270588441662
0.3639116753192881
0.376663739567547
0.3754379010397084
0.3520762398632495
0.3601751595222675
0.3695387199641774
0.3725790306931558
0.3734102995127732
0.373324093757062
0.3733248205786691
0.3733250317148612
0.373398647151765
0.3733229976360048
0.3733250118701052
0.3733250560719734
0.3734717964639577
0.3733242191803069
0.3733250204660185
0.3733250576238765
0.3731891050684153
0.3733148709568628
0.3733245299062352
0.3733250407875166
0.3733250542730169
0.3733250555456697
0.3733256588419245
0.3694281132048857
0.3733250551443878
0.3733250553932693
0.3733253439550516
0.3938640123811858
0.3733250555048773
0.3733250555422863
0.3733251276957341
0.4221001196977019
0.3733250554718504
0.3733250555960133
0.3733250820021463
0.4319482612875909
0.5907791517874524
0.6768032839005086
0.7044738865204198
0.7100822529462025
0.6768799911607767
0.7132465194765681
0.7459589812090003
0.7542512575261022
0.6905610384163006
0.6989693747550026
0.7300129510599366
0.7407640988486129
0.7231343316622305
0.6968902276802635
0.7177867241415914
0.7301790912725962
0.7109578096875939
0.7116956391331433
0.7123911823408463
0.71301799669862
0.7547912216308342
0.7548773604213989
0.7549030883239162
0.7545017532290511
0.7415313046236822
0.7415577093369543
0.741482323084064
0.7408820068672337
0.7315016274331777
0.7316047163623841
0.7316264063704438
0.730900543537898
0.7091749228661631
0.7047422694421391
0.6837762824562532
0.5967157997885555
0.7550602859102128
0.7525415616043933
0.7287574502670047
0.6563416576495683
0.7447892569971528
0.7448268019584235
0.7204621266324025
0.6565061364432601
0.7322119465961766
0.7294648086993766
0.7000063254343165
0.7079176057604789
0.3829093025263289
0.1659338182487295
0.0817322821647877
0.0654899762679535
0.3501822942171673
0.1095472256912448
0.06466677386171199
0.05419682728140907
0.2627446564276134
0.08043914392632219
0.0680392801692271
0.06086708186558362
0.17240676765707
0.03514931374836557
0.06377557416902215
0.06739594377758473
0.0651878852954276
0.06599208747609994
0.06945732340055918
0.06125033066653397
0.05242289463535866
0.05354244002240602
0.05982659212132776
0.05589652962738657
0.05913155176058654
0.0619789385803592
0.07100555722003532
0.06179330836539236
0.06515624875263072
0.06895401985167639
0.0791109508817921
0.05701868881522916
0.1960697074111119
0.3030467093429408
0.3468388274331786
0.3419815579073625
0.1509503561865416
0.2521258596240308
0.3091237983118194
0.3317095440819275
0.1241420533773552
0.2198819189460704
0.2806451973756967
0.3321091504327904
0.07422015866034445
0.1681075526528973
0.2504481321687689
0.3124602915432175
0.3182984912216392
0.2910200867580309
0.26027431222912
0.2065616040116667
0.2404409625221108
0.1835712950838072
0.2164990919449674
0.1935712011948889
0.2044094893796888
0.09658970272781334
0.1071436602701351
0.1556815801901591
0.1507808066384107
0.08253327587679252
0.07344891505453036
0.08197364329092738
0.08260805457911764
0.0640777774495985
0.0469103508343705
0.04382299185845581
0.1449988607719119
0.1012341030334779
0.07015561474431461
0.06557007063945455
0.1430631325544787
0.1075487346075839
0.0969819656738146
0.09568037287580033
0.1640596309899213
0.1479922520587361
0.1445372342123325
0.1438877414449733
0.04382299185842176
0.06557007063954687
0.09568037287576367
0.1438877414441015
0.04691035083426708
0.07015561474448906
0.09698196567369274
0.144537234211531
0.06407777744956299
0.101234103033444
0.1075487346073229
0.1479922520591358
0.08260805457927149
0.1449988607717509
0.143063132554298
0.1640596309894786
0.2065616040114536
0.2602743122283583
0.2910200867574702
0.3182984912205994
0.1935712011946631
0.2164990919449837
0.1835712950840825
0.2404409625215321
0.1556815801901165
0.1071436602702837
0.09658970272763354
0.2044094893794956
0.0819736432910252
0.07344891505448284
0.08253327587681862
0.1507808066381748
0.3124602915427356
0.2504481321685603
0.1681075526531031
0.07422015866041481
0.3321091504325362
0.2806451973754664
0.2198819189461744
0.1241420533775114
0.3317095440817723
0.3091237983114613
0.2521258596241111
0.1509503561866979
0.3419815579071647
0.346838827432789
0.3030467093429512
0.196069707411291
0.06125033066645531
0.06945732340078591
0.06599208747612897
0.06518788529545756
0.05589652962732736
0.0598265921213879
0.05354244002233341
0.05242289463529326
0.06179330836541613
0.07100555722016033
0.0619789385804539
0.05913155176062929
0.05701868881527391
0.07911095088191632
0.06895401985196602
0.06515624875274542
0.06548997626731767
0.081732282164002
0.165933818248579
0.382909302526182
0.05419682728120991
0.06466677386137183
0.109547225691088
0.3501822942160839
0.06086708186558928
0.06803928016904069
0.08043914392641248
0.2627446564269039
0.06739594377767955
0.06377557416908618
0.03514931374842849
0.1724067676568439
0.596715799787823
0.6837762824560293
0.7047422694416897
0.7091749228661839
0.6563416576488479
0.7287574502668893
0.7525415616044266
0.7550602859103646
0.6565061364427459
0.7204621266322737
0.7448268019588373
0.7447892569975393
0.7079176057601247
0.7000063254343921
0.729464808699826
0.7322119465966478
0.713017996698374
0.7123911823419747
0.7116956391338223
0.7109578096870098
0.754501753228355
0.7549030883248379
0.7548773604221271
0.7547912216302958
0.7408820068670633
0.7414823230847514
0.7415577093373874
0.7415313046234587
0.7309005435378685
0.731626406370894
0.7316047163626268
0.7315016274331284
0.710082252946309
0.7044738865207467
0.6768032839008704
0.590779151787601
0.7542512575260467
0.7459589812094201
0.7132465194764396
0.6768799911610082
0.7407640988483838
0.7300129510605061
0.6989693747547598
0.6905610384162431
0.7301790912723383
0.7177867241423371
0.6968902276795929
0.7231343316620121
0.3694281132049172
0.3733256588414547
0.373325055545419
0.3733250542730782
0.3938640123812835
0.3733253439547725
0.3733250553931488
0.3733250551444152
0.422100119697829
0.373325127695618
0.3733250555422288
0.3733250555048845
0.4319482612875978
0.373325082002093
0.3733250555959814
0.3733250554718184
0.3733250317149246
0.3733248205788179
0.3733240937571896
0.3734102995125551
0.373325056071982
0.373325011869954
0.3733229976364347
0.3733986471512939
0.373325057623828
0.373325020465792
0.3733242191812153
0.3734717964632779
0.3733250407875348
0.373324529906175
0.3733148709575952
0.3731891050682493
0.3752563815750983
0.3862154411088065
0.4159829065198328
0.4629968372547412
0.374713637428322
0.3793127701717066
0.3934362835744233
0.4536759603854432
0.3754379010392859
0.3766637395675927
0.3639116753191204
0.3915270588446084
0.3725790306921032
0.3695387199643729
0.3601751595220219
0.3520762398634446
0.516361440457013
0.5043526454619434
0.5038798492402209
0.5028084594455503
0.5454183314375597
0.5251044578803682
0.5249907318267968
0.5247872770250973
0.5454237368682064
0.5278133005674109
0.5278014620309696
0.5278758714068907
0.5267627339829641
0.5178165492174018
0.5178279194799659
0.5181253244724684
0.4978638336922704
0.4825401012526246
0.4393371204994889
0.3868622856460404
0.5208562155168898
0.5066652649758588
0.4769031792198042
0.4141637766815454
0.5243026773351215
0.510887570308687
0.4902297068149234
0.4434248260083544
0.5165633690226902
0.5099191488053022
0.5100766065734887
0.5094318804796636
0.3721341435209951
0.373318819082132
0.3733250405855608
0.3733250556204263
0.3706421509657053
0.3733077111433601
0.3733250114023673
0.3733250556362684
0.3683211053299625
0.3732902080858274
0.3733249645145563
0.3733250555797521
0.3652505378136771
0.3732710905420378
0.3733249209046641
0.3733250555448956
0.3733250557100394
0.3733249355352355
0.3732796152957315
0.3672114294894844
0.3733250557061184
0.3733249354832192
0.3732796718192757
0.3672203304960371
0.3733250556674873
0.373324934245829
0.3732796091633943
0.3672148824111813
0.3733250556000933
0.3733249330075982
0.3732799639310886
0.3673028104990176
0.3733250555446808
0.3733250555795584
0.3733250556348411
0.3733250556187628
0.3733249209048277
0.3733249645145503
0.3733250114020782
0.3733250405846876
0.3732710905429993
0.3732902080847637
0.3733077111443567
0.3733188190814389
0.3652505378127266
0.3683211053290397
0.3706421509657148
0.3721341435211725
)
;

boundaryField
{
    back
    {
        type            empty;
    }
    inlet
    {
        type            calculated;
        value           nonuniform List<scalar> 
16
(
0.3733250556165154
0.3733250556165154
0.3733250556165154
0.3733250556165154
0.3733250556165154
0.3733250556165155
0.3733250556165152
0.3733250556165154
0.3733250556165154
0.3733250556165154
0.3733250556165154
0.3733250556165151
0.3733250556165154
0.3733250556165152
0.3733250556165154
0.3733250556165154
)
;
    }
    front
    {
        type            empty;
    }
    top
    {
        type            calculated;
        value           nonuniform List<scalar> 
40
(
0.3733250556468676
0.3733250556558508
0.3733250556604701
0.3733250556326571
0.3733250557934567
0.3733250557493054
0.3733250556641398
0.3733250556222109
0.3733250556165152
0.3733250556165152
0.3733250556165154
0.3733250556165155
0.3733250556165154
0.3733250556165154
0.373325055618299
0.3733250556122865
0.3733250556161533
0.3733250557315724
0.3733250558093374
0.3733250558611554
0.3733250559292067
0.3733250560227547
0.373325056142096
0.3733250563696618
0.3733250561884868
0.3733250562450652
0.3733250565064353
0.3733250559130337
0.3733250215051916
0.3733250521099976
0.3733250535380982
0.3733250538760709
0.373325054147124
0.3733250545385144
0.373325055009544
0.3733250548462795
0.3733250554872149
0.3733250556120562
0.3733250556158289
0.3733250556094596
)
;
    }
    outlet
    {
        type            calculated;
        value           uniform 0.3733250556165154;
    }
    bottom
    {
        type            calculated;
        value           nonuniform List<scalar> 
40
(
0.3733250556097786
0.3733250556158646
0.3733250556121717
0.3733250554869456
0.3733250541481345
0.3733250545389512
0.3733250550087439
0.373325054846521
0.3733250538759189
0.3733250535367691
0.3733250521086574
0.373325021506774
0.3733250561882439
0.3733250562452622
0.3733250565072265
0.3733250559144576
0.373325056369498
0.3733250561423373
0.3733250560225748
0.3733250559289801
0.3733250556165151
0.3733250557309482
0.3733250558090733
0.373325055860822
0.3733250556122102
0.3733250556184124
0.3733250556165154
0.3733250556165154
0.3733250556165152
0.3733250556165154
0.3733250556165154
0.3733250556165163
0.3733250557926265
0.3733250557485709
0.3733250556640136
0.3733250556221108
0.373325055632328
0.373325055660689
0.3733250556556628
0.3733250556470198
)
;
    }
    wall
    {
        type            calculated;
        value           nonuniform List<scalar> 
104
(
0.5094318804795045
0.5100766065737355
0.5099191488056148
0.5165633690212921
0.5181253244728034
0.5178279194803882
0.5178165492174315
0.5267627339832494
0.3520762398632495
0.3601751595222675
0.3695387199641773
0.3725790306931558
0.3731891050684153
0.3733148709568628
0.3733245299062353
0.3733250407875166
0.3733250554718504
0.3733250555960134
0.3733250820021463
0.4319482612875909
0.7231343316622305
0.6968902276802635
0.7177867241415914
0.7301790912725962
0.7315016274331777
0.7316047163623841
0.7316264063704438
0.730900543537898
0.7322119465961766
0.7294648086993766
0.7000063254343165
0.7079176057604789
0.17240676765707
0.03514931374836557
0.06377557416902215
0.06739594377758473
0.06515624875263072
0.06895401985167639
0.0791109508817921
0.05701868881522916
0.07422015866034445
0.1681075526528973
0.2504481321687689
0.3124602915432175
0.1507808066384107
0.08253327587679252
0.07344891505453036
0.08197364329092738
0.08260805457911764
0.0640777774495985
0.0469103508343705
0.04382299185845581
0.04382299185842176
0.04691035083426708
0.06407777744956299
0.08260805457927149
0.0819736432910252
0.07344891505448284
0.08253327587681862
0.1507808066381748
0.3124602915427356
0.2504481321685603
0.1681075526531031
0.07422015866041481
0.05701868881527391
0.07911095088191632
0.06895401985196602
0.06515624875274542
0.06739594377767955
0.06377557416908618
0.03514931374842849
0.1724067676568439
0.7079176057601247
0.7000063254343921
0.729464808699826
0.7322119465966478
0.7309005435378685
0.731626406370894
0.7316047163626268
0.7315016274331284
0.7301790912723383
0.7177867241423371
0.6968902276795929
0.7231343316620121
0.4319482612875978
0.373325082002093
0.3733250555959814
0.3733250554718184
0.3733250407875348
0.373324529906175
0.3733148709575952
0.3731891050682493
0.3725790306921032
0.3695387199643729
0.3601751595220218
0.3520762398634446
0.526762733982964
0.5178165492174018
0.5178279194799659
0.5181253244724684
0.5165633690226902
0.5099191488053022
0.5100766065734887
0.5094318804796636
)
;
    }
}


// ************************************************************************* //
