/*--------------------------------*- C++ -*----------------------------------*\
  =========                 |
  \\      /  F ield         | OpenFOAM: The Open Source CFD Toolbox
   \\    /   O peration     | Website:  https://openfoam.org
    \\  /    A nd           | Version:  11
     \\/     M anipulation  |
\*---------------------------------------------------------------------------*/
FoamFile
{
    format      ascii;
    class       volScalarField;
    location    "0.0425";
    object      T;
}
// * * * * * * * * * * * * * * * * * * * * * * * * * * * * * * * * * * * * * //

dimensions      [0 0 0 1 0 0 0];

internalField   nonuniform List<scalar> 
880
(
300
300
300
299.9999999348582
300
300
299.9999999999998
300.0000041422129
300
300
300
300.0001505716218
300.0000000000001
300
299.9999999999988
300.0000181658542
300
300
299.9999999999999
300
300
300
299.9999999999997
300
300.0000000000649
300.0000000027721
300.0000840181419
299.9994959005623
300.1388910484338
300.8720274534327
301.7037478253168
301.9475372669757
300.000000009782
300.0000000125674
300.000000013946
300.0000000052516
300.0000009680754
300.0000013177613
300.0000014869477
300.0000006931966
300.0022812306075
300.0025213555414
300.0027188118556
300.0022454599085
302.1000504584871
302.2728653859537
302.3158976910889
302.6515396596723
302.5668430832409
301.5401420613446
300.5447718100722
300.090714495901
300.006064557641
300.0044867483311
300.0018744283176
300.0003441166562
300.0000050511437
300.000004040115
300.0000017897577
300.0000003205687
300.0000000570552
300.0000000428808
300.0000000151513
300.0000000015928
299.999999999759
300.0000000000001
300
299.9999999999999
300.0000000153809
300.0000000001411
300.0000000000001
300
300.0000179488293
300.0000001129005
299.9999999820357
299.9999999910835
300.004581525892
300.0000246262028
299.9999944371914
299.9999980543805
299.9999998629116
299.9999999994563
300.0000000000001
300
299.9999983564829
299.9999999385982
299.9999999984822
300
300.0006512081755
300.0000271813459
300.0000000564646
300.0000000005132
299.6901079899673
299.9982068093556
299.9999979251396
299.9999999987567
299.9999999998544
300.0000000551327
300.0006114928873
302.9056142361349
300.0000000371485
300.0000046898271
300.0109534428054
310.8661948786016
300.0000000624848
300.0000081220492
300.0178404280284
314.8636467851908
300.0000000790454
300.0000100886884
300.0208537867337
315.9501432994501
316.7195415035157
300.0240921713973
300.0000125128254
300.0000001011596
317.6110353710951
300.0282654629495
300.0000158314151
300.0000001313674
318.5012165910708
300.0328732634355
300.0000197837899
300.0000001699034
319.842689841243
300.0411216891306
300.0000273655827
300.0000002439966
300.0000001850005
300.0000210842332
300.0371794098273
320.1449230015902
300.0000002030485
300.0000228391064
300.0382670713806
319.720595297533
300.0000002880094
300.0000256975932
300.0387465362332
318.2122444294804
300.0000000980414
300.0000154816195
300.0191237136209
310.3429695578142
299.9999555267126
299.9981583530534
300.0514169889472
306.2333389381587
299.9999963201566
299.9962094441076
299.862654909807
301.6295106693217
299.999999393497
299.9992580450724
299.8342754208967
295.9749890521789
299.9999995126249
299.9992710801376
299.759684226099
292.0723450836829
294.3783615850767
299.8888207928045
299.9996515753128
299.9999995998472
294.1707358259158
299.8970752567476
299.9997117205416
299.9999997093255
295.7588603476897
299.9332229239835
299.9998220090541
299.9999998391994
295.3828156115627
299.9180525873194
299.9997890208505
299.9999997967868
296.4305758230662
299.982524980384
299.9999667241125
299.999999967666
298.8549615718516
299.9978449531613
299.9999975760221
299.9999999987642
299.7942276713195
299.9996179528129
299.9999995813773
299.9999999996658
299.673919912645
299.9990214699688
299.9999986044062
299.9999999976775
299.2118652924903
299.9907230821428
299.9999693549902
300.0000000352187
299.2079359201404
299.9907124857099
299.9999692987786
300.0000000344155
299.1915687748373
299.9906227334999
299.9999687744104
300.0000000222124
299.2058123766918
299.9905978175477
299.9999680376292
300.0000000008088
299.6739199122266
299.9990214696322
299.9999986039115
299.9999999978894
299.7942276707872
299.9996179524108
299.9999995804352
299.9999999997074
298.8549615720001
299.9978449533288
299.9999975760735
299.99999999869
296.430575823631
299.9825249813674
299.9999667241693
299.9999999674015
299.9999996003879
299.9996515766056
299.8888207930431
294.3783615855249
299.9999997097872
299.9997117206538
299.8970752572792
294.1707358258217
299.9999998387125
299.9998220096651
299.9332229240276
295.7588603486375
299.9999997968577
299.999789021139
299.9180525880481
295.3828156110338
292.0723450825797
299.7596842254179
299.9992710793313
299.9999995124055
295.9749890514396
299.83427542033
299.9992580439798
299.9999993924125
301.6295106692482
299.8626549090388
299.9962094442782
299.9999963193984
306.233338938375
300.0514169887813
299.9981583527226
299.9999555281192
300.0000001847552
300.0000210848197
300.0371794100315
320.1449230023749
300.0000002031711
300.0000228394329
300.0382670713811
319.7205952976344
300.0000002885903
300.0000256975404
300.0387465358486
318.2122444294662
300.0000000990499
300.0000154815789
300.0191237133072
310.3429695577054
319.8426898424439
300.0411216885294
300.0000273664589
300.0000002438646
318.5012165920463
300.0328732650106
300.0000197838839
300.0000001700091
317.6110353705766
300.0282654639363
300.0000158322256
300.0000001312802
316.7195415043352
300.0240921700283
300.0000125127524
300.0000001010329
300.0000000001825
300.0000000557447
300.0006114927474
302.9056142353968
300.0000000367433
300.0000046892051
300.0109534431334
310.8661948781782
300.0000000622773
300.0000081220687
300.0178404283658
314.8636467859304
300.0000000788397
300.0000100888685
300.0208537864386
315.9501432992005
299.9999999986978
300.0000000005657
300
300
299.9999979244191
300.0000000563959
299.9999999988235
300.0000000000002
299.9982068096256
300.0000271817239
299.9999999382763
299.9999999993701
299.6901079900146
300.0006512082188
299.9999983565152
299.9999998629302
299.9999999999999
300
299.9999999912532
299.9999980545556
300
300
299.9999999828055
299.9999944372235
300
300.0000000001514
300.0000001124592
300.0000246262771
299.9999999997487
300.0000000154271
300.0000179494982
300.0045815256523
300.0000000564901
300.0000050505666
300.0060645571454
302.5668430831745
300.000000042346
300.0000040401237
300.0044867482457
301.5401420607561
300.0000000150008
300.0000017904722
300.001874428095
300.5447718099833
300.0000000014981
300.0000003208293
300.0003441166132
300.0907144953043
302.6515396598476
300.0022454613752
300.000000692898
300.0000000050063
302.3158976908019
300.0027188134146
300.0000014868326
300.0000000140799
302.2728653872189
300.0025213559205
300.0000013179215
300.000000012413
302.1000504580691
300.0022812274846
300.0000009678443
300.000000009906
301.9475372673321
299.9994959016687
300
300
301.7037478250654
300.0000840170051
300
300.0000000000001
300.87202745375
300.0000000024458
300
300
300.1388910481976
300.0000000001643
300
299.9999999999999
300
299.9999999999999
300
299.9999999539961
300.0000000000002
300
300
300.0000041408466
300
300
300
300.0001505714226
300
300
299.9999999999998
300.0000181655
299.9999825386093
299.9998136076796
299.9996780814683
300.0565744064583
299.9998136117982
299.9987785315554
299.9978595707106
300.0723837818649
299.99967808157
299.9978595695732
300.0466821577438
302.4320149256017
300.0565744073915
300.0723837820366
302.4320149257261
319.2953130580131
347.4829038211415
325.750419319615
313.6337420303519
304.4011567950839
345.2828425369647
338.865602684943
333.4158568133495
321.8227770720366
343.442657720516
343.4712131186079
341.9889566839859
335.2593656401372
344.4725787734209
346.4249418853486
345.7061695212213
339.8362447415741
341.3400442230481
341.6758942154194
341.8048130200633
345.6333621123338
346.7994609376198
346.9778611958181
347.0450187868079
352.7255042958399
347.364358945803
347.5483749119079
347.6259876943492
350.9840876506373
344.8129686301387
344.9183049128395
345.0124012449645
342.8293879327134
330.6513277008079
315.3845678420244
304.6370253512944
300.6563749007699
330.4560150547586
310.4037637742825
302.8385090567426
300.5137824206272
311.0791065611011
299.6663602871391
302.1161663406037
300.855427121742
291.112270829906
296.0578704402262
299.4619155799206
299.8411845220607
300.0271912990501
299.9997135625194
299.9999270851216
299.9999925128779
300.020967591516
299.9991913559038
299.9999499353881
299.9999995658775
300.036860962425
299.9989756300147
299.9998342793187
299.9999971955717
299.9525734639442
299.9952385868002
299.9997173483167
299.9999929720766
299.9999995777429
299.9999999488456
300.0002112513173
298.8038197031817
299.9999998144338
299.999999927282
300.0000968438079
308.3206692828238
299.9999998744057
299.9999999724656
300.0000232608579
321.5718277405341
299.9999999436508
299.9999999932215
300.0000084548201
327.0685307618609
377.5363818465623
407.1138367460312
416.345041240478
417.904356741916
400.9989815787002
413.7292058941963
421.8583857073338
423.4910088412228
405.726409673877
407.8650607702562
414.0813437311211
415.9118649096995
413.7562832030287
405.3389729062935
408.4397192669671
410.4810389329312
418.0835958951299
418.2397046946979
418.3882751715003
418.5356295317644
423.5051734428029
423.4599385753286
423.4044957547307
423.2229208590566
415.9698811955892
415.9469654590141
415.9139700915837
415.7371741331518
410.6634997858164
410.6711443754478
410.6820526982127
410.5117763684696
417.2330323478886
415.226034530611
408.1091577077622
381.8285709745596
423.0138777897423
421.6278649427572
415.4717162309813
404.9598513696686
416.2343048814049
415.5350151496512
410.9887481468839
412.6959496267924
410.4446773093041
409.712114870489
407.2740243249576
395.4731027296184
337.4544528964905
318.9815979770283
233.7512135141555
197.3766562697111
343.3262271507992
286.5027308394461
192.1788843315574
153.95143344675
307.8689370412023
236.6331282627872
157.7307285497403
124.5740215872842
232.5002615674937
152.6012024842616
127.119746244608
109.7795368501844
199.630202095016
200.6040428061058
201.7799146937944
188.7413862282742
150.528561652741
151.6610864291495
157.8303251525147
157.0922048157006
120.870211345285
122.3792937922791
132.6999621415481
153.795170277389
106.1207302068606
107.4570379847327
119.4635252551677
140.2518221422015
269.3181505927769
286.6429197623014
292.3552895883818
289.9789013250478
262.6494132676667
276.9779235983813
282.0416251626965
288.6978572848757
235.0838685857609
272.6897860894159
276.9085285746606
290.8451220050629
185.6181202389095
248.8483817202112
269.7811221730647
276.5316157911496
284.4411203633921
277.5693581192057
270.0991102530487
257.017041579605
251.825325971441
221.1920192894944
234.2412094764334
224.2785588469257
231.6390178666416
155.8625923095021
159.5219904676178
185.1428382706274
186.1603775888019
127.626055516215
103.5614417284696
111.7301238277593
115.7175388463664
102.5234251451939
84.65758133475973
81.34016443709126
179.2466473137073
151.3129166787928
122.4539918542669
118.0996612998132
201.8131532087779
178.9305325323675
170.4749387976832
169.6669287680641
243.9224457158251
236.6922490219829
234.986628504248
234.7448919998056
81.34016443710784
118.0996612998023
169.6669287679722
234.744891999245
84.65758133504266
122.4539918542371
170.4749387975314
234.9866285038147
102.5234251453908
151.3129166789152
178.9305325321287
236.6922490223778
115.7175388464789
179.2466473138178
201.8131532086616
243.9224457155893
257.0170415794347
270.0991102527254
277.5693581187651
284.4411203625789
224.2785588467838
234.2412094765937
221.1920192899287
251.8253259709045
185.1428382706915
159.5219904677624
155.8625923093173
231.6390178664927
111.7301238278551
103.5614417285326
127.6260555163216
186.1603775886621
276.5316157908794
269.7811221728159
248.8483817205735
185.6181202392652
290.8451220047505
276.9085285744612
272.689786089675
235.0838685861514
288.6978572846006
282.0416251623172
276.9779235985197
262.6494132680053
289.9789013247624
292.3552895880302
286.6429197624102
269.318150593118
188.7413862280625
201.7799146941686
200.6040428060506
199.6302020949355
157.092204815768
157.8303251526936
151.6610864292141
150.5285616527286
153.7951702779233
132.6999621416137
122.3792937925706
120.8702113455409
140.2518221425871
119.4635252552366
107.457037984991
106.1207302072723
197.3766562684947
233.7512135132798
318.9815979772807
337.4544528964745
153.9514334463316
192.1788843309753
286.5027308393692
343.3262271505811
124.5740215875762
157.7307285493927
236.6331282628026
307.8689370406099
109.7795368510704
127.1197462441407
152.6012024841109
232.5002615672345
381.8285709742337
408.1091577077382
415.2260345307194
417.2330323481773
404.9598513693996
415.471716230963
421.6278649429422
423.0138777900211
412.6959496265955
410.9887481468709
415.5350151498625
416.2343048817166
395.4731027293885
407.2740243250555
409.7121148706952
410.4446773095876
418.535629531874
418.3882751717407
418.2397046945634
418.0835958953353
423.2229208591016
423.4044957548992
423.4599385753804
423.5051734428657
415.737174133305
415.9139700917769
415.946965459118
415.9698811956536
410.5117763686709
410.6820526984193
410.6711443755699
410.6634997858692
417.9043567416804
416.3450412408106
407.1138367457718
377.5363818465041
423.4910088411349
421.8583857075334
413.7292058940212
400.9989815786184
415.9118649096343
414.0813437312876
407.8650607701824
405.7264096738261
410.4810389328777
408.4397192671594
405.3389729062152
413.7562832029707
298.8038197032241
300.0002112511218
299.9999999487424
299.9999995777882
308.3206692828829
300.0000968437031
299.9999999272401
299.999999814464
321.5718277406037
300.0000232608144
299.9999999724445
299.9999998744296
327.0685307618974
300.0000084548054
299.999999993214
299.9999999436603
299.9999925129698
299.9999270853422
299.9997135625389
300.0271912989685
299.9999995659422
299.9999499356538
299.99919135591
300.020967591388
299.9999971956127
299.999834279584
299.9989756300409
300.0368609621187
299.9999929721162
299.9997173486507
299.9952385865981
299.9525734636446
300.6563749003149
304.6370253512659
315.3845678417399
330.6513277006972
300.5137824203729
302.8385090567428
310.4037637741199
330.4560150546914
300.8554271216367
302.1161663405949
299.6663602870253
311.0791065610583
299.8411845218913
299.4619155799436
296.0578704400434
291.1122708298117
345.6333621122292
341.804813020047
341.6758942157444
341.3400442231647
352.7255042955852
347.0450187867783
346.9778611958556
346.7994609378678
350.9840876503383
347.625987694092
347.548374911465
347.3643589459853
342.8293879324154
345.0124012447299
344.9183049125032
344.8129686302544
339.8362447418067
335.2593656398359
321.8227770723848
304.4011567950766
345.7061695212903
341.9889566838011
333.4158568134831
313.6337420303473
346.4249418854102
343.471213118191
338.8656026850131
325.7504193195803
344.4725787735259
343.4426577201901
345.2828425369717
347.48290382119
299.7170131794461
299.9983375346834
299.9999956656557
300.0000000016556
299.4959541191246
299.9958079997954
299.9999877605605
300.000000007953
299.2360875907551
299.992302419592
299.9999755005654
299.9999999914007
298.8032003325977
299.9883325050498
299.9999640305928
299.9999999821384
300.0000000355834
299.9999693547846
299.9907230822421
299.21186529237
300.000000034689
299.999969299261
299.9907124851179
299.2079359202743
300.0000000218782
299.9999687749486
299.9906227335194
299.1915687744448
299.9999999997578
299.9999680382018
299.9905978152429
299.205812376641
299.9999999820014
299.9999999912077
300.0000000068133
300.00000000043
299.9999640306783
299.9999755005536
299.9999877603472
299.999995665026
299.9883325056899
299.9923024189011
299.9958080005158
299.9983375340842
298.8032003317441
299.2360875901575
299.4959541193509
299.7170131794187
)
;

boundaryField
{
    back
    {
        type            empty;
    }
    inlet
    {
        type            zeroGradient;
    }
    front
    {
        type            empty;
    }
    top
    {
        type            zeroGradient;
    }
    outlet
    {
        type            fixedValue;
        value           uniform 300;
    }
    bottom
    {
        type            zeroGradient;
    }
    wall
    {
        type            zeroGradient;
    }
}


// ************************************************************************* //
