/*--------------------------------*- C++ -*----------------------------------*\
  =========                 |
  \\      /  F ield         | OpenFOAM: The Open Source CFD Toolbox
   \\    /   O peration     | Website:  https://openfoam.org
    \\  /    A nd           | Version:  11
     \\/     M anipulation  |
\*---------------------------------------------------------------------------*/
FoamFile
{
    format      ascii;
    class       volScalarField;
    location    "0.0585";
    object      p;
}
// * * * * * * * * * * * * * * * * * * * * * * * * * * * * * * * * * * * * * //

dimensions      [0 2 -2 0 0 0 0];

internalField   nonuniform List<scalar> 
880
(
80
80
80
80.00000072070145
80
80
79.99999999999991
80.00003291739843
80
79.99999999999999
80
80.00058316347123
80
80
79.99999999992617
80.00067821276097
80
80.00000000000001
79.99999999999994
80.00000000003443
79.99999999999999
80
79.99999999999983
80
79.99999999722296
79.99999998965477
80.00125175764735
79.99530652582608
80.27766009272383
81.43882004910901
82.67503389461153
83.31709308083715
80.00000014753532
80.00000020685818
80.00000023952686
80.00000009061912
80.00000810753319
80.0000124171964
80.00001486391622
80.00000660676004
80.0113756919837
80.01291903002705
80.01460517487438
80.01114844278641
83.6998738294936
84.13697948049571
84.36646994570846
84.63400844451672
84.45920607430229
83.27818956804856
81.98674954496811
80.87034258273897
80.02935793869925
80.03135540834134
80.02443512162108
80.01021454118315
80.00004413531607
80.00004696824921
80.00003582543111
80.00001468935722
80.0000008205614
80.00000076829191
80.00000047407218
80.00000013882187
80.00000001314179
80.00000000009868
80
80.00000000000001
80.00000234809039
80.00000009932197
79.99999999963174
79.99999999974855
80.00179326761031
80.00009101933851
80.00000067371003
79.99999987230782
80.1990068710965
80.0151305451937
80.00022569434211
79.99999611171138
79.99999772744272
79.99999994824933
80.00000000002235
80
79.99999768823942
79.9999998219466
79.99999999230273
80.00000000000797
80.0002029400481
80.00004009080781
80.00000191159209
80.00000003402192
80.0938721689942
79.99280903003539
79.99984073838135
79.99999989014853
79.99999981650583
79.99997246482964
80.00228769266636
85.49020113834995
80.00000053863906
80.00002837107496
80.03678141718508
92.50285309396259
80.00000139692978
80.00008316285034
80.07594867207666
97.52512932851675
80.00000187280182
80.00011267879756
80.09814863179565
100.3903269151971
101.6810770551465
80.11407997441594
80.00014033383279
80.00000240255922
103.1698049045424
80.13774654167648
80.00018421198692
80.00000319268824
104.3616592611526
80.15799005058744
80.00022448178453
80.00000406032974
106.1810815730041
80.2035411511649
80.0003315358251
80.00000616526479
80.0000054854095
80.00029414656895
80.21021903271176
108.2867067401592
80.00000665688344
80.0003573079165
80.24152976420906
109.3113812749029
80.00000872557759
80.0004386539882
80.26128665679246
107.6515398467105
80.0000059337787
80.00027782636872
80.11836004824119
97.38575103167497
79.99986732708594
80.00020247040514
80.239819872403
85.77252688164438
79.99995614552358
79.99597234465273
79.83709623651357
73.39822438626771
79.99999277692064
79.9954348729792
79.45262462621159
63.64481084524981
79.99999282964366
79.99417090893877
78.95433601134845
55.999564409429
56.3635287209114
79.28986267569044
79.99724608836382
79.99999540012773
56.73866684949529
79.37567999503489
79.99769308937201
79.9999964266374
59.96662832959769
79.59925589531994
79.99874470160414
79.99999813566221
59.19309275330144
79.53365877850679
79.99850916350874
79.99999786673128
67.20167015330618
79.86037586906562
79.99965534744926
79.99999949123843
74.61346414679095
79.97585236421844
79.99995792001803
79.99999995117713
78.31697055977175
79.99503510423538
79.99999222970843
79.9999999916667
79.08573870667533
79.99544635111712
79.99998984017427
79.99999998134481
76.65288746624857
79.94797518171011
79.99972126375249
79.99999935998002
76.67972085714759
79.94794053684114
79.99972114841044
79.99999935790753
76.7263558529955
79.94763893861369
79.99971943025346
79.99999933955712
76.92743828717269
79.94845942271469
79.99972001600055
79.99999932105679
79.08573870654423
79.995446350881
79.99998983983615
79.99999998160014
78.31697055937296
79.99503510393157
79.99999222894826
79.99999999173903
74.61346414677986
79.97585236433319
79.99995792001667
79.99999995122982
67.20167015346638
79.86037586971437
79.99965534750454
79.99999949104836
79.99999540059504
79.99724608933404
79.28986267573026
56.3635287209415
79.99999642699946
79.99769308953005
79.37567999536849
56.73866684953307
79.99999813522655
79.99874470206129
79.59925589536172
59.96662833022815
79.999997866828
79.9985091636439
79.53365877922165
59.19309275286559
55.99956440875086
78.95433601098765
79.9941709083775
79.99999282951794
63.64481084468574
79.45262462576305
79.99543487224739
79.99999277604508
73.39822438613422
79.83709623592917
79.99597234465278
79.99995614493277
85.77252688180131
80.23981987224549
80.00020247019351
79.99986732802213
80.00000548518361
80.00029414707664
80.21021903300132
108.2867067407309
80.00000665700378
80.00035730812712
80.24152976420802
109.3113812748512
80.00000872605966
80.00043865399086
80.26128665637206
107.6515398466589
80.00000593463965
80.00027782635514
80.11836004792747
97.38575103158605
106.1810815740853
80.20354115065399
80.00033153656778
80.00000616515636
104.3616592621036
80.15799005158541
80.00022448194044
80.00000406048845
103.1698049047116
80.13774654262288
80.00018421265051
80.00000319255896
101.6810770549629
80.11407997362664
80.00014033383877
80.00000240241351
79.99999981689135
79.99997246533097
80.00228769263533
85.49020113768792
80.0000005382349
80.00002837058499
80.0367814173504
92.50285309388272
80.00000139671135
80.00008316283636
80.07594867255749
97.525129328795
80.00000187253947
80.00011267895333
80.09814863116581
100.3903269157517
79.99999989006527
80.0000000341734
80.00000000000237
80
79.9998407377188
80.00000191149572
79.99999999270442
79.99999999999032
79.99280903018234
80.00004009111117
79.99999982165589
79.9999999481075
80.09387216900575
80.00020294010297
79.99999768826284
79.99999772745413
79.99999999999991
79.99999999975746
79.99999987245806
79.99999611185747
80
79.99999999953646
80.00000067454825
80.00022569436277
80.00000000013492
80.00000009932143
80.0000910188668
80.0151305452689
80.00000001324396
80.00000234796499
80.00179326814236
80.19900687088625
80.0000008199975
80.00004413478446
80.02935793838192
84.45920607413547
80.00000076781936
80.00004696835622
80.03135540833449
83.27818956759964
80.00000047392804
80.00003582611346
80.02443512149469
81.98674954486242
80.00000013868552
80.00001468971752
80.01021454114316
80.87034258239173
84.63400844459045
80.01114844378925
80.00000660639874
80.00000009034878
84.36646994558578
80.01460517606156
80.00001486377597
80.00000023968035
84.13697948134511
80.01291903006192
80.00001241738583
80.00000020669064
83.69987382930894
80.01137568947017
80.00000810732399
80.00000014767761
83.31709308109896
79.99530652744461
80
80.00000000003547
82.67503389438671
80.00125175624453
80
79.99999999999999
81.43882004930524
79.99999998953425
80
79.99999999999999
80.27766009238145
79.99999999715399
80
79.99999999999989
80
79.99999999999997
80
80.00000073288535
80.00000000000003
80.00000000000001
79.99999999999999
80.00003291584966
80
80
80
80.00058316390277
80
80
79.99999999997124
80.0006782126443
79.99995970744506
79.99992447048888
80.00052842219139
80.07213522339958
79.99992448618059
79.99948739444821
79.99898242091669
80.28981910333943
80.00052841577589
79.99898241231804
80.10343374983074
83.01569034753953
80.07213522648577
80.28981910041446
83.01569035046212
98.88652822668008
128.6095229040036
106.6620375882383
95.76196104316503
86.04740512051808
126.1646945979038
120.0908304504694
116.0394247859771
105.4588658947994
123.2390051879963
122.1621567702429
121.7735823173316
117.6544742297535
124.3716611918716
124.2843217130763
125.1003127429385
123.4843645873699
126.3212864436546
126.9533750629987
127.1551738802301
130.0197774530016
127.8414513720747
128.7416085441441
128.9061896034165
133.0453825570234
126.0761882910473
126.729151089561
126.8823836885313
131.6471325491759
126.4718488808021
127.2615183227784
127.4572321785886
128.8064970442787
109.9030859580674
90.78606011014503
83.99612468887368
81.99602619289993
97.99169619639234
79.18029582262329
80.4022706090169
81.08134862769545
85.70613059610145
76.40446478769226
80.42304482875342
81.78326322075121
73.16201793405797
77.07652568155254
80.84627568264153
81.54646762726223
80.66894947438458
80.07320643021062
80.00184223217069
79.99999311743126
80.62363855102311
80.10296937174641
80.00306253391719
79.9999978642733
81.06612365006015
80.19139207252977
80.00642557389357
80.00000772313126
80.41617767512507
79.97712649518222
79.99259366767288
79.99985093478955
79.99999737489989
79.99999702748588
80.00011990485456
89.802194970549
79.99999780979751
79.99999786788139
80.00022573823765
97.44790463154078
79.99999560047199
79.99999832427439
80.00018802096733
103.224893613652
79.99999735788376
79.99999914242292
80.00016712340384
105.8914810485394
175.5729614238325
188.4473604282406
200.4433169446379
208.2027224483224
203.8059817202833
201.0507890651784
206.1433798131906
215.0497461964088
206.7462671800012
199.3411222260239
205.2026071674363
214.2194737037887
221.6506646898918
206.655038304954
208.2678060741112
216.9415450472006
210.1288857389887
210.935068284822
211.2812311541825
211.7088269450136
217.8223674213348
218.2824942512557
218.3012984211165
218.1196827300783
217.9744216442259
218.6391672560563
218.7269294549502
218.5631416415411
221.6330853931256
222.4410710398058
222.4542112761011
222.1768189820819
212.6315721976249
211.1846794178127
199.2855378757299
164.5902203550623
218.941243770714
216.7235769234073
204.7225125798608
177.4460591656405
218.9070862958824
215.8616212247056
202.4648279518264
185.8458110121092
222.4862340646226
220.0574919922449
207.5970497808113
211.3187122815145
99.21388376539808
30.74394835533025
11.44503062458951
7.789324471026096
84.97223231783748
19.21565258254527
8.331354338054174
5.852481982379746
52.93277467357981
13.17533523313602
8.371372562522991
6.569809467437747
30.50104729807039
4.769319218513874
8.523235641054717
8.052542784668546
8.394514339414634
8.468190558953948
9.049407070144781
7.626401775557926
5.431574295843279
5.759198371231156
6.797537982701387
5.569346782217682
6.172539381399123
6.815442246833372
7.79115924161355
6.827597437531821
7.900081298535425
8.873594847255488
9.241511073007885
7.031478282071964
30.12398713249664
49.9828787901105
59.50722540062433
64.98016235967512
22.32374772154929
41.55818573788571
50.18928724421173
61.40169759962861
18.76348009908004
38.41520242893679
46.98684615548284
60.47902264814464
11.58919467864112
25.96539694846414
40.31442010794426
54.22162638616209
50.50376024200938
35.13202412430162
36.49398839059164
36.97301241978489
39.60598924284582
17.83033414575664
10.53700488252757
21.5845405970121
29.93573852543002
11.74563821471229
5.729966442471857
6.428820098675106
18.70933129813984
3.143657890235675
3.386796128408748
6.69028854251496
7.66056298641948
7.558191671073889
7.25426585529622
7.069008018171535
10.74879331303938
14.21913441649945
15.30370336951789
17.54416924758749
26.66347874063887
25.7840854439855
20.81894614638621
14.93376759267976
33.49980589860166
28.92237345087697
22.03711511252431
16.50352505321676
7.069008018165059
17.54416924756859
14.93376759267686
16.50352505319848
7.25426585529877
15.30370336948161
20.81894614638396
22.03711511252409
7.558191671074915
14.21913441649176
25.78408544391707
28.92237345077676
7.660562986427932
10.74879331305172
26.66347874059085
33.49980589845065
36.97301241960943
36.49398839037997
35.13202412414904
50.50376024163884
21.58454059695589
10.53700488255343
17.83033414571846
39.60598924268003
6.428820098683258
5.729966442465709
11.74563821466983
29.93573852535501
6.690288542523782
3.386796128409646
3.143657890233833
18.7093312981103
54.22162638610403
40.31442010802143
25.96539694863417
11.5891946786999
60.47902264800551
46.98684615545353
38.41520242905895
18.76348009911381
61.40169759952012
50.18928724404751
41.5581857379864
22.3237477215371
64.98016235956158
59.50722540042449
49.98287879021062
30.12398713248932
7.626401775449152
9.049407070285076
8.468190558967919
8.394514339379496
5.569346782198609
6.797537982743931
5.759198371261721
5.431574295857
6.827597437538803
7.791159241638469
6.81544224686443
6.172539381414669
7.031478282084524
9.241511073014896
8.873594847285009
7.900081298551603
7.789324470828968
11.4450306243861
30.74394835530018
99.21388376535654
5.852481982355898
8.331354337965909
19.21565258247487
84.97223231737048
6.569809467412764
8.371372562435983
13.17533523312522
52.93277467331668
8.052542784642357
8.523235641021719
4.769319218529965
30.50104729800183
164.5902203548007
199.2855378757632
211.1846794178055
212.631572198162
177.4460591653629
204.7225125798665
216.7235769236765
218.9412437715096
185.845811011897
202.4648279519204
215.8616212252282
218.9070862964516
211.3187122814291
207.5970497811069
220.0574919927481
222.4862340651008
211.7088269456846
211.2812311548511
210.9350682851247
210.1288857385406
218.1196827304723
218.3012984216513
218.2824942516717
217.8223674210235
218.5631416418333
218.7269294552531
218.6391672563246
217.9744216442434
222.1768189822682
222.4542112764565
222.4410710401532
221.6330853927697
208.2027224490585
200.4433169447048
188.4473604281314
175.5729614235892
215.0497461968411
206.1433798133342
201.0507890651201
203.805981720108
214.2194737040561
205.202607167592
199.3411222258697
206.7462671797381
216.9415450475596
208.2678060741829
206.6550383047839
221.6506646895689
89.80219497055818
80.00011990466211
79.99999702734756
79.99999737495399
97.44790463147109
80.00022573800554
79.99999786777285
79.99999780988455
103.2248936135392
80.00018802076559
79.99999832424288
79.99999560054582
105.8914810484189
80.00016712321185
79.99999914242122
79.99999735797503
79.99999311749878
80.00184223224332
80.07320643043917
80.66894947401759
79.99999786431013
80.00306253390465
80.10296937208064
80.6236385504463
80.00000772313858
80.00642557380544
80.19139207295426
81.06612364955549
79.999850934837
79.99259366751582
79.97712649564967
80.41617767441937
81.99602619267988
83.99612468878757
90.78606010979674
109.9030859580239
81.08134862749756
80.4022706089922
79.18029582234651
97.99169619654964
81.78326322050373
80.42304482874653
76.40446478749269
85.70613059626486
81.54646762700142
80.84627568263382
77.07652568141224
73.16201793417795
130.0197774528436
127.1551738799779
126.953375062789
126.3212864440095
133.0453825568016
128.9061896032632
128.7416085439567
127.8414513723413
131.647132549044
126.8823836885451
126.7291510894051
126.0761882909271
128.8064970441773
127.4572321785387
127.2615183227392
126.4718488808937
123.4843645876246
117.6544742293734
105.4588658952592
86.0474051203455
125.1003127431628
121.7735823169633
116.0394247862508
95.76196104427709
124.2843217136136
122.1621567699687
120.0908304507646
106.6620375884424
124.3716611922013
123.2390051877499
126.1646945979373
128.6095229044328
78.99351857399968
79.99221930128812
79.99996925515413
79.99999993824734
78.44653389051493
79.9830618972254
79.99992040769274
79.99999982415883
77.86092569813162
79.96876600315743
79.99983738005677
79.99999960921133
76.50440340554086
79.94519613662381
79.99972220231395
79.99999934268426
79.99999936029144
79.99972126361952
79.94797518160338
76.6528874658262
79.9999993581302
79.99972114878038
79.9479405364098
76.67972085704758
79.99999933924849
79.99971943061372
79.94763893848177
76.72635585283109
79.99999932011634
79.99972001646766
79.94845942131097
76.92743828698556
79.99999934255773
79.99999960902448
79.9999998231678
79.99999993715089
79.99972220238311
79.99983738005501
79.99992040752214
79.9999692546627
79.94519613695138
79.96876600265244
79.9830618977085
79.9922193009086
76.50440340509564
77.86092569765053
78.44653389049137
78.99351857411017
)
;

boundaryField
{
    back
    {
        type            empty;
    }
    inlet
    {
        type            zeroGradient;
    }
    front
    {
        type            empty;
    }
    top
    {
        type            zeroGradient;
    }
    outlet
    {
        type            fixedValue;
        value           uniform 80;
    }
    bottom
    {
        type            zeroGradient;
    }
    wall
    {
        type            zeroGradient;
    }
}


// ************************************************************************* //
