/*--------------------------------*- C++ -*----------------------------------*\
  =========                 |
  \\      /  F ield         | OpenFOAM: The Open Source CFD Toolbox
   \\    /   O peration     | Website:  https://openfoam.org
    \\  /    A nd           | Version:  11
     \\/     M anipulation  |
\*---------------------------------------------------------------------------*/
FoamFile
{
    format      ascii;
    class       volScalarField;
    location    "0.003";
    object      p;
}
// * * * * * * * * * * * * * * * * * * * * * * * * * * * * * * * * * * * * * //

dimensions      [0 2 -2 0 0 0 0];

internalField   nonuniform List<scalar> 
880
(
80
80
80
80
80
80
79.99999999999991
80
80
79.99999999999999
80
80
80
80
80
79.99999999922125
80
80.00000000000001
79.99999999999994
80
79.99999999999999
80
79.99999999999983
80
80
80
80
80
80.00000000696156
80.00000000697558
80.00000000627135
80.00000000577154
80
80
79.99999999999996
80
80
79.99999999999997
80
79.99999999999999
80
79.99999999999991
80
80
80.00000000163982
80.00000000158663
80.00000000161154
80.00000000076552
80.00000004544884
80.00000001661716
80.00000000031119
80
80.00000000000001
79.99999999999989
80
80
80
80
80.00000000000001
80
80
80.00000000000001
80
80
79.99999999999996
79.99999999999997
80
80.00000000000001
80
80.00000000000001
80.00000000000001
80.00000000000001
79.99999999999989
80
79.99999999999989
80
79.99999999999996
80
79.99999999999996
80
80
80
79.99999999999999
80
80
80
80
79.99999999999999
80
79.99999999999989
80
79.99999999999999
79.99999999865183
80
80.00000000000001
79.99999999999999
79.99999999999991
79.99999999999999
79.99999999999989
80.0000000000021
80
80
79.99999999999989
79.99999999999623
80
80
80
79.99999999999984
80
80
80
80.00000000000011
79.9999999999992
80
80
80
80.00000000000051
79.99999999999989
80
80
80.0000000000003
79.99999999999999
79.99999999999997
79.99999999999999
79.9999999999992
80
80
80
79.99999999999993
80
80
80.00000000015172
80
80
80
80.00000000016654
80
80
80
80.00000000023651
80
80
79.99999999989748
79.99999992468933
79.99999999999989
79.99999999999008
80.00000018623628
80.00096911495564
80
80.00000000002652
80.000000141298
80.00094501074547
80
79.99999999999493
80.00000010259468
80.00084634309329
80
80.00000000000826
80.00000007611855
80.00075922246043
80.0008682423
80.00000008937623
79.99999999998101
79.99999999999999
80.00082498837754
80.00000007478062
79.99999999997705
80
80.00077259015151
80.00000006214681
79.99999999997989
80
80.00088921631661
80.00000007160203
79.99999999998956
79.99999999999999
80.00000450914521
80.00000000006722
80
79.99999999999984
79.99999997709743
80
79.99999999999999
80
79.99999999809684
80
80
80
79.99999989403078
80.00000000000217
80
80
80.0000005379344
79.99999999715664
79.99999999999989
79.99999999999993
80.00000053791871
79.99999999717194
79.99999999999999
80
80.00000053855463
79.99999999714154
79.99999999999994
80
80.00000057425632
79.9999999973783
80.00000000000028
80
79.99999989401397
79.99999999999761
79.99999999999999
80
79.99999999808202
80
79.99999999999993
80
79.99999997709445
79.99999999999933
79.99999999999999
80
80.00000450917504
80.00000000009139
80
79.99999999999986
80
79.99999999999186
80.00000008939271
80.00086824231009
80
79.99999999997712
80.00000007479215
80.00082498839393
79.99999999999999
79.99999999998624
80.00000006214634
80.00077259019652
80
79.99999999999027
80.00000007163803
80.00088921628857
80.00075922244039
80.00000007610051
80.00000000000641
79.99999999999999
80.00084634305597
80.00000010257443
79.99999999999099
80
80.00094501073383
80.00000014126738
80.00000000002532
79.99999999999997
80.00096911496672
80.00000018622561
79.99999999998627
80
79.99999999999991
80.00000000000004
80.00000000000001
80.0000000001646
80.00000000000001
80
80
80.00000000016117
80.00000000000003
80
80
80.0000000002314
80
80
79.99999999989377
79.99999992469021
79.99999999999922
80
80
80
80.00000000000094
79.99999999999999
80
80
80.0000000000004
80
80
79.99999999999999
80.00000000000571
80
80
80
80
80
80
80
80
80
80
79.9999999999995
80
80
80
79.99999999999982
79.99999999999999
80
79.99999999999989
80.00000000000027
80
80
80
80
79.99999999999997
80
80
80.00000000000001
80
80
80
80
79.9999999986496
80
80
80
79.99999999999991
80
79.99999999999989
80
80
79.99999999999999
80
79.99999999999999
79.99999999999999
80
80
80
80
79.99999999999999
79.99999999999999
80
80
79.99999999999997
79.9999999999999
80.00000004544269
80.00000000000001
80
80
80.00000001659275
79.99999999999999
80
80.00000000000001
80.00000000031191
80
79.99999999999999
80
80
80.00000000077303
80
79.99999999999999
79.99999999999999
80.00000000160267
80
80
79.99999999999999
80.00000000160045
80
80.00000000000003
79.99999999999993
80.00000000163378
80
80
80
80.00000000578562
80
80
80
80.0000000062644
80.00000000000001
80
79.99999999999999
80.0000000069883
80.00000000000001
80
79.99999999999999
80.00000000695725
80
80
79.99999999999989
80
79.99999999999997
80
80
80.00000000000003
80.00000000000001
79.99999999999999
80
80
80
80
80
80
80
79.99999999999989
79.99999999920909
80
80
79.99999999750885
79.99999953973172
80
79.99999999873988
79.99999998616626
80.00000637954919
79.99999999750989
79.9999999861645
80.00000183917088
80.00555839565185
79.99999953974675
80.00000637955964
80.00555839563857
80.4622842496962
94.50436377725514
81.00761813503711
80.00683147848197
80.00000515384647
95.4946119496182
81.1197231744609
80.00784318153399
80.00000594822035
95.49961617701882
81.11856825883139
80.00783230548632
80.00000593889786
95.50122077101896
81.11675008588026
80.00780166666632
80.00000591162787
80.00000214002189
80.00000205531903
80.0000020553244
80.00000120800479
80.00788539021595
80.00790580054968
80.00790601424248
80.00777676999247
81.17924632181838
81.18188980817702
81.18190240288922
81.22017259145717
96.04741568409202
96.08957027317747
96.08983460011187
97.16042736530859
80.00002955754636
80.00000983451125
80.00000011836914
80.00000000002991
80.00495023240258
80.00016771019364
79.99999980430002
80.00000000074256
80.0557201889909
79.99903605104809
79.99999699228212
80.00000027560415
80.12338805713503
79.98152035996075
79.99985502571839
80.0000050408437
79.99999999999999
79.99999999999996
79.99999999999999
79.99999999999997
79.99999999999208
79.99999999999997
80
80
80.00000000100108
79.99999999990565
80
80
80.00000002282995
79.99999999876393
80.00000000000898
80
79.99999999999997
79.99999999999997
80.00000000000001
79.99999894483696
80
80
79.99999999999996
79.99792639939798
80
80
79.99999999999996
79.74820536894072
80
80
79.99999999999996
76.99432671985058
80.00000001660952
80.00000001807759
80.00000001811615
80.00000001814206
80.00140655487564
80.0015130954517
80.0015155134015
80.0015154721612
81.58439793307572
81.65398516959834
81.65380551514693
81.65375964600696
126.6118157547694
126.8169777572136
126.7125887776613
126.7127124568915
80.00000001813956
80.00000001814743
80.00000001812877
80.00000001824743
80.00151546538588
80.00151546539448
80.00151546540089
80.00152211507211
81.65375978654869
81.6537598199973
81.65375981945017
81.65546988432757
126.7128073675749
126.7128069029984
126.7128068048571
126.7130831342495
80.00000025297403
80.00000022730097
80.00000034658358
79.99992476615274
80.00154677049609
80.00141881893892
80.00156000627194
79.97161614509972
81.51642191145862
81.44896044508617
81.38184026782702
81.2416173355184
124.3265974404312
123.3596621783701
122.2583164595217
129.8110196385929
80.12035241225635
80.13658360218712
80.13608321004131
80.13622954423907
80.38279930320617
80.45317133494055
80.45234011987446
80.45839310744888
73.59156311304285
73.47911972321361
73.49248604720314
73.51049653390231
29.72565351390804
25.34818539675138
25.33104812799569
25.28211663993022
80.22631259738448
80.22990913052061
80.22969608006603
80.24589366051596
80.80429926589836
80.81815589683555
80.81728170155679
80.74529162717225
72.78660848826522
72.78209658391017
72.77508616290024
71.46801248867165
23.03468271715751
22.99000907805988
22.99956491625567
19.77401215496739
80.00208840120055
79.99998287164982
79.99999878651631
79.99992765882453
80.0546776041717
79.999781721484
79.99998178270955
79.99639915733489
80.15331869467394
80.00736279327535
79.9995852716836
79.986528745958
78.8041260171555
79.99373904803753
79.98418114051
80.80863202984325
80.00350222340325
80.00364596952033
80.00363031598638
80.0036760031347
80.11274369487442
80.12360098534744
80.12337222095195
80.12840365917785
79.31944731698147
79.37601990831965
79.37653411923409
79.38515725016103
53.22920632667803
51.36381596730495
51.09069376045203
50.9371412834012
48.6204793476938
48.4609497184448
48.44188011350128
48.44161953225084
79.45796529073679
79.47014175844127
79.47014351141335
79.47013282578202
80.21823082298457
80.22985592008644
80.23002779663379
80.23002805691125
80.00594729783312
80.00616696803544
80.00617183853724
80.00617183701928
48.4416195322498
79.47013282577635
80.23002805691539
80.00617183701804
48.44188011352762
79.47014351138084
80.23002779667782
80.00617183853191
48.46094971844335
79.47014175845068
80.22985592004964
80.00616696802595
48.62047934768845
79.45796529076766
80.21823082296993
80.00594729779934
80.00367600311426
80.00363031597925
80.00364596951275
80.00350222336677
80.12840365914563
80.12337222095515
80.12360098540162
80.11274369482246
79.3851572501632
79.37653411924705
79.37601990831183
79.31944731698255
50.93714128339524
51.09069376045333
51.36381596731126
53.22920632667852
80.80863202984706
79.98418114050577
79.99373904803753
78.80412601714919
79.98652874595693
79.99958527168138
80.00736279327585
80.15331869467902
79.99639915733344
79.99998178266065
79.9997817214833
80.0546776041671
79.99992765882331
79.99999878651487
79.99998287164328
80.00208840119979
80.24589366051255
80.22969608004635
80.22990913050909
80.22631259736316
80.74529162717174
80.8172817015605
80.81815589686822
80.80429926591853
71.46801248870609
72.77508616290069
72.78209658391866
72.78660848827211
19.77401215494926
22.99956491627574
22.99000907804873
23.03468271715648
80.13622954418781
80.13608321007115
80.13658360222195
80.12035241227279
80.45839310749672
80.4523401198864
80.45317133494262
80.38279930319885
73.51049653390156
73.49248604719072
73.4791197232464
73.59156311300303
25.28211663993875
25.33104812796152
25.34818539673533
29.72565351391372
79.99992476615772
80.0000003465977
80.00000022727896
80.00000025298775
79.97161614506815
80.00156000629001
80.00141881894304
80.00154677052242
81.24161733547422
81.38184026782142
81.44896044510041
81.51642191143921
129.8110196385657
122.2583164594998
123.3596621783399
124.3265974403917
80.00000001824378
80.00000001816259
80.00000001814287
80.00000001817024
80.00152211506381
80.00151546543145
80.00151546543871
80.00151546538078
81.65546988429232
81.65375981945925
81.65375982000488
81.65375978652811
126.7130831341717
126.7128068048206
126.7128069029838
126.7128073675575
80.00000001810696
80.00000001812751
80.00000001808215
80.00000001661817
80.0015154721535
80.00151551343116
80.0015130954032
80.00140655492456
81.65375964599454
81.65380551516657
81.65398516959256
81.58439793309051
126.7127124568815
126.7125887776599
126.8169777571766
126.6118157547952
79.99999894483761
80.00000000000001
79.99999999999997
79.99999999999997
79.99792639939629
79.99999999999996
80
80
79.74820536894049
79.99999999999996
80
80
76.9943267198523
79.99999999999996
80
80
79.99999999999997
80
79.99999999999996
80
80
80
79.99999999999997
79.99999999999208
80
80
79.99999999990565
80.00000000100152
80
80.00000000000897
79.99999999876334
80.00000002282428
80.00000000003035
80.00000011836917
80.00000983450951
80.00002955754287
80.00000000074256
79.99999980430002
80.00016771019465
80.00495023239957
80.00000027560421
79.99999699228212
79.99903605104737
80.05572018899116
80.0000050408437
79.99985502571829
79.98152035996067
80.12338805713453
80.00000120803679
80.0000020553083
80.0000020553
80.00000214006019
80.00777676995604
80.0079060142333
80.00790580056518
80.00788539025207
81.2201725914212
81.18190240287555
81.18188980815526
81.17924632184082
97.16042736528672
96.08983460007208
96.08957027312431
96.04741568409345
80.0000059116536
80.00000593889044
80.00000594823101
80.0000051538761
80.00780166663652
80.00783230552078
80.00784318151197
80.00683147847838
81.11675008589748
81.11856825880263
81.11972317444656
81.00761813501855
95.50122077099253
95.4996161769145
95.49461194956515
94.50436377719896
80.00000146806613
79.99999999908255
79.99999999999784
80
80.00000145974137
79.99999999902181
80.0000000000001
80.00000000000004
80.00000144762454
79.99999999905876
80.00000000000027
79.99999999999991
80.00000139185833
79.999999998913
80.00000000000003
80
80
79.99999999999996
79.99999999716245
80.00000053793842
80
80
79.99999999714952
80.00000053794277
80
80
79.99999999715325
80.00000053851544
79.99999999999996
80.00000000000001
79.99999999731189
80.00000057425123
80
79.99999999999999
80
79.99999999999987
79.99999999999822
80.00000000000027
79.99999999999994
79.99999999999997
79.9999999989375
79.9999999990315
79.99999999905336
79.99999999906002
80.00000139183871
80.00000144757736
80.0000014597608
80.00000146807258
)
;

boundaryField
{
    back
    {
        type            empty;
    }
    inlet
    {
        type            zeroGradient;
    }
    front
    {
        type            empty;
    }
    top
    {
        type            zeroGradient;
    }
    outlet
    {
        type            fixedValue;
        value           uniform 80;
    }
    bottom
    {
        type            zeroGradient;
    }
    wall
    {
        type            zeroGradient;
    }
}


// ************************************************************************* //
