/*--------------------------------*- C++ -*----------------------------------*\
  =========                 |
  \\      /  F ield         | OpenFOAM: The Open Source CFD Toolbox
   \\    /   O peration     | Website:  https://openfoam.org
    \\  /    A nd           | Version:  11
     \\/     M anipulation  |
\*---------------------------------------------------------------------------*/
FoamFile
{
    format      ascii;
    class       volVectorField;
    location    "0.0605";
    object      U;
}
// * * * * * * * * * * * * * * * * * * * * * * * * * * * * * * * * * * * * * //

dimensions      [0 1 -1 0 0 0 0];

internalField   nonuniform List<vector> 
880
(
(25 -7.768126373978579e-16 0)
(25 -6.092659824456645e-16 0)
(25 -4.900249797322523e-15 0)
(25.00000011077761 -1.134881559813931e-07 0)
(25 1.210301178234613e-15 0)
(25 -1.417108848000581e-15 0)
(25.00000000000002 -1.54557108124744e-13 0)
(25.00000520319037 -1.450982394227873e-05 0)
(25 0 0)
(25.00000000000001 1.70443568755117e-15 0)
(25 -1.860037315528732e-12 0)
(24.99998260982631 -6.668178289205452e-05 0)
(25 0 0)
(25 -1.058794152545905e-15 0)
(25.00000000008229 -5.76711671560702e-11 0)
(24.99939308557953 -0.0009159365811137044 0)
(25 -8.017325531127636e-16 0)
(25 -7.650887376218163e-16 0)
(25.00000000000001 -1.656687234680001e-14 0)
(25.00000000000002 9.842360344655887e-12 0)
(25 -1.362762620612245e-15 0)
(25 3.01700804014808e-15 0)
(25.00000000000003 9.743553067560182e-15 0)
(25 -1.713260048121306e-14 0)
(25.00000001109807 -9.205690454939649e-09 0)
(24.9999998950694 9.872365579901114e-08 0)
(25.00012523563465 0.0002253007488602695 0)
(24.99967981465125 -0.0009365609626486738 0)
(24.96905003607057 0.03478392172288312 0)
(24.86178500792779 0.1980541834906949 0)
(24.79535969097545 0.406115094661454 0)
(24.80665262808301 0.5354401832748955 0)
(24.99999997237258 -2.439330278561889e-08 0)
(24.99999994999846 -4.018847168029581e-08 0)
(24.99999993733504 -4.814702612499229e-08 0)
(24.99999998233877 -2.109966264388938e-08 0)
(24.99999950511111 1.536639440886476e-06 0)
(24.9999996416424 2.48494444065687e-06 0)
(24.99999971868137 3.001965342112373e-06 0)
(24.99999911199223 1.203828568320696e-06 0)
(24.99955050170016 0.002014009662593985 0)
(24.99948521285083 0.002331168664352906 0)
(24.99953016195434 0.00266000527899277 0)
(24.99900643145284 0.001969308692480655 0)
(24.80780046552689 0.6048977011350529 0)
(24.82092943587007 0.6836356360136365 0)
(24.84076484955719 0.7174304737353538 0)
(24.75232003507777 0.7676294299544243 0)
(24.98307595150331 0.7842717192062106 0)
(25.14785800167743 0.6188582043407899 0)
(25.19595413021562 0.3355223228180857 0)
(25.11747845492597 0.1277719212785353 0)
(24.99945902759292 0.005423516240939571 0)
(24.99989264642818 0.006032494713087324 0)
(25.0003232163688 0.005030332149816579 0)
(25.0007536556144 0.002155655794717168 0)
(24.99999930035595 8.929241356227381e-06 0)
(25.00000025131901 9.862048776129326e-06 0)
(25.00000101780267 7.949880164325097e-06 0)
(25.00000110711745 3.398222921255939e-06 0)
(24.9999998125701 -1.409607819822754e-07 0)
(24.9999997891469 -1.452655600697522e-07 0)
(24.99999983339586 -1.017584210609938e-07 0)
(24.99999992934188 -3.727891314239546e-08 0)
(24.99999998847087 -5.483268505384137e-09 0)
(24.9999999995283 -2.24241050847053e-10 0)
(24.99999999999998 -3.308074345384041e-12 0)
(24.99999999999999 -4.789495334887243e-14 0)
(25.00000030385404 5.686156804955935e-07 0)
(25.00000001863439 2.636840199060056e-08 0)
(25.00000000018387 2.365816101351005e-11 0)
(24.99999999998471 -6.93524046542768e-11 0)
(25.00025462862868 0.0003783549821204948 0)
(25.00001877390054 2.028849930259146e-05 0)
(25.0000002385186 1.882558836375454e-07 0)
(24.99999999453309 -2.475091673681078e-08 0)
(25.03325452225171 0.02837620327447335 0)
(25.00329633010706 0.002413803355819111 0)
(25.00007299667731 4.706690512193182e-05 0)
(24.99999989169754 -5.644696733911526e-07 0)
(24.99999974073632 -3.353215310308204e-07 0)
(24.99999999714672 -1.089580950774171e-08 0)
(24.99999999997105 -1.753103488641589e-11 0)
(25 3.896333813088166e-14 0)
(24.99999985628927 -5.54654300137952e-07 0)
(24.99999999754747 -3.139029236317617e-08 0)
(25.00000000008599 -1.337431078260133e-09 0)
(24.99999999999451 -2.322210077929649e-11 0)
(24.99993224702732 3.663860246229283e-05 0)
(24.99999769743929 5.569192543081673e-06 0)
(24.99999991680569 3.315441526552849e-07 0)
(24.99999999288527 -4.694487880480173e-09 0)
(25.00402441571087 0.03305166792891151 0)
(25.00066034964147 -0.0009173707279930653 0)
(25.00000564178824 -3.204702621065652e-05 0)
(24.99999999855124 -3.167593876341467e-08 0)
(25.00000005448159 -4.698585025802297e-08 0)
(24.99999051512519 -8.69626616388978e-06 0)
(24.99891191204592 -0.0004263233071641135 0)
(24.22480902582462 0.347668691578797 0)
(24.99999995633554 -9.935344016445994e-08 0)
(24.99999362968752 4.825402116056289e-06 0)
(24.99433115799704 0.004844920965963989 0)
(23.31790782588907 1.301805489368236 0)
(24.99999971618257 -2.724129668452165e-07 0)
(24.99999386913123 1.584784810382133e-05 0)
(24.99257481688464 0.01199957682077022 0)
(23.15330833310429 2.264605849505849 0)
(24.99999959388443 -3.848299220851208e-07 0)
(24.99999280577597 2.197029385238986e-05 0)
(24.99172550626726 0.01610468194188839 0)
(23.22431196704879 2.701328089613582 0)
(23.15248477297169 2.886361601523234 0)
(24.99015605279434 0.01883727071361905 0)
(24.99999062347191 2.746166168954651e-05 0)
(24.99999948348149 -4.95633423782868e-07 0)
(23.09730650141009 3.046644827945432 0)
(24.98880372149361 0.02268300726273009 0)
(24.99998886132057 3.61189909919461e-05 0)
(24.99999929217249 -6.582227721938112e-07 0)
(22.94879592122923 3.191413567905987 0)
(24.98567849864681 0.02594711640962956 0)
(24.99998341669495 4.386716359039958e-05 0)
(24.99999914704567 -8.322387452179193e-07 0)
(22.85165034966102 3.407805961909019 0)
(24.98369212922238 0.0340872651461011 0)
(24.99998118202305 6.656135794981496e-05 0)
(24.99999861956657 -1.265472740016496e-06 0)
(24.99999871803491 -1.219808373672091e-06 0)
(24.99998211003258 5.905489744009933e-05 0)
(24.98210934525373 0.0350510709114159 0)
(22.69063353749787 3.704245766024486 0)
(24.99999847545252 -1.462167409779449e-06 0)
(24.99997550645622 7.221735078084644e-05 0)
(24.97918567864998 0.04082204121000856 0)
(22.66153674569972 3.849413746857956 0)
(24.99999804748753 -1.920270812803887e-06 0)
(24.99997236197235 9.014332788458758e-05 0)
(24.97826848542078 0.04454568022544411 0)
(22.8354458282371 3.700137969885149 0)
(24.9999984798335 -1.387497821398455e-06 0)
(24.9999773504972 6.220730020069217e-05 0)
(24.97886476901291 0.03172468394395789 0)
(23.78802815538198 2.653450844726466 0)
(24.99999205978881 -2.087771065957957e-05 0)
(25.00027050336719 1.832646254870431e-08 0)
(25.03577558807577 0.03165009155677546 0)
(25.50506081959065 1.405601348706757 0)
(25.00000085474756 -6.094215550318688e-06 0)
(24.99966266480151 -0.000617397522992112 0)
(24.99526718236209 -0.02879599849377504 0)
(25.16120758650555 -0.6343432412041414 0)
(24.99999917063302 -1.495176819372241e-06 0)
(24.9993917095096 -0.0006629784516378847 0)
(24.92746195534978 -0.0595729708320338 0)
(23.41727564079741 -1.427908758481994 0)
(24.99999903106541 -1.221431421687206e-06 0)
(24.99899385034269 -0.0006356805293523505 0)
(24.82734077881474 -0.05589306025389498 0)
(21.59972751429353 -0.8225230694970198 0)
(21.29351286273714 -0.396424064589999 0)
(24.87317856239141 -0.05430977450022813 0)
(24.99958094477633 -0.0004352277476999587 0)
(24.99999956688375 -8.458412334399518e-07 0)
(21.55483064101554 0.1302895288423818 0)
(24.88774019390637 -0.03460637587726341 0)
(24.99961039316695 -0.0003065456664275254 0)
(24.99999957935518 -6.185464701109024e-07 0)
(22.15138514516745 0.0129435089036191 0)
(24.93023755182755 -0.02969100958534863 0)
(24.99982055257553 -0.0001896844048330318 0)
(24.9999998381797 -3.389856178466608e-07 0)
(21.89821225057554 0.1628269606847797 0)
(24.91364078692853 -0.02910240213590397 0)
(24.99975439610314 -0.0002122877718284714 0)
(24.99999976408424 -3.827527123077672e-07 0)
(23.10578299703837 0.3620821055195924 0)
(24.96788492266352 -0.00990647055564684 0)
(24.99993072472055 -5.144330578940756e-05 0)
(24.99999993247912 -9.077336273837222e-08 0)
(24.26601387007724 0.2237146003490352 0)
(24.99414029207352 -0.002540456004346289 0)
(24.99999211928023 -7.168319452597807e-06 0)
(24.99999999363537 -9.467128157536469e-09 0)
(24.84869591842406 -0.01647989682321215 0)
(24.99952865217318 -0.000764390825516178 0)
(24.99999961016907 -1.511491567444328e-06 0)
(24.99999999979804 -1.775299712423311e-09 0)
(25.00901393315864 -0.1408351054048045 0)
(25.00035460422709 -0.001048026023495033 0)
(25.00000115480711 -2.759229160695358e-06 0)
(24.99999999988825 -4.200884765512821e-09 0)
(24.53972951173462 -0.002283839550400219 0)
(24.99089575983126 -9.077288396005874e-06 0)
(24.99994723678217 -1.807216773443388e-08 0)
(24.99999986935021 -2.476739788122464e-12 0)
(24.54104255913861 -0.01108414910663733 0)
(24.99093073961259 -2.442714773457521e-05 0)
(24.99994725619803 5.51254399994112e-09 0)
(24.99999986899396 4.27153704917656e-10 0)
(24.538296398886 -0.03059119631151831 0)
(24.99096211968096 -5.432282816757753e-05 0)
(24.99994706874319 1.472191834394735e-07 0)
(24.99999986620255 2.250661258893777e-09 0)
(24.52684575031161 -0.01882673980606463 0)
(24.99096856906451 0.0001821955666964289 0)
(24.99994702794518 1.025211943427874e-06 0)
(24.99999986294035 3.780785590398268e-09 0)
(25.00901393321646 0.1408351053969361 0)
(25.00035460427066 0.001048026035707528 0)
(25.0000011548692 2.759234999417633e-06 0)
(24.99999999984039 4.222008531432962e-09 0)
(24.84869591848899 0.01647989684164076 0)
(24.99952865222585 0.0007643908223454057 0)
(24.99999961028916 1.5115141614251e-06 0)
(24.99999999978546 1.774362340421108e-09 0)
(24.26601387008161 -0.2237146002607292 0)
(24.99414029205469 0.002540456046685534 0)
(24.99999211927311 7.168351339287251e-06 0)
(24.99999999363366 9.464942399871333e-09 0)
(23.10578299694429 -0.3620821055682601 0)
(24.96788492254575 0.009906470552349738 0)
(24.99993072470778 5.144329916418696e-05 0)
(24.99999993250755 9.077071525781324e-08 0)
(24.9999995667952 8.458113682493257e-07 0)
(24.99958094461281 0.000435227822242915 0)
(24.87317856232401 0.05430977444845888 0)
(21.29351286267418 0.3964240646197988 0)
(24.99999957929459 6.185997799806766e-07 0)
(24.99961039315953 0.0003065456554464035 0)
(24.88774019384941 0.03460637590924258 0)
(21.55483064096975 -0.1302895289101798 0)
(24.99999983824982 3.389949888380994e-07 0)
(24.99982055250279 0.000189684382523941 0)
(24.93023755182731 0.02969100960483565 0)
(22.15138514508479 -0.01294350892660451 0)
(24.99999976407646 3.827351487265608e-07 0)
(24.99975439607179 0.0002122877903330896 0)
(24.9136407868384 0.02910240207439365 0)
(21.89821225059463 -0.1628269606079951 0)
(21.59972751436419 0.8225230694168874 0)
(24.82734077890302 0.05589306021911175 0)
(24.99899385043155 0.000635680409334784 0)
(24.9999990311116 1.221396180399145e-06 0)
(23.41727564086454 1.427908758573104 0)
(24.92746195542014 0.05957297083217648 0)
(24.99939170962872 0.0006629784749665675 0)
(24.99999917075881 1.495170340467351e-06 0)
(25.16120758650737 0.6343432412156129 0)
(24.99526718245776 0.0287959985148713 0)
(24.99966266480689 0.0006173975210546195 0)
(25.00000085483542 6.09428461562839e-06 0)
(25.50506081956639 -1.405601348716316 0)
(25.03577558811788 -0.03165009155721579 0)
(25.00027050339808 -1.829484864483341e-08 0)
(24.99999205963853 2.087771148052317e-05 0)
(24.99999871807785 1.219804900699363e-06 0)
(24.99998210994633 -5.905491097623675e-05 0)
(24.98210934520656 -0.03505107091267559 0)
(22.69063353740609 -3.704245766011925 0)
(24.99999847543608 1.462160315074589e-06 0)
(24.99997550641354 -7.221735093363522e-05 0)
(24.97918567863269 -0.04082204119465681 0)
(22.66153674570449 -3.849413746851317 0)
(24.9999980474052 1.920269200071582e-06 0)
(24.99997236197245 -9.014331227189451e-05 0)
(24.97826848549108 -0.04454568020756848 0)
(22.83544582824423 -3.700137969887846 0)
(24.99999847969629 1.387481808614509e-06 0)
(24.99997735049985 -6.220727371679872e-05 0)
(24.97886476905596 -0.0317246839342399 0)
(23.78802815539031 -2.653450844725136 0)
(22.85165034950948 -3.407805961919919 0)
(24.98369212930818 -0.03408726511609115 0)
(24.99998118190201 -6.656137890712622e-05 0)
(24.99999861957858 1.265476747489514e-06 0)
(22.94879592112126 -3.191413567891852 0)
(24.98567849846587 -0.02594711641082545 0)
(24.99998341668449 -4.386717072554346e-05 0)
(24.99999914701783 8.322394300450486e-07 0)
(23.09730650147754 -3.046644827935263 0)
(24.98880372135612 -0.02268300729006336 0)
(24.99998886119204 -3.611900213594055e-05 0)
(24.99999929219848 6.582215898643433e-07 0)
(23.1524847727992 -2.88636160157929 0)
(24.99015605296391 -0.01883727069431637 0)
(24.99999062348651 -2.746166863225671e-05 0)
(24.99999948350504 4.956333829542728e-07 0)
(25.00000005441822 4.698708959961798e-08 0)
(24.99999051503452 8.69626712095325e-06 0)
(24.99891191206548 0.0004263233156990364 0)
(24.22480902592273 -0.3476686915838354 0)
(24.99999995640143 9.935081932297883e-08 0)
(24.99999362978257 -4.825402215203144e-06 0)
(24.99433115792435 -0.00484492098019816 0)
(23.31790782593096 -1.301805489347134 0)
(24.99999971621781 2.724126436469867e-07 0)
(24.99999386912467 -1.584785155873204e-05 0)
(24.99257481689339 -0.01199957683355074 0)
(23.15330833300251 -2.264605849525468 0)
(24.99999959392797 3.848297647600612e-07 0)
(24.99999280575266 -2.197029956972181e-05 0)
(24.99172550627431 -0.01610468192832569 0)
(23.22431196712959 -2.701328089577394 0)
(24.99999999856444 3.167583849605849e-08 0)
(24.99999999285998 4.695520885469789e-09 0)
(24.99999999999381 2.20947341877731e-11 0)
(25 -3.314580249577936e-14 0)
(25.00000564189256 3.204703354887952e-05 0)
(24.99999991682001 -3.315474321843764e-07 0)
(25.0000000000192 1.342583067762161e-09 0)
(24.9999999999908 1.736126815701655e-11 0)
(25.00066034961769 0.0009173707174013238 0)
(24.99999769739248 -5.569185053249515e-06 0)
(24.99999999759347 3.13855860857147e-08 0)
(24.99999999717132 1.089016895831056e-08 0)
(25.00402441570908 -0.03305166792708859 0)
(24.99993224702198 -3.663859657334975e-05 0)
(24.99999985628693 5.546532623338634e-07 0)
(24.99999974073176 3.353188984110678e-07 0)
(25.00000000000002 3.142369479221703e-14 0)
(24.99999999998303 6.989471508890635e-11 0)
(24.99999999450774 2.47351251046952e-08 0)
(24.99999989167016 5.644727587317684e-07 0)
(25 3.441814353302688e-12 0)
(25.00000000019977 -2.414554259176285e-11 0)
(25.00000023838013 -1.882625094316771e-07 0)
(25.00007299667682 -4.706688838160834e-05 0)
(24.99999999951875 2.239462957152439e-10 0)
(25.0000000186346 -2.636835581330577e-08 0)
(25.00001877397872 -2.028846279976291e-05 0)
(25.00329633009566 -0.002413803369195275 0)
(24.99999998845352 5.484563230843226e-09 0)
(25.00000030387026 -5.686242058091422e-07 0)
(25.00025462853655 -0.0003783550241853905 0)
(25.03325452228829 -0.02837620322818252 0)
(24.99999981266361 1.409491948284793e-07 0)
(24.99999930043972 -8.929247792981353e-06 0)
(24.9994590276481 -0.005423516286642744 0)
(24.98307595151213 -0.784271719208512 0)
(24.99999978922349 1.452616237797013e-07 0)
(25.00000025130905 -9.862018178977058e-06 0)
(24.99989264643972 -0.006032494692891462 0)
(25.14785800174488 -0.6188582043566676 0)
(24.99999983342217 1.017702380406373e-07 0)
(25.0000010176955 -7.949869099590436e-06 0)
(25.00032321639096 -0.005030332146949978 0)
(25.19595413023956 -0.3355223228139249 0)
(24.99999992936246 3.728410384197477e-08 0)
(25.00000110705687 -3.398256512712595e-06 0)
(25.00075365561689 -0.002155655750821083 0)
(25.11747845499172 -0.1277719212858522 0)
(24.7523200350324 -0.7676294299120165 0)
(24.99900643128791 -0.00196930879483867 0)
(24.99999911204635 -1.203840022942165e-06 0)
(24.99999998238428 2.10890014217294e-08 0)
(24.84076484959449 -0.7174304737337595 0)
(24.99953016175746 -0.002660005299252706 0)
(24.99999971870206 -3.001962009929674e-06 0)
(24.99999993731192 4.815122393301981e-08 0)
(24.82092943575959 -0.683635636089879 0)
(24.99948521275029 -0.002331168532326653 0)
(24.99999964164179 -2.484972881702968e-06 0)
(24.99999995002347 4.019260491268999e-08 0)
(24.80780046555787 -0.6048977011146687 0)
(24.99955050200288 -0.002014009311641844 0)
(24.99999950512256 -1.53661826688966e-06 0)
(24.99999997234949 2.438989287773043e-08 0)
(24.80665262804638 -0.5354401832683939 0)
(24.99967981467475 0.0009365605660205794 0)
(25 -4.077521335089053e-14 0)
(25.00000000000001 -9.752212295404858e-12 0)
(24.79535969098848 -0.406115094667268 0)
(25.00012523570301 -0.0002253005904579222 0)
(25 5.786810595746405e-16 0)
(25.00000000000001 2.111881441220812e-14 0)
(24.86178500787451 -0.1980541834549403 0)
(24.99999989510192 -9.872732029391137e-08 0)
(25 2.539751777109649e-16 0)
(25.00000000000001 3.587211465579989e-15 0)
(24.9690500360658 -0.03478392167024334 0)
(25.00000001108994 9.200945481167284e-09 0)
(25 -1.590451994046293e-15 0)
(25.00000000000002 -5.194533672610467e-15 0)
(25 1.420908939734042e-15 0)
(25 2.124775541703409e-15 0)
(25 4.450306277593621e-15 0)
(25.00000010944989 1.14839963452292e-07 0)
(24.99999999999999 -2.843418720158383e-19 0)
(25 1.642481228788656e-15 0)
(25 1.351127150648542e-13 0)
(25.00000520336716 1.450849089230691e-05 0)
(25 -1.366459512028481e-15 0)
(25 -1.577985894052391e-15 0)
(25 2.110982212400187e-12 0)
(24.99998261023096 6.668171359181091e-05 0)
(25 -1.430298766512638e-15 0)
(25 -4.45302963139364e-16 0)
(25.00000000007597 5.996976546493601e-11 0)
(24.9993930856978 0.0009159365443488264 0)
(25.00000685917096 1.521232076429745e-09 0)
(25.00001876867361 1.799625413966138e-05 0)
(25.00008783061891 0.0001695217461743197 0)
(25.00039521520204 -0.002195467546095177 0)
(25.0000187676554 -1.799603032885493e-05 0)
(25.00008039368456 -1.107503040095995e-09 0)
(25.00045751243975 -0.0007626128073596901 0)
(24.94441275662605 -0.04501515718886964 0)
(25.00008783170345 -0.0001695198577538451 0)
(25.00045751217648 0.0007626125274202391 0)
(24.98428666114722 1.396074964358422e-09 0)
(24.55650646618306 -0.1128111012796958 0)
(25.0003952148439 0.002195467949874469 0)
(24.94441275663892 0.04501515547342438 0)
(24.5565064666006 0.1128111022589044 0)
(22.39390880085351 -2.527444230803517e-10 0)
(20.14470667170985 2.421746601151676 0)
(21.23558748204804 3.022918864741142 0)
(23.61365281676575 1.951294941761833 0)
(24.52988842187179 0.7710359895887123 0)
(20.70042156283372 4.590162580391081 0)
(20.96515897280113 4.733608917979764 0)
(22.18041639476303 4.273592846530747 0)
(23.21599162533563 3.141722611139764 0)
(21.49693856651639 5.381229567931008 0)
(22.06708325006161 5.277950097598937 0)
(22.58675587984419 5.140368324278848 0)
(23.11551040218272 4.670885738021219 0)
(22.0167495838979 5.451806017004688 0)
(22.98770871273788 5.66622476032672 0)
(23.16548486432548 5.621283225297131 0)
(23.40630878967099 5.363097791916945 0)
(23.56021080162014 5.71246151059425 0)
(23.63567544082079 5.81787898918367 0)
(23.66354221496175 5.830093958846848 0)
(23.42557378812241 6.092133046520968 0)
(23.55087894235145 5.920587666762653 0)
(23.71339802292525 6.001574498765232 0)
(23.75573306351181 5.999279519507109 0)
(23.69501830577471 6.490934943635491 0)
(23.51776542453825 5.786653070131293 0)
(23.71739086946072 5.801202101267774 0)
(23.75585880044286 5.795090537619561 0)
(24.87896346568952 6.430568935209928 0)
(22.18515405624935 5.50039173886239 0)
(22.26976576728663 5.502583118071431 0)
(22.28913121123924 5.503586624291296 0)
(26.33750149943367 7.524408305227754 0)
(25.55961554433751 4.526734539554334 0)
(27.01003294404545 1.712529991829587 0)
(26.32087344770555 0.2906564360246641 0)
(25.55887398070635 0.08726002589120987 0)
(27.09825596115913 3.61913835266455 0)
(28.48959241125712 0.3078676819332033 0)
(26.79140275278981 -0.281208876849685 0)
(25.79914855386554 -0.1353134274544249 0)
(29.2656871294122 2.16907845072001 0)
(28.06668101895565 -0.5662375091995375 0)
(26.96570265822626 -0.5138906954092306 0)
(26.06863674195341 -0.2804182468622338 0)
(21.50156482043202 1.801251776955344 0)
(21.67548489654592 1.006532942347658 0)
(22.96423608517589 -0.05320383195317231 0)
(24.09604230819701 -0.3606459431410511 0)
(25.14115253304479 0.0433122570867626 0)
(25.01753364326276 0.005053221610544648 0)
(25.00067489596172 7.346613065689544e-05 0)
(25.00000419030322 -3.163278629293186e-06 0)
(25.26905970296456 -0.01842247647508787 0)
(25.0398052505258 0.002963152431745122 0)
(25.00179563951904 0.0001247425114667348 0)
(25.00001506652272 -4.382423572485281e-06 0)
(25.46047482096424 -0.1083445708752821 0)
(25.08601185683439 -0.02276270536540009 0)
(25.00454747431893 -0.001409243370070595 0)
(25.00004381421245 -2.203834296238491e-05 0)
(24.65171114784364 -0.180744278064789 0)
(24.93159234863207 -0.03989999908717352 0)
(24.99560329189108 -0.002880406819109017 0)
(24.99998912540007 -4.225791867052812e-05 0)
(24.99999946486557 -7.963367844080836e-07 0)
(25.00000001811842 3.033761136646586e-07 0)
(24.99998242523666 -1.133956704363376e-05 0)
(24.23977697911558 1.378910407805542 0)
(24.9999994459667 -4.906754001161373e-07 0)
(24.99999993845658 2.486688028086311e-07 0)
(24.99999844896812 -3.184453448375215e-05 0)
(22.87671739429317 1.875100926886384 0)
(24.99999952426116 -1.201827168832452e-07 0)
(24.99999981307996 9.292450195669574e-08 0)
(25.00000376015116 -3.158146620249289e-05 0)
(21.37100537249903 1.397486059853728 0)
(24.99999933934634 4.436108704897478e-08 0)
(24.99999982038252 -3.739672540644303e-09 0)
(24.99999310756458 6.919457251604237e-06 0)
(18.61024796017385 -0.07088545902644759 0)
(16.57705814948678 6.866424983973609 0)
(17.20108131834983 8.864015136862015 0)
(17.70101962601159 10.07963055059993 0)
(17.94810624647384 10.77895614156186 0)
(13.71605529493953 7.223392103478942 0)
(15.86705212067424 9.323257127876241 0)
(17.07832303446513 10.66013203745456 0)
(17.58302112593768 11.36498983435482 0)
(11.76370938581507 6.705239311087408 0)
(14.62489982033894 9.242707564168164 0)
(16.48001445241156 10.7023359846092 0)
(17.22606495666354 11.34659456848805 0)
(11.06434046578872 4.672170872033982 0)
(13.48390802770892 7.878566840013107 0)
(14.31356746145712 9.984553735643361 0)
(15.14010950363917 10.54783727712383 0)
(17.99644944033254 10.97763728678615 0)
(18.01206758183551 11.00100828303849 0)
(17.96883106376924 11.01568207008835 0)
(17.96686289116183 11.03651182378425 0)
(17.70997461924971 11.55724295407799 0)
(17.75149505496539 11.55905660760701 0)
(17.75242277951272 11.55196010735239 0)
(17.78687679905592 11.53708858040422 0)
(17.36099261962373 11.53006889237126 0)
(17.38082320785143 11.55184048035537 0)
(17.37981694064296 11.55837691405879 0)
(17.39556710585275 11.55818957492867 0)
(15.59611398546303 10.65174611931289 0)
(15.66774536265318 10.65914773273353 0)
(15.66926464311038 10.65398038536509 0)
(15.60934554785866 10.62305921256818 0)
(17.79890534569595 11.13960283315814 0)
(17.90089130533268 11.08676895144127 0)
(18.63165570411011 10.49413725135704 0)
(20.3962020118938 8.490238282346109 0)
(17.76855480878192 11.49538426732898 0)
(17.96697231966525 11.36765987436555 0)
(18.85912927066999 10.90828430665367 0)
(20.93024210372673 10.32015270200104 0)
(17.41869262584358 11.51379504245772 0)
(17.64452847836648 11.39230811972741 0)
(18.91155024078467 11.22920043224512 0)
(25.1443855949143 14.74126751971008 0)
(15.81538734111422 10.65416247108682 0)
(16.05904360789577 10.57577525977758 0)
(18.36686569912149 11.37484565537412 0)
(33.62747458792732 19.54550659635646 0)
(25.00712047890543 4.234515817785652 0)
(23.19209536936583 -4.105055756041485 0)
(6.022072197793636 -4.678969859459128 0)
(2.430089510943495 -0.5447946307393755 0)
(24.99217974268112 4.277021658951544 0)
(18.32905238116871 -5.567460943826368 0)
(0.7877231677474514 -5.756870870971034 0)
(-3.480994541053546 -0.9748617757191677 0)
(25.61157919302912 1.216581519906914 0)
(11.1469449122688 -9.219636550274208 0)
(-1.296706387569394 -4.963122604485599 0)
(-1.532589265468857 -1.060619103133814 0)
(15.2223386995259 -6.480631125153582 0)
(4.452143033181116 -2.484245329158413 0)
(-2.886266634259501 -2.364481274844742 0)
(-1.712007073514456 -0.9320584556400437 0)
(2.153291750728059 -0.03615466214139119 0)
(2.616430406037456 0.3556563881944299 0)
(3.498924294763969 0.7585049916409395 0)
(2.387064144107522 2.762166735564016 0)
(-3.905037035337783 0.02109460217940869 0)
(-3.297936913066552 1.285687431382693 0)
(-1.416645748318594 2.962612443680101 0)
(-0.7716190906264717 5.119090398044277 0)
(-1.555409816344163 -0.04703698008100868 0)
(-1.069343696824413 1.569080031457774 0)
(0.2803508034708048 4.083797628189028 0)
(-0.1105679716628282 6.841523085200163 0)
(-1.726632931399272 -0.06532627776138425 0)
(-1.67238476863103 1.431277119308774 0)
(-0.5739255560991479 4.340541788791395 0)
(-0.3249909434678306 7.738440704303764 0)
(18.7867528499822 -5.671855532762174 0)
(22.30462560051295 -3.889416300695187 0)
(23.90829464720776 -3.154489103644215 0)
(24.79906568959414 -2.610198933522384 0)
(12.85211458026487 -5.588857731676988 0)
(18.71442934168208 -5.225712305841261 0)
(22.07470312436821 -4.778817452839059 0)
(24.79683019747996 -2.858164766663167 0)
(4.349690770238684 -3.509402709318294 0)
(12.27878469736176 -3.460277229139376 0)
(18.44039024855256 -5.188888299951944 0)
(26.51183748845435 -2.452815361327219 0)
(2.624613228699852 1.548794260027797 0)
(6.931065920057071 3.782583184656474 0)
(15.39276646114352 2.141692983509108 0)
(31.61784538739122 -0.6442104009485347 0)
(25.84955223181359 -5.829568184342427 0)
(28.65208012916363 -10.51590456302604 0)
(21.27461252945974 -11.78927366137586 0)
(14.05126370581926 -11.40655736016332 0)
(27.43933344825655 -9.081572402379518 0)
(30.50977361244188 -14.77501151291581 0)
(26.03477178050849 -15.98322032511941 0)
(12.48789510066411 -15.26596809906745 0)
(28.49124694525363 -9.592187748776118 0)
(26.52518085155536 -19.09958403226913 0)
(22.7154389759993 -15.04690454873636 0)
(10.28088505583315 -10.42856137274201 0)
(18.43554293788168 -11.68707954530065 0)
(10.20210112342596 -10.75904695343763 0)
(4.399948121968808 -13.39397638879571 0)
(1.420693797934597 -9.735527194924771 0)
(0.03318138653201211 -7.101339944981212 0)
(-0.884895932511932 -6.60165621869658 0)
(-1.265077486554701 -6.473604462450612 0)
(-1.560078245267173 -3.267228587350825 0)
(2.82611876912083 -10.32957682860247 0)
(-0.5320684458646551 -11.3997667292165 0)
(-0.8979822873938439 -10.97903408113543 0)
(-0.9644984827876276 -5.592391498760947 0)
(6.656345649027386 -13.11271024500728 0)
(4.567606889938334 -12.46307366172635 0)
(2.866535052861978 -11.24520141302765 0)
(1.502510517625957 -4.850641771357286 0)
(10.02249571346967 -10.36275016473208 0)
(8.489043608950613 -8.897396176701495 0)
(7.604674573636624 -6.230096100932071 0)
(6.869916211910784 -1.659136725984426 0)
(-1.560078245265022 3.267228587371422 0)
(-0.9644984827745718 5.592391498761807 0)
(1.502510517640825 4.850641771335163 0)
(6.869916211884918 1.659136725926942 0)
(-1.265077486553689 6.473604462461477 0)
(-0.8979822873835336 10.97903408115283 0)
(2.866535052883947 11.24520141301149 0)
(7.604674573645185 6.230096100902193 0)
(-0.8848959325123411 6.601656218701654 0)
(-0.5320684458541105 11.39976672922371 0)
(4.567606889963586 12.46307366174298 0)
(8.489043608965991 8.897396176702729 0)
(0.03318138653883271 7.101339944970925 0)
(2.826118769112091 10.32957682858673 0)
(6.656345649053234 13.11271024500963 0)
(10.02249571349007 10.36275016473483 0)
(14.05126370582371 11.4065573601695 0)
(21.27461252950422 11.78927366133473 0)
(28.65208012923585 10.51590456300358 0)
(25.84955223191053 5.829568184371023 0)
(12.48789510066398 15.26596809908909 0)
(26.03477178044032 15.98322032510023 0)
(30.50977361245556 14.77501151289392 0)
(27.43933344830763 9.081572402372551 0)
(10.28088505582247 10.42856137273101 0)
(22.71543897597949 15.04690454870972 0)
(26.52518085157261 19.09958403227898 0)
(28.49124694527857 9.59218774877505 0)
(1.420693797933193 9.735527194908432 0)
(4.399948121969093 13.3939763887919 0)
(10.20210112339704 10.75904695345721 0)
(18.43554293787737 11.6870795452988 0)
(31.61784538741177 0.6442104009529703 0)
(15.39276646115602 -2.141692983482098 0)
(6.931065920089083 -3.782583184620875 0)
(2.624613228679781 -1.548794260038118 0)
(26.51183748849764 2.452815361322095 0)
(18.44039024860016 5.188888299961331 0)
(12.27878469737508 3.460277229189842 0)
(4.349690770211212 3.509402709278535 0)
(24.79683019752813 2.858164766652702 0)
(22.07470312444059 4.77881745286344 0)
(18.71442934168862 5.225712305901252 0)
(12.85211458019456 5.588857731643151 0)
(24.79906568964708 2.610198933511305 0)
(23.90829464726818 3.154489103657701 0)
(22.30462560051475 3.889416300769352 0)
(18.78675284990106 5.671855532720829 0)
(2.387064144130269 -2.762166735482736 0)
(3.498924294695956 -0.7585049916250839 0)
(2.616430406013955 -0.3556563882635356 0)
(2.153291750724735 0.03615466213761463 0)
(-0.771619090596503 -5.119090398043403 0)
(-1.416645748362935 -2.962612443645094 0)
(-3.297936913058295 -1.285687431407929 0)
(-3.905037035308302 -0.02109460218289741 0)
(-0.110567971643118 -6.841523085213441 0)
(0.2803508034570061 -4.083797628182836 0)
(-1.069343696815028 -1.56908003145979 0)
(-1.555409816314907 0.04703698008185223 0)
(-0.3249909434699841 -7.738440704318824 0)
(-0.5739255560974168 -4.340541788805895 0)
(-1.672384768623712 -1.431277119304867 0)
(-1.726632931383909 0.06532627776168985 0)
(2.430089511007018 0.5447946306636192 0)
(6.022072197757573 4.678969859523971 0)
(23.1920953692297 4.105055756069214 0)
(25.00712047890207 -4.234515817789111 0)
(-3.480994540908589 0.9748617756663546 0)
(0.7877231677272349 5.756870870976112 0)
(18.32905238111218 5.56746094378556 0)
(24.99217974275474 -4.277021658949741 0)
(-1.532589265352357 1.060619103095726 0)
(-1.296706387563063 4.963122604428335 0)
(11.14694491220334 9.21963655024188 0)
(25.61157919306725 -1.216581519948645 0)
(-1.712007073453464 0.9320584556159882 0)
(-2.886266634249722 2.364481274800098 0)
(4.452143033129597 2.484245329182317 0)