/*--------------------------------*- C++ -*----------------------------------*\
  =========                 |
  \\      /  F ield         | OpenFOAM: The Open Source CFD Toolbox
   \\    /   O peration     | Website:  https://openfoam.org
    \\  /    A nd           | Version:  11
     \\/     M anipulation  |
\*---------------------------------------------------------------------------*/
FoamFile
{
    format      ascii;
    class       volScalarField;
    location    "9.3";
    object      p;
}
// * * * * * * * * * * * * * * * * * * * * * * * * * * * * * * * * * * * * * //

dimensions      [0 2 -2 0 0 0 0];

internalField   nonuniform List<scalar> 
5472
(
110.07692
108.33983
106.65577
104.96919
103.28721
101.66463
100.10391
98.616517
97.183549
95.870072
94.666407
93.556757
92.581371
91.736168
91.053162
90.496898
90.096808
89.794572
89.630418
110.42584
108.82721
107.25981
105.71127
104.1346
102.584
101.0871
99.645757
98.243799
96.938684
95.752465
94.653475
93.682381
92.830225
92.123336
91.506105
91.047203
90.768127
90.578339
110.68949
109.29355
107.85224
106.37088
104.92384
103.47637
102.03566
100.63635
99.278146
98.001785
96.815329
95.730631
94.750936
93.885031
93.145314
92.513619
92.05391
91.72891
91.529608
110.94595
109.66726
108.33838
106.99518
105.65509
104.28747
102.93045
101.58959
100.26677
99.0222
97.854004
96.77043
95.783491
94.92058
94.153664
93.515148
93.03246
92.677861
92.467989
111.12036
109.95833
108.76365
107.54122
106.30697
105.05317
103.75617
102.44755
101.19565
99.975312
98.830719
97.762989
96.781226
95.913559
95.138885
94.502471
93.977156
93.615841
93.384633
111.24949
110.17368
109.09877
108.02942
106.91158
105.72177
104.49943
103.27792
102.07371
100.88463
99.771012
98.723196
97.760035
96.877078
96.107347
95.450887
94.912573
94.541084
94.281156
111.30274
110.35276
109.39002
108.42959
107.39973
106.30881
105.18589
104.0217
102.8745
101.73989
100.66059
99.629227
98.672818
97.805358
97.032152
96.354872
95.827904
95.41908
95.154213
111.33467
110.47661
109.62719
108.74165
107.82825
106.85414
105.78569
104.70802
103.62095
102.53173
101.49173
100.49075
99.567867
98.696502
97.925549
97.278553
96.719216
96.296092
96.023237
111.33691
110.59489
109.8028
109.00861
108.17982
107.29005
106.34371
105.33194
104.27394
103.26098
102.26652
101.30561
100.39999
99.5351
98.763692
98.077726
97.558736
97.133534
96.842369
111.28166
110.62274
109.94314
109.22712
108.4734
107.67591
106.79662
105.86411
104.90328
103.94277
102.98159
102.06025
101.17857
100.36258
99.600371
98.954174
98.391275
97.942858
97.639886
111.24131
110.63703
110.02231
109.39969
108.73566
108.00279
107.20376
106.34765
105.45417
104.54552
103.63734
102.75559
101.89454
101.09457
100.34457
99.714161
99.1556
98.724958
98.409306
111.13907
110.61951
110.10012
109.55063
108.94133
108.27674
107.55098
106.76264
105.94334
105.10539
104.25841
103.41482
102.59462
101.80751
101.07361
100.44097
99.887959
99.466558
99.129143
111.02939
110.59553
110.14123
109.64429
109.10727
108.50841
107.85085
107.12787
106.36516
105.58476
104.78509
103.98609
103.21035
102.45305
101.76731
101.14061
100.59768
100.16731
99.822648
110.924
110.53483
110.13537
109.70707
109.23395
108.70131
108.11078
107.45286
106.76258
106.04444
105.29405
104.53429
103.78399
103.04384
102.36731
101.76365
101.24169
100.80785
100.46944
110.83463
110.49169
110.13153
109.75521
109.32996
108.8465
108.30417
107.70784
107.07702
106.42038
105.73334
105.02641
104.31416
103.61632
102.97672
102.37401
101.85556
101.42112
101.07475
110.68404
110.40551
110.11436
109.79593
109.42307
108.99223
108.50044
107.95657
107.37013
106.75941
106.11425
105.44877
104.77191
104.11017
103.49554
102.92411
102.41853
101.98909
101.63858
110.59945
110.34104
110.07143
109.78148
109.45773
109.07699
108.63458
108.15239
107.62928
107.07675
106.4746
105.84403
105.19728
104.56883
103.9791
103.43092
102.93671
102.5131
102.15993
110.50077
110.28601
110.06561
109.8149
109.51595
109.15781
108.75271
108.30859
107.83501
107.3302
106.77904
106.19624
105.58807
104.98522
104.41642
103.88818
103.40689
102.98956
102.63628
110.3846
110.20876
110.02346
109.80706
109.54824
109.23758
108.8711
108.46197
108.02531
107.55065
107.03869
106.4931
105.93333
105.37335
104.82257
104.31053
103.83746
103.42693
103.07617
110.34292
110.175
110.00262
109.80423
109.56954
109.28678
108.95389
108.59292
108.19818
107.7619
107.27951
106.75362
106.21748
105.68481
105.16475
104.67581
104.21672
103.80972
103.46376
110.29144
110.15353
110.00399
109.8269
109.61006
109.34489
109.03633
108.70044
108.33548
107.93788
107.50154
107.02664
106.52518
106.00572
105.49658
105.01573
104.56667
104.16597
103.82294
110.25102
110.12612
109.99258
109.83702
109.64579
109.40853
109.13084
108.81782
108.46992
108.08552
107.65653
107.19537
106.72005
106.23738
105.75652
105.29053
104.84876
104.45364
104.10705
110.24537
110.1349
110.01033
109.86379
109.68614
109.46673
109.21282
108.93078
108.61519
108.26694
107.87684
107.44782
106.98862
106.51033
106.03611
105.57567
105.14133
104.74635
104.39844
110.24494
110.14945
110.04027
109.90889
109.74624
109.54181
109.29956
109.02455
108.71503
108.36921
107.97881
107.55582
107.11217
106.65754
106.19758
105.74593
105.32115
104.92864
104.58214
110.26294
110.18026
110.078
109.96122
109.82107
109.64543
109.4312
109.18194
108.90662
108.59719
108.24754
107.85092
107.40781
106.939
106.46103
105.99648
105.55767
105.15367
104.79466
110.28781
110.22559
110.1356
110.02411
109.88648
109.71605
109.50629
109.2548
108.96366
108.63543
108.27422
107.87888
107.4534
106.9992
106.52926
106.07104
105.63549
105.24427
104.88618
110.30624
110.28041
110.22936
110.15137
110.04744
109.91628
109.74989
109.54339
109.29357
108.9984
108.66196
108.27981
107.83108
107.32252
106.79044
106.2718
105.81094
105.38823
104.99605
89.664329
89.819791
90.078872
90.483556
90.952942
91.522522
92.18465
92.895056
93.716692
94.597169
95.549281
96.572231
97.645656
98.768808
99.947189
101.2344
102.57828
103.87908
105.18637
90.60365
90.729841
90.983987
91.402531
91.879096
92.517084
93.215576
94.008607
94.897642
95.80458
96.766546
97.776557
98.810416
99.875611
100.97896
102.07646
103.09074
104.06051
104.94246
91.511616
91.613798
91.887183
92.29405
92.807625
93.498451
94.233374
95.118053
96.0296
96.965983
97.948666
98.929369
99.914931
100.91231
101.8364
102.65424
103.32321
103.90442
104.34957
92.399009
92.490663
92.768917
93.170807
93.74001
94.437468
95.227197
96.133851
97.026368
97.97649
98.916965
99.841424
100.74617
101.56993
102.25667
102.79931
103.1895
103.40358
103.36443
93.282907
93.36248
93.627387
94.039761
94.638995
95.339099
96.165081
97.029784
97.910531
98.824414
99.690337
100.50646
101.2672
101.87588
102.35467
102.63562
102.75263
102.5909
102.12098
94.156821
94.214409
94.475519
94.898248
95.503603
96.207975
97.037409
97.856767
98.720978
99.566656
100.32255
101.00313
101.61112
102.03347
102.29334
102.35423
102.2294
101.85012
101.22999
95.002368
95.038826
95.30078
95.734181
96.329644
97.04203
97.832204
98.624529
99.444059
100.19157
100.84764
101.40443
101.85437
102.12671
102.22283
102.14909
101.88603
101.50053
101.02187
95.830017
95.865819
96.106899
96.529207
97.106026
97.810769
98.562937
99.322249
100.08318
100.72647
101.29406
101.73969
102.04084
102.20001
102.21046
102.0967
101.88051
101.62992
101.37501
96.625196
96.650904
96.85878
97.289578
97.846633
98.531952
99.23746
99.946456
100.62372
101.20559
101.67754
102.02887
102.23937
102.32813
102.32669
102.26132
102.17929
102.08481
102.03004
97.405761
97.400205
97.586049
98.00631
98.540674
99.199346
99.856709
100.5245
101.10342
101.62988
102.02244
102.30551
102.46599
102.5486
102.60102
102.63247
102.67491
102.75331
102.85391
98.159817
98.105994
98.287947
98.684812
99.198049
99.815958
100.43235
101.03571
101.55632
102.01519
102.34064
102.59414
102.751
102.88623
103.00124
103.12077
103.28177
103.46745
103.63986
98.870983
98.765993
98.960782
99.318363
99.817839
100.39399
100.96093
101.50686
101.97584
102.37016
102.66564
102.91866
103.10038
103.2925
103.46475
103.67135
103.90234
104.13326
104.34487
99.531786
99.409583
99.606224
99.904506
100.3938
100.91382
101.44502
101.93962
102.36177
102.72145
103.00936
103.26717
103.48787
103.72557
103.95235
104.21541
104.46984
104.73713
104.95229
100.15117
100.04995
100.19355
100.46389
100.93262
101.3892
101.89612
102.33747
102.73078
103.07703
103.36515
103.64115
103.89371
104.1572
104.41917
104.7027
104.96525
105.20619
105.36617
100.73726
100.63633
100.71917
100.99776
101.40697
101.83774
102.31489
102.7064
103.09275
103.4222
103.72044
104.00693
104.28197
104.5675
104.8428
105.11807
105.34726
105.52897
105.63405
101.29521
101.16962
101.21501
101.48929
101.83699
102.26305
102.68678
103.06682
103.44014
103.74339
104.06404
104.35826
104.64008
104.91973
105.18921
105.42189
105.60014
105.75543
105.85375
101.8119
101.65184
101.68879
101.93744
102.24209
102.65108
103.03183
103.40834
103.75285
104.07392
104.39558
104.66342
104.95803
105.21827
105.44245
105.62731
105.78155
105.92382
106.02454
102.28335
102.09043
102.1171
102.32802
102.614
102.99252
103.3327
103.69545
104.02044
104.34685
104.64417
104.92542
105.20444
105.4153
105.60721
105.74428
105.8698
105.97629
106.01791
102.71503
102.50249
102.51624
102.70969
102.95819
103.29089
103.63446
103.99803
104.3138
104.61969
104.89474
105.15929
105.37951
105.54754
105.696
105.77141
105.82817
105.81356
105.73355
103.08993
102.85629
102.83686
102.92517
103.22506
103.54104
103.88012
104.19918
104.49927
104.80311
105.06045
105.29088
105.44898
105.57267
105.63737
105.63173
105.56584
105.37914
105.15629
103.44754
103.19833
103.13637
103.24976
103.51027
103.81197
104.15018
104.44853
104.73966
104.98977
105.19155
105.3603
105.45364
105.50052
105.45604
105.33958
105.1322
104.85666
104.56478
103.72342
103.45871
103.38404
103.4861
103.70847
103.99474
104.28541
104.56073
104.83976
105.05151
105.22327
105.33123
105.36217
105.31204
105.17834
104.97291
104.70137
104.44099
104.19624
104.00346
103.71534
103.63452
103.71055
103.93375
104.22088
104.50961
104.77355
104.97435
105.12089
105.22691
105.24665
105.18699
105.04072
104.83027
104.58208
104.33987
104.11904
103.89239
104.18918
103.90004
103.78406
103.8493
104.05159
104.30726
104.56313
104.78961
104.97159
105.1076
105.16003
105.12766
105.01279
104.82209
104.59857
104.3642
104.1237
103.86851
103.61011
104.37252
104.05768
103.92785
104.00014
104.22932
104.50838
104.75354
104.91851
105.03323
105.07709
105.02689
104.88486
104.67113
104.42174
104.17767
103.93126
103.68898
103.4453
103.1518
104.47621
104.14717
103.98672
104.0507
104.27677
104.53288
104.74413
104.90639
105.01269
105.03175
104.96197
104.82319
104.62725
104.39515
104.15095
103.87299
103.52264
103.09556
102.58517
104.53748
104.17869
104.03172
104.14695
104.4459
104.72314
104.8961
104.98402
104.96779
104.87717
104.68056
104.40958
104.09622
103.73986
103.33793
102.90895
102.42829
101.9232
101.43115
106.51218
107.91182
109.30882
110.75454
112.01477
113.22757
113.71697
113.62859
110.79673
104.59293
94.982575
83.208955
70.909968
59.400812
50.762216
45.535173
43.692259
44.528647
48.002959
105.75638
106.53779
107.2407
107.71553
107.77706
107.16545
105.43179
101.71512
95.992577
87.624743
75.17516
59.510362
44.986131
33.40586
24.896826
21.021278
22.543514
28.76397
37.607748
104.62463
104.7264
104.61504
104.01266
102.75527
100.36973
96.476833
90.053508
80.958303
69.472343
55.644318
40.400039
25.928243
12.302598
2.9484497
0.34305411
4.7304875
14.685387
26.857419
103.02253
102.50362
101.66721
100.23809
98.046022
94.827544
90.170646
83.654904
74.923168
64.106214
51.361885
37.259984
23.409074
11.957603
4.8714005
3.5479281
7.6864646
16.25791
27.588095
101.38881
100.5502
99.387775
97.771308
95.529307
92.5678
88.571597
83.559803
77.142816
69.400829
60.582355
51.019018
41.610597
33.594059
28.420125
26.804591
28.92678
34.395231
42.428897
100.4468
99.618215
98.582032
97.217364
95.423864
93.080329
90.162799
86.70144
82.516418
77.707691
72.237501
66.436446
60.771389
55.924889
52.226401
50.230282
50.529161
53.235331
57.94987
100.433
99.795003
99.013249
97.974272
96.617501
94.871958
92.937038
90.640728
88.057293
85.103652
81.77637
78.39145
74.887092
71.709536
69.069779
67.593736
67.241786
68.467712
71.003332
101.03795
100.64305
100.06966
99.302833
98.277196
97.094155
95.777892
94.249175
92.627817
90.619999
88.444957
86.147126
83.807304
81.693087
79.964593
79.041493
79.114915
79.518285
80.445478
101.96801
101.74419
101.32206
100.74712
99.982871
99.169341
98.241364
97.28015
96.093898
94.670305
93.230176
91.680965
90.117886
88.5511
87.157048
86.111204
85.555558
85.530871
86.155985
102.92236
102.791
102.50182
102.04839
101.515
100.97274
100.35225
99.671574
98.815691
97.840336
96.743755
95.524202
94.110041
92.698181
91.380591
90.155156
88.839904
87.656656
87.13348
103.77146
103.74351
103.54542
103.21813
102.87437
102.51425
102.1085
101.62242
100.97776
100.15359
99.239768
98.186307
96.852578
95.420192
93.889204
92.059665
89.999779
88.272515
86.984031
104.53657
104.57016
104.4129
104.19402
103.9603
103.7263
103.43047
103.01608
102.47147
101.81864
101.04741
99.935465
98.397821
96.720044
94.719472
92.003796
89.054418
86.221641
83.398702
105.14424
105.15918
105.03032
104.87479
104.68328
104.47158
104.17825
103.77181
103.2504
102.57492
101.58742
100.21755
98.332335
96.137357
93.051172
88.795549
83.762751
78.175361
72.125996
105.50285
105.51314
105.43964
105.30657
105.12548
104.9127
104.60573
104.1419
103.52604
102.73937
101.70913
100.08401
97.954977
95.399454
91.547272
86.059415
78.976185
70.258263
59.914613
105.79995
105.86201
105.83196
105.73113
105.62389
105.4817
105.2245
104.84458
104.40909
103.96855
103.01546
101.17715
99.517615
97.403238
94.062251
89.23418
82.945381
75.214549
66.233447
106.07162
106.17622
106.1847
106.17168
106.1868
106.11875
105.99208
105.85285
105.43092
104.4516
103.97708
103.41326
101.59906
99.322526
96.292351
92.384606
87.671734
82.412962
76.969558
106.2205
106.31246
106.32952
106.38345
106.38076
106.29287
106.04669
105.52723
105.01566
105.28557
104.42801
102.80089
100.79263
98.398783
95.764766
92.878579
89.87767
87.011389
84.552951
106.11762
106.1659
106.26729
106.36035
106.36777
106.3104
105.93797
105.49202
104.31661
102.51548
100.65017
98.504877
96.413198
94.313744
92.282995
90.51091
89.02095
87.92613
87.470499
105.63061
105.6695
105.7953
105.86493
105.84943
105.71199
105.31844
104.67141
103.39593
99.962299
95.706288
91.593349
88.754193
86.989416
85.676372
85.056163
85.360214
86.310194
87.620397
104.85276
104.87556
104.92723
104.93427
104.82347
104.6338
104.34053
103.79412
102.63155
100.40527
96.943131
92.120881
86.11634
80.921344
76.687535
73.760565
72.7771
74.17989
77.594968
104.24632
104.18447
104.13381
104.00083
103.72352
103.3406
102.7758
101.95123
100.5462
98.111993
94.382135
89.55035
84.128492
79.076582
75.124921
72.981579
73.069397
74.956456
78.473569
104.01304
103.97053
103.95064
103.86089
103.69925
103.51179
103.21967
102.78349
102.06272
101.03843
99.436384
97.219311
94.548644
91.661341
88.90623
86.777642
85.5825
85.288689
86.188125
103.81551
103.8622
103.93789
103.97557
103.98688
104.03399
104.03687
104.04875
103.98261
103.81719
103.46574
102.85401
101.98718
100.95847
99.69143
98.123515
96.118618
94.197019
93.164898
103.56061
103.60688
103.66561
103.74658
103.83015
103.90015
104.01244
104.07646
104.11633
104.07371
103.71644
103.11779
102.44373
101.42706
100.00436
98.43414
96.890544
95.337706
93.494181
102.96398
103.02049
103.18596
103.30803
103.4228
103.55693
103.72005
103.85558
103.96119
103.92413
103.65311
103.1044
102.5886
101.9809
101.15899
99.568024
97.582365
95.45334
93.254477
102.0704
102.12197
102.28328
102.38535
102.48346
102.589
102.66828
102.83897
102.78981
102.7746
102.5951
101.20811
100.8468
100.7346
100.40336
99.693488
98.765646
97.795041
96.821147
100.90695
100.95056
100.99551
100.98479
101.01038
101.09516
101.22668
101.44897
101.71821
102.1457
102.66939
103.34046
103.51692
102.81843
102.04407
101.36971
100.78214
100.27941
99.852228
53.56902
59.56614
65.051142
70.645663
75.539436
78.995229
81.82507
84.348731
85.937411
86.666288
87.149619
87.308602
86.8692
86.342549
85.677399
84.813464
83.839384
82.785157
81.594489
47.488351
56.978221
65.267225
72.257791
78.263231
83.197219
86.814381
89.259776
90.969413
91.912168
92.25852
92.264823
91.82648
91.157943
90.339774
89.426538
88.459244
87.321359
86.079204
39.412201
52.089298
63.963724
73.224183
80.429135
86.093944
90.617293
93.764052
95.699267
96.702643
97.106197
97.061108
96.539516
95.759975
94.882925
93.852163
92.889112
91.710703
90.369958
41.875059
54.201396
65.458921
74.989606
82.68524
88.740694
93.686075
97.470924
99.704086
100.88579
101.28677
101.18015
100.69652
99.836007
98.827558
97.783848
96.740953
95.631819
94.197027
51.929691
61.465735
70.513145
78.474246
85.500402
91.248287
96.091994
100.36952
103.01787
104.24879
104.66801
104.48531
103.89596
103.0648
101.98227
100.91959
99.874682
98.80812
97.445337
63.876989
70.326783
76.900746
83.125616
88.784772
93.779991
98.114402
102.45537
105.25622
106.56503
106.94398
106.81527
106.22277
105.35466
104.32156
103.23546
102.24081
101.24393
100.01996
74.421977
78.678789
83.443224
88.200195
92.778306
97.110185
100.87906
104.14545
106.36379
107.39812
107.80414
107.75965
107.33594
106.59902
105.70338
104.71024
103.80066
102.89982
101.84128
82.454077
85.343393
88.627866
92.201708
96.02738
99.677385
102.79196
105.25746
106.76817
107.42062
107.59858
107.5516
107.28636
106.75748
106.10297
105.32039
104.585
103.84134
102.97013
87.17308
88.68479
90.941419
93.800726
96.841043
99.737023
102.51228
104.75664
106.26723
106.97955
107.09512
106.87301
106.68371
106.35
105.92254
105.36256
104.79255
104.22906
103.54266
87.401741
88.463194
90.214099
92.224922
94.407148
97.118433
100.00337
102.55751
104.60911
105.81885
106.27192
106.32516
106.1657
105.90935
105.60287
105.21394
104.75749
104.33407
103.80243
85.983
85.355532
85.286292
86.234648
88.240359
91.079948
94.405661
97.839083
100.88166
103.17905
104.6128
105.3646
104.3064
104.85998
105.01939
104.90686
104.62735
104.31416
103.9283
80.567514
78.305856
76.954718
76.86769
78.138762
80.599636
84.443182
89.074065
93.425617
97.081107
100.09522
102.2796
103.57077
104.48046
104.74639
104.75392
104.54401
104.25335
103.96138
66.047933
61.010151
58.137426
58.019549
60.768127
65.234212
70.814602
77.450668
84.306726
90.60776
96.518766
100.7857
102.69419
103.85564
104.26926
104.35667
104.21434
103.93017
103.70377
49.08869
39.92336
34.700514
34.998778
40.556268
49.378307
59.994569
71.10552
81.752393
90.461418
96.509477
100.01006
101.71254
102.65902
103.17176
103.36134
103.35363
103.16886
103.05984
56.756354
48.341835
43.209161
42.456846
45.704901
52.244652
61.282713
70.901817
80.069085
87.719288
93.404706
96.987073
99.194696
100.61243
101.53814
102.04494
102.26675
102.29151
102.29661
71.786397
67.63642
65.615127
66.246967
68.784444
72.847247
78.112929
83.431761
88.372858
92.537107
95.617264
97.784073
99.318725
100.36659
101.1067
101.6008
101.86381
101.95242
101.99068
82.587043
81.364106
81.362312
82.839956
85.111136
87.597384
90.377855
93.096914
95.442432
97.413573
98.898874
99.955445
100.75382
101.29403
101.68345
101.94693
102.09936
102.17622
102.15673
87.653847
88.281948
89.108796
90.278377
92.096265
94.121987
95.960389
97.649362
99.047055
100.14055
100.96446
101.5407
101.97182
102.23616
102.39727
102.53276
102.56438
102.57794
102.51228
89.339284
91.110739
92.81712
94.549436
96.250129
97.802197
99.165725
100.40883
101.3983
102.11459
102.59809
102.90383
103.09573
103.13953
103.12582
103.09711
103.08194
103.00724
102.87548
82.040088
86.726099
91.019159
94.457346
96.98906
98.867276
100.22187
101.63709
103.07441
103.73959
103.88355
103.97478
103.98788
103.87799
103.72068
103.57139
103.4514
103.34187
103.17128
82.866765
87.567878
92.273143
96.490315
97.341598
99.987732
101.54724
102.12124
102.17055
102.92029
103.91088
104.1605
104.1314
104.0679
103.89735
103.72765
103.53287
103.40158
103.2358
88.104921
90.577879
93.155238
95.545654
97.478228
99.176485
100.54534
101.47099
102.34668
103.58178
104.03143
103.9018
104.05653
103.88061
103.74
103.55694
103.35488
103.17563
103.03148
92.963625
93.350154
94.056835
95.055298
96.09783
97.063006
97.977414
98.72406
100.21938
102.35345
102.88003
103.12262
103.25558
103.14645
103.06415
102.9185
102.77154
102.57469
102.45112
91.560295
90.035814
89.286241
89.669634
91.601428
94.560447
97.481133
99.77937
101.02872
101.89421
102.18424
102.22954
102.22745
102.15364
102.10702
102.01994
101.91493
101.81192
101.77685
91.450453
90.14959
89.671074
90.019726
90.973368
92.371194
93.977784
95.850693
97.888759
99.385654
100.08349
100.46776
100.73656
100.89595
101.00991
101.10339
101.1262
101.13623
101.18377
96.046961
95.618045
95.634784
96.129498
96.99425
97.847541
98.334852
98.638351
99.023886
99.41087
99.660008
99.803274
100.01449
100.24646
100.43199
100.56323
100.63542
100.66053
100.71577
99.486066
99.089657
98.63719
98.148979
97.66478
97.40927
97.885124
98.730012
99.286349
99.576808
99.831163
100.04023
100.16052
100.20338
100.24524
100.30322
100.34516
100.35093
100.33672
80.340174
79.041773
77.694598
76.326114
74.977362
73.645347
72.373746
71.205885
70.101439
69.101708
68.138535
67.325433
66.605378
65.965971
65.537824
65.145645
65.02198
65.122094
65.352471
84.698305
83.283
81.764857
80.223393
78.685886
77.17219
75.690105
74.29532
72.966017
71.729424
70.598153
69.553794
68.70823
67.929103
67.338533
66.917733
66.675669
66.715235
66.842888
88.830456
87.218828
85.576097
83.866532
82.185805
80.51097
78.877669
77.303511
75.800841
74.361787
73.047363
71.83106
70.798969
69.927438
69.176703
68.694039
68.380085
68.33566
68.523876
92.553411
90.801373
89.033174
87.222512
85.418196
83.639962
81.868719
80.164351
78.514625
76.926992
75.452178
74.091245
72.894599
71.885151
71.04179
70.449401
70.08279
69.966485
70.154202
95.753774
93.972608
92.131883
90.265014
88.385417
86.530996
84.675941
82.863369
81.11574
79.415194
77.810752
76.3116
74.975708
73.827343
72.870738
72.186538
71.745866
71.585665
71.744153
98.415621
96.689237
94.877349
93.013008
91.115033
89.218881
87.314422
85.426164
83.57734
81.796752
80.081678
78.49658
77.03085
75.761994
74.697289
73.911324
73.41259
73.204956
73.364602
100.44344
98.886984
97.18659
95.395715
93.541569
91.654368
89.733618
87.825124
85.90972
84.066815
82.264145
80.583225
79.025835
77.645123
76.493476
75.615624
75.03925
74.785652
74.90292
101.83708
100.51796
99.028812
97.395687
95.644847
93.833706
91.943603
90.038812
88.108297
86.21166
84.353951
82.597218
80.961365
79.496723
78.252105
77.280577
76.655729
76.352077
76.469309
102.69006
101.62924
100.37373
98.963278
97.378866
95.686996
93.886805
92.029166
90.118522
88.214065
86.325181
84.504592
82.812977
81.263876
79.965178
78.901908
78.223493
77.879925
77.945691
103.1345
102.34044
101.32736
100.14144
98.766239
97.241447
95.568614
93.805075
91.956774
90.059996
88.189001
86.323239
84.589548
82.971254
81.615695
80.507152
79.746742
79.381018
79.429374
103.38471
102.7695
101.96979
100.9935
99.821685
98.481747
96.973436
95.317735
93.581739
91.733248
89.886319
88.023193
86.255072
84.600143
83.178645
82.040706
81.227235
80.817546
80.844948
103.5455
103.0381
102.38837
101.58569
100.61633
99.455591
98.128007
96.610596
94.990922
93.239652
91.441802
89.614508
87.831591
86.158997
84.67575
83.497352
82.651471
82.202226
82.202956
103.4644
103.12354
102.63039
101.97044
101.18841
100.2004
99.049868
97.693619
96.195865
94.5565
92.827372
91.054933
89.280848
87.616708
86.100767
84.877138
84.009201
83.547094
83.514688
103.07806
102.921
102.6471
102.15988
101.5548
100.73948
99.750386
98.565142
97.209704
95.696487
94.059972
92.365641
90.624158
88.970388
87.452341
86.194555
85.286223
84.813439
84.762781
102.52467
102.54693
102.44872
102.15388
101.71969
101.09765
100.27293
99.254745
98.049274
96.672745
95.138719
93.529663
91.84637
90.212587
88.70869
87.43705
86.501052
86.008786
85.95178
102.15834
102.20446
102.17656
102.02282
101.72843
101.27674
100.62014
99.766598
98.70796
97.478353
96.067691
94.553224
92.955249
91.34482
89.867874
88.601957
87.654258
87.131086
87.082766
102.14078
102.05692
102.00526
101.90414
101.68793
101.35224
100.84763
100.15215
99.237241
98.150674
96.87129
95.451528
93.948251
92.428228
90.942527
89.671423
88.734318
88.186304
88.122212
102.34048
102.15805
102.0165
101.88072
101.67349
101.38692
100.98672
100.41959
99.634693
98.677671
97.531641
96.211912
94.793683
93.33006
91.916436
90.648219
89.722148
89.180352
89.089612
102.59901
102.3938
102.18953
101.99291
101.74983
101.47136
101.12061
100.64241
99.970219
99.126345
98.107456
96.898064
95.566546
94.173255
92.814667
91.571539
90.623749
90.097164
90.019376
102.83761
102.64401
102.41038
102.17909
101.89711
101.60192
101.26947
100.83635
100.24396
99.484932
98.563479
97.459041
96.211104
94.870868
93.569916
92.365708
91.429089
90.889805
90.760992
102.99219
102.85304
102.63304
102.39732
102.1136
101.80677
101.4715
101.04114
100.52011
99.835275
98.992041
97.974137
96.815853
95.574072
94.341304
93.137694
92.212444
91.679541
91.638678
102.95718
102.93585
102.79565
102.58084
102.3346
102.03635
101.69406
101.26607
100.76344
100.14939
99.362739
98.390449
97.277381
96.046129
94.755903
93.699574
92.815867
92.279158
92.106791
102.60813
102.71525
102.72581
102.63247
102.47951
102.23633
101.92648
101.53782
101.05207
100.48675
99.756442
98.865937
97.823442
96.693378
95.550407
94.366982
93.457426
92.942541
92.897167
102.05485
102.32076
102.52704
102.58708
102.53959
102.40226
102.14751
101.80046
101.34711
100.77997
100.06303
99.194662
98.167576
96.997932
95.772912
94.741996
93.861255
93.326265
93.150037
101.46804
101.75631
102.03246
102.25365
102.34711
102.33489
102.21685
101.98212
101.6257
101.14298
100.52046
99.724295
98.763791
97.684615
96.517971
95.341637
94.392292
93.828649
93.769039
100.99266
101.35937
101.71074
102.02684
102.26262
102.37235
102.33995
102.16453
101.85469
101.393
100.77005
99.975734
98.983544
97.824308
96.629876
95.511941
94.584748
94.010413
93.863376
100.51736
100.76025
101.06588
101.38895
101.7069
101.97452
102.15154
102.2041
102.07406
101.79255
101.34508
100.68993
99.80412
98.707826
97.436487
96.138335
95.019269
94.291769
94.104373
65.807959
66.281963
67.018543
67.932909
69.024924
70.321439
71.734305
73.339996
75.051213
76.890725
78.86051
80.913079
83.079804
85.311679
87.616967
89.970967
92.350715
94.738249
97.13266
67.327489
67.897742
68.659598
69.613379
70.68781
71.989504
73.409869
75.003138
76.719345
78.537532
80.48061
82.488794
84.586804
86.749864
88.953741
91.198531
93.443248
95.665001
97.879832
68.929424
69.533053
70.296352
71.252072
72.359263
73.642483
75.083826
76.6625
78.368845
80.169111
82.054544
84.016995
86.047083
88.126734
90.240752
92.372419
94.47923
96.545987
98.581298
70.572873
71.147054
71.924335
72.872477
73.993463
75.266132
76.704622
78.277638
79.9633
81.741743
83.592827
85.498919
87.465568
89.46122
91.469117
93.482668
95.458351
97.380181
99.240281
72.163661
72.754393
73.528899
74.48026
75.595665
76.85989
78.294349
79.848097
81.512054
83.263129
85.081142
86.924455
88.802784
90.706258
92.601132
94.497362
96.337838
98.120362
99.824564
73.784968
74.362319
75.123489
76.058373
77.170038
78.428354
79.844711
81.375797
83.017855
84.729184
86.481341
88.264073
90.052794
91.859071
93.654418
95.43817
97.138962
98.765725
100.33401
75.329831
75.903898
76.660874
77.594336
78.69624
79.943102
81.340197
82.849458
84.449306
86.113765
87.803801
89.527459
91.240253
92.941954
94.61842
96.268603
97.850774
99.35281
100.79629
76.874696
77.437519
78.186243
79.110956
80.200097
81.423804
82.785844
84.263321
85.812281
87.432783
89.072692
90.717578
92.331747
93.927813
95.499436
97.029679
98.496029
99.863463
101.17573
78.367778
78.923959
79.662494
80.56181
81.629017
82.83809
84.160489
85.6095
87.123115
88.68874
90.259696
91.808116
93.330887
94.833628
96.306759
97.709012
99.056864
100.32367
101.52765
79.829973
80.363327
81.082138
81.975202
83.020109
84.217093
85.510561
86.904866
88.3663
89.855205
91.348897
92.81733
94.267525
95.667048
97.029856
98.333286
99.587879
100.75317
101.82063
81.234504
81.755797
82.45976
83.34481
84.364905
85.513926
86.77338
88.106162
89.511777
90.938544
92.376778
93.776176
95.126915
96.417174
97.685425
98.897702
100.02648
101.09187
102.0708
82.584122
83.090824
83.786147
84.638724
85.636356
86.752616
87.970213
89.254734
90.611539
91.971091
93.320468
94.637913
95.904466
97.111723
98.270399
99.388257
100.44169
101.43358
102.32813
83.886885
84.372614
85.050701
85.873753
86.845419
87.927995
89.099514
90.342199
91.625167
92.918263
94.193028
95.440142
96.619669
97.743178
98.816075
99.845411
100.81358
101.69989
102.50376
85.122026
85.590384
86.241201
87.050372
87.991132
89.041293
90.165548
91.349638
92.565352
93.787901
94.984789
96.154236
97.253389
98.300214
99.297638
100.24263
101.12963
101.94882
102.69157
86.282252
86.75388
87.386714
88.171349
89.074806
90.083421
91.151817
92.27523
93.428036
94.589458
95.730659
96.827666
97.854294
98.817494
99.739493
100.61479
101.43637
102.1577
102.8072
87.437224
87.861351
88.453684
89.201907
90.072444
91.036682
92.06454
93.136864
94.234097
95.33317
96.408839
97.427053
98.381541
99.26841
100.12633
100.93404
101.68024
102.34927
102.95706
88.442319
88.868924
89.448718
90.171131
91.01435
91.941909
92.933106
93.946093
94.982306
96.009035
97.014375
97.963776
98.86248
99.69959
100.48902
101.23056
101.91455
102.53432
103.08267
89.420709
89.828185
90.391668
91.077735
91.886532
92.772295
93.71373
94.674257
95.648376
96.618937
97.566119
98.463211
99.305987
100.08721
100.81137
101.49355
102.12498
102.69564
103.19473
90.319029
90.703466
91.235976
91.896991
92.674395
93.528031
94.425901
95.342507
96.267579
97.184793
98.080289
98.925773
99.711308
100.43774
101.10829
101.74284
102.33378
102.8627
103.31759
91.089039
91.474911
92.015094
92.66857
93.417678
94.227277
95.082175
95.955892
96.83794
97.706954
98.545809
99.339371
100.07188
100.75
101.38294
101.97594
102.5202
103.00417
103.42012
91.934826
92.30725
92.772952
93.372894
94.069054
94.839769
95.664881
96.502094
97.342981
98.174169
98.964003
99.715717
100.4086
101.0525
101.6568
102.21421
102.71494
103.15652
103.5417
92.425421
92.808875
93.311642
93.912807