/*--------------------------------*- C++ -*----------------------------------*\
  =========                 |
  \\      /  F ield         | OpenFOAM: The Open Source CFD Toolbox
   \\    /   O peration     | Website:  https://openfoam.org
    \\  /    A nd           | Version:  11
     \\/     M anipulation  |
\*---------------------------------------------------------------------------*/
FoamFile
{
    format      ascii;
    class       volScalarField;
    location    "0.1145";
    object      T;
}
// * * * * * * * * * * * * * * * * * * * * * * * * * * * * * * * * * * * * * //

dimensions      [0 0 0 1 0 0 0];

internalField   nonuniform List<scalar> 
880
(
300
300
300.0000000000992
300.0003450355902
300
300
300.0000000004852
300.0017139598541
300
300
300.0000000144649
300.0082499316539
300.0000000000001
300
300.0000004508652
300.0113032988374
300
300
299.9999999999999
299.9999999993329
300
300
299.9999999999997
300
299.9999972620999
300.0000422101005
300.0371075054104
299.9301219399547
301.102479720587
304.6220942698066
307.7243771396121
308.8627042404406
300.0000057262754
300.0000274118328
300.0000347694021
300.0000222517318
300.0001367068324
300.0003819744223
300.0010136562364
300.0007210484221
300.0838973598193
300.1780697762802
300.2933839867559
300.298360934204
310.3784489892832
312.2332929147818
313.7430915328379
315.6960029890503
314.9586984364794
312.18565038419
309.6421255538534
307.5783905011128
300.5237186350236
300.899903519277
301.164478655013
301.0383930632386
300.0021549763707
300.0052916968784
300.0104777632012
300.0119668090865
300.0000832552529
300.0002064027628
300.0004007250027
300.0004168922319
300.0003010708795
300.0001220500563
300.0000206047583
300.0000008725564
300.0100743794277
300.0061707052756
300.0020776661572
300.0002982711387
300.8041061604159
300.5245994038381
300.2374172676636
300.0617910714338
305.5470495136556
303.7953584175021
302.3856205592836
301.2335174041
300.4078761538368
300.0076363564443
300.0000157408443
300.0000000148353
300.0663880382983
300.0005996571148
300.0000012291802
299.9999999959341
299.9991799393184
299.9995979312616
299.9999931916333
300.0000003775885
302.6822342236831
300.013128071592
299.9997590016918
299.9999770872386
299.9999594677221
299.9998878004662
300.0839702239109
321.830257892888
299.9999902735675
300.0008129226249
300.4732196788991
338.4324675976221
300.0000977424528
300.0024505483918
300.9993729744546
348.6484795256145
300.0002972719005
300.0081044998132
301.8926949364836
357.6007922193052
365.1723530026553
302.7616468832389
300.0112711985544
300.0004311008403
372.8087695308137
303.9710351545448
300.0219575344657
300.000784448307
377.8152849325999
304.7746183255986
300.0242055320969
300.000836757964
382.508903088545
306.0377208716549
300.041625854314
300.0015393320534
300.0016966908204
300.0480649813665
307.5053605489907
387.0198897554721
300.0026174974142
300.0749299930829
309.5100565664545
387.4152827836241
300.0049117895519
300.103041516448
309.8628005799921
379.9157100063312
299.9998758337672
300.039063208512
305.9303694154228
359.1266682111531
300.0090690451224
300.2123909747592
307.1578346056729
338.2205146664199
300.0095525870714
300.2945737277364
304.7150920051085
316.9605000437654
299.9999876069105
300.1463575811511
303.7604022701756
313.1973210724758
299.9951366756995
299.9486880954225
301.7768334382859
315.1607856964164
310.1462880960755
299.4231011866459
299.8542784800758
299.9976746118467
302.7189664957487
298.6549958842256
299.8622872974862
299.9990845485722
294.7417937277534
298.0170376681427
299.9234685923286
299.9997153816085
286.9018015042825
297.8578427005294
299.940238151489
299.9997482570792
283.9542997820038
298.7496087144635
299.9813486847821
299.9999212265795
282.3355535502237
299.4002854619885
299.9950126530045
299.99998209829
282.7702280899665
299.6230224599164
299.9978850887985
299.9999941768256
285.9904048442233
299.8157447189333
299.9992573248253
299.9999969579512
296.9427807592901
299.6479615747647
299.9896696975014
299.9999124735376
297.9093165969512
299.664579583643
299.989460392861
299.9999116567101
298.5921682710393
299.6647793274496
299.9882962125654
299.99990781003
299.9665806721912
299.7202874154545
299.9828119399905
299.9998895212047
285.9904048437133
299.8157447181364
299.999257323621
299.9999969600324
282.7702280895297
299.6230224593692
299.9978850864101
299.999994176785
282.3355535499209
299.4002854631552
299.9950126534134
299.9999820984357
283.9542997824403
298.7496087167197
299.9813486848962
299.9999212258346
299.9976746119174
299.8542784816441
299.4231011869855
310.1462880959364
299.9990845505982
299.8622872983855
298.6549958850042
302.718966496311
299.9997153800724
299.923468594243
298.0170376669862
294.741793728127
299.9997482576212
299.94023815207
297.8578427024747
286.9018015035504
315.1607856953106
301.7768334364876
299.9486880928658
299.9951366741471
313.1973210703806
303.7604022689415
300.1463575796035
299.9999876042073
316.9605000441312
304.7150920038724
300.2945737280152
300.0095525874669
338.2205146667188
307.1578346051929
300.2123909738594
300.0090690483529
300.0016966897214
300.0480649841301
307.5053605505051
387.0198897562439
300.0026174972826
300.0749299948574
309.5100565675971
387.4152827837523
300.0049117907286
300.1030415165385
309.8628005789371
379.9157100063512
299.9998758371173
300.0390632088889
305.9303694144986
359.1266682109967
382.5089030899527
306.0377208718628
300.0416258563345
300.0015393323797
377.8152849339629
304.7746183299896
300.0242055304971
300.0008367583894
372.8087695304152
303.9710351516705
300.0219575421177
300.0007844473844
365.1723530037349
302.7616468817664
300.011271192904
300.0004311001601
299.999959469285
299.999887801648
300.0839702240972
321.8302578918976
299.9999902729838
300.0008129214872
300.4732196797152
338.4324675977655
300.0000977414387
300.0024505461163
300.9993729738224
348.648479525659
300.0002972705693
300.0081045038916
301.8926949380374
357.6007922195573
299.9999770867593
300.0000003783362
299.9999999960577
300.0000000145435
299.9997590003505
299.9999931919551
300.0000012307804
300.0000157395177
300.0131280719554
299.9995979316174
300.0005996559127
300.0076363564141
302.6822342241367
299.9991799399281
300.0663880378584
300.4078761541745
300.0000008708168
300.0002982715204
300.0617910731645
301.233517404511
300.0000206045415
300.0020776656139
300.2374172697485
302.3856205592127
300.0001220513264
300.006170705549
300.5245994026275
303.7953584170988
300.0003010711204
300.010074379501
300.8041061615854
305.5470495130044
300.0000832534251
300.0021549749074
300.5237186353015
314.9586984365761
300.000206400827
300.005291696675
300.8999035197491
312.1856503833579
300.0004007239376
300.0104777645949
301.1644786551324
309.6421255532509
300.0004168913507
300.0119668102739
301.0383930632357
307.5783905001494
315.6960029899852
300.2983609366856
300.0007210476102
300.0000222509137
313.7430915333001
300.2933839882857
300.0010136560522
300.0000347693525
312.2332929158483
300.1780697748945
300.0003819747218
300.0000274118474
310.378448989046
300.0838973581233
300.0001367061851
300.0000057269254
308.8627042408972
299.9301219426537
300
299.9999999997049
307.7243771389648
300.0371075001617
300
300.0000000000001
304.6220942695255
300.000042209667
300
300
301.1024797200261
299.9999972615787
300
299.9999999999999
300
299.9999999999999
300.0000000000073
300.0003450349037
300.0000000000002
300
300.0000000004487
300.0017139538205
300
300
300.0000000146206
300.008249929902
300
300
300.0000004498581
300.0113032991113
300.000721714203
300.0027033888638
300.0131977356128
300.2392170573091
300.0027034226003
300.003329242125
300.0109514106907
300.9382790676512
300.0131977218279
300.0109513756061
300.3586850559459
306.0784292167064
300.2392170394853
300.9382790556753
306.0784292607931
325.6403294984349
354.6327744451593
335.5017035973102
322.310043925323
310.444257216826
350.7017318204063
345.997164391142
341.5729620284055
332.6988051887064
347.3670103502396
345.3623277274268
343.4211720706618
339.2762204326727
346.1391687580776
344.9247454791593
344.0923775990315
342.0397610631766
344.1578869220582
344.9554335274923
345.8487483289787
348.2417795841166
344.2378900947778
344.499523382826
345.2058687835936
347.6436273522112
344.3897660878642
343.9394367518345
344.4540383900336
345.9121300237716
344.7628041980486
343.6862596449558
344.2718385297031
342.1511088766326
331.4325817298657
313.8965431223414
305.4160262409135
304.0964110199032
322.3859887485063
305.268138941264
303.3323964751186
304.7451871009758
311.9873970648861
298.7767946261985
304.1788253261281
306.2435772947663
287.6405869019168
291.4760508247081
303.5448797787443
305.8471557865942
303.189441675169
302.5863509212184
302.5999060583461
302.0387177189721
304.0916799835679
303.1252398768924
302.7725136557157
301.9161203736864
305.3506439664362
303.9889105334655
303.2050455828229
302.102641439775
304.851713115994
303.3445785027978
302.7914011502305
301.8096764205436
301.002814921316
300.286567045751
300.0184137380366
330.6273416554231
300.9151802907947
300.3098886493036
300.0063066452636
347.0892325700479
301.0419915928184
300.3800226731132
300.0777630446133
356.2122574085406
300.6928647635294
300.1564619451396
300.1847404892084
361.0861168955292
407.0599197017242
418.1403339018606
421.3931349813641
424.516794663657
421.225867828184
424.1493191436509
421.8689853388358
421.7367313143895
424.6372904123402
422.0122228377825
420.6136205856675
418.1961236273801
433.536334160261
426.4539349844506
420.3179228911302
416.6532888085567
426.8297766003141
431.5183826619286
433.9498843025462
436.0362460837237
422.0803243745591
425.6243435364955
427.484837625822
429.6338752103607
416.4685437680696
418.7421262516086
420.4705769280257
422.700333155503
414.3088941585517
415.9528290912416
417.4293327038304
419.7376350840764
435.5115747388973
430.371986060906
418.7922438417437
400.244405293785
429.3964557173043
425.2001282745205
415.3845254651268
415.5549412357862
422.8319528938123
419.6945253318247
415.0068824428611
427.9029250218754
419.735064281153
417.9596662486512
418.5501123105146
408.8203060171454
362.8555518998027
296.5258192982349
210.5826256617632
210.4664399506189
349.5992809140876
260.8715759228689
193.6277566637112
178.9005653163803
315.2945641407224
214.7123236339044
170.3351616661322
159.5553297151564
241.071201202956
159.2056304284027
170.076524228438
153.3406969110376
219.3727824816611
223.5622761678756
225.7321639779238
224.4606202691867
185.4052992065442
189.8283051121627
197.255772548398
212.3208007523837
158.9858263771092
161.0931779505556
177.0610324488739
213.1884341680847
148.1556202139193
148.3239496208045
169.3537308645242
219.8277841005811
263.6117687116457
256.7677565908176
254.1164076269212
260.826722265507
274.6929994338024
269.6170393381634
260.9178280682358
266.5674608948594
267.7298991767988
279.9260902243039
275.3893673907538
281.2811082899224
247.6279669461233
269.0092197952049
274.7993654933814
291.2073033445017
239.4928590717481
215.3911712085889
181.6815594412061
186.6193921429462
242.8442245723735
216.2163592291079
170.9608222084238
202.9879750483613
242.7512267644476
186.7197116853161
168.7763851781943
207.5519884426403
216.6429586519825
139.9800386849123
177.3204120949432
178.5869307717253
173.1583816081595
173.1841733945084
171.1247878992382
172.5862562752441
186.57869684601
175.7264087723854
174.669021938598
174.6328568234344
216.0068572553418
208.8500774982714
209.1069217199659
209.4862900849875
248.5839979693958
272.5214135657554
266.1809664536055
261.5371565488097
172.586256275313
174.632856823405
209.4862900849517
261.53715654846
171.1247878994866
174.6690219385398
209.10692171996
266.1809664533451
173.1841733947231
175.7264087725306
208.8500774982704
272.5214135654685
173.1583816083114
186.5786968464556
216.0068572554741
248.5839979692031
186.6193921427301
181.6815594407812
215.391171207993
239.4928590710064
202.9879750484818
170.9608222085697
216.216359229058
242.8442245716713
207.551988442967
168.7763851784505
186.7197116849717
242.75122676452
178.5869307717294
177.3204120948741
139.9800386847585
216.6429586517557
291.2073033443148
274.7993654931419
269.0092197944455
247.6279669447325
281.2811082897524
275.3893673906296
279.9260902237694
267.7298991752694
266.5674608946221
260.917828068164
269.6170393375974
274.6929994324393
260.8267222652106
254.116407626829
256.7677565901269
263.6117687105803
224.460620268744
225.7321639784751
223.5622761683024
219.372782481356
212.3208007520394
197.2557725492271
189.8283051127152
185.4052992061947
213.1884341677368
177.0610324494937
161.0931779510396
158.9858263770125
219.8277840999244
169.353730864778
148.3239496211791
148.1556202139431
210.4664399490884
210.5826256602973
296.5258192980381
362.8555518999275
178.9005653150996
193.6277566624228
260.8715759222374
349.599280913398
159.5553297142426
170.3351616649773
214.7123236334899
315.2945641403381
153.3406969103573
170.0765242261549
159.2056304267875
241.0712012024501
400.244405293822
418.7922438420948
430.3719860608811
435.5115747389749
415.5549412359653
415.3845254654675
425.2001282747061
429.3964557177321
427.9029250221301
415.0068824431704
419.6945253323007
422.8319528945332
408.8203060171205
418.5501123109929
417.9596662492453
419.7350642819864
436.0362460836721
433.9498843025219
431.5183826630946
426.8297766010558
429.6338752105088
427.4848376258225
425.6243435371253
422.0803243754489
422.7003331558552
420.4705769280991
418.742126251904
416.4685437690561
419.7376350847061
417.4293327038922
415.9528290914293
414.3088941599333
424.51679466419
421.3931349800262
418.1403339016009
407.0599197013632
421.7367313150843
421.8689853369194
424.1493191441585
421.2258678269524
418.1961236285738
420.6136205835326
422.0122228377055
424.6372904100004
416.653288809965
420.3179228892277
426.4539349842345
433.5363341571356
330.6273416529729
300.0184137310391
300.2865670479972
301.002814921083
347.0892325675824
300.0063066403533
300.3098886520208
300.9151802899636
356.2122574056941
300.0777630423403
300.3800226765985
301.0419915911687
361.0861168920561
300.1847404883525
300.1564619503968
300.6928647605227
302.0387177187874
302.5999060579073
302.5863509207326
303.1894416748943
301.9161203737112
302.7725136552182
303.1252398765027
304.0916799831541
302.1026414401572
303.2050455823087
303.9889105333109
305.3506439658601
301.8096764212744
302.7914011494652
303.3445785031022
304.8517131153044
304.0964110187825
305.4160262404852
313.8965431212551
331.4325817296702
304.745187100043
303.3323964748787
305.2681389401051
322.3859887483861
306.243577293972
304.1788253259144
298.77679462534
311.9873970646427
305.8471557857065
303.5448797787174
291.4760508238149
287.6405869013415
348.2417795835931
345.8487483289464
344.9554335296447
344.1578869239964
347.6436273514086
345.2058687836833
344.4995233847749
344.237890095729
345.9121300228965
344.4540383896462
343.9394367531098
344.3897660886824
342.1511088758307
344.2718385288659
343.686259645967
344.7628041985475
342.0397610619106
339.2762204341594
332.6988051855144
310.444257216203
344.0923775974347
343.4211720701952
341.5729620282855
322.310043918387
344.9247454783169
345.3623277267292
345.9971643904409
335.5017035924722
346.1391687574538
347.3670103488867
350.7017318163367
354.6327744437552
290.5356268475318
299.7933846998502
299.998177379265
299.9999921041604
292.5496286233861
299.7886221499171
299.9973397932425
299.9999841686899
296.2190570534382
299.7903653687045
299.9956894023223
299.9999694739002
299.9234892420725
299.7786922568519
299.9861156820599
299.9999157039111
299.9999124745208
299.9896696975597
299.6479615739877
296.9427807580431
299.9999116575828
299.9894603940231
299.6645795820938
297.9093165972546
299.9999078085957
299.9882962139824
299.6647793262886
298.5921682700716
299.9998895176033
299.982811941515
299.7202874125986
299.9665806712918
299.9999157028076
299.9999694721492
299.9999841637896
299.9999921000185
299.9861156826071
299.9956894023406
299.9973397927835
299.9981773778021
299.7786922562013
299.7903653673854
299.7886221511521
299.7933846989942
299.9234892412583
296.219057051724
292.5496286225056
290.5356268480449
)
;

boundaryField
{
    back
    {
        type            empty;
    }
    inlet
    {
        type            zeroGradient;
    }
    front
    {
        type            empty;
    }
    top
    {
        type            zeroGradient;
    }
    outlet
    {
        type            fixedValue;
        value           uniform 300;
    }
    bottom
    {
        type            zeroGradient;
    }
    wall
    {
        type            zeroGradient;
    }
}


// ************************************************************************* //
