/*--------------------------------*- C++ -*----------------------------------*\
  =========                 |
  \\      /  F ield         | OpenFOAM: The Open Source CFD Toolbox
   \\    /   O peration     | Website:  https://openfoam.org
    \\  /    A nd           | Version:  11
     \\/     M anipulation  |
\*---------------------------------------------------------------------------*/
FoamFile
{
    format      ascii;
    class       volVectorField;
    location    "0.1145";
    object      U;
}
// * * * * * * * * * * * * * * * * * * * * * * * * * * * * * * * * * * * * * //

dimensions      [0 1 -1 0 0 0 0];

internalField   nonuniform List<vector> 
880
(
(25 -7.768126373978579e-16 0)
(25 7.06541325902377e-17 0)
(25 -8.95031028139533e-12 0)
(24.99999562617304 -9.097684950906495e-06 0)
(25 1.210301178234613e-15 0)
(25 -2.576598680909502e-15 0)
(25.00000000011122 -1.404356548792392e-10 0)
(24.99989173753732 -0.000278291381708614 0)
(25 0 0)
(25.00000000000001 2.535613030115412e-15 0)
(25.00000000169036 -2.208518981777596e-09 0)
(24.99999395040494 -0.0006235197102395352 0)
(25 0 0)
(25 -1.616402455658769e-15 0)
(25.00000006021814 -3.723851368897201e-08 0)
(24.99868822880449 -0.00592625917189264 0)
(25 -5.13294041704091e-16 0)
(25 -1.519520661690243e-15 0)
(25.00000000000001 -3.924212964916415e-12 0)
(24.99999999959421 1.338668200801963e-09 0)
(25 -6.487100625378569e-15 0)
(25 1.005488623696864e-14 0)
(25.00000000000003 3.481583201126724e-13 0)
(25 -2.174199060552444e-12 0)
(25.00000401124395 -3.18175917075664e-06 0)
(24.9999835661362 1.382004069740545e-05 0)
(25.00072206577953 0.005353493022746038 0)
(25.00142970016498 -0.01132652956280151 0)
(24.86810430006498 0.05139413878238549 0)
(24.54490351509089 0.3279526195077829 0)
(24.37480024045577 0.6880671160868929 0)
(24.3347734497566 0.9282177142249631 0)
(24.99999962850073 -8.408434158643121e-07 0)
(24.99999881929594 -1.567526296831819e-06 0)
(24.99999338530993 -7.216257875646484e-06 0)
(24.99999559327672 -2.79740371893949e-06 0)
(24.99998093995203 8.161685866897944e-06 0)
(24.99995995751244 4.870419667408911e-05 0)
(24.9999721596281 0.0001425700364467431 0)
(24.99997300888045 9.024569395016456e-05 0)
(24.98842094003289 0.0069143385490373 0)
(24.98628401349383 0.01903079594088936 0)
(24.98904456511193 0.03369457734464608 0)
(24.98668365403755 0.03226173998610455 0)
(24.33645084577621 1.144286386836863 0)
(24.28592327016734 1.436095318803927 0)
(24.41595722208509 1.568348020477015 0)
(24.26343680790823 1.845902556442071 0)
(24.67701242094681 2.021668991016385 0)
(25.08549354165817 1.88718479566781 0)
(25.41472798262748 1.483902525951516 0)
(25.56026597687298 0.9756970606464144 0)
(24.98020427440433 0.05793708439780276 0)
(24.94237740466662 0.1124620258311158 0)
(24.99115381340157 0.1644379556927663 0)
(25.0246473693633 0.1509899128752884 0)
(24.99991057546192 0.0002766444944726397 0)
(24.99958653279583 0.000749824853568571 0)
(24.99949260338055 0.001699656935624813 0)
(24.99997241722116 0.001931495133447749 0)
(24.99998896502748 -9.707652348707644e-06 0)
(24.99997481258863 -2.439416349147909e-05 0)
(24.99994143103224 -5.054675084458458e-05 0)
(24.99992765480746 -5.403622380822712e-05 0)
(24.9999345666386 -4.201167074607508e-05 0)
(24.99996186812307 -1.991275084396108e-05 0)
(24.99998882020742 -5.076785979361053e-06 0)
(24.99999860724907 -5.77203271437329e-07 0)
(25.00026527547687 0.001670373868969185 0)
(25.00037030983603 0.0009681646675515512 0)
(25.00017680010401 0.0002889305061355968 0)
(25.00002904378587 3.629414363047944e-05 0)
(25.04251860520959 0.1180730085086627 0)
(25.04062896340075 0.07281296020473592 0)
(25.02203287023371 0.03033852462945097 0)
(25.00649236795364 0.006881704955496414 0)
(25.5291027988109 0.6006983283529014 0)
(25.42356497926506 0.371914029601364 0)
(25.29205546786331 0.2216199921134618 0)
(25.15667105070325 0.1050846713314799 0)
(25.0527713981749 0.03080869746541692 0)
(25.00082180232266 0.0007647001451695576 0)
(25.00000152959897 1.806796472714495e-06 0)
(24.99999994014862 -2.305423504723025e-08 0)
(25.00813970158987 0.005394377083120381 0)
(25.00005286824919 7.02708212279793e-05 0)
(25.00000010364843 1.922508517920338e-07 0)
(24.99999999449582 -1.909405489109066e-09 0)
(25.00067887613205 -0.0005385840472855201 0)
(25.00001753441978 -5.099136135734714e-05 0)
(25.00000020715568 -1.236904155169707e-06 0)
(24.99999995621523 -4.450326526239042e-10 0)
(24.76343943633975 0.2180379439541993 0)
(24.99911119866439 0.001666755881753772 0)
(25.00003182681773 -1.420448332456794e-05 0)
(25.00000425583248 -3.169946678160428e-06 0)
(25.00000007804179 -5.08971903579613e-06 0)
(25.00001305441848 -3.93505931497073e-05 0)
(24.99005790739229 0.003211715286177321 0)
(22.78509585410532 0.8240657346905468 0)
(24.99999851150381 -2.442102206008969e-06 0)
(24.99989106726482 2.61128117305687e-05 0)
(24.94959556468087 0.0250126709322074 0)
(21.39746014457549 2.05481539116055 0)
(24.99999267907453 -1.351090482195963e-05 0)
(24.99961266147499 0.0003019486378311291 0)
(24.89175318629409 0.08108412634393559 0)
(20.60802947451333 3.449333128467082 0)
(24.99995800570797 -3.799852110978308e-05 0)
(24.99956010441267 0.0008997436682256941 0)
(24.85532853654862 0.1542630444560598 0)
(20.36420155886725 4.708754228132427 0)
(20.2038454794649 5.887906406724036 0)
(24.80504633249155 0.2615782699412371 0)
(24.99913157899353 0.001439832802120217 0)
(24.9999488121532 -6.086014992502512e-05 0)
(20.38336385616661 6.490001600550224 0)
(24.79337327029271 0.3544141348825345 0)
(24.99929171728309 0.002726879548133935 0)
(24.9998827972143 -0.0001054550789656106 0)
(20.31332325894356 7.077970597253699 0)
(24.7336711000984 0.4433744374498041 0)
(24.9985788115031 0.002901935391746298 0)
(24.99988399412256 -0.0001221892810512973 0)
(20.29703106141554 7.381269258337489 0)
(24.6805863048215 0.5690352181804178 0)
(24.99846965060717 0.005217205410304705 0)
(24.99977196217472 -0.0002066441143662234 0)
(24.99974008572267 -0.0002514719596201618 0)
(24.99787958937903 0.005701870932262896 0)
(24.59095888645972 0.6842987356892009 0)
(19.80277506885905 7.917924063097997 0)
(24.99963613344987 -0.0003724071561166374 0)
(24.99613954048967 0.009074280475611663 0)
(24.47816899780901 0.9140158930378373 0)
(20.07664982817219 8.218778699684991 0)
(24.99953669594098 -0.0007006806542404238 0)
(24.9964642551766 0.01293151892536688 0)
(24.54977259780582 0.9715633649584675 0)
(20.96581362899696 7.738919850486848 0)
(24.99961147465443 -8.095119271120388e-05 0)
(24.99398671235687 0.006088429489698601 0)
(24.63703854829561 0.6718370869849543 0)
(22.82766245604814 6.252158876676869 0)
(24.99890474100079 -0.0006240513845882489 0)
(25.00415080613194 0.03206044785563991 0)
(25.1861254349601 0.8375300291629773 0)
(26.00187634500187 3.891584562312992 0)
(24.99790253738002 -0.000245267154807601 0)
(25.03170637169861 0.02775298395851776 0)
(25.40753456556513 0.3279472351247752 0)
(27.69494684172471 1.321633168445334 0)
(24.99993864434542 -6.336988241267134e-05 0)
(25.01965526554476 0.002765932290840917 0)
(25.28100403902684 -0.1164611275539962 0)
(26.4187568532969 -1.463719598808133 0)
(24.99995954225794 -0.0002394059169636169 0)
(24.99680098706951 -0.01326135821067619 0)
(24.84896944567678 -0.420193137193739 0)
(22.99322690127022 -3.073133932377484 0)
(20.46643051536028 -3.395724165394329 0)
(24.60930296746859 -0.4637943088033499 0)
(24.99115153749154 -0.01503739234561293 0)
(24.99993587351569 -0.000102262455335097 0)
(19.11696898855647 -3.14920617049671 0)
(24.449229946837 -0.4460651451157235 0)
(24.9862696142061 -0.01409683049822603 0)
(24.99993093919611 -8.450560957882313e-05 0)
(18.75672420049249 -1.968824857535388 0)
(24.40879992321468 -0.3263275421374129 0)
(24.99056803505744 -0.008062423140689813 0)
(24.99998197321033 -3.356083068115109e-05 0)
(17.7064886259696 -0.9691952226231723 0)
(24.31332883621865 -0.2730010069289516 0)
(24.98957516519237 -0.007658408499149072 0)
(24.99997542910513 -3.334024509627684e-05 0)
(19.2580066142878 0.2141538332185499 0)
(24.5733156081995 -0.117052239379247 0)
(24.99562228373377 -0.00259844034398221 0)
(24.99999007767184 -1.055838571678356e-05 0)
(21.25971164882387 0.7605567028023574 0)
(24.80568275720447 -0.05651637358493254 0)
(24.99880614748768 -0.0007576306715239318 0)
(24.99999764408453 -2.465553413590346e-06 0)
(22.84157501256569 0.6652597096034678 0)
(24.92103654963746 -0.03065481639684964 0)
(24.99968177939096 -0.0002592280781661657 0)
(24.99999952295113 -7.459924986801934e-07 0)
(24.04014179337844 0.4229193297663521 0)
(24.98575377180387 -0.02894275816697477 0)
(25.00002258161333 -0.0001788933237967961 0)
(24.99999992717903 -5.065088274615897e-07 0)
(23.52340162974899 -0.1004087589864026 0)
(24.90881428520652 -0.002566928070104284 0)
(24.9981695360014 -2.028079886587632e-05 0)
(24.99998676224813 -5.988356325089979e-08 0)
(23.60246902678359 -0.3418338376317031 0)
(24.91195691366764 -0.007201619909597947 0)
(24.99818995929439 -5.032905806279571e-05 0)
(24.99998681090316 -1.389195512177159e-07 0)
(23.56591139969606 -0.6646044759195531 0)
(24.9099309114633 -0.01620707324192704 0)
(24.99815971072178 -0.0001008341518591167 0)
(24.99998669180126 -2.783891228545871e-07 0)
(23.5432272096647 -0.7020264296052758 0)
(24.91408818857854 -0.02491919967258411 0)
(24.99811383832538 -0.0002437202874231134 0)
(24.99998662744551 -9.913948906329806e-07 0)
(24.04014179347649 -0.4229193298217264 0)
(24.98575377186265 0.0289427581865987 0)
(25.00002258171829 0.0001788933838957476 0)
(24.99999992703139 5.066938348985672e-07 0)
(22.84157501261568 -0.6652597094795678 0)
(24.92103654972339 0.03065481640142069 0)
(24.99968177960516 0.0002592281427251852 0)
(24.99999952292573 7.459331037233661e-07 0)
(21.25971164878507 -0.7605567026147368 0)
(24.80568275714278 0.05651637374943712 0)
(24.99880614747397 0.0007576308043006464 0)
(24.99999764407581 2.465547907700699e-06 0)
(19.25800661417552 -0.2141538333297697 0)
(24.57331560800979 0.1170522392991933 0)
(24.9956222836952 0.00259844029151169 0)
(24.99999007772942 1.055837201771977e-05 0)
(24.9999358732819 0.0001022623879321799 0)
(24.99115153727853 0.0150373922879674 0)
(24.60930296742391 0.4637943086990677 0)
(20.46643051533113 3.395724165319823 0)
(24.99993093900101 8.450574459143742e-05 0)
(24.98626961408105 0.01409683059885304 0)
(24.44922994681803 0.4460651450594795 0)
(19.11696898854585 3.149206170341314 0)
(24.99998197333009 3.356085098788558e-05 0)
(24.99056803492396 0.00806242307944662 0)
(24.40879992317307 0.3263275421470145 0)
(18.75672420039094 1.96882485744634 0)
(24.9999754291168 3.334021063388509e-05 0)
(24.98957516513182 0.00765840853474109 0)
(24.31332883603219 0.2730010067934169 0)
(17.70648862596315 0.9691952227567503 0)
(22.99322690137257 3.073133932481917 0)
(24.84896944579659 0.4201931372103118 0)
(24.99680098733167 0.01326135790903321 0)
(24.99995954242618 0.000239405774483432 0)
(26.41875685344881 1.463719598940392 0)
(25.28100403916746 0.1164611275685001 0)
(25.01965526572443 -0.002765932123276901 0)
(24.99993864464062 6.336979095631395e-05 0)
(27.6949468417266 -1.321633168468159 0)
(25.4075345657188 -0.3279472350775807 0)
(25.03170637169983 -0.02775298393637788 0)
(24.99790253751813 0.0002452675361216153 0)
(26.00187634497694 -3.891584562318699 0)
(25.18612543502926 -0.8375300291984119 0)
(25.004150806227 -0.03206044769831801 0)
(24.99890474064403 0.0006240513327389087 0)
(24.99974008580363 0.0002514719666440027 0)
(24.99787958931089 -0.005701871006244773 0)
(24.59095888645462 -0.6842987355859995 0)
(19.80277506875085 -7.91792406301832 0)
(24.99963613344671 0.0003724071252448393 0)
(24.99613954030911 -0.00907428056128161 0)
(24.47816899773547 -0.9140158930120867 0)
(20.07664982816715 -8.218778699656962 0)
(24.99953669570568 0.0007006806146357726 0)
(24.99646425515483 -0.01293151885535092 0)
(24.54977259789782 -0.9715633648926827 0)
(20.96581362900364 -7.738919850476549 0)
(24.9996114745365 8.095113724810733e-05 0)
(24.99398671233938 -0.00608842936907435 0)
(24.6370385483608 -0.6718370869184749 0)
(22.82766245606302 -6.252158876685602 0)
(20.29703106117984 -7.381269258334234 0)
(24.68058630474303 -0.569035218149899 0)
(24.99846965025203 -0.005217205524976754 0)
(24.99977196216996 0.000206644155315341 0)
(20.31332325871468 -7.077970597232964 0)
(24.7336710996825 -0.4433744375440248 0)
(24.99857881148343 -0.00290193540772982 0)
(24.9998839940696 0.0001221892766377485 0)
(20.38336385616075 -6.490001600590255 0)
(24.7933732703158 -0.3544141348095009 0)
(24.99929171714868 -0.002726879630557348 0)
(24.99988279728822 0.0001054550734599359 0)
(20.20384547943245 -5.887906406742092 0)
(24.80504633282181 -0.2615782699940354 0)
(24.99913157910918 -0.001439832805983666 0)
(24.9999488121977 6.086014934888283e-05 0)
(25.00000007792152 5.089732685237628e-06 0)
(25.00001305431135 3.935059015373655e-05 0)
(24.99005790747884 -0.003211715230669807 0)
(22.78509585415964 -0.824065734704121 0)
(24.99999851159386 2.442096984338055e-06 0)
(24.99989106741472 -2.611281210494074e-05 0)
(24.94959556446853 -0.02501267105098574 0)
(21.39746014481845 -2.054815391146215 0)
(24.99999267919642 1.351090091169119e-05 0)
(24.99961266151736 -0.0003019485569506494 0)
(24.89175318625729 -0.08108412614778475 0)
(20.60802947423848 -3.449333128585235 0)
(24.99995800585467 3.799852323657116e-05 0)
(24.99956010420399 -0.0008997437716776539 0)
(24.85532853652691 -0.1542630446425542 0)
(20.36420155895427 -4.708754227980334 0)
(25.0000042558209 3.169944294212036e-06 0)
(24.99999995614127 4.51711974072239e-10 0)
(24.99999999448556 1.902139968177535e-09 0)
(24.99999994016446 2.30696160645252e-08 0)
(25.00003182696042 1.420451221489287e-05 0)
(25.00000020712845 1.236880661148067e-06 0)
(25.00000010349877 -1.922433529388571e-07 0)
(25.00000152967183 -1.806756949875344e-06 0)
(24.99911119862499 -0.001666755893315576 0)
(25.00001753438055 5.09913836398686e-05 0)
(25.00005286837058 -7.027079457649064e-05 0)
(25.00082180237911 -0.000764700221839388 0)
(24.76343943635233 -0.218037943913569 0)
(25.00067887616808 0.0005385841387897055 0)
(25.00813970150078 -0.00539437717616093 0)
(25.05277139820037 -0.03080869744712848 0)
(24.99999860735771 5.77199181005828e-07 0)
(25.00002904380129 -3.62941967673122e-05 0)
(25.00649236781732 -0.006881705058863113 0)
(25.15667105065057 -0.1050846712726003 0)
(24.99998882027917 5.076770857152811e-06 0)
(25.00017680014823 -0.0002889304858639305 0)
(25.02203286997714 -0.03033852453778763 0)
(25.29205546785718 -0.2216199920331124 0)
(24.99996186799464 1.991274600348474e-05 0)
(25.00037030985484 -0.0009681646727875776 0)
(25.04062896351652 -0.07281296018418631 0)
(25.4235649792809 -0.3719140296100404 0)
(24.9999345666069 4.201172205810301e-05 0)
(25.00026527547366 -0.001670373960139519 0)
(25.04251860510547 -0.118073008512843 0)
(25.52910279889382 -0.6006983282765486 0)
(24.99998896521844 9.707577069337638e-06 0)
(24.9999105755946 -0.0002766445572373423 0)
(24.98020427422631 -0.05793708463384055 0)
(24.67701242093874 -2.021668991087933 0)
(24.99997481277532 2.439413750386711e-05 0)
(24.99958653283059 -0.00074982477128237 0)
(24.94237740468012 -0.112462025863959 0)
(25.08549354174944 -1.887184795732791 0)
(24.99994143110318 5.054677350776451e-05 0)
(24.99949260319474 -0.001699656872576274 0)
(24.99115381347172 -0.1644379556847063 0)
(25.41472798270662 -1.483902525954657 0)
(24.99992765487002 5.403624514867214e-05 0)
(24.99997241707798 -0.001931495192137572 0)
(25.0246473694089 -0.1509899128255014 0)
(25.56026597693597 -0.975697060711339 0)
(24.26343680790996 -1.845902556350417 0)
(24.98668365370051 -0.03226173994901899 0)
(24.99997300900035 -9.024573871877445e-05 0)
(24.99999559336294 2.797335301320022e-06 0)
(24.41595722201955 -1.568348020548013 0)
(24.98904456475598 -0.03369457719102829 0)
(24.99997215967289 -0.0001425700634170624 0)
(24.99999338521653 7.216398092987379e-06 0)
(24.28592327004193 -1.436095318709887 0)
(24.98628401382352 -0.0190307955549334 0)
(24.99995995746916 -4.870421945475507e-05 0)
(24.99999881938649 1.567442215293586e-06 0)
(24.33645084578226 -1.144286386907123 0)
(24.98842094087865 -0.006914338641842891 0)
(24.99998093998606 -8.161633362372985e-06 0)
(24.99999962844839 8.408441386482886e-07 0)
(24.33477344968591 -0.9282177142524798 0)
(25.0014296995995 0.01132652906232063 0)
(25 2.337396016001825e-12 0)
(24.99999999956723 -1.329683401898084e-09 0)
(24.37480024046329 -0.6880671161007346 0)
(25.00072206612597 -0.005353492627557186 0)
(25 -3.612670861360452e-13 0)
(25.00000000000001 3.985372206914051e-12 0)
(24.54490351497892 -0.3279526194490567 0)
(24.99998356618699 -1.382003567623076e-05 0)
(25 -1.779352048071715e-15 0)
(25.00000000000001 1.267124531028687e-15 0)
(24.86810430000859 -0.05139413876231001 0)
(25.00000401127977 3.18175791822807e-06 0)
(25 -2.002349738895879e-15 0)
(25.00000000000002 -7.101123097081087e-15 0)
(25 1.420908939734042e-15 0)
(25 2.370669190924073e-15 0)
(24.99999999999962 8.521690917203955e-12 0)
(24.99999562726811 9.097902523031092e-06 0)
(24.99999999999999 -2.843418720158383e-19 0)
(25 3.47340372678292e-15 0)
(25.00000000010872 1.416898187273082e-10 0)
(24.99989173851287 0.0002782910413436646 0)
(25 -1.366459512028481e-15 0)
(25 -2.884642376332806e-15 0)
(25.00000000167926 2.204508802591372e-09 0)
(24.99999395042694 0.0006235196454845101 0)
(25 -2.535031323139962e-15 0)
(25 -1.276803971111648e-15 0)
(25.00000006030476 3.721650606244333e-08 0)
(24.9986882288695 0.005926259280637295 0)
(24.9999863295656 -6.668709208469282e-10 0)
(24.99990226288902 0.0002790409859844292 0)
(24.99925176203636 0.0008167393633246604 0)
(24.97850244751437 0.001463909765356854 0)
(24.99990226074361 -0.000279049402841693 0)
(24.99990258132991 -6.774715955445137e-09 0)
(24.99898613094633 -0.001545216068533395 0)
(24.88283260193008 -0.05288254354238599 0)
(24.99925176138943 -0.0008167360051179311 0)
(24.9989861284742 0.00154521524394689 0)
(24.94971634223063 7.947780354083914e-09 0)
(24.23927556503831 -0.1717995168459157 0)
(24.97850244681747 -0.001463911167785247 0)
(24.88283260190469 0.05288253888357796 0)
(24.23927557049958 0.1717995273547657 0)
(21.7235643327962 -3.984451687696779e-09 0)
(19.34967402572564 2.479850869071613 0)
(20.37403517964297 3.132724772493929 0)
(22.86053665567459 2.267755591232442 0)
(24.12602963294344 1.042563271422635 0)
(19.84778606943257 4.478433565816385 0)
(20.10973475108299 4.624997335496755 0)
(21.1724921396373 4.405393136662616 0)
(22.4141894217803 3.605673131438401 0)
(20.40580245440014 5.540281266246391 0)
(21.0032941466038 4.904832597546389 0)
(21.70742943251534 5.076903537475142 0)
(22.57798535357827 4.795790138894871 0)
(21.03864376312809 6.056612149831352 0)
(21.67125108823475 5.217890654249317 0)
(22.26824626274183 5.349226263619265 0)
(22.89953564879015 5.124636923187405 0)
(23.0848003396186 5.158448640146248 0)
(23.16015635702782 5.361333579674247 0)
(23.31210025527507 5.472542520043381 0)
(23.25970922653003 5.777532967077456 0)
(22.80097217796606 5.410115921979209 0)
(23.06531956365415 5.523923629346953 0)
(23.22412238675401 5.595792693482418 0)
(23.67922249575154 6.061465323275414 0)
(22.39046044333235 5.431866356425753 0)
(22.90379754314885 5.586265046217837 0)
(23.0851387226894 5.673430327518643 0)
(25.16960774964993 6.453378077174312 0)
(20.9899829381772 5.883684691301958 0)
(21.36543664864063 5.63089020265624 0)
(21.62175063765919 5.502473631605207 0)
(27.0008122055816 7.594471555476365 0)
(25.28517518215972 4.253242423236636 0)
(27.32338514991748 1.645689499107449 0)
(26.81840382572276 0.4286032888488828 0)
(26.2051840570569 0.157436857297951 0)
(26.75219651320949 3.403159184412174 0)
(28.59299551091594 0.6560469567510471 0)
(27.71261068355889 -0.03256591266644265 0)
(26.90027081054693 0.07378049454754494 0)
(29.60683544689662 2.685387322588464 0)
(29.99138092057581 0.04975306752758753 0)
(28.32490959213623 -0.1443222366332319 0)
(27.19497239451769 -0.08702403836730101 0)
(21.53586543840429 1.912987674534943 0)
(22.11563498112603 0.448701369809917 0)
(22.02869870867399 0.123562635654081 0)
(22.35763898499569 0.0146713847462427 0)
(25.83081582351655 0.08997489732616472 0)
(25.57640250152272 0.09671719664404937 0)
(25.46808552246702 0.04017176189181402 0)
(25.34582184394069 0.05106939791091453 0)
(26.31346221432268 0.06920484844210485 0)
(25.90764132983627 0.06232526943015419 0)
(25.67802052223588 0.02718059559556316 0)
(25.49084465964204 0.01131268414518269 0)
(26.56932775594582 -0.1145329205371687 0)
(26.15688704258025 -0.09232472052758754 0)
(25.86330556001109 -0.04548307160644921 0)
(25.61901555651114 -0.04029640022658284 0)
(23.07030215420629 -0.3125722924741804 0)
(23.86893343674706 -0.4605562982738043 0)
(24.49922802720108 -0.3554999028221372 0)
(24.71846030553611 -0.2707989119177561 0)
(25.16556214248419 0.04981591543808772 0)
(25.04500018383554 0.01900313433601134 0)
(25.00497461767753 0.001745331343613143 0)
(22.55932450421982 2.673710527641871 0)
(25.25771489925753 0.01621620809965185 0)
(25.0799833695624 0.01354112843437741 0)
(25.01050961320753 -0.001078355812697103 0)
(20.26068307557172 3.110744793360014 0)
(25.34756401827089 -0.03086194978352454 0)
(25.11961246444784 -0.01307372946899018 0)
(25.01821077982282 -0.0123578520105936 0)
(17.88792864487452 2.183587512744694 0)
(24.85537670258573 -0.1833225217421321 0)
(24.95036960067548 -0.06681524418225898 0)
(24.98346993495976 -0.004789598155592852 0)
(13.24152074555531 0.6829030026403564 0)
(15.40239069870821 7.660823333226149 0)
(15.6356701223486 7.977572001088998 0)
(15.82563438944068 8.978402600158693 0)
(16.23339384343431 9.970541485141018 0)
(13.01700512223267 7.872457182936441 0)
(14.63566691975275 8.254067062274315 0)
(15.48100204109739 9.31876901322283 0)
(16.07351301525722 10.13092961159547 0)
(10.58918479871047 6.803116931130342 0)
(12.92771770694387 7.994006600993542 0)
(14.63524167600293 9.366148115040883 0)
(15.70547464593671 10.11410951698555 0)
(7.831171261970459 2.940728853293295 0)
(10.83938927714725 4.772129437022321 0)
(12.41197537860867 7.166345238129593 0)
(13.70021703243012 9.192480150569791 0)
(16.39691243047523 10.80023826167845 0)
(16.6323522360254 11.10951782412456 0)
(16.77190613231959 11.39207243012761 0)
(16.92726221918292 11.4147287225347 0)
(16.34213478508091 10.76224810491079 0)
(16.59936237396379 10.98107344568533 0)
(16.80384086075276 11.2259232957623 0)
(16.99876890899268 11.26279246514122 0)
(16.17876688676956 10.6411625400137 0)
(16.45163103304412 10.90151048431924 0)
(16.71593410724905 11.15450138705549 0)
(16.9156203503735 11.23670900368478 0)
(14.67793022522072 10.26243356750291 0)
(15.14296321167447 10.75314566576306 0)
(15.58360402960654 10.79641599056436 0)
(15.74306224117842 10.79893776719609 0)
(16.98048485887061 11.4485411171881 0)
(17.50787384550322 11.37034028567271 0)
(18.72886849164261 10.8462951012329 0)
(21.05157203796996 9.740766067681935 0)
(17.074345480953 11.2806964773081 0)
(17.55065104309998 11.21609185115762 0)
(18.8044332220113 10.90175960323108 0)
(21.98884786396615 11.46254169346401 0)
(16.99862220278297 11.29511337137016 0)
(17.34814852853115 11.24032054855125 0)
(19.13974426677749 11.42471608996804 0)
(27.05229153135956 16.71053044987474 0)
(16.13749818257338 10.90601522840268 0)
(16.70260235350316 10.75046290025502 0)
(19.36726884373845 11.75936300604512 0)
(37.06219944058362 22.06495670994975 0)
(25.99409039130625 5.277162588937195 0)
(29.20346542329493 -2.247358401420108 0)
(8.275988229223486 -5.001546273976929 0)
(5.146366023801755 -1.301249708444161 0)
(27.21219855136772 4.576985816271363 0)
(24.26067238530866 -1.970520548023676 0)
(4.176416703457691 -5.528019877821395 0)
(2.247422902741532 -0.773494374749527 0)
(26.83352452193377 3.977885732078473 0)
(16.44508121620107 -5.160159334154278 0)
(1.848907429097243 -2.826728436723979 0)
(1.245487781216254 -0.2800447402827453 0)
(17.41053295892308 -6.737638794147092 0)
(5.969609373133622 -5.385534322475305 0)
(-0.346190125120404 -0.6138590887495685 0)
(0.4396191655662677 -0.5909494130946078 0)
(2.735165352080422 -0.6685340749638927 0)
(1.28832369475808 -0.4673079710678563 0)
(0.5764329552974808 -0.1131649642188045 0)
(-0.7658738142808265 1.227954949642207 0)
(0.8827045828403468 0.7031463922847317 0)
(-0.2333384164697717 1.157705878057722 0)
(-0.7273383479969924 1.382845602270282 0)
(-0.2138807567616528 2.934762035229364 0)
(0.5055932666657872 0.4776888718123675 0)
(-0.1437416884804093 1.427076769245935 0)
(0.06144094022875709 2.639187224534846 0)
(-0.471376026803345 4.782343272927525 0)
(0.2684345004752877 0.1386000425499748 0)
(0.3490260112782451 1.326546554987633 0)
(0.1207260740060852 3.631166661466178 0)
(-1.188702695334898 5.284063729327964 0)
(9.023629492194543 -3.997642091700854 0)
(16.42153770450879 -4.666883160990652 0)
(20.68579120489899 -4.674490516368888 0)
(23.29121055218635 -3.663714364606083 0)
(4.729627711625173 -0.8862867303712934 0)
(12.73988793037994 -2.520581137405583 0)
(18.25342981726411 -3.901504098527365 0)
(21.86045344715743 -4.054969582813206 0)
(-0.3811242297174136 -1.018148179235338 0)
(5.87880393910542 -2.226900549584999 0)
(13.24664444427439 -3.636038487127769 0)
(20.86124261552798 -3.122465518027364 0)
(-2.041384619503701 1.60697371479619 0)
(1.849253497177464 1.388459704843403 0)
(9.51043552531827 1.997354917815731 0)
(23.63122442097573 -1.22703173076822 0)
(24.41457154529259 -7.705963648161191 0)
(24.48320977162479 -13.46989886567757 0)
(27.0460231219702 -22.38540104937735 0)
(23.35179172871171 -21.21172936025364 0)
(23.13304353232947 -9.087204712547633 0)
(23.62298841287858 -14.30301459470375 0)
(23.71596120493994 -22.83818432890938 0)
(16.97537654265266 -12.19684617464839 0)
(22.58615274822328 -9.584830173260489 0)
(22.35774186948517 -17.36545488061801 0)
(15.55627315230884 -18.42680457213879 0)
(9.124699731409663 -1.218760108276415 0)
(15.3365267685569 -13.22454151646095 0)
(12.14767930163465 -14.0744067448632 0)
(2.167691486245229 -3.309037039400965 0)
(0.7232246733199887 5.220470421122766 0)
(-0.3980890985191201 6.0388612027989 0)
(-1.62585898104081 6.030974496437177 0)
(-2.51478884144198 4.196207590084275 0)
(-2.567194744885332 1.368440868052558 0)
(2.415354764573852 3.683604839648422 0)
(-1.161936489795534 4.515438785034311 0)
(-2.865877228141882 3.012116425715868 0)
(-2.780469594196511 1.022253138077353 0)
(8.409017466190921 -2.408358681688449 0)
(1.510493306739554 -0.8177470518560964 0)
(-1.903207919648862 -0.6243801372813942 0)
(-2.31703044822083 -0.2324344070162794 0)
(17.77762955561576 -9.686376692760827 0)
(10.26513815681891 -5.190441801552479 0)
(5.857645737902973 -3.781037391344423 0)
(4.817420821591335 -1.249128434293078 0)
(-2.567194744880242 -1.368440868051622 0)
(-2.780469594184657 -1.022253138104784 0)
(-2.317030448221019 0.2324344069659414 0)
(4.81742082153785 1.249128434175437 0)
(-2.514788841426809 -4.196207590081232 0)
(-2.865877228134516 -3.012116425734348 0)
(-1.903207919646187 0.6243801372244352 0)
(5.85764573789863 3.7810373912324 0)
(-1.625858981034749 -6.030974496443336 0)
(-1.161936489796565 -4.515438785026308 0)
(1.510493306746582 0.8177470518246489 0)
(10.26513815682481 5.190441801455097 0)
(-0.3980890985205732 -6.038861202805612 0)
(2.415354764575062 -3.683604839621734 0)
(8.409017466193353 2.408358681673316 0)
(17.77762955563486 9.686376692676051 0)
(23.35179172875654 21.21172936018565 0)
(27.0460231220966 22.38540104934361 0)
(24.48320977175127 13.46989886566429 0)
(24.41457154540671 7.705963648173045 0)
(16.97537654267351 12.19684617460324 0)
(23.71596120492048 22.83818432885274 0)
(23.62298841293887 14.30301459465927 0)
(23.13304353240641 9.087204712550239 0)
(9.124699731421721 1.218760108280577 0)
(15.55627315230588 18.42680457205299 0)
(22.35774186952413 17.36545488063249 0)
(22.58615274826209 9.584830173251476 0)
(0.7232246733167698 -5.220470421129964 0)
(2.167691486244196 3.309037039362952 0)
(12.14767930162069 14.0744067448657 0)
(15.33652676856927 13.22454151645618 0)
(23.63122442101743 1.227031730761602 0)
(9.510435525312477 -1.997354917829431 0)
(1.849253497156838 -1.388459704871129 0)
(-2.041384619518319 -1.606973714830946 0)
(20.86124261556515 3.122465518024006 0)
(13.24664444426944 3.636038487143753 0)
(5.878803939026488 2.226900549557464 0)
(-0.3811242297628915 1.018148179172048 0)
(21.86045344721521 4.05496958279588 0)
(18.25342981724783 3.901504098573829 0)
(12.73988793028454 2.520581137338519 0)
(4.729627711548955 0.8862867302467382 0)
(23.29121055226368 3.6637143645799 0)
(20.68579120485197 4.67449051646389 0)
(16.4215377044141 4.666883160995613 0)
(9.023629492147789 3.997642091543672 0)
(-0.7658738142085048 -1.227954949608131 0)
(0.5764329552290763 0.1131649642632987 0)
(1.288323694703654 0.4673079709534487 0)
(2.735165352057468 0.6685340748201982 0)
(-0.2138807566754079 -2.934762035241131 0)
(-0.7273383480485903 -1.382845602195429 0)
(-0.233338416515151 -1.157705878124677 0)
(0.8827045828603693 -0.7031463924262268 0)
(-0.4713760267547741 -4.782343272896767 0)
(0.06144094020400118 -2.639187224471415 0)
(-0.1437416885090728 -1.427076769315347 0)
(0.505593266652906 -0.4776888719255155 0)
(-1.188702695305679 -5.284063729300146 0)
(0.120726074017099 -3.63116666141123 0)
(0.3490260112524512 -1.326546555054841 0)
(0.2684345004607215 -0.1386000426400658 0)
(5.146366023860703 1.301249708414955 0)
(8.27598822914101 5.001546274017302 0)
(29.20346542328883 2.247358401436994 0)
(25.99409039132534 -5.277162588958793 0)
(2.247422902810891 0.7734943746617854 0)
(4.176416703468168 5.528019877818886 0)
(24.26067238533058 1.970520547973365 0)
(27.21219855144755 -4.576985816309914 0)
(1.245487781233046 0.2800447401568835 0)
(1.84890742909499 2.826728436723027 0)
(16.4450812162252 5.160159334182802 0)
(26.83352452201359 -3.977885732157923 0)
(0.4396191655445568 0.5909494129864706 0)
(-0.346190125116842 0.6138590887280607 0)
(5.969609373197596 5.385534322516431 0)
(17.41053295900195 6.73763879411962 0)
(21.05157203798248 -9.740766067669291 0)
(18.72886849160881 -10.84629510122563 0)
(17.50787384546125 -11.37034028564929 0)