/*--------------------------------*- C++ -*----------------------------------*\
  =========                 |
  \\      /  F ield         | OpenFOAM: The Open Source CFD Toolbox
   \\    /   O peration     | Website:  https://openfoam.org
    \\  /    A nd           | Version:  11
     \\/     M anipulation  |
\*---------------------------------------------------------------------------*/
FoamFile
{
    format      ascii;
    class       surfaceScalarField;
    location    "9.6";
    object      phi;
}
// * * * * * * * * * * * * * * * * * * * * * * * * * * * * * * * * * * * * * //

dimensions      [0 3 -1 0 0 0 0];

internalField   nonuniform List<scalar> 
10792
(
0.068480138
-0.041817681
-0.06897424
0.042311783
0.067913802
-0.039669927
0.040236262
0.067358755
-0.037419813
0.03797486
0.066573968
-0.035223914
0.036008701
0.065829752
-0.032722001
0.033466217
0.065107664
-0.030549591
0.03127168
0.064292055
-0.027827921
0.02864353
0.063426357
-0.025451798
0.026317495
0.062666183
-0.022752301
0.023512475
0.061969207
-0.02030915
0.021006125
0.061180335
-0.017527346
0.018316218
0.060620907
-0.014926829
0.015486256
0.059933983
-0.012168686
0.01285561
0.059412388
-0.0093995858
0.0099211802
0.058849968
-0.0065864224
0.0071488425
0.058402977
-0.0037404372
0.0041874276
0.058118593
-0.00086274628
0.00114713
0.057942565
0.0019847818
-0.0018087541
0.0049986959
0.057852144
-0.0049082749
0.072826742
-0.041315612
-0.073328811
0.072205556
-0.039048741
0.07155772
-0.036771977
0.070770607
-0.034436802
0.070067692
-0.032019085
0.069239896
-0.029721795
0.068396065
-0.02698409
0.067649309
-0.024705042
0.066925506
-0.022028498
0.066172195
-0.019555839
0.065441485
-0.016796636
0.064817617
-0.014302961
0.06409985
-0.01145092
0.063572445
-0.0088721807
0.063019671
-0.0060336491
0.062663866
-0.0033846325
0.0623431
-0.00054198022
0.062059798
0.0022680842
0.005122841
0.061935652
0.07722236
-0.040689143
-0.077848829
0.076746002
-0.038572384
0.076074179
-0.036100154
0.075353435
-0.033716057
0.074677332
-0.031342982
0.073805719
-0.028850182
0.073139052
-0.026317424
0.072434642
-0.024000632
0.071635809
-0.021229665
0.070902108
-0.018822138
0.070119511
-0.01601404
0.069392898
-0.013576347
0.068719478
-0.0107775
0.068166166
-0.0083188691
0.06763078
-0.0054982628
0.067223253
-0.0029771061
0.066840711
-0.00015943811
0.066584126
0.0025246693
0.0052815403
0.066425426
0.082294408
-0.04021685
-0.082766701
0.081665678
-0.037943654
0.080894944
-0.035329419
0.080271281
-0.033092395
0.079390865
-0.030462565
0.078600905
-0.028060222
0.077937952
-0.025654471
0.077009112
-0.023071792
0.07622946
-0.020450013
0.075404918
-0.017997596
0.074665288
-0.01527441
0.074015727
-0.012926787
0.073361626
-0.010123399
0.072863549
-0.0078207924
0.072354537
-0.0049892513
0.071990827
-0.0026133963
0.071638209
0.00019317958
0.071445995
0.0027168832
0.0054298849
0.07129765
0.08731791
-0.039586068
-0.087948693
0.086665337
-0.037291082
0.086024096
-0.034688178
0.085280274
-0.032348573
0.084540658
-0.029722949
0.083901382
-0.027420947
0.083020357
-0.024773446
0.08218077
-0.022232205
0.081461602
-0.019730844
0.080678481
-0.017214475
0.080054512
-0.014650441
0.079325417
-0.012197692
0.078723982
-0.009521964
0.078150509
-0.0072473197
0.0776911
-0.0045298424
0.077314119
-0.0022364156
0.07695761
0.00054968755
0.076771919
0.0029025739
0.005598599
0.076603205
0.09308509
-0.038920798
-0.09375036
0.092378362
-0.036584354
0.091644211
-0.033954027
0.090963467
-0.031667828
0.090210458
-0.02896994
0.089326824
-0.026537313
0.08845771
-0.023904332
0.087755531
-0.021530025
0.086977562
-0.018952875
0.086194437
-0.01643135
0.085441942
-0.013897946
0.084693575
-0.011449325
0.084134959
-0.0089633476
0.083533982
-0.0066463432
0.083107265
-0.0041031259
0.082636086
-0.0017652366
0.082401873
0.00078389977
0.082145777
0.0031586697
0.0056605508
0.082083825
0.098872711
-0.038295546
-0.099497962
0.098199114
-0.035910758
0.09747736
-0.033232273
0.096723137
-0.030913605
0.095906885
-0.028153688
0.095182439
-0.025812867
0.094451261
-0.023173155
0.093729854
-0.020808617
0.09289917
-0.018122192
0.092171062
-0.015703242
0.091465741
-0.013192625
0.090794453
-0.010778037
0.090201693
-0.0083705877
0.089607444
-0.0060520946
0.089188304
-0.0036839867
0.088767405
-0.0013443374
0.088496422
0.0010548829
0.088268086
0.0033870051
0.0056662207
0.088262416
0.10567731
-0.037398212
-0.10657464
0.10483871
-0.035072154
0.10408718
-0.032480744
0.10326275
-0.03008918
0.10251153
-0.027402464
0.10174338
-0.025044722
0.10083868
-0.022268452
0.099975565
-0.019945503
0.099116606
-0.017263233
0.098407535
-0.014994171
0.097646962
-0.012432052
0.096970842
-0.010101917
0.096351695
-0.007751441
0.09574044
-0.005440839
0.095256122
-0.0031996689
0.094816361
-0.00090457677
0.094558613
0.0013126306
0.094339598
0.0036060195
0.005655743
0.094350076
0.11229607
-0.036710855
-0.11298343
0.11147031
-0.03424639
0.11066193
-0.031672361
0.10985007
-0.02927732
0.10909288
-0.026645274
0.10830381
-0.024255658
0.10759181
-0.02155645
0.10686401
-0.0192177
0.10606913
-0.016468355
0.10533073
-0.014255769
0.10455239
-0.011653716
0.10394512
-0.009494649
0.10325051
-0.0070568332
0.10272884
-0.0049191616
0.10220526
-0.0026760898
0.10184203
-0.00054134681
0.10159972
0.0015549328
0.10148081
0.0037249309
0.0056147213
0.10152183
0.12038018
-0.035886169
-0.12120487
0.11945041
-0.033316619
0.1185599
-0.030781847
0.11759346
-0.028310875
0.11669734
-0.025749159
0.11578065
-0.023338964
0.11491218
-0.020687989
0.11398854
-0.018294054
0.11316095
-0.015640762
0.11232689
-0.013421714
0.11153192
-0.010858742
0.11086797
-0.0088307041
0.11019782
-0.0063866826
0.10972823
-0.0044495739
0.10920387
-0.0021517305
0.10892178
-0.00025925086
0.10857537
0.0019013357
0.10853643
0.0037638784
0.0056609391
0.10849021
0.12784055
-0.034893908
-0.12883281
0.12687945
-0.032355525
0.1260176
-0.029919997
0.12508703
-0.027380302
0.12425754
-0.024919668
0.12328496
-0.022366381
0.12248193
-0.01988496
0.12165615
-0.01746828
0.12095564
-0.014940255
0.12018593
-0.012652
0.11957582
-0.010248632
0.11896023
-0.0082151175
0.11842107
-0.0058475186
0.11791625
-0.0039447568
0.11742379
-0.0016592693
0.11710372
6.0823806e-05
0.11674523
0.002259817
0.11669122
0.0038178884
0.005769046
0.11658312
0.13710052
-0.033843061
-0.13815137
0.13606106
-0.031316065
0.13500183
-0.028860761
0.13394771
-0.026326181
0.13298118
-0.023953144
0.13201938
-0.021404577
0.13112347
-0.018989058
0.13013376
-0.016478569
0.12925524
-0.014061731
0.1283599
-0.011756665
0.1276516
-0.0095403324
0.12687358
-0.0074370926
0.1263651
-0.0053390395
0.12581229
-0.0033919516
0.12546317
-0.0013101418
0.12509683
0.00042716227
0.12492696
0.0024296903
0.12482275
0.0039220937
0.0057818642
0.12480993
0.1458131
-0.032703982
-0.14695217
0.14482295
-0.030325919
0.14376416
-0.027801974
0.1427899
-0.025351918
0.14179399
-0.022957237
0.14085322
-0.020463807
0.14004099
-0.018176829
0.13921076
-0.015648337
0.13843536
-0.01328633
0.13762755
-0.010948858
0.13686821
-0.0087809885
0.13609229
-0.0066611696
0.13553568
-0.0047824375
0.13495161
-0.0028078821
0.13463396
-0.00099248391
0.1342806
0.0007805164
0.13421781
0.0024924793
0.13410963
0.004030279
0.0055902146
0.13430128
0.15629967
-0.031375528
-0.15762813
0.15510148
-0.029127723
0.15394679
-0.026647284
0.15289066
-0.024295793
0.1517
-0.021766571
0.15057089
-0.019334704
0.14944172
-0.017047656
0.14852613
-0.014732743
0.14774177
-0.012501974
0.14703626
-0.010243343
0.14636252
-0.0081072581
0.14569281
-0.0059914544
0.14512615
-0.0042157785
0.14456987
-0.0022515989
0.14421168
-0.00063429442
0.14389878
0.001093417
0.14379493
0.0025963279
0.14371467
0.004110537
0.0053662225
0.14393866
0.16645241
-0.030185711
-0.16764222
0.16528561
-0.027960923
0.16421171
-0.025573387
0.16323941
-0.023323498
0.16230991
-0.020837068
0.16138708
-0.018411871
0.16029716
-0.015957738
0.1592377
-0.013673288
0.15820584
-0.011470114
0.15736806
-0.00940556
0.15661528
-0.0073544759
0.15600658
-0.0053827614
0.1553982
-0.0036073924
0.15486257
-0.001715967
0.15446429
-0.00023602211
0.15416746
0.0013902475
0.15404433
0.0027194579
0.15407089
0.0040839802
0.0051515962
0.15428551
0.17859297
-0.028823798
-0.17995488
0.17701236
-0.026380308
0.17558984
-0.024150876
0.17423836
-0.021972016
0.1731551
-0.019753807
0.17222298
-0.01747975
0.17131876
-0.015053516
0.17041051
-0.012765041
0.16947553
-0.010535135
0.16860252
-0.0085325431
0.16776585
-0.0065178146
0.1670815
-0.0046984057
0.16645103
-0.0029769271
0.16600649
-0.0012714224
0.16561946
0.00015100209
0.1653978
0.0016119091
0.16529355
0.0028237107
0.16540704
0.0039704923
0.0049246119
0.16563402
0.19037735
-0.0276315
-0.19156965
0.18912204
-0.025125003
0.18800973
-0.023038557
0.18664949
-0.020611778
0.18542123
-0.018525547
0.18415349
-0.016212011
0.18313732
-0.01403735
0.18216449
-0.011792206
0.1812915
-0.0096621525
0.18043279
-0.0076738313
0.17965962
-0.0057446417
0.1789711
-0.0040098903
0.17834203
-0.0023478564
0.17785931
-0.00078870401
0.17742454
0.00058577421
0.17719004
0.001846408
0.17706109
0.0029526582
0.17713925
0.0038923353
0.0047259464
0.17733792
0.20355978
-0.025921485
-0.2052698
0.20203538
-0.023600595
0.20066034
-0.021663521
0.19941023
-0.019361664
0.19824799
-0.017363309
0.19702626
-0.014990284
0.19595302
-0.012964109
0.19489215
-0.010731339
0.1940289
-0.0087989009
0.19318635
-0.0068312843
0.19248449
-0.005042782
0.19179646
-0.0033218621
0.1912654
-0.0018167902
0.19082519
-0.0003484973
0.19047614
0.00093482746
0.19029706
0.0020254821
0.19027618
0.0029735412
0.19041471
0.0037538036
0.0044570253
0.19068363
0.21764878
-0.024175392
-0.21939488
0.21610678
-0.022058591
0.21451736
-0.020074096
0.2131454
-0.017989706
0.2117825
-0.016000408
0.21065384
-0.013861631
0.20956798
-0.011878249
0.20856478
-0.0097281343
0.20768786
-0.0079219857
0.20683668
-0.0059801003
0.20614336
-0.0043494627
0.20547209
-0.0026505953
0.20493781
-0.0012825124
0.20450787
8.1451669e-05
0.20419022
0.0012524776
0.20397689
0.0022388054
0.20391276
0.0030376733
0.20400531
0.003661249
0.0041826765
0.20427966
0.23292155
-0.022485648
-0.23461129
0.23136598
-0.020503021
0.22985369
-0.018561812
0.22841147
-0.016547482
0.22697692
-0.014565862
0.22569787
-0.012582575
0.22443684
-0.010617222
0.22340146
-0.0086927516
0.22240318
-0.0069237138
0.22159589
-0.0051728114
0.22086474
-0.0036183082
0.22030733
-0.0020931859
0.21984559
-0.0008207764
0.21946328
0.00046376332
0.21925327
0.0014624858
0.21915305
0.0023390303
0.21917305
0.0030176682
0.21933925
0.0034950557
0.0038321412
0.21968978
0.24896848
-0.020391356
-0.25106277
0.24709201
-0.018626551
0.24546628
-0.016936089
0.24403377
-0.015114965
0.24272533
-0.013257428
0.24148321
-0.011340453
0.24031143
-0.0094454443
0.23926421
-0.007645533
0.23827085
-0.0059303526
0.23745021
-0.0043521718
0.23667285
-0.0028409428
0.23606369
-0.0014840304
0.23553018
-0.00028726242
0.23523071
0.00076322717
0.2349665
0.001726696
0.23487288
0.0024326563
0.23489241
0.0029981319
0.23506514
0.0033223299
0.0034888518
0.23540843
0.26696043
-0.018173872
-0.26917792
0.2649026
-0.01656872
0.26297818
-0.01501167
0.26120465
-0.01334143
0.2596673
-0.011720076
0.25828931
-0.0099624672
0.2571183
-0.0082744397
0.25608954
-0.0066167669
0.25517915
-0.0050199595
0.25440518
-0.0035782107
0.25381896
-0.0022547213
0.25333997
-0.0010050429
0.25293441
0.00011830025
0.2526992
0.00099843427
0.25259693
0.0018289735
0.25260215
0.0024274321
0.25270034
0.0028999375
0.2529484
0.0030742777
0.0031564512
0.2532808
0.28611351
-0.015539568
-0.28874781
0.28379743
-0.014252637
0.28170082
-0.01291506
0.27981409
-0.011454699
0.27809947
-0.01000546
0.27662096
-0.0084839534
0.27530279
-0.0069562706
0.27420398
-0.005517958
0.273262
-0.0040779823
0.27242742
-0.0027436314
0.27176447
-0.0015917744
0.27128254
-0.00052311165
0.27107357
0.00032727323
0.27093162
0.0011403787
0.27097754
0.0017830588
0.27111625
0.0022887185
0.27137983
0.002636361
0.27171323
0.0027408745
0.0027498177
0.27211986
0.3070983
-0.012342078
-0.31029579
0.30426946
-0.011423793
0.30175911
-0.010404717
0.29961913
-0.0093147164
0.29779556
-0.0081818855
0.29621486
-0.0069032558
0.29494839
-0.0056897993
0.29385745
-0.0044270234
0.29303039
-0.0032509228
0.29239378
-0.0021070131
0.29187092
-0.0010689235
0.29145926
-0.00011145093
0.29116624
0.00062030088
0.29108952
0.0012170973
0.29115501
0.0017175645
0.29136946
0.0020742675
0.29172366
0.0022821589
0.29215563
0.0023089106
0.0022261733
0.29267927
0.33067833
-0.0087152071
-0.3343052
0.32734101
-0.0080864729
0.3243094
-0.007373108
0.32162831
-0.0066336257
0.31929853
-0.0058521094
0.31730672
-0.0049114427
0.31567573
-0.0040588091
0.31436665
-0.0031179393
0.31339687
-0.0022811428
0.31274351
-0.0014536536
0.31237631
-0.00070172492
0.31234456
-7.9702614e-05
0.31244064
0.00052422154
0.31266023
0.0009975028
0.31298289
0.0013949077
0.31338906
0.0016680973
0.3138554
0.0018158206
0.3143924
0.0017719079
0.0016596329
0.31495894
0.35585514
-0.0046132869
-0.35995706
0.35206507
-0.0042964042
0.34862437
-0.0039324035
0.34555157
-0.0035608296
0.34283528
-0.003135818
0.34059143
-0.0026675983
0.33872881
-0.0021961891
0.33731868
-0.0017078112
0.33628507
-0.0012475247
0.33563615
-0.00080473806
0.33531272
-0.00037829852
0.33523154
1.4856779e-06
0.33547837
0.00027738405
0.3359172
0.00055867883
0.33652507
0.00078703245
0.33717515
0.001018021
0.33787009
0.0011208799
0.33862335
0.0010186454
0.0010482915
0.33923469
0.38385526
-0.38846855
0.37955886
0.37562645
0.37206562
0.3689298
0.36626221
0.36406602
0.36235821
0.36111068
0.36030594
0.35992764
0.35992913
0.36020651
0.36076519
0.36155222
0.36257025
0.36369113
0.36470977
0.36575806
0.057582213
0.0082216618
-0.0079517317
0.057519957
0.011227394
-0.011165138
0.057588027
0.014240363
-0.014308434
0.057745165
0.017370928
-0.017528067
0.058124617
0.02037259
-0.020752042
0.058693811
0.023472398
-0.024041591
0.059406124
0.026765025
-0.027477339
0.060308198
0.029921737
-0.030823811
0.061237743
0.033285116
-0.034214661
0.062350529
0.03652927
-0.037642056
0.063508774
0.039839632
-0.040997878
0.064780998
0.043208688
-0.044480912
0.066112502
0.046549482
-0.047880987
0.067519911
0.049970965
-0.051378374
0.068954558
0.05348156
-0.054916208
0.070411062
0.057123908
-0.058580412
0.071837845
0.060852604
-0.062279388
0.073256637
0.064624548
-0.06604334
0.068415486
0.074644766
-0.069803615
0.061651995
0.0085053182
0.06163439
0.011244999
0.061832174
0.01404258
0.062216109
0.016986992
0.062735407
0.019853292
0.06345314
0.022754665
0.064306169
0.025911996
0.065370478
0.028857427
0.066418203
0.032237391
0.067682075
0.035265396
0.068897603
0.038624104
0.07031875
0.04178754
0.071740095
0.045128137
0.073274452
0.048436609
0.074918656
0.051837356
0.076777919
0.055264645
0.078810576
0.058819947
0.081152394
0.062282729
0.065733811
0.083834069
0.066167899
0.008762845
0.066104863
0.011308035
0.066319619
0.013827824
0.066712831
0.01659378
0.067312812
0.01925331
0.06803156
0.022035918
0.069011095
0.024932461
0.07010661
0.027761912
0.071388407
0.030955593
0.072866772
0.033787031
0.074440995
0.037049881
0.076160136
0.040068399
0.078041436
0.043246836
0.080000421
0.046477624
0.082287966
0.049549811
0.084629447
0.052923164
0.087610351
0.055839043
0.090911636
0.058981444
0.061817908
0.094827539
0.07110465
0.0089558449
0.071077266
0.011335419
0.071343376
0.013561713
0.071785557
0.016151599
0.072504717
0.018534149
0.073323275
0.021217359
0.074475808
0.023779928
0.075622147
0.026615572
0.077172583
0.029405157
0.078732371
0.032227243
0.080591734
0.035190517
0.082507224
0.038152909
0.084906771
0.040847288
0.087377552
0.044006843
0.090463041
0.046464322
0.093702083
0.049684121
0.097757149
0.051783977
0.10217865
0.054559942
0.056115216
0.10788134
0.076451059
0.0091079906
0.076430835
0.011355644
0.076745814
0.013246734
0.077204027
0.015693386
0.07802027
0.017717906
0.078915647
0.020321982
0.080173271
0.022522304
0.081430599
0.025358244
0.08314432
0.027691435
0.084824373
0.03054719
0.086987833
0.033027056
0.089306997
0.035833744
0.092074252
0.038080033
0.095194565
0.04088653
0.098852177
0.042806709
0.10313292
0.045403378
0.10815861
0.046758284
0.11378373
0.048934826
0.049126158
0.12077279
0.08190677
0.0092850462
0.0820102
0.011252213
0.082354238
0.012902696
0.082974901
0.015072723
0.083836078
0.016856729
0.084930925
0.019227135
0.086270224
0.021183006
0.087805501
0.023822966
0.08968978
0.025807156
0.091709589
0.02852738
0.094221099
0.030515545
0.096916631
0.033138212
0.10015586
0.034840803
0.1038471
0.037195296
0.10812536
0.038528441
0.11315197
0.040376773
0.11876549
0.041144764
0.12523616
0.042464148
0.041904272
0.13245805
0.088006686
0.0095407763
0.088213429
0.01104547
0.088501239
0.012614885
0.089295816
0.014278146
0.09017893
0.015973614
0.091507444
0.01789862
0.092879832
0.019810617
0.094717549
0.021985248
0.096717965
0.023806739
0.099152046
0.026093297
0.10192585
0.027741738
0.10517941
0.029884648
0.1088378
0.031182422
0.11308668
0.032946406
0.11792226
0.033692867
0.12333038
0.034968654
0.1293873
0.035087847
0.13598242
0.03586902
0.034850647
0.14303605
0.094188514
0.0097023386
0.094529292
0.010704692
0.094964804
0.012179373
0.095930549
0.013312401
0.096914855
0.014989307
0.098422863
0.016390612
0.09990882
0.01832466
0.10210549
0.019788579
0.10427653
0.0216357
0.10719365
0.023176171
0.11021255
0.024722844
0.11394552
0.026151672
0.11791551
0.027212433
0.12264652
0.028215396
0.12762936
0.028710024
0.13325519
0.029342826
0.13913859
0.029204454
0.14535339
0.029654213
0.028739763
0.15146428
0.10140194
0.0098222304
0.10168948
0.010417157
0.10214495
0.011723899
0.10316434
0.012293007
0.10426237
0.01389128
0.10594597
0.014707014
0.10768999
0.016580639
0.11008536
0.017393207
0.11247679
0.019244271
0.11568721
0.019965746
0.11887546
0.021534588
0.12301735
0.02200979
0.12713821
0.023091564
0.13215664
0.023196967
0.13703391
0.023832758
0.14249292
0.023883811
0.14760826
0.024089122
0.15301511
0.024247359
0.024162509
0.15759236
0.10862549
0.0096869451
0.10891469
0.01012796
0.10963348
0.011005108
0.11066197
0.011264522
0.11197931
0.012573935
0.11379026
0.01289606
0.11585811
0.014512795
0.11843635
0.014814959
0.12119819
0.016482437
0.124578
0.016585929
0.1280349
0.018077687
0.13238406
0.017660632
0.13650872
0.018966906
0.14141682
0.018288869
0.14583987
0.0194097
0.15072856
0.018995122
0.15482531
0.01999238
0.15899691
0.020075751
0.020866331
0.16229309
0.11687489
0.0093951712
0.11710326
0.0098995864
0.11812172
0.0099866528
0.11908739
0.010298847
0.12072098
0.010940346
0.12253809
0.011078947
0.12489996
0.012150929
0.12747192
0.012242999
0.13048518
0.013469169
0.13387702
0.01319409
0.1376091
0.014345611
0.14166966
0.013600066
0.14561285
0.01502372
0.14992294
0.013978774
0.15344445
0.015888195
0.15734893
0.015090637
0.15994689
0.017394424
0.16263861
0.017384024
0.019595586
0.16390936
0.12503964
0.0091654585
0.12537241
0.0095668244
0.12655788
0.0088011809
0.12758616
0.0092705622
0.12955228
0.0089742208
0.13144433
0.0091869022
0.13405491
0.0095403461
0.13666867
0.0096292424
0.13990371
0.010234119
0.1432424
0.0098553997
0.14698955
0.010598458
0.15062565
0.0099639657
0.15430342
0.011345948
0.15759946
0.010682739
0.1603653
0.013122353
0.16291279
0.012543153
0.1640189
0.016288314
0.16496695
0.016435965
0.020880989
0.16368155
0.13440451
0.009062225
0.13504787
0.0089234613
0.13610391
0.0077451433
0.13733259
0.0080418865
0.13935974
0.0069470685
0.14117804
0.0073685997
0.14399436
0.0067240261
0.14655528
0.0070683217
0.14987532
0.0069140746
0.15302377
0.0067069455
0.15645161
0.007170621
0.15939567
0.0070199041
0.16227018
0.0084714387
0.16436292
0.0085900028
0.16597221
0.01151306
0.16655523
0.011960131
0.16626488
0.016578668
0.16502186
0.017678985
0.024029304
0.16187354
0.14400334
0.008997545
0.14494223
0.0079845738
0.14583059
0.0068567785
0.14744314
0.0064293325
0.14929947
0.0050907376
0.15139435
0.0052737284
0.15421788
0.0039004892
0.15668141
0.0046047875
0.15998699
0.0036084979
0.16254823
0.0041457068
0.16553145
0.0041873964
0.1677491
0.004802253
0.16984189
0.0063786517
0.17062283
0.007809057
0.17079778
0.011338112
0.16948251
0.013275404
0.16751426
0.018546918
0.16435924
0.020833998
0.028431229
0.15995732
0.15451386
0.0087691962
0.15546902
0.007029418
0.15637985
0.0059459472
0.15826688
0.0045422989
0.15991711
0.003440509
0.16238127
0.0028095665
0.16475671
0.0015250498
0.16736318
0.0019983188
0.17014633
0.00082534555
0.1721442
0.002147833
0.1746482
0.001683394
0.17572691
0.0037235482
0.17661176
0.0054937947
0.1758954
0.0085254194
0.1748908
0.012342713
0.17209799
0.016068218
0.16886908
0.021775829
0.16403307
0.02567
0.034195907
0.1582684
0.16611566
0.008287555
0.1670407
0.0061043767
0.16815313
0.004833522
0.169962
0.0027334259
0.17157311
0.0018293933
0.17408893
0.00029374781
0.17606951
-0.00045552949
0.17874281
-0.00067498488
0.18069524
-0.0011270781
0.18256304
0.00028002601
0.18381912
0.00042731526
0.18354362
0.0039990482
0.18314394
0.00589347
0.18100152
0.010667838
0.178768
0.014576242
0.17468247
0.020153744
0.17049713
0.025961166
0.16435713
0.031810003
0.040972885
0.15758015
0.17794335
0.0076821204
0.17874479
0.0053029403
0.18007019
0.0035081206
0.18179088
0.0010127355
0.18359514
2.512909e-05
0.18582666
-0.0019377705
0.1875179
-0.0021467726
0.18980074
-0.0029578173
0.19098479
-0.0023111328
0.19237825
-0.0011134315
0.19208705
0.00071850636
0.19143685
0.0046492539
0.18986056
0.0074697601
0.18673127
0.01379712
0.18336323
0.017944284
0.17802049
0.025496484
0.1728592
0.031122463
0.16582102
0.03884818
0.04740476
0.15938914
0.19138725
0.0069784987
0.19222491
0.0044652831
0.19369882
0.0020342087
0.19525189
-0.00054032932
0.19707196
-0.0017949442
0.19877162
-0.0036374303
0.20023522
-0.0036103772
0.2017405
-0.0044630931
0.20211275
-0.0026833884
0.20239265
-0.0013933266
0.201024
0.0020871518
0.19984839
0.0058248693
0.19674
0.010578151
0.19331461
0.017222511
0.18890677
0.022352122
0.18362285
0.0307804
0.17901818
0.035727132
0.17360293
0.044263434
0.049127124
0.17188056
0.20491227
0.0063458927
0.20584313
0.0035344233
0.20721009
0.00066725029
0.20846085
-0.0017910957
0.21019595
-0.0035300401
0.21152932
-0.0049707991
0.21285307
-0.0049341318
0.21339458
-0.0050045976
0.21325059
-0.0025394053
0.21276249
-0.00090522004
0.21093065
0.003918987
0.20874926
0.008006262
0.20470403
0.01462338
0.201306
0.020620537
0.19673434
0.026923781
0.19361149
0.03390326
0.19142093
0.037917684
0.1915701
0.044114269
0.043464817
0.19723241
0.22047231
0.0055633677
0.22145076
0.0025559728
0.22252584
-0.00040783064
0.2237201
-0.0029853615
0.22508226
-0.0048921981
0.22595773
-0.0058462646
0.22689242
-0.0058688251
0.22662366
-0.0047358414
0.22616168
-0.0020774161
0.22458856
0.00066790028
0.22227655
0.0062309898
0.21931807
0.010964739
0.21586042
0.018081036
0.2134438
0.023037157
0.21100447
0.029363104
0.21174958
0.033158156
0.21397162
0.035695647
0.2213048
0.03678109
0.032906645
0.23186297
0.23621851
0.0047532873
0.23722389
0.0015505913
0.23828354
-0.0014674793
0.23929711
-0.0039989343
0.24005188
-0.005646966
0.24048069
-0.0062750767
0.24044581
-0.005833942
0.23957252
-0.0038625499
0.23879192
-0.0012968183
0.23633903
0.0031207927
0.23404067
0.0085293457
0.23118515
0.013820267
0.22939336
0.019872819
0.22893144
0.023499082
0.23039016
0.027904383
0.23503145
0.028516869
0.24172437
0.029002723
0.25251798
0.025987479
0.023181426
0.2622432
0.25414519
0.0038888966
0.25495178
0.00074399657
0.25580619
-0.0023218856
0.25648053
-0.0046732751
0.25689991
-0.0060663416
0.25697776
-0.0063529298
0.25645592
-0.0053121025
0.25571094
-0.0031175642
0.25413215
0.00028197298
0.25186406
0.0053888826
0.25020307
0.010190335
0.24866838
0.015354953
0.24937298
0.019168226
0.25139579
0.021476273
0.25608519
0.023214984
0.2627142
0.02188785
0.27115385
0.020563072
0.28000926
0.01713207
0.017898483
0.28529221
0.27292256
0.0030862027
0.27363259
3.3967164e-05
0.27404884
-0.0027381399
0.27414194
-0.0047663727
0.27396197
-0.005886364
0.27316226
-0.0055532214
0.27195566
-0.0041054996
0.27059219
-0.0017540993
0.26871999
0.0021541756
0.26749816
0.0066107154
0.26686241
0.010826089
0.26794945
0.014267906
0.27110268
0.016015
0.27544801
0.017130947
0.28202514
0.016637853
0.28900634
0.014906643
0.29563509
0.013934331
0.29978476
0.012982397
0.017180586
0.30050266
0.29340692
0.0023585556
0.29395916
-0.00051827264
0.29420166
-0.002980638
0.29412333
-0.0046880408
0.29378923
-0.0055522618
0.29314477
-0.0049087616
0.29221618
-0.0031769135
0.29083026
-0.00036817244
0.28973153
0.003252903
0.28952464
0.0068176105
0.29041812
0.0099326059
0.29297646
0.011709564
0.29651981
0.012471656
0.30136908
0.012281676
0.30713291
0.010874018
0.31176017
0.01027939
0.31479645
0.010898047
0.31501795
0.012760901
0.018727441
0.31347109
0.31581174
0.0015057587
0.31597124
-0.00067777632
0.31539645
-0.0024058463
0.31443065
-0.0037222402
0.31288283
-0.0040044362
0.3111833
-0.0032092374
0.30964551
-0.0016391197
0.30869626
0.00058108011
0.30864776
0.003301408
0.30994741
0.005517955
0.31294903
0.0069309882
0.31721557
0.0074430244
0.32218042
0.0075068042
0.32750379
0.0069583122
0.3316189
0.0067589115
0.33391759
0.0079806984
0.33490727
0.0099083589
0.33456699
0.013101187
0.017423263
0.33587117
0.34013082
0.00060963235
0.34008423
-0.00063119125
0.33920309
-0.0015246993
0.33795351
-0.0024726635
0.33672693
-0.0027778506
0.33572746
-0.0022097676
0.33512314
-0.0010347978
0.33536227
0.00034195423
0.33669684
0.0019668423
0.33900739
0.0032074062
0.3418339
0.004104476
0.34509087
0.0041860515
0.34799449
0.0046031845
0.35046333
0.0044894695
0.35154963
0.0056726128
0.35319971
0.0063306226
0.35534162
0.0077664483
0.35967522
0.0087675863
0.0093838976
0.36771459
0.36636769
0.3657365
0.3642118
0.36173914
0.35896129
0.35675152
0.35571673
0.35605868
0.35802553
0.36123293
0.36533741
0.36952346
0.37412664
0.37861611
0.38428873
0.39061935
0.3983858
0.40715338
0.41653728
0.070602797
0.077782897
-0.073740928
0.066398452
0.08205767
-0.077853325
0.061911165
0.086550594
-0.082063307
0.057025437
0.091804287
-0.086918559
0.052324126
0.096767821
-0.092066511
0.046544235
0.10308169
-0.097301794
0.039857408
0.10935495
-0.10266813
0.029683606
0.11506923
-0.10489543
0.014306747
0.11682236
-0.1014455
-0.0041602288
0.11491361
-0.096446638
-0.022797003
0.11247095
-0.093834176
-0.043929341
0.10658123
-0.085448894
-0.067525112
0.093873905
-0.070278134
-0.090024558
0.077795719
-0.055296273
-0.10839023
0.060163588
-0.041797918
-0.12078065
0.043532671
-0.031142251
-0.12764714
0.028928289
-0.0220618
-0.13003339
0.015135358
-0.012749101
0.0044841594
-0.1286721
-0.0058454568
0.080690971
0.080925994
0.077502828
0.085245813
0.074324282
0.089729139
0.071309968
0.094818602
0.068579963
0.099497826
0.066150808
0.10551084
0.064257657
0.1112481
0.061998767
0.11732812
0.057121235
0.12169989
0.04915772
0.12287713
0.040061807
0.12156686
0.029626992
0.11701605
0.015245141
0.10825576
-0.002064877
0.095105737
-0.020442407
0.078541118
-0.037918984
0.061009247
-0.053538696
0.044548001
-0.068266317
0.02986298
0.017583381
-0.081365539
0.09240485
0.083348683
0.090413606
0.087237057
0.088579551
0.091563195
0.087663894
0.095734259
0.086789218
0.1003725
0.087566075
0.10473398
0.088883617
0.10993056
0.091680637
0.1145311
0.094483536
0.11889699
0.096310606
0.12105006
0.096162168
0.1217153
0.093998857
0.11917936
0.088830069
0.11342454
0.079818152
0.10411765
0.067019828
0.091339442
0.050878847
0.077150229
0.033148797
0.06227805
0.014645406
0.048366371
0.036081324
-0.0038525375
0.10606083
0.085169198
0.1047823
0.088515589
0.10387771
0.092467776
0.10407877
0.095533205
0.10492668
0.099524589
0.10680822
0.10285244
0.1097831
0.10695568
0.11419179
0.11012242
0.11982139
0.11326739
0.12580866
0.11506279
0.13084682
0.11667714
0.13448788
0.11553829
0.13600037
0.11191205
0.13383287
0.10628516
0.12761091
0.097561402
0.11728914
0.087472001
0.10311025
0.076456934
0.086158323
0.065318303
0.055045237
0.06719441
0.11933212
0.086609869
0.11863366
0.089214047
0.11839029
0.092711148
0.11854869
0.095374805
0.12018688
0.097886393
0.12204798
0.10099134
0.12539067
0.10361299
0.12975808
0.10575502
0.13530965
0.10771582
0.14128257
0.10908987
0.14783024
0.11012947
0.15387264
0.10949589
0.15807016
0.10771453
0.15958496
0.10477036
0.15744929
0.09969708
0.1523925
0.092528787
0.14340836
0.085441076
0.13114554
0.077581124
0.070399228
0.11579155
0.13124062
0.087827293
0.13058446
0.089870215
0.13040622
0.092889389
0.13072574
0.095055285
0.13198528
0.096626849
0.13374846
0.099228161
0.1364556
0.10090585
0.13999465
0.10221597
0.14469708
0.10301339
0.14952201
0.10426494
0.15482907
0.10482242
0.16009099
0.10423398
0.16460407
0.10320145
0.16835427
0.10102015
0.16921634
0.09883501
0.16671868
0.095026449
0.1613278
0.09083196
0.15340135
0.085507568
0.080814565
0.14298602
0.14154786
0.089315483
0.14029249
0.091125584
0.13972662
0.093455259
0.13995774
0.094824168
0.14045629
0.096128297
0.14190271
0.097781736
0.14362992
0.099178639
0.14630666
0.099539226
0.14963777
0.09968228
0.15288202
0.10102069
0.15687353
0.1008309
0.16134437
0.099763139
0.16577472
0.098771097
0.1689496
0.097845269
0.17098386
0.096800752
0.17119121
0.0948191
0.1693807
0.092642471
0.16498597
0.089902297
0.087360484
0.15844005
0.14963909
0.091140665
0.14795358
0.092811097
0.14687943
0.094529409
0.14644112
0.095262477
0.14601269
0.096556725
0.14676157
0.097032854
0.14793195
0.098008262
0.1497515
0.097719671
0.15152645
0.097907339
0.15422025
0.098326889
0.15744038
0.097610769
0.16068945
0.096514073
0.16316204
0.096298509
0.16541856
0.095588745
0.16785707
0.094362242
0.16972231
0.092953865
0.17023767
0.092127108
0.16812772
0.092012252
0.091949314
0.16353888
0.15501752
0.09371551
0.15263482
0.095193793
0.15125824
0.095905991
0.14992216
0.096598555
0.14905867
0.097420217
0.14891251
0.097179016
0.14921705
0.097703727
0.15005158
0.096885138
0.15123342
0.096725494
0.15327931
0.096281001
0.15501075
0.09587933
0.15769107
0.093833757
0.16060192
0.093387658
0.16454193
0.091648728
0.16736938
0.091534791
0.16904662
0.091276633
0.1697522
0.091421526
0.17009409
0.091670355
0.092840063
0.16920335
0.15868967
0.097318926
0.1557441
0.098139369
0.15316334
0.098486746
0.15097017
0.098791725
0.14958222
0.098808167
0.14825519
0.098506043
0.14804571
0.09791321
0.14800011
0.09693074
0.14855433
0.096171271
0.15038776