/*--------------------------------*- C++ -*----------------------------------*\
  =========                 |
  \\      /  F ield         | OpenFOAM: The Open Source CFD Toolbox
   \\    /   O peration     | Website:  https://openfoam.org
    \\  /    A nd           | Version:  11
     \\/     M anipulation  |
\*---------------------------------------------------------------------------*/
FoamFile
{
    format      ascii;
    class       volVectorField;
    location    "9.6";
    object      U;
}
// * * * * * * * * * * * * * * * * * * * * * * * * * * * * * * * * * * * * * //

dimensions      [0 1 -1 0 0 0 0];

internalField   nonuniform List<vector> 
5472
(
(10.123615 2.553074 1.7603955e-18)
(10.314359 2.5665852 -1.8330931e-18)
(10.4954 2.5681194 -1.8601248e-18)
(10.702821 2.5340159 -1.8987823e-18)
(10.859745 2.5001101 5.8983122e-18)
(11.068747 2.441716 -3.0842986e-20)
(11.223462 2.3927107 -3.1282833e-18)
(11.415245 2.2944696 1.0882256e-18)
(11.524819 2.2156169 0)
(11.739903 2.1138991 0)
(11.845376 1.9925132 0)
(11.997653 1.8859102 -3.4705009e-18)
(12.137738 1.7376243 1.7841844e-18)
(12.217947 1.6029988 -1.9188894e-20)
(12.352226 1.4465342 1.2170704e-18)
(12.409664 1.2892955 -6.2458821e-19)
(12.501852 1.1378776 -9.4045886e-19)
(12.549516 0.97302958 3.2109081e-19)
(12.607872 0.83483685 0)
(10.156538 2.3600383 -1.6075768e-18)
(10.309012 2.3685345 3.3220544e-18)
(10.485741 2.3631791 -1.7167911e-18)
(10.652747 2.3319037 -1.7361259e-18)
(10.826513 2.3325288 2.0708332e-20)
(11.002372 2.2543541 0)
(11.155519 2.2250854 1.8778333e-18)
(11.298281 2.1468897 -3.8403985e-18)
(11.487796 2.0797628 4.9678185e-18)
(11.641145 1.9763779 1.0171096e-18)
(11.756902 1.8909749 0)
(11.934405 1.7579157 2.1244361e-18)
(12.01532 1.6520902 0)
(12.143091 1.5071991 5.4266743e-19)
(12.240827 1.3785707 -5.5903104e-19)
(12.316085 1.2280811 0)
(12.404026 1.0991135 0)
(12.445581 0.94846071 -2.8365507e-19)
(12.520401 0.80121329 0)
(10.108883 2.1909253 0)
(10.271454 2.2035987 1.5098832e-18)
(10.446771 2.2171658 1.550376e-18)
(10.582958 2.2205633 0)
(10.774714 2.1956335 -1.6595754e-20)
(10.923498 2.1584259 -2.2962597e-20)
(11.05908 2.1466278 -1.7229411e-18)
(11.269413 2.0531287 0)
(11.419797 2.0165878 -1.7838081e-18)
(11.56042 1.9180403 -4.5771051e-18)
(11.71032 1.8375943 1.0641615e-20)
(11.826023 1.7258327 -9.3763556e-19)
(11.936158 1.6207477 -9.6690739e-19)
(12.062041 1.4900679 1.9811944e-18)
(12.140977 1.3688913 1.5004706e-18)
(12.247084 1.2338222 5.0675195e-19)
(12.30139 1.0966615 2.5434069e-19)
(12.378422 0.95364452 -3.8455447e-19)
(12.418764 0.81289976 1.2834636e-19)
(10.124384 2.0121122 0)
(10.32029 2.030606 -1.3623922e-18)
(10.413959 2.0542365 -1.3978427e-18)
(10.59343 2.0486676 2.8580605e-18)
(10.731069 2.0495837 -1.4986454e-18)
(10.838105 2.023598 0)
(11.050244 1.9731486 -1.5548006e-18)
(11.178944 1.9269654 1.5754401e-18)
(11.314047 1.887535 -1.6313115e-18)
(11.457677 1.7874718 -1.6275266e-20)
(11.574009 1.7391666 -1.6962715e-18)
(11.717612 1.6151018 0)
(11.830257 1.5353726 0)
(11.948987 1.3932767 -8.8186898e-19)
(12.051849 1.2992211 -8.9323327e-19)
(12.14526 1.152106 0)
(12.220703 1.0326491 -2.2812966e-19)
(12.293426 0.89699454 1.1534861e-19)
(12.341152 0.75177989 2.3038254e-19)
(10.125162 1.8453426 0)
(10.249711 1.8922846 0)
(10.375144 1.9213655 0)
(10.529667 1.9280801 -2.5848388e-18)
(10.624093 1.9268383 1.3432115e-18)
(10.822328 1.8926545 -4.0821255e-18)
(10.959295 1.8847673 5.5989722e-18)
(11.069213 1.8489499 -2.8618826e-18)
(11.237263 1.799066 2.9049125e-21)
(11.357266 1.7423239 1.4846061e-18)
(11.512342 1.6736794 1.5125906e-18)
(11.646515 1.5751634 -3.0936222e-18)
(11.751856 1.5042074 2.3612325e-18)
(11.87912 1.3714615 -7.9998621e-19)
(11.973204 1.2858901 0)
(12.081613 1.1348461 8.1682567e-19)
(12.15289 1.0382713 -4.1116728e-19)
(12.226406 0.88391811 2.0531358e-19)
(12.279275 0.76620477 -2.0473704e-19)
(10.125238 1.7194696 0)
(10.284248 1.7437691 -4.442255e-18)
(10.363928 1.7727561 2.2955286e-18)
(10.518908 1.7813374 2.3489748e-18)
(10.623627 1.7735271 1.1991829e-18)
(10.780653 1.7830492 -1.2219754e-18)
(10.861908 1.7587109 2.534219e-18)
(11.034879 1.7253388 1.2804931e-18)
(11.16554 1.6908264 2.6156375e-18)
(11.303687 1.6279097 -2.6834864e-18)
(11.434644 1.56839 1.4349776e-20)
(11.537822 1.486954 2.7776686e-18)
(11.672385 1.4018103 0)
(11.775358 1.2908259 -7.1680488e-19)
(11.885874 1.1940847 7.1875396e-19)
(11.971112 1.0699877 -1.815936e-18)
(12.057636 0.96994694 7.3086464e-19)
(12.112805 0.82687382 -1.8341187e-19)
(12.183299 0.71974367 2.8874394e-22)
(10.123361 1.5582181 3.9205719e-18)
(10.239387 1.612569 4.0070025e-18)
(10.330487 1.6377811 0)
(10.468667 1.6370429 -6.0282099e-21)
(10.548189 1.6720491 -4.3270438e-18)
(10.693494 1.6652539 4.4486634e-18)
(10.80828 1.6488079 0)
(10.982631 1.6359757 -1.1617555e-18)
(11.0783 1.5949868 -4.7131947e-18)
(11.231197 1.5640631 2.4208246e-18)
(11.342476 1.505177 1.2186629e-18)
(11.478668 1.4333927 -1.2501582e-18)
(11.596374 1.3622019 0)
(11.700909 1.2555035 6.3506926e-19)
(11.820224 1.1670638 0)
(11.896835 1.0514648 -6.4755568e-19)
(11.998912 0.94017686 9.804384e-19)
(12.045442 0.82388008 7.4330348e-22)
(12.131313 0.69304612 -7.2045315e-22)
(10.162275 1.4528737 1.7548906e-18)
(10.257774 1.4636444 -3.6011965e-18)
(10.341336 1.5114822 -3.681485e-18)
(10.449803 1.5294319 3.7961174e-18)
(10.541657 1.5424668 -1.9511404e-18)
(10.692211 1.5338073 -1.9843899e-18)
(10.774359 1.5503291 0)
(10.918073 1.5151665 3.1016213e-18)
(10.998152 1.4998458 -1.1622076e-20)
(11.166032 1.461839 -3.224114e-18)
(11.247417 1.4066692 3.3025759e-18)
(11.398692 1.3559276 0)
(11.484703 1.2637336 0)
(11.61908 1.1916306 1.1348349e-18)
(11.691065 1.0897889 -5.8094663e-19)
(11.792966 0.99221969 -1.157871e-18)
(11.866983 0.8904323 2.9297552e-19)
(11.928715 0.77365907 2.9473726e-19)
(11.998633 0.64941286 7.2408608e-20)
(10.10978 1.3145953 -1.5728968e-18)
(10.206484 1.350342 4.8346638e-18)
(10.30488 1.3816324 -4.9831826e-18)
(10.40579 1.3898352 3.3978476e-18)
(10.491699 1.421173 0)
(10.608986 1.4306426 1.7739805e-18)
(10.704537 1.4317002 -1.8290046e-18)
(10.864035 1.4248575 0)
(10.9487 1.4168416 9.4074753e-19)
(11.109812 1.3719235 -1.9421455e-18)
(11.185745 1.3349566 -9.745312e-19)
(11.345635 1.2744666 -7.8795013e-21)
(11.413308 1.212669 -3.0163098e-18)
(11.559912 1.1365592 5.1721991e-19)
(11.619334 1.0411495 -5.0624406e-19)
(11.743563 0.95624737 1.0328916e-18)
(11.792197 0.84200772 -5.1600287e-19)
(11.895861 0.74559562 2.6269668e-19)
(11.937228 0.61589421 2.5884944e-19)
(10.181462 1.1812885 -2.827899e-18)
(10.254095 1.2264526 0)
(10.334065 1.2739022 1.4822523e-18)
(10.407862 1.2933748 -4.5485897e-18)
(10.495621 1.3152231 1.5654332e-18)
(10.594875 1.3045484 -1.5947911e-18)
(10.683342 1.3330903 1.6197165e-18)
(10.797406 1.3158993 -1.6661683e-18)
(10.88184 1.316867 0)
(11.01434 1.2824327 8.5618036e-19)
(11.086064 1.2630895 0)
(11.228629 1.2059847 8.7984806e-19)
(11.296101 1.1538636 9.4154665e-24)
(11.447385 1.074136 -4.4865212e-19)
(11.502797 0.99758762 4.5259111e-19)
(11.639252 0.90110687 4.5594062e-19)
(11.674284 0.80078387 -2.2283891e-21)
(11.789809 0.69966208 -6.8965578e-19)
(11.806935 0.57254143 0)
(10.125771 1.0657879 0)
(10.193547 1.1159439 1.2924074e-18)
(10.277622 1.1524338 0)
(10.344179 1.1730858 1.3485406e-18)
(10.440043 1.1989244 -4.1690188e-18)
(10.514574 1.2164662 4.2686527e-18)
(10.616557 1.2227487 -1.4365897e-18)
(10.721447 1.2223957 4.448733e-18)
(10.825127 1.2236049 0)
(10.951674 1.192748 7.6621863e-19)
(11.049254 1.1691908 0)
(11.194201 1.1044176 -1.5638078e-18)
(11.275073 1.0702072 3.1744822e-18)
(11.415511 0.99124196 -6.5998114e-21)
(11.473544 0.93825775 -4.0442443e-19)
(11.595444 0.8427648 0)
(11.630044 0.76938776 0)
(11.739264 0.65298604 0)
(11.751684 0.55166527 -5.0902756e-20)
(10.164382 0.96634147 4.4946339e-18)
(10.235685 1.0202798 -5.7791292e-18)
(10.295836 1.0442038 2.3579949e-18)
(10.353687 1.0765211 -6.191417e-21)
(10.436465 1.0980426 0)
(10.503208 1.1151645 -2.5206992e-18)
(10.602112 1.1348576 1.3007376e-18)
(10.681457 1.1337825 -1.3116969e-18)
(10.781127 1.1339309 0)
(10.863149 1.1178639 -6.7700041e-19)
(10.971543 1.0959887 1.3709818e-18)
(11.067895 1.0563648 -1.0952679e-20)
(11.163449 1.0137544 -1.4123348e-18)
(11.283958 0.94706017 -2.8312685e-18)
(11.360584 0.88949283 2.4993117e-18)
(11.474932 0.79513229 -1.4343466e-18)
(11.527067 0.72547633 9.0140582e-19)
(11.626871 0.60585954 1.8061801e-19)
(11.649715 0.5251924 4.467652e-20)
(10.13179 0.85673482 -7.0168826e-18)
(10.191784 0.89968064 4.1194261e-18)
(10.247007 0.93803565 0)
(10.313507 0.97346802 -5.3720463e-18)
(10.389185 0.98968111 4.4123906e-18)
(10.458741 1.0155911 1.1245191e-18)
(10.556358 1.0209389 3.4305585e-18)
(10.641902 1.0401094 -2.3401087e-18)
(10.745305 1.0429063 -2.9563217e-18)
(10.832952 1.0280092 1.8121718e-18)
(10.948545 1.005212 2.4289943e-18)
(11.025708 0.96736452 -3.7032295e-18)
(11.136923 0.92298309 2.4893314e-18)
(11.222214 0.87340649 -6.3360355e-19)
(11.316315 0.81679043 3.1261297e-19)
(11.402257 0.74566026 -3.5705126e-21)
(11.482445 0.67170657 -7.9487103e-19)
(11.557618 0.57362564 -1.5835776e-19)
(11.610317 0.48427316 -3.9685704e-20)
(10.158152 0.76986231 2.6829517e-18)
(10.205959 0.80220035 3.6502208e-18)
(10.252047 0.84850611 -3.7473424e-18)
(10.312013 0.88134609 9.5631755e-19)
(10.364666 0.91071442 -2.9206682e-18)
(10.427752 0.93279293 3.0002487e-18)
(10.497416 0.93986417 1.0107192e-18)
(10.572938 0.95447244 -5.1666038e-18)
(10.66569 0.95565655 3.6708418e-18)
(10.753311 0.95683698 -1.6050468e-18)
(10.864143 0.9428099 0)
(10.946643 0.91876505 -5.458353e-19)
(11.064015 0.86866573 -1.6458264e-18)
(11.145136 0.82279213 5.6201612e-19)
(11.244795 0.75849973 1.6724635e-18)
(11.318241 0.69282631 5.5703922e-19)
(11.407274 0.61608181 -1.119632e-18)
(11.459272 0.53486064 2.8171234e-19)
(11.535517 0.43916583 3.1412628e-19)
(10.108928 0.67069764 -3.9578671e-18)
(10.176029 0.70111183 3.25212e-18)
(10.228286 0.73987545 0)
(10.290288 0.76632818 -8.4769355e-19)
(10.349612 0.80669334 3.4546785e-18)
(10.421573 0.83735735 -7.0571176e-18)
(10.49406 0.85636026 9.1732405e-19)
(10.571309 0.86305771 3.6680607e-18)
(10.641695 0.86344154 2.7858684e-18)
(10.721592 0.85945738 -4.7068447e-19)
(10.809729 0.84660843 0)
(10.897551 0.82830902 2.394536e-18)
(11.000611 0.79141556 -9.7554491e-19)
(11.076166 0.75982805 9.7455149e-19)
(11.167002 0.69907541 -1.4728179e-18)
(11.240045 0.64454025 -2.4640262e-19)
(11.320667 0.5675227 0)
(11.375221 0.49116311 0)
(11.453971 0.3943625 -3.0741479e-20)
(10.137793 0.58717294 6.9032574e-19)
(10.177074 0.63153771 -6.4851956e-18)
(10.205427 0.6649509 2.937224e-18)
(10.252017 0.68706518 -3.7578245e-18)
(10.301134 0.7165107 -7.6533499e-19)
(10.366935 0.74420807 0)
(10.436884 0.7781686 -3.9591395e-18)
(10.513818 0.79681892 2.4273258e-18)
(10.593163 0.80413541 -8.1880787e-19)
(10.676333 0.79388254 -1.1955383e-21)
(10.754616 0.78414816 0)
(10.841724 0.76401021 0)
(10.928465 0.73368144 -4.2525913e-19)
(11.014361 0.70177813 -4.2777186e-19)
(11.09761 0.64551122 2.1483308e-19)
(11.176638 0.59362524 1.2939761e-18)
(11.250347 0.52183664 -8.6755557e-19)
(11.314265 0.44915692 1.084454e-19)
(11.382064 0.36026434 2.6856843e-20)
(10.12334 0.4772226 4.3565016e-18)
(10.156362 0.53056704 -4.4655797e-18)
(10.212779 0.56516382 0)
(10.25495 0.59987011 6.6348787e-19)
(10.301886 0.62306301 0)
(10.356579 0.64616983 6.8846444e-19)
(10.411287 0.67543012 7.0004774e-19)
(10.478228 0.69604218 0)
(10.550472 0.71259457 3.5935221e-18)
(10.622783 0.71392012 -2.5603225e-18)
(10.703137 0.70983219 1.8386691e-18)
(10.788221 0.69034956 -1.4913793e-18)
(10.870065 0.66454509 1.4933484e-18)
(10.953394 0.63326582 -8.5574004e-21)
(11.024521 0.58898833 -1.516677e-18)
(11.101684 0.53717986 -1.8909527e-19)
(11.163151 0.47395796 -1.9019414e-19)
(11.231018 0.40071279 -9.4647487e-20)
(11.279431 0.31918719 0)
(10.111708 0.40897833 4.9668879e-18)
(10.125702 0.45976813 0)
(10.174343 0.48244077 0)
(10.199719 0.52817862 5.8563314e-19)
(10.264333 0.54789434 0)
(10.306098 0.58774216 -6.0623308e-19)
(10.372671 0.60227331 -6.1571173e-19)
(10.431171 0.62678358 -2.4947053e-18)
(10.499744 0.6395305 2.5385149e-18)
(10.571477 0.64401271 0)
(10.651244 0.64458855 -2.9049223e-18)
(10.730865 0.63217084 2.2907309e-18)
(10.813377 0.61215288 1.3101578e-18)
(10.895225 0.58252805 -2.641318e-18)
(10.971382 0.54206633 2.6512726e-18)
(11.047021 0.49152157 -1.9947812e-18)
(11.112088 0.43227876 6.6581779e-19)
(11.182353 0.36297323 0)
(11.227787 0.28830738 0)
(10.099206 0.32724979 7.8023939e-18)
(10.128864 0.36841187 -3.9823917e-18)
(10.159133 0.39698945 4.0513817e-18)
(10.191074 0.43015534 -4.6495294e-18)
(10.235995 0.45856396 -4.1952224e-18)
(10.274497 0.4917261 4.2751536e-18)
(10.345101 0.51494802 2.1625499e-18)
(10.394041 0.5413466 -8.2626196e-21)
(10.468983 0.54743885 -2.2280762e-18)
(10.532054 0.56108712 0)
(10.607394 0.55744667 0)
(10.682533 0.55658171 2.8552274e-19)
(10.759651 0.537552 0)
(10.835197 0.51602097 1.1534131e-18)
(10.906681 0.48359057 -1.163195e-18)
(10.975599 0.4383083 -5.7995525e-19)
(11.038643 0.38401983 7.2807854e-19)
(11.09538 0.32099497 -3.6296692e-19)
(11.141781 0.25271957 2.8990996e-19)
(10.073384 0.26382642 0)
(10.111641 0.30223182 0)
(10.133501 0.33474773 3.5694137e-18)
(10.17687 0.36943965 -3.6375334e-18)
(10.209399 0.39481834 4.1514716e-18)
(10.258838 0.42499917 -4.2246773e-18)
(10.308923 0.44994459 0)
(10.355203 0.47712448 4.8195224e-19)
(10.42059 0.48996527 1.9458154e-18)
(10.479078 0.50233913 -1.9737621e-18)
(10.556924 0.50052029 1.9823855e-18)
(10.628941 0.49813421 -9.755201e-21)
(10.710583 0.48024326 -4.0256822e-18)
(10.781809 0.46314373 2.0265916e-18)
(10.859066 0.4302466 0)
(10.925534 0.3918489 -1.0133842e-18)
(10.992061 0.34233616 1.5888936e-18)
(11.048029 0.28266194 -6.9872305e-19)
(11.09384 0.21729692 2.5316362e-19)
(10.065901 0.18669183 1.1754409e-17)
(10.086575 0.22013417 -6.1859028e-18)
(10.109947 0.2478836 0)
(10.148783 0.27989012 -3.9944622e-19)
(10.180441 0.31304316 -4.0555249e-19)
(10.235426 0.34229566 4.1135837e-19)
(10.277702 0.3709679 0)
(10.338335 0.39047886 -4.2185289e-19)
(10.388369 0.40820733 3.4077169e-18)
(10.452835 0.41956982 -3.4533305e-18)
(10.512885 0.42567512 0)
(10.585021 0.42600076 0)
(10.652827 0.41527735 2.2004031e-19)
(10.721551 0.40051942 1.1045755e-19)
(10.793831 0.37635623 -1.1075218e-19)
(10.852217 0.34297558 0)
(10.916681 0.30179658 -4.9764998e-19)
(10.9653 0.25080224 4.4366533e-19)
(11.010724 0.19186406 0)
(10.049654 0.13935864 -1.0682045e-17)
(10.068636 0.16838875 1.1214491e-17)
(10.093434 0.19298022 -6.7499295e-21)
(10.11681 0.22093854 -5.2644708e-18)
(10.149579 0.24615906 0)
(10.189822 0.27819948 2.8817944e-18)
(10.234399 0.30350229 -6.0251407e-18)
(10.288214 0.32917216 2.9589467e-18)
(10.34375 0.34631255 0)
(10.407448 0.35656192 -3.0060584e-18)
(10.471566 0.36323458 3.0404416e-18)
(10.546993 0.36195791 1.5231792e-18)
(10.610698 0.35731964 -1.5368173e-18)
(10.690171 0.33922535 1.343364e-18)
(10.751637 0.32094846 -1.449849e-18)
(10.823361 0.28890808 0)
(10.877847 0.25138867 -4.8317915e-20)
(10.932707 0.20256978 -1.4423107e-19)
(10.971337 0.14752698 2.043299e-19)
(10.042669 0.079875099 2.9385382e-19)
(10.060575 0.10444948 -5.9724645e-19)
(10.078377 0.12808108 4.8475914e-18)
(10.101502 0.15509372 3.0074003e-19)
(10.130081 0.178978 -3.2058076e-19)
(10.165946 0.20517896 -5.0571557e-18)
(10.208016 0.23092708 1.5967632e-19)
(10.251903 0.25086309 2.7410339e-18)
(10.308416 0.27179282 -2.6116037e-18)
(10.359424 0.28710498 -1.6442962e-19)
(10.426284 0.29411188 0)
(10.4882 0.29985864 2.8241527e-18)
(10.556533 0.29478183 -2.8472148e-18)
(10.629232 0.28825144 -1.2545931e-18)
(10.690843 0.27372477 8.9902679e-20)
(10.762301 0.25394036 2.0184598e-18)
(10.815745 0.22767461 -6.3152654e-19)
(10.87513 0.18851104 -6.2886288e-20)
(10.911532 0.14740869 -1.0427903e-20)
(10.017957 0.052938479 0)
(10.032749 0.067619891 2.6206095e-19)
(10.045192 0.084336076 4.2510895e-18)
(10.069212 0.10411801 -4.7183091e-18)
(10.097411 0.12503819 4.4994345e-18)
(10.135364 0.1469235 -4.4227976e-18)
(10.177231 0.16776753 1.3966652e-19)
(10.226187 0.18673926 -1.409052e-19)
(10.27763 0.20357231 2.1292863e-18)
(10.33597 0.2165701 -2.1526825e-18)
(10.401241 0.22422599 2.157683e-18)
(10.465351 0.22638574 -2.3946499e-18)
(10.535698 0.22158819 0)
(10.598096 0.21101006 1.1638535e-18)
(10.665108 0.19580498 -1.3165677e-18)
(10.724778 0.17518595 5.8307611e-19)
(10.781234 0.14867704 -5.4857929e-19)
(10.831816 0.11725065 -2.5461499e-19)
(10.870212 0.080211934 2.9531168e-19)
(10.020257 0.02666191 -4.3470667e-21)
(10.032457 0.033821444 -7.3545651e-18)
(10.044582 0.044506615 1.1644994e-19)
(10.059087 0.057622038 -5.4816578e-23)
(10.079189 0.07102513 1.1930471e-19)
(10.104995 0.092170889 0)
(10.138109 0.10806693 3.8967908e-18)
(10.181998 0.12831652 -4.064165e-18)
(10.225011 0.14325962 1.2392268e-19)
(10.282133 0.1586121 -1.9330096e-18)
(10.339953 0.17027623 4.0828605e-18)
(10.405623 0.17880966 -4.0382445e-18)
(10.47765 0.18317581 2.0298329e-18)
(10.545704 0.18199521 0)
(10.616731 0.17738032 -9.8173181e-19)
(10.679217 0.1670399 1.0176726e-18)
(10.738226 0.1513943 -1.5809941e-20)
(10.790087 0.12755799 2.3308064e-23)
(10.830491 0.10118246 -3.934348e-21)
(10.006463 0.012036733 6.4059035e-18)
(10.012972 0.017663868 -6.4363805e-18)
(10.02306 0.023993332 6.4206411e-18)
(10.037867 0.028768252 1.0306505e-19)
(10.056455 0.035387483 0)
(10.08164 0.043554972 0)
(10.116155 0.051266043 -5.3059434e-20)
(10.157345 0.059505909 -3.3718396e-18)
(10.20747 0.065973126 3.5130626e-18)
(10.264688 0.071447728 3.4428525e-18)
(10.325587 0.0758981 -1.673495e-18)
(10.393952 0.076059113 -1.8386524e-18)
(10.461764 0.073753943 0)
(10.532201 0.069287646 2.7550122e-20)
(10.601327 0.063544171 2.751525e-20)
(10.663431 0.055566141 8.6481342e-19)
(10.72136 0.044649714 -8.9487983e-19)
(10.767697 0.030074371 1.9848953e-19)
(10.806163 0.01348199 -2.1885814e-19)
(10.005368 0.0024000542 -4.3110603e-20)
(10.009583 0.0041309866 5.5696541e-18)
(10.017012 0.0072356976 -3.0890953e-21)
(10.028131 0.011663375 -4.39629e-21)
(10.043786 0.016790757 -5.76397e-18)
(10.06546 0.022405565 0)
(10.094395 0.028296934 2.8861252e-18)
(10.131214 0.034119641 -2.9140965e-18)
(10.175931 0.039617426 -4.6452153e-20)
(10.227993 0.044360334 -2.3353186e-20)
(10.287148 0.048294606 -2.3455388e-20)
(10.350877 0.052159163 2.3540451e-20)
(10.415181 0.056906258 0)
(10.481442 0.06254358 1.4934394e-18)
(10.548044 0.065347672 -1.5292661e-18)
(10.611666 0.070089201 -7.4976036e-19)
(10.68473 0.069868675 7.6398876e-19)
(10.728362 0.060245074 3.855739e-19)
(10.785667 0.060856182 -3.7928902e-19)
(12.65254 0.68562276 -1.5489688e-19)
(12.675614 0.55756317 -6.1941264e-19)
(12.718399 0.42267657 6.0418343e-19)
(12.705341 0.30643925 0)
(12.71738 0.17862802 -1.1377641e-18)
(12.694379 0.079393531 -2.1932682e-18)
(12.706821 -0.01731722 0)
(12.676837 -0.10841816 -1.6403146e-20)
(12.664255 -0.20064575 3.7174309e-18)
(12.64218 -0.27692734 1.7680996e-18)
(12.618116 -0.36047714 -1.646366e-18)
(12.60745 -0.41696215 3.1311347e-18)
(12.595226 -0.4805563 -2.9190477e-18)
(12.595092 -0.52094045 0)
(12.608132 -0.55941529 1.3074741e-18)
(12.638864 -0.57540181 -1.2312671e-18)
(12.691361 -0.58239911 -2.3515508e-18)
(12.765975 -0.57711208 2.2201873e-18)
(12.82608 -0.55619784 -1.0577692e-18)
(12.527937 0.65679334 -1.3361849e-19)
(12.587689 0.50353335 7.9900793e-19)
(12.579252 0.36373122 -5.2281024e-19)
(12.619466 0.23692989 0)
(12.613955 0.11625339 -9.9313541e-19)
(12.598246 -0.0046652203 2.8544694e-18)
(12.623324 -0.096530137 0)
(12.584862 -0.19381266 0)
(12.616704 -0.2669058 0)
(12.589763 -0.34154539 0)
(12.591604 -0.40695953 2.9314114e-18)
(12.576563 -0.46038518 -4.1534578e-18)
(12.578625 -0.51752515 -3.9427327e-18)
(12.573992 -0.55509218 2.4616004e-18)
(12.596682 -0.59317586 -2.3300716e-18)
(12.627093 -0.62092949 2.2036157e-18)
(12.708082 -0.64222513 4.9949433e-21)
(12.787151 -0.66519147 -1.9881319e-18)
(12.911236 -0.71515962 1.8766832e-18)
(12.45983 0.66773739 0)
(12.499823 0.52096649 -4.6252624e-19)
(12.499526 0.37097016 -9.0872721e-19)
(12.541106 0.24471195 -4.3476366e-21)
(12.516825 0.11191776 -6.2409832e-21)
(12.525663 -0.009463203 1.6774727e-18)
(12.508356 -0.10941292 -3.1984315e-18)
(12.485304 -0.22873585 1.5240558e-18)
(12.502948 -0.28960778 1.2336556e-20)
(12.475391 -0.39593719 0)
(12.503648 -0.45198173 3.9591677e-18)
(12.492913 -0.53335501 8.3805778e-21)
(12.5174 -0.58139621 2.3637106e-18)
(12.539226 -0.64212729 2.2419192e-18)
(12.584418 -0.69206438 3.1696377e-18)
(12.621695 -0.73592085 -3.987798e-18)
(12.712944 -0.79985381 -3.6716442e-21)
(12.778779 -0.8557662 3.5593381e-18)
(12.918687 -0.97385604 1.6675664e-18)
(12.391028 0.61358759 4.0044327e-19)
(12.419143 0.46097652 -7.9842188e-19)
(12.439673 0.31358504 1.1771439e-18)
(12.450911 0.18330174 0)
(12.44909 0.052247974 2.2471442e-18)
(12.441434 -0.068212509 -3.6235725e-18)
(12.429309 -0.18135351 2.798578e-18)
(12.412907 -0.2784574 -9.4056367e-22)
(12.415469 -0.36835719 1.1053857e-20)
(12.381069 -0.45761935 -1.2318796e-18)
(12.420046 -0.53695543 0)
(12.389072 -0.59705878 -1.1058435e-18)
(12.42191 -0.68582647 1.0596241e-18)
(12.458741 -0.73892119 -1.9908526e-18)
(12.490542 -0.8368214 0)
(12.593096 -0.89203924 0)
(12.6289 -1.0173489 -1.6869852e-18)
(12.729047 -1.1155538 0)
(12.83435 -1.2720598 1.4921172e-18)
(12.32798 0.61030011 3.4557734e-19)
(12.369218 0.46808524 -3.4338836e-19)
(12.391252 0.30981752 2.9082946e-21)
(12.399764 0.18914462 -6.6660373e-19)
(12.397537 0.038597919 6.4366912e-19)
(12.394511 -0.068984678 -2.188239e-22)
(12.371813 -0.19788449 -1.2178989e-18)
(12.372171 -0.28633909 0)
(12.341828 -0.38996228 -2.2606391e-18)
(12.345011 -0.47395104 1.0769099e-18)
(12.338408 -0.55656396 0)
(12.359256 -0.63718652 0)
(12.349247 -0.73860815 -1.8644437e-18)
(12.42148 -0.81166153 -1.7726504e-18)
(12.409953 -0.93679067 1.676061e-18)
(12.533527 -1.0329399 3.1674018e-18)
(12.516348 -1.1940204 1.4894083e-18)
(12.659234 -1.3388943 -1.4207525e-18)
(12.616894 -1.5806136 6.0380521e-21)
(12.216943 0.55316847 0)
(12.281583 0.42799755 2.9785234e-19)
(12.280737 0.2544074 -1.4666036e-18)
(12.311734 0.13388863 5.7651776e-19)
(12.290769 -0.023566258 1.6942753e-18)
(12.299156 -0.12406737 -1.1041277e-18)
(12.264853 -0.26259672 -2.1413199e-18)
(12.278225 -0.33779668 2.0515588e-18)
(12.234339 -0.46311284 -1.0020485e-18)
(12.257063 -0.53003126 1.8951712e-18)
(12.235839 -0.64485852 0)
(12.271873 -0.71776232 0)
(12.238255 -0.83884517 -1.6532567e-18)
(12.312321 -0.94124725 4.7081852e-18)
(12.262996 -1.0711074 -5.93527e-18)
(12.376521 -1.2205446 2.8144604e-18)
(12.304345 -1.384048 -5.3305965e-18)
(12.416067 -1.5691856 1.2618523e-18)
(12.304213 -1.8387658 2.382908e-18)
(12.151166 0.55240837 6.456993e-20)
(12.234968 0.40240365 2.5787512e-19)
(12.20336 0.24784776 -5.0632649e-19)
(12.266976 0.11281292 0)
(12.220864 -0.030781553 -9.8268809e-19)
(12.254217 -0.15110017 2.8711482e-18)
(12.205532 -0.27390342 -1.8529568e-18)
(12.223157 -0.36907424 9.0310294e-19)
(12.171503 -0.48939696 -1.7424486e-18)
(12.20504 -0.57273579 5.0129546e-18)
(12.158733 -0.69586233 -3.1933906e-18)
(12.203975 -0.78917778 0)
(12.153983 -0.92814109 1.4567596e-18)
(12.204898 -1.0429989 2.7776237e-18)
(12.14147 -1.2064001 -3.9591658e-18)
(12.196747 -1.3625753 3.7569987e-18)
(12.090272 -1.5487907 -3.56483e-18)
(12.127115 -1.7515059 -2.240632e-18)
(11.93276 -2.0002831 -1.0513095e-18)
(12.043223 0.51967079 1.6678322e-19)
(12.11114 0.35342661 2.2163216e-19)
(12.104879 0.2107262 -4.3753423e-19)
(12.174172 0.051802726 0)
(12.113122 -0.07610599 1.6969345e-18)
(12.171857 -0.21156016 -8.3207494e-19)
(12.082881 -0.31656061 0)
(12.13314 -0.43909868 -1.5698886e-18)
(12.052844 -0.54475157 7.6129003e-19)
(12.102579 -0.65823954 0)
(12.029258 -0.77473384 -1.408656e-18)
(12.076537 -0.89587297 1.3489288e-18)
(11.994558 -1.0302616 1.2890603e-18)
(12.031356 -1.1721099 -2.4554759e-18)
(11.921562 -1.3363041 2.3397818e-18)
(11.929117 -1.4982342 -1.1124133e-18)
(11.775039 -1.6899882 -1.0633731e-18)
(11.737853 -1.8592043 -1.0120322e-18)
(11.49919 -2.0905941 -9.6544206e-19)
(12.026403 0.49441844 3.8279099e-19)
(12.036259 0.32525478 -1.9020834e-19)
(12.082631 0.19118938 0)
(12.076806 0.023518718 0)
(12.082103 -0.093458613 -1.4692081e-18)
(12.072737 -0.24592802 1.4408542e-18)
(12.046598 -0.33887515 0)
(12.048184 -0.4905124 6.8247062e-19)
(11.991001 -0.57733768 -6.6151835e-19)
(12.004794 -0.72753725 0)
(11.91749 -0.82680149 1.231055e-18)
(11.952603 -0.98034165 3.9084796e-21)
(11.831303 -1.09958 3.6077801e-21)
(11.842948 -1.2757396 0)
(11.700163 -1.4079847 -4.1501915e-18)
(11.663173 -1.5854572 3.9636033e-18)
(11.447903 -1.7321081 4.7333172e-18)
(11.360915 -1.8886693 -6.3416012e-18)
(11.091232 -2.0358639 4.3249343e-18)
(11.920323 0.4640208 0)
(11.91719 0.28436972 1.1624836e-21)
(11.997627 0.15333227 0)
(11.960941 -0.024437259 0)
(11.995141 -0.13230606 6.3384887e-19)
(11.945841 -0.29670677 3.7513074e-21)
(11.960076 -0.38709323 -6.1261892e-19)
(11.917145 -0.54891834 -1.7910964e-18)
(11.902135 -0.63336547 2.308043e-18)
(11.855271 -0.79983966 0)
(11.809315 -0.88345278 -1.0819292e-18)
(11.758489 -1.0692397 -6.2416602e-18)
(11.662547 -1.1631936 2.996734e-18)
(11.60376 -1.3546962 0)
(11.42547 -1.4517389 -3.6806383e-18)
(11.350672 -1.6248712 4.4081336e-18)
(11.114891 -1.7027534 -3.3849884e-18)
(10.988545 -1.8399504 4.0532241e-18)
(10.680081 -1.8924767 0)
(11.865968 0.41543138 -2.849072e-19)
(11.859869 0.26325636 1.4265093e-19)
(11.950626 0.12033755 0)
(11.906268 -0.046253319 -1.1181578e-18)
(11.944176 -0.16972723 1.6501662e-18)
(11.879116 -0.33250705 -5.3965351e-19)
(11.894336 -0.43486537 -1.5977087e-18)
(11.825458 -0.59497663 3.6258408e-18)
(11.804014 -0.68320916 -2.0106354e-18)
(11.726284 -0.85024301 0)
(11.67379 -0.937259 9.4313187e-19)
(11.573315 -1.1282036 5.4768954e-18)
(11.465899 -1.1925942 -3.5134121e-18)
(11.334967 -1.3903871 0)
(11.154353 -1.4253552 0)
(11.019051 -1.5879029 -1.5668121e-18)
(10.753409 -1.5974904 7.5622805e-19)
(10.595621 -1.700729 -2.1756031e-18)
(10.259564 -1.6813063 0)
(11.754251 0.36886468 -2.4557841e-19)
(11.75047 0.2453942 7.351955e-19)
(11.834011 0.064599755 -7.2982767e-19)
(11.790531 -0.070344168 0)
(11.836688 -0.21610401 1.4334303e-18)
(11.76185 -0.36283281 -1.8698751e-18)
(11.78523 -0.48360378 0)
(11.691312 -0.62199755 9.0149565e-19)
(11.676985 -0.72793248 8.7842284e-19)
(11.560579 -0.88271431 0)
(11.504263 -0.97684603 0)
(11.356348 -1.1406981 -7.9854477e-19)
(11.253321 -1.1974767 -2.3212282e-18)
(11.067506 -1.3577523 -7.2327665e-21)
(10.910401 -1.3474496 2.155957e-18)
(10.697005 -1.4925912 1.3897948e-18)
(10.492438 -1.4111876 -6.6841739e-19)
(10.29516 -1.4997826 1.2878456e-18)
(9.9911204 -1.3730155 0)
(11.694135 0.33814822 0)
(11.70886 0.21452935 -8.4496948e-19)
(11.771002 0.015494328 1.6771671e-18)
(11.731833 -0.093862374 -1.2470168e-18)
(11.765501 -0.27359082 0)
(11.671151 -0.39046972 0)
(11.68591 -0.52829848 0)
(11.570335 -0.651306 -7.7907902e-19)
(11.545948 -0.77033769 -7.6101243e-19)
(11.398062 -0.9031228 0)
(11.328803 -1.0018985 -7.2378849e-19)
(11.135877 -1.1246614 -7.0251737e-19)
(11.022675 -1.1704025 -6.7760379e-19)
(10.784157 -1.2714195 2.6346403e-18)
(10.639651 -1.2468937 -2.5451926e-18)
(10.363619 -1.3200872 -6.1373284e-19)
(10.213104 -1.1970378 3.5762422e-18)
(9.9720599 -1.2342766 -5.7470717e-18)
(9.777777 -1.0206326 3.3348561e-18)
(11.581163 0.32044142 -4.5735135e-20)
(11.636483 0.17137153 9.1211467e-20)
(11.661834 -0.00046094863 9.0424205e-19)
(11.655052 -0.11783042 -2.1552742e-18)
(11.651808 -0.30160894 1.0615896e-18)
(11.582274 -0.39453486 0)
(11.561061 -0.56834255 0)
(11.44604 -0.65276583 6.7832321e-19)
(11.403112 -0.79025193 -2.655663e-18)
(11.227563 -0.89114261 -6.5643727e-19)
(11.14099 -0.97923727 6.2197306e-19)
(10.930204 -1.0587526 3.0634238e-18)
(10.814454 -1.0903327 5.9727453e-19)
(10.570171 -1.1361458 0)
(10.436086 -1.0749656 1.6844695e-18)
(10.158658 -1.0828194 0)
(10.004141 -0.93697926 -3.1702219e-18)
(9.7750545 -0.91071756 9.175142e-18)
(9.6489776 -0.65985837 -7.8920993e-18)
(11.490393 0.28737226 7.8561661e-20)
(11.561775 0.12125991 -7.8145851e-20)
(11.552763 -0.024984628 0)
(11.573347 -0.17054007 -9.3048171e-19)
(11.52721 -0.32379091 3.0144511e-19)
(11.4841 -0.43347921 1.208702e-18)
(11.415641 -0.5933508 0)
(11.31369 -0.6587213 -2.9368548e-18)
(11.228941 -0.81065632 1.7216139e-18)
(11.049471 -0.85150237 -2.0277536e-21)
(10.936672 -0.9524461 0)
(10.70578 -0.98174009 0)
(10.582632 -0.99339928 -5.2127392e-19)
(10.337909 -0.96201852 0)
(10.227544 -0.88811466 3.5684935e-21)
(9.9734395 -0.82278518 9.6055722e-19)
(9.8890236 -0.66523766 -2.7953567e-18)
(9.6711384 -0.58535265 7.2126793e-18)
(9.614004 -0.30355433 -3.4934114e-18)
(11.432933 0.26275209 2.3670674e-19)
(11.498318 0.094427587 -2.025165e-19)
(11.493632 -0.037472849 0)
(11.509694 -0.19983711 0)
(11.440208 -0.32268291 0)
(11.409358 -0.45468717 0)
(11.296107 -0.57674154 -2.0679953e-18)
(11.214988 -0.65797961 2.0292746e-18)
(11.082957 -0.77030461 2.4988323e-18)
(10.936544 -0.7927031 -9.7617057e-19)
(10.779363 -0.88572198 0)
(10.565555 -0.83787257 3.752128e-18)
(10.423979 -0.83950025 -6.8553106e-18)
(10.175742 -0.75201617 3.5596086e-18)
(10.078353 -0.67283119 -4.3402533e-18)
(9.8573389 -0.54540878 2.5291431e-18)
(9.8329786 -0.39460622 -8.19243e-19)
(9.6543389 -0.24941488 -7.9628545e-19)
(9.6955802 0.020356044 7.7150259e-19)
(11.344269 0.21954171 2.3277387e-19)
(11.382582 0.062391055 -7.5512257e-19)
(11.388779 -0.066301015 4.6213528e-19)
(11.384699 -0.22566445 -9.1956957e-19)
(11.328422 -0.33400732 9.0996347e-19)
(11.275257 -0.4780555 0)
(11.142613 -0.56587042 -4.4660365e-19)
(11.055951 -0.65852586 1.7621953e-18)
(10.887689 -0.7203003 -1.7285876e-18)
(10.761482 -0.74444272 -4.2444141e-19)
(10.573219 -0.77104583 -3.3406051e-18)
(10.420993 -0.69217015 3.2612684e-18)
(10.258498 -0.67869607 -3.986111e-19)
(10.085593 -0.53304181 2.341659e-18)
(9.9953948 -0.45439625 -2.2769285e-18)
(9.8277352 -0.27018157 0)
(9.8410055 -0.1270817 -5.7715845e-18)
(9.719603 0.071273215 6.3038763e-18)
(9.8537422 0.32408917 0)
(11.298154 0.18902105 -4.0053517e-19)
(11.324728 0.044265859 4.0022487e-19)
(11.340895 -0.092045479 -7.9599026e-19)