/*--------------------------------*- C++ -*----------------------------------*\
  =========                 |
  \\      /  F ield         | OpenFOAM: The Open Source CFD Toolbox
   \\    /   O peration     | Website:  https://openfoam.org
    \\  /    A nd           | Version:  11
     \\/     M anipulation  |
\*---------------------------------------------------------------------------*/
FoamFile
{
    format      ascii;
    class       volScalarField;
    location    "0.0955";
    object      rho;
}
// * * * * * * * * * * * * * * * * * * * * * * * * * * * * * * * * * * * * * //

dimensions      [0 0 0 0 0 0 0];

internalField   nonuniform List<scalar> 
880
(
0.3733250556165154
0.3733250556165154
0.3733250556165154
0.3733254513511076
0.3733250556165154
0.3733250556165154
0.3733250556165152
0.3733273049389175
0.3733250556165154
0.3733250556165153
0.3733250556194784
0.3733374894925209
0.3733250556165154
0.3733250556165154
0.3733250556670398
0.3733472464980321
0.3733250556165154
0.3733250556165155
0.3733250556165152
0.373325055617391
0.3733250556165154
0.3733250556165154
0.3733250556165151
0.3733250556165154
0.3733250551752572
0.3733250448762814
0.3733833361126358
0.3732062431262572
0.3756500314996413
0.3824276613444496
0.3878533540114137
0.3905008916377206
0.3733250656572902
0.3733250838593341
0.3733250886759788
0.3733250726869094
0.3733252722229367
0.3733256038983227
0.3733261442612679
0.3733257278396547
0.3734620110416061
0.3735790219792638
0.3737160542933481
0.3736898460795642
0.3930612175472417
0.3963719815453135
0.4004672421150935
0.4036412147782903
0.400955539757566
0.3945806326266277
0.3898216123016929
0.3865062021345755
0.3739600985792375
0.3745800966417726
0.3749387112651074
0.3747023279935746
0.373327176745169
0.3733304840320372
0.3733352767968472
0.3733347027220345
0.3733251420384187
0.3733252298038771
0.3733253150164847
0.3733252765136169
0.3733251589908596
0.3733250760142859
0.3733250568652461
0.3733250556319904
0.3733311561183018
0.3733270113162469
0.3733253291817437
0.3733250691166976
0.3742744089562594
0.3737128781312042
0.3734091680267529
0.3733328363561533
0.3830430403775529
0.3793781218356874
0.3759593435842654
0.3739241232911772
0.3733744681208836
0.3733252609271313
0.3733250557918698
0.3733250556165152
0.3733282366466282
0.3733250865914028
0.3733250555760017
0.3733250556102348
0.3733181074169564
0.373324646312941
0.3733250602810139
0.3733250568961202
0.3776191623172659
0.3733332197985379
0.3733239794454066
0.3733250005604347
0.373324982037373
0.3733245599277569
0.3734595859345775
0.4118639549200029
0.3733250436242118
0.3733258710031508
0.3739747109363065
0.4428603235270059
0.37332518399395
0.3733282348730542
0.3745603637069229
0.4556478831524789
0.3733253464485619
0.3733328485094472
0.3754518039684254
0.4692729784141287
0.481304224697597
0.3760490643451815
0.3733348563043317
0.3733254438410865
0.4961583527744445
0.3770899989149033
0.3733413168992989
0.3733256600384698
0.5047865618722485
0.377584922735228
0.3733431925225852
0.3733257345313115
0.5165036250290168
0.378852807040769
0.3733549727657383
0.3733262463169347
0.3733263003797025
0.3733571682537816
0.3799725786758211
0.5295619801687415
0.3733268432487139
0.3733709998561796
0.3816936852312467
0.5368344500963402
0.3733279266411029
0.373387839845483
0.3823977780003042
0.5218466917820271
0.3733249673562446
0.3733486398279578
0.378511269123021
0.4715701127733943
0.3733307410195834
0.3734937184538544
0.3792956940201592
0.3987827948481562
0.3733298980119868
0.3734777758930664
0.3736022589696572
0.3155411582664616
0.3733243469778792
0.3733130900832466
0.3691356284204345
0.2665088958009872
0.3733244288629009
0.3731695845170627
0.3634782063495144
0.2350869005081461
0.2293266541059528
0.3623764331993589
0.3731773872651454
0.37332451521431
0.2231608806561317
0.3616645577037055
0.3731741415615378
0.3733245558455014
0.2237023720158514
0.3635714940019466
0.37323991745708
0.3733248453727745
0.2171284231497893
0.3629415068719225
0.3732365774241976
0.3733248374618276
0.2555468621020937
0.3684840067501659
0.3732965055134808
0.3733249824933952
0.298463256863751
0.3717101954182737
0.373318477595077
0.373325040997641
0.3277020186820271
0.3727633189349231
0.3733231873977771
0.3733250519788628
0.3490339805766067
0.373138744041812
0.3733244460686224
0.3733250534180381
0.3420304672648593
0.3720166021964492
0.3733090114020491
0.3733249708575094
0.3427116215608856
0.3720485881126925
0.3733092028972724
0.3733249712188041
0.3442652590955396
0.3720810857384478
0.3733093254860312
0.3733249713151294
0.3480612664595398
0.3721941315648696
0.3733102764661672
0.3733249752548961
0.3490339805764569
0.3731387440409517
0.3733244460676104
0.3733250534188237
0.3277020186805349
0.3727633189336624
0.3733231873944815
0.3733250519791181
0.2984632568627195
0.3717101954186134
0.3733184775945366
0.3733250409981108
0.2555468621028087
0.3684840067522252
0.3732965055134675
0.3733249824926707
0.3733245152153368
0.3731773872688671
0.3623764332012911
0.2293266541056568
0.3733245558460955
0.3731741415625052
0.361664557704572
0.2231608806567991
0.3733248453708465
0.3732399174592044
0.3635714940015782
0.2237023720164794
0.3733248374625289
0.373236577424336
0.3629415068752102
0.2171284231486488
0.2350869005058841
0.3634782063478129
0.3731695845154566
0.373324428863205
0.2665088957982946
0.3691356284185088
0.3733130900804998
0.3733243469736438
0.3155411582657529
0.373602258967268
0.3734777758932748
0.3733298980108946
0.3987827948486163
0.3792956940196077
0.3734937184528522
0.373330741023065
0.3733263003786704
0.3733571682567719
0.3799725786786972
0.5295619801719492
0.3733268432494635
0.3733709998557425
0.3816936852305883
0.5368344500959988
0.3733279266429699
0.3733878398454116
0.3823977779982324
0.5218466917817124
0.3733249673606771
0.3733486398275369
0.3785112691217772
0.4715701127729761
0.516503625034093
0.3788528070354029
0.3733549727691175
0.3733262463166697
0.5047865618757524
0.3775849227377291
0.3733431925231733
0.3733257345322678
0.4961583527725009
0.377089998925768
0.3733413169017744
0.3733256600376479
0.4813042247003628
0.3760490643402389
0.3733348563080205
0.3733254438403434
0.3733249820395904
0.373324559929822
0.3734595859354423
0.4118639549162232
0.3733250436222913
0.3733258710005948
0.3739747109348311
0.4428603235286047
0.3733251839925948
0.3733282348744311
0.3745603637114959
0.4556478831519135
0.3733253464471462
0.3733328485065088
0.3754518039626733
0.469272978417189
0.3733250005597361
0.3733250568970918
0.3733250556103415
0.3733250556165152
0.3733239794428166
0.3733250602807536
0.3733250555783533
0.3733250557908465
0.3733332197992915
0.3733246463139368
0.3733250865900026
0.3733252609261422
0.3776191623177103
0.3733181074179208
0.3733282366462595
0.3733744681206687
0.3733250556301862
0.3733250691167864
0.3733328363566392
0.3739241232919197
0.3733250568649376
0.373325329181001
0.3734091680309665
0.3759593435849443
0.3733250760152765
0.3733270113161858
0.3737128781292685
0.3793781218359931
0.3733251589917334
0.3733311561176444
0.3742744089579278
0.3830430403769116
0.3733251420356893
0.3733271767426039
0.3739600985772383
0.4009555397567718
0.3733252298017525
0.3733304840326638
0.3745800966419524
0.3945806326244968
0.3733253150158559
0.3733352768001623
0.3749387112652612
0.3898216123009404
0.3733252765129781
0.3733347027239281
0.3747023279940123
0.3865062021333069
0.4036412147790495
0.3736898460810497
0.3733257278378153
0.3733250726854819
0.4004672421152846
0.3737160542956841
0.3733261442608912
0.3733250886761386
0.3963719815482628
0.3735790219803605
0.3733256038988563
0.3733250838590509
0.3930612175468681
0.3734620110427471
0.3733252722219319
0.3733250656579867
0.3905008916380119
0.3732062431278937
0.3733250556165154
0.3733250556176057
0.387853354010702
0.3733833361057947
0.3733250556165154
0.3733250556165154
0.3824276613461336
0.3733250448757967
0.3733250556165154
0.3733250556165153
0.3756500315000522
0.3733250551742389
0.3733250556165154
0.3733250556165151
0.3733250556165154
0.3733250556165154
0.3733250556165154
0.3733254513502954
0.3733250556165152
0.3733250556165155
0.3733250556165154
0.3733273049117023
0.3733250556165154
0.3733250556165154
0.3733250556195349
0.3733374894826119
0.3733250556165154
0.3733250556165154
0.3733250556659758
0.3733472464947536
0.3733256720873132
0.3733280049316792
0.3733453934600635
0.373898496288621
0.3733280049763824
0.3733281134839678
0.3733349005423682
0.3755931752069455
0.373345393432101
0.3733349004648101
0.3741732654234001
0.3884021072695265
0.3738984962601338
0.3755931751969603
0.3884021075273116
0.4403937423944047
0.5237759507755262
0.4651352282108557
0.4346739568338159
0.4017650670435289
0.5100758676865922
0.4981677757394705
0.4938861395315602
0.4682724927648853
0.5042702980453574
0.5020555709928739
0.5034608152107032
0.4918268363664134
0.5084654112034319
0.5048945865249428
0.5041478518674157
0.4967097550910735
0.5014693229804612
0.504110496030421
0.5076218682459229
0.5148313813669485
0.5070682214730814
0.5105053744078926
0.5137130532899438
0.5234214665058674
0.5080875598904083
0.511276361183004
0.5149096925056859
0.5237596565993172
0.5088397282361619
0.5103805224975708
0.5137635167381867
0.5217277889856221
0.4539784911335669
0.3918788689673066
0.376735181576564
0.3761963151841233
0.4247474310576938
0.3692280450237095
0.3696781924680085
0.3744441495196246
0.3956973278723577
0.360466711247343
0.3715554013738708
0.3776861941720095
0.3379075835741325
0.3425270408253395
0.3648366738711651
0.3749140847810816
0.3784265902584904
0.3802093512507155
0.3784073560958912
0.3752416136080732
0.378460947136001
0.3799321961789142
0.3781206877202877
0.3753541873537392
0.3802944697989103
0.3809494357865232
0.3787826838312357
0.3757998958400182
0.378121803862642
0.3797959580080987
0.3775450473655143
0.3747149392558304
0.3736586331542699
0.3733472086645785
0.3733152595979146
0.434429672317347
0.3737638912569947
0.3733612531894935
0.3733180233446504
0.4635741903633497
0.3739219417920982
0.3733771088140738
0.3733255563176228
0.4761791005941096
0.3734954492880961
0.3733213588156947
0.3733261199828469
0.4799674413313745
0.6666514785605314
0.6867147206427671
0.6829616282297812
0.6825072214333907
0.7215278308666068
0.7143158670720546
0.7028310401825616
0.7027017879379707
0.7087083048562426
0.6986748497383614
0.7089708765852656
0.7126815927396277
0.7347191070649698
0.7146073688362984
0.7139231363884924
0.714883688326696
0.6876983313453038
0.7017543360053109
0.7076148948820747
0.712460236265352
0.705254516926514
0.7178805551455411
0.723944217938981
0.727475798371268
0.7166290286795649
0.7292917422215121
0.7368662934126089
0.740219729322895
0.719472731883222
0.7319325780962948
0.7394106520817378
0.7430009518546754
0.7108898931444362
0.6985567556899892
0.6636016580538856
0.5784710613698488
0.7242121661915056
0.7106277205569772
0.6717480959064985
0.59530690769363
0.7378611323754583
0.7230875107543748
0.6788809684335083
0.6175727051794365
0.7412721722888893
0.7290472736189425
0.6815156699698161
0.7173376126172077
0.3938957718185646
0.1042648379392746
0.04571503524881918
0.05313887790470603
0.3170389038108726
0.06970597762207267
0.05333918592782228
0.0618064119660352
0.2375063248804785
0.04944571689332768
0.05497208280139395
0.07563495897904243
0.1716294606524375
0.03431528765199002
0.06518280265252462
0.0843416806804148
0.06119509177395122
0.06646998338724969
0.06766920646840149
0.05804449131792205
0.06835522440330702
0.07122334007374685
0.06635478867184084
0.05107999848929779
0.08455876105299216
0.08411065383290545
0.07214309440448946
0.05477092269642192
0.09415635289576209
0.08935577420447113
0.07241254404940588
0.06164345817977343
0.1182603233418466
0.182635721010053
0.2244604119463496
0.2749626293120709
0.1089892287143849
0.1646021864809238
0.2013147265338401
0.2598147034779003
0.1019201131820926
0.1556907111668885
0.1978417571148521
0.2387931781469586
0.08432387438561716
0.1324172743929786
0.1776670997842388
0.2286496939976729
0.2131561252406798
0.1492395060553224
0.07711102589915342
0.07689435433993766
0.1891243052017568
0.1203294923876571
0.06717946151948433
0.05568780574513597
0.1498716042553558
0.08573258685569253
0.04594398998941356
0.05170356632548451
0.1129101168653486
0.05110307961024887
0.03509419448314897
0.06092792494812625
0.1039822379852565
0.1333796474357373
0.1624096567390248
0.1724526952821642
0.09501775064289239
0.1256775126294566
0.1443156710602383
0.1502402695980884
0.08883946248215847
0.1222236574839427
0.136174418788629
0.1437570633480669
0.1284745573964045
0.1706566757335592
0.1772122434341971
0.176859312778097
0.1724526952820887
0.1502402695980345
0.1437570633480598
0.176859312778173
0.1624096567389165
0.144315671060104
0.1361744187886424
0.1772122434340182
0.1333796474356093
0.1256775126293359
0.1222236574838465
0.1706566757334545
0.1039822379852988
0.09501775064292478
0.08883946248211699
0.1284745573956132
0.07689435433942231
0.07711102589884088
0.1492395060548926
0.2131561252397547
0.05568780574517927
0.06717946151930441
0.1203294923875032
0.1891243052013563
0.05170356632568802
0.04594398998941537
0.08573258685544941
0.1498716042551948
0.06092792494813189
0.03509419448315738
0.05110307961025522
0.1129101168652704
0.2286496939975268
0.1776670997842264
0.1324172743924678
0.0843238743848153
0.2387931781468391
0.1978417571148909
0.1556907111666047
0.1019201131813985
0.2598147034777284
0.2013147265336263
0.1646021864807249
0.1089892287138599
0.2749626293118726
0.2244604119457458
0.1826357210094977
0.1182603233413567
0.05804449131730628
0.06766920646886219
0.06646998338739486
0.06119509177365231
0.0510799984890704
0.06635478867207807
0.07122334007382562
0.06835522440318605
0.05477092269629976
0.0721430944048225
0.08411065383300305
0.08455876105268645
0.06164345817958616
0.07241254404970986
0.08935577420478352
0.09415635289515514
0.05313887790423452
0.04571503524808819
0.104264837938462
0.3938957718181358
0.06180641196570929
0.05333918592723521
0.06970597762166215
0.3170389038096527
0.07563495897835032
0.05497208280078106
0.04944571689324451
0.2375063248799468
0.08434168067930918
0.0651828026516921
0.03431528765176343
0.1716294606524036
0.5784710613688219
0.6636016580528507
0.698556755690145
0.7108898931468001
0.5953069076928292
0.6717480959053976
0.7106277205573579
0.7242121661941393
0.617572705178789
0.678880968433111
0.7230875107553872
0.7378611323777358
0.7173376126175347
0.6815156699709916
0.7290472736200159
0.7412721722914284
0.7124602362701525
0.707614894885629
0.7017543359991333
0.6876983313467233
0.7274757983749297
0.7239442179410831
0.71788055514062
0.7052545169280892
0.7402197293253072
0.7368662934131796
0.7292917422182392
0.7166290286817235
0.7430009518573237
0.7394106520811334
0.7319325780929156
0.7194727318865608
0.6825072214438632
0.6829616282234939
0.6867147206462855
0.6666514785580149
0.7027017879474174
0.7028310401758384
0.7143158670754873
0.7215278308647346
0.7126815927480801
0.7089708765784069
0.6986748497406436
0.7087083048538627
0.7148836883344991
0.7139231363813735
0.7146073688394583
0.7347191070616654
0.4344296723142021
0.3733152595875788
0.3733472086684148
0.3736586331537446
0.4635741903586251
0.3733180233327758
0.3733612531942705
0.3737638912565893
0.4761791005895111
0.3733255563121746
0.3733771088176534
0.3739219417919107
0.4799674413266581
0.3733261199794457
0.3733213588198647
0.373495449287917
0.3752416136086565
0.3784073560959214
0.3802093512512487
0.3784265902587137
0.3753541873534111
0.3781206877202794
0.3799321961791695
0.3784609471356044
0.3757998958392873
0.3787826838313386
0.3809494357862513
0.3802944697978846
0.3747149392547118
0.3775450473653237
0.3797959580079417
0.3781218038617719
0.3761963151827318
0.376735181575977
0.3918788689679412
0.4539784911346458
0.3744441495180417
0.3696781924673608
0.3692280450238444
0.4247474310587135
0.3776861941705999
0.3715554013734026
0.3604667112466048
0.3956973278731961
0.3749140847792159
0.3648366738708158
0.3425270408241483
0.337907583574115
0.5148313813668431
0.5076218682421669
0.5041104960286453
0.5014693229831001
0.5234214665043782
0.5137130532876885
0.5105053744088699
0.507068221476547
0.5237596565972277
0.5149096925042563
0.5112763611847516
0.5080875598932575
0.5217277889843304
0.5137635167382612
0.510380522501135
0.5088397282382755
0.496709755092655
0.4918268363667755
0.4682724927664489
0.4017650670536012
0.504147851867812
0.5034608152097619
0.4938861395358556
0.4346739568127464
0.5048945865250257
0.5020555709954124
0.4981677757479421
0.4651352281606779
0.5084654112023387
0.5042702980457393
0.5100758676913798
0.5237759508021882
0.3566393046346808
0.3730428856307916
0.3733231548318741
0.3733250487212139
0.3518497001253894
0.3728979107427906
0.3733214706930789
0.3733250395465782
0.350039566695662
0.3727249492373582
0.3733187362711785
0.3733250235187413
0.3477930349240168
0.3724119681405281
0.3733137189602966
0.3733249946745385
0.3733249708585687
0.3733090114025461
0.3720166021947012
0.3420304672633258
0.3733249712196056
0.3733092028987565
0.3720485881103528
0.3427116215607401
0.3733249713139162
0.3733093254869633
0.3720810857382055
0.3442652590934598
0.3733249752510589
0.373310276467696
0.372194131561915
0.3480612664586124
0.3733249946731897
0.373325023517716
0.373325039542341
0.3733250487163618
0.3733137189609749
0.3733187362710874
0.373321470692446
0.3733231548301639
0.3724119681402686
0.3727249492353216
0.3728979107444889
0.3730428856301898
0.3477930349240194
0.3500395666935316
0.3518497001246622
0.3566393046355459
)
;

boundaryField
{
    back
    {
        type            empty;
    }
    inlet
    {
        type            calculated;
        value           nonuniform List<scalar> 
16
(
0.3733250556165154
0.3733250556165154
0.3733250556165154
0.3733250556165154
0.3733250556165154
0.3733250556165155
0.3733250556165152
0.373325055617391
0.3733250556176057
0.3733250556165154
0.3733250556165154
0.3733250556165151
0.3733250556165154
0.3733250556165152
0.3733250556165154
0.3733250556165154
)
;
    }
    front
    {
        type            empty;
    }
    top
    {
        type            calculated;
        value           nonuniform List<scalar> 
40
(
0.3733250656572902
0.3733250838593341
0.3733250886759788
0.3733250726869094
0.3733251420384186
0.3733252298038771
0.3733253150164847
0.3733252765136169
0.3733251589908596
0.3733250760142859
0.3733250568652461
0.3733250556319904
0.3733250556165152
0.3733250556102348
0.3733250568961202
0.3733250005604347
0.373324982037373
0.3733250436242118
0.3733251839939501
0.3733253464485619
0.3733254438410865
0.3733256600384698
0.3733257345313115
0.3733262463169347
0.3733263003797025
0.3733268432487139
0.3733279266411029
0.3733249673562446
0.3733307410195835
0.3733298980119868
0.3733243469778793
0.373324428862901
0.37332451521431
0.3733245558455014
0.3733248453727745
0.3733248374618275
0.3733249824933952
0.373325040997641
0.3733250519788627
0.3733250534180381
)
;
    }
    outlet
    {
        type            calculated;
        value           uniform 0.3733250556165154;
    }
    bottom
    {
        type            calculated;
        value           nonuniform List<scalar> 
40
(
0.3733250534188237
0.3733250519791181
0.3733250409981108
0.3733249824926707
0.3733245152153368
0.3733245558460955
0.3733248453708465
0.3733248374625289
0.373324428863205
0.3733243469736438
0.3733298980108946
0.373330741023065
0.3733263003786705
0.3733268432494635
0.3733279266429699
0.3733249673606771
0.3733262463166697
0.3733257345322678
0.3733256600376479
0.3733254438403434
0.3733249820395905
0.3733250436222913
0.3733251839925948
0.3733253464471462
0.3733250005597361
0.3733250568970918
0.3733250556103415
0.3733250556165152
0.3733250556301862
0.3733250568649375
0.3733250760152765
0.3733251589917334
0.3733251420356893
0.3733252298017525
0.3733253150158558
0.3733252765129781
0.3733250726854819
0.3733250886761386
0.3733250838590509
0.3733250656579867
)
;
    }
    wall
    {
        type            calculated;
        value           nonuniform List<scalar> 
104
(
0.5237759507755262
0.5100758676865922
0.5042702980453574
0.5084654112034319
0.5088397282361619
0.5103805224975708
0.5137635167381867
0.5217277889856221
0.3379075835741325
0.3425270408253395
0.364836673871165
0.3749140847810816
0.378121803862642
0.3797959580080987
0.3775450473655142
0.3747149392558304
0.3734954492880961
0.3733213588156947
0.3733261199828469
0.4799674413313745
0.7347191070649698
0.7146073688362984
0.7139231363884924
0.714883688326696
0.719472731883222
0.7319325780962948
0.7394106520817378
0.7430009518546754
0.7412721722888893
0.7290472736189425
0.6815156699698161
0.7173376126172077
0.1716294606524375
0.03431528765199002
0.06518280265252462
0.0843416806804148
0.09415635289576209
0.08935577420447115
0.07241254404940588
0.06164345817977342
0.08432387438561716
0.1324172743929786
0.1776670997842388
0.2286496939976729
0.1129101168653486
0.05110307961024886
0.03509419448314897
0.06092792494812625
0.1039822379852566
0.1333796474357373
0.1624096567390248
0.1724526952821642
0.1724526952820887
0.1624096567389165
0.1333796474356093
0.1039822379852988
0.06092792494813189
0.03509419448315738
0.05110307961025522
0.1129101168652704
0.2286496939975268
0.1776670997842264
0.1324172743924678
0.0843238743848153
0.06164345817958616
0.07241254404970986
0.08935577420478352
0.09415635289515514
0.08434168067930917
0.0651828026516921
0.03431528765176343
0.1716294606524036
0.7173376126175347
0.6815156699709916
0.7290472736200159
0.7412721722914284
0.7430009518573237
0.7394106520811334
0.7319325780929156
0.7194727318865608
0.7148836883344991
0.7139231363813735
0.7146073688394583
0.7347191070616654
0.4799674413266581
0.3733261199794458
0.3733213588198647
0.373495449287917
0.3747149392547118
0.3775450473653237
0.3797959580079417
0.3781218038617719
0.3749140847792159
0.3648366738708157
0.3425270408241483
0.3379075835741151
0.5217277889843304
0.5137635167382612
0.510380522501135
0.5088397282382755
0.5084654112023387
0.5042702980457393
0.5100758676913798
0.5237759508021882
)
;
    }
}


// ************************************************************************* //
