/*--------------------------------*- C++ -*----------------------------------*\
  =========                 |
  \\      /  F ield         | OpenFOAM: The Open Source CFD Toolbox
   \\    /   O peration     | Website:  https://openfoam.org
    \\  /    A nd           | Version:  11
     \\/     M anipulation  |
\*---------------------------------------------------------------------------*/
FoamFile
{
    format      ascii;
    class       volScalarField;
    location    "0.116";
    object      Ma;
}
// * * * * * * * * * * * * * * * * * * * * * * * * * * * * * * * * * * * * * //

dimensions      [0 0 0 0 0 0 0];

internalField   nonuniform List<scalar> 
880
(
1.443353270571932
1.443353270571932
1.443353270571683
1.443352106958738
1.443353270571932
1.443353270571932
1.443353270577022
1.443342471009811
1.443353270571932
1.443353270571933
1.44335327063956
1.443332466614818
1.443353270571932
1.443353270571932
1.443353273138509
1.44324433344868
1.443353270571932
1.443353270571932
1.443353270571933
1.443353270546588
1.443353270571932
1.443353270571932
1.443353270571935
1.443353270571932
1.443353533057423
1.443352135669195
1.443300135335641
1.443620836412976
1.432905725837658
1.405787392571495
1.389232871426195
1.384780063642655
1.443353234723913
1.443353133713968
1.443352769074201
1.44335293226899
1.443351787157212
1.44334984233051
1.443348903830792
1.443349716078712
1.442455356161461
1.442080452373634
1.441955632427479
1.441793934850095
1.382012373778706
1.375746135488727
1.380168231572066
1.368279842480958
1.394269894220749
1.423099473438295
1.446286889433301
1.458408050515457
1.440837646905596
1.437644665292449
1.439893772485355
1.442243951961693
1.443342152727597
1.443313370640825
1.443293519319194
1.44331977364547
1.443352363210551
1.443351149155376
1.443348490813645
1.443347476605905
1.443348153623809
1.443350322435718
1.443352398881698
1.443353159145461
1.443342958864333
1.443360383855877
1.443359486491099
1.443354534240764
1.443890925992851
1.44451338367366
1.444142573736598
1.443625518694612
1.46113169105582
1.459229388347928
1.455090627319822
1.450001554088725
1.445775988464923
1.443391728646116
1.443353343670322
1.443353265423249
1.443762820773671
1.443355561735304
1.443353274770546
1.443353270121039
1.443400643780458
1.443355307769454
1.44335330880244
1.443353267139257
1.422864158321106
1.443263084973466
1.443355630596828
1.443353584882273
1.443353376130307
1.443354290955004
1.442540581801663
1.268228563941725
1.44335319420916
1.44334471260258
1.439159547942212
1.165082792912946
1.443352584274312
1.443323252461315
1.434372312914742
1.115539172272239
1.443349887525907
1.443305130026093
1.429949359566651
1.101688707262857
1.097464101111053
1.424739148411732
1.443269498665288
1.443348946224264
1.104214528959236
1.421030360102718
1.44325135836841
1.443343758197505
1.10356283619452
1.415546002622965
1.443199832908374
1.443343671556921
1.101677952354693
1.409393903652046
1.44314693391355
1.443334701861014
1.443332079827691
1.443091473797022
1.400609603162067
1.081851271154883
1.443322916914058
1.442907657214132
1.389618875907455
1.10042639286958
1.443310625917926
1.442855680309137
1.393484749729462
1.145900885167298
1.443327111277326
1.442871656066521
1.407533592947674
1.248256720647486
1.4432600022477
1.443042233310964
1.43752060843617
1.429900412963652
1.443193996559822
1.444535168173982
1.456265049960519
1.560427629429285
1.44334779532933
1.444212289507836
1.451276998244208
1.500897808794282
1.443363690473043
1.443310427498444
1.431008268377296
1.310818853236336
1.179383434133551
1.422396917256833
1.443195968144427
1.443355583999611
1.112507220366015
1.414602320740589
1.442879529526256
1.443351382047772
1.095716269551579
1.413248196268991
1.442971272509762
1.443352893099827
1.042784423914733
1.407794340806007
1.442861437518904
1.443352370383375
1.137339346105193
1.420770868947892
1.44312753864999
1.443352844442598
1.26107250594626
1.433016552566593
1.443290656099024
1.443353166104273
1.355325565892194
1.43942835451988
1.443338361130569
1.443353254821319
1.419883098013251
1.442897574086603
1.443356476559472
1.443353273751767
1.363132349562224
1.438732651441163
1.443266644008119
1.443352664848332
1.365890921720549
1.438887700731823
1.4432685257397
1.443352670099695
1.362509890699445
1.438760283286181
1.443269755364132
1.443352673011991
1.358034815751951
1.438878547186941
1.443281469340902
1.443352719022941
1.419883098020347
1.442897574091906
1.443356476568525
1.443353273737967
1.355325565895894
1.439428354526167
1.443338361148863
1.443353254819966
1.261072505944252
1.433016552560139
1.443290656097211
1.443353166103396
1.137339346097674
1.420770868931427
1.443127538647411
1.443352844447755
1.443355583986342
1.443195968128843
1.422396917253207
1.179383434131345
1.443351382031291
1.4428795295168
1.414602320737628
1.112507220362979
1.443352893110726
1.44297127249718
1.413248196269552
1.095716269544707
1.443352370382585
1.442861437513931
1.407794340790406
1.042784423916145
1.310818853245272
1.431008268388535
1.443310427519598
1.443363690486316
1.500897808808638
1.451276998255321
1.444212289521935
1.443347795353452
1.560427629428463
1.456265049972338
1.444535168173523
1.443193996566475
1.429900412961731
1.437520608441333
1.443042233318649
1.443260002218738
1.443332079835035
1.443091473786758
1.400609603158063
1.081851271147132
1.443322916914272
1.442907657199081
1.389618875900572
1.100426392868616
1.443310625900921
1.442855680307566
1.393484749736841
1.14590088516745
1.443327111263082
1.442871656064423
1.40753359295326
1.248256720648715
1.101677952340988
1.409393903646335
1.443146933887427
1.443334701859892
1.103562836181131
1.415546002589352
1.443199832911457
1.443343671552813
1.104214528960412
1.421030360110931
1.443251358342099
1.443343758204097
1.097464101107847
1.42473914843401
1.443269498685886
1.443348946228546
1.443353376119583
1.443354290946016
1.442540581806192
1.268228563946695
1.443353194215748
1.443344712613974
1.439159547927962
1.165082792925933
1.443352584283966
1.443323252469469
1.434372312914
1.115539172258814
1.443349887537845
1.443305130003608
1.429949359561935
1.101688707264823
1.443353584882609
1.443353267133091
1.443353270120175
1.443353265424905
1.44335563060841
1.44335330879988
1.443353274757909
1.443353343677968
1.443263084970284
1.443355307766196
1.44335556174553
1.443391728649303
1.422864158320828
1.443400643780687
1.443762820769477
1.445775988465704
1.443353159156405
1.443354534240755
1.443625518682193
1.45000155408468
1.443352398886361
1.443359486495025
1.444142573717075
1.455090627319504
1.443350322424998
1.443360383856378
1.444513383682988
1.459229388349928
1.443348153621461
1.443342958863801
1.443890925984213
1.461131691062068
1.443352363226098
1.443342152738876
1.440837646894207
1.39426989422039
1.443351149171062
1.443313370643506
1.437644665291865
1.423099473445717
1.443348490820446
1.443293519304952
1.439893772488981
1.446286889439333
1.443347476611735
1.443319773634292
1.442243951964304
1.458408050521554
1.36827984247871
1.441793934824974
1.443349716087709
1.443352932276045
1.380168231567424
1.441955632403635
1.443348903833788
1.443352769068642
1.375746135478986
1.4420804523969
1.443349842327303
1.443353133719382
1.382012373779573
1.44245535621359
1.443351787160776
1.443353234719236
1.384780063637568
1.44362083637326
1.443353270571932
1.443353270543951
1.389232871428176
1.443300135368891
1.443353270571932
1.443353270571933
1.40578739256582
1.443352135673219
1.443353270571932
1.443353270571933
1.432905725835691
1.443353533060868
1.443353270571932
1.443353270571934
1.443353270571932
1.443353270571933
1.443353270571586
1.443352107025319
1.443353270571931
1.443353270571932
1.443353270576913
1.443342471080883
1.443353270571932
1.443353270571932
1.443353270638524
1.443332466621662
1.443353270571932
1.443353270571932
1.443353273146087
1.443244333451312
1.44335051539546
1.443340306847557
1.44327380010198
1.441485945138803
1.443340306639884
1.443338435737957
1.443260895332176
1.434253560362833
1.443273800103031
1.443260895287202
1.43952720354541
1.385069480003302
1.441485945144843
1.434253560391583
1.385069480214248
1.202980948678167
1.035128296804225
1.124521337231456
1.278733366068742
1.369966445635348
1.085812563353304
1.108519054674367
1.169163770423286
1.243740225380249
1.132919672086466
1.159506398791629
1.202198462190537
1.252400933638269
1.176029764486577
1.198794058710885
1.233104983474531
1.267641958108751
1.274029742821265
1.279122950463295
1.286702996548976
1.283658821221058
1.261645137801521
1.276756122027495
1.2846864480955
1.310336251803871
1.239578075918251
1.269718564039208
1.279574244790787
1.396498582222495
1.17289999315162
1.190400372634836
1.201266341116372
1.515995528701277
1.408021805470869
1.544107476130725
1.534427781840298
1.503327820255796
1.501490138185011
1.637098962038285
1.591387358543557
1.541924517036505
1.682450718862958
1.735513545914202
1.625233892099327
1.554902544126581
1.274770417447499
1.29677038066202
1.265891222861196
1.278094173906513
1.484329439910573
1.471132561464896
1.464287012144061
1.459091511794752
1.510032394605742
1.489040215630554
1.47627384182707
1.467961960354204
1.521404155502218
1.501076857056306
1.486036424126203
1.4749827289468
1.319367078841398
1.367701603375249
1.405971980859587
1.422200169955121
1.451336414224239
1.445668992951511
1.443672016890141
1.247010209240253
1.457224728443292
1.447964516217882
1.444131493936985
1.096832766907064
1.462331852889254
1.450381316724841
1.444391973234384
0.9499312142596802
1.432534455476575
1.439618311730684
1.441217692631263
0.6912253621310072
0.8506998177166706
0.8561405625569117
0.8836600249554503
0.9224924523952528
0.7406112058909425
0.8140298986760344
0.8771187672728209
0.9232588932382858
0.6099328704249832
0.7376174791837306
0.8444061497761236
0.911509775530458
0.3980410171744699
0.5671792213391138
0.695338695663373
0.8054852899144337
0.9487180084951681
0.961362196145171
0.9721923584506944
0.9769877041186712
0.9508790257561553
0.9629591040703998
0.9756718857505601
0.9824638598823338
0.9473074700682066
0.9626367761190708
0.9782288139443266
0.9862575956428752
0.8784314295997722
0.9097342822293587
0.927032355945888
0.9313077755326256
0.9812073785802827
1.006525766345022
1.058521089540485
1.160304727039555
0.9868217247495938
1.009796521242923
1.066638121867215
1.217044152590703
0.9915037778387312
1.008200445157704
1.093957294297544
1.538416309690448
0.9508326896861116
0.9718804739883969
1.107727167219608
2.135967875626504
1.394491282567248
1.705867152327923
0.6686940412668443
0.3695945251098577
1.477385343974839
1.5131494482637
0.4968606441863226
0.1788740315336751
1.528708612986784
1.18330166661659
0.2533634494075058
0.1002939383648469
1.205614158848141
0.6509026870806597
0.04524453193806528
0.0540293892429714
0.1926766351963816
0.09167059142250165
0.03600662917294273
0.09797891182570577
0.08712070613520499
0.0844548959651216
0.112063506306474
0.1993567340014517
0.05531877885480911
0.1129851703374613
0.1984713776214587
0.3251886774108054
0.02503368183762428
0.1119638110261749
0.2796020961905535
0.361454898074798
0.5915252114501444
1.051136162189585
1.32010505212862
1.457099009848323
0.2783453014633528
0.7777110018633662
1.143763146844829
1.357437403909163
0.06722591543494665
0.3687327369458615
0.8200555985118633
1.250275413499152
0.1651590975054987
0.1375750111850762
0.5836966713671009
1.381062233609834
1.651564045893118
1.90092416595618
2.609345775609235
2.26577284244925
1.588839689815799
1.876271278368401
2.41614122352077
1.434583961828101
1.564891040709429
2.075204991292882
1.689805061961976
0.6195000857454844
1.368214978779492
1.55726629352457
0.2152500704858901
0.4108693182942868
0.4559999564687811
0.4573248865228184
0.3636894812244647
0.218058575186105
0.3100296971091808
0.3329903444923279
0.3077976981268819
0.2230973797358949
0.5901384551726928
0.1196813088873659
0.1458620694455459
0.1732657961312325
1.274378328336849
0.6969894445323755
0.4245021809096681
0.3039770976760118
0.2180585751856587
0.2230973797357248
0.1732657961309023
0.3039770976710084
0.3636894812234489
0.3077976981274545
0.1458620694441655
0.424502180905799
0.4573248865227748
0.3329903444913123
0.1196813088865396
0.6969894445302016
0.455999956468993
0.3100296971072224
0.5901384551725146
1.274378328335463
2.265772842449041
2.609345775617649
1.900924165965822
1.651564045902924
1.434583961827093
2.416141223514926
1.876271278370785
1.588839689822564
0.6195000857455882
1.689805061956237
2.075204991297612
1.564891040711322
0.4108693182947081
0.2152500704841679
1.557266293524335
1.368214978780562
1.381062233612649
0.5836966713672089
0.1375750111852935
0.1651590975078641
1.250275413501606
0.8200555985118145
0.3687327369411726
0.06722591543280144
1.357437403912985
1.143763146844444
0.7777110018575774
0.2783453014582989
1.457099009853567
1.320105052127071
1.051136162185209
0.5915252114448591
0.09797891182123919
0.03600662916964414
0.09167059141598842
0.1926766351926597
0.1993567340012767
0.1120635063034344
0.08445489597069565
0.0871207061429419
0.3251886774084927
0.1984713776162542
0.1129851703430313
0.05531877886078514
0.3614548980729065
0.2796020961859586
0.1119638110311349
0.02503368184002728
0.3695945251146097
0.6686940412654655
1.705867152328324
1.394491282568312
0.1788740315369835
0.4968606441881572
1.513149448266832
1.47738534398091
0.1002939383649001
0.2533634494078961
1.183301666620142
1.528708612992889
0.05402938923503649
0.04524453193697298
0.650902687089884
1.205614158853318
1.160304727039829
1.058521089538414
1.006525766342685
0.9812073785739366
1.217044152592225
1.06663812186642
1.009796521241029
0.9868217247446448
1.538416309695665
1.093957294299271
1.008200445156365
0.9915037778355499
2.135967875635362
1.107727167225326
0.9718804739950784
0.9508326896919627
0.9769877041076364
0.972192358447044
0.9613621961508882
0.9487180084886192
0.9824638598747916
0.9756718857474747
0.9629591040766898
0.9508790257557044
0.9862575956376587
0.9782288139425157
0.9626367761260445
0.947307470070396
0.93130777553394
0.9270323559453695
0.9097342822355241
0.8784314295993126
0.9224924523848859
0.8836600249546059
0.8561405625645068
0.8506998177172233
0.923258893228062
0.877118767271271
0.8140298986793578
0.740611205890275
0.9115097755217501
0.8444061497746937
0.7376174791825898
0.6099328704242288
0.805485289896986
0.6953386956654889
0.567179221337481
0.3980410171685356
1.247010209237183
1.443672016895249
1.44566899295402
1.451336414219696
1.096832766906432
1.444131493950149
1.447964516214846
1.457224728438914
0.9499312142624047
1.444391973256701
1.450381316703808
1.462331852891756
0.6912253621382777
1.441217692652779
1.439618311754336
1.432534455451595
1.459091511797461
1.464287012147432
1.471132561467607
1.484329439915178
1.467961960355098
1.476273841829844
1.489040215632166
1.510032394608665
1.474982728945676
1.48603642412882
1.501076857054743
1.521404155505479
1.422200169954978
1.40597198085837
1.367701603371673
1.319367078838847
1.503327820259822
1.534427781845919
1.544107476137135
1.408021805472737
1.541924517043187
1.591387358547763
1.637098962043887
1.501490138187703
1.554902544134871
1.62523389210183
1.735513545921598
1.682450718867606
1.278094173914113
1.26589122286322
1.296770380665199
1.274770417446693
1.283658821227958
1.286702996556186
1.279122950453265
1.274029742801065
1.310336251812246
1.284686448098763
1.276756122019036
1.261645137790316
1.396498582233894
1.279574244794297
1.26971856403599
1.239578075918973
1.515995528721116
1.201266341135185
1.190400372638989
1.172899993142064
1.267641958114033
1.252400933637877
1.243740225373842
1.369966445657106
1.233104983490771
1.202198462202527
1.16916377038725
1.278733366049923
1.19879405872924
1.159506398801541
1.108519054627085
1.124521337089343
1.176029764477334
1.132919672064936
1.085812563329809
1.035128296721171
1.426233500891265
1.442156473179956
1.4433417739695
1.443353228806907
1.427388924166515
1.442004897631216
1.44333510101883
1.44335317003651
1.398956831649657
1.441064132287996
1.443322374929755
1.443353077839703
1.361970260402732
1.439539006118389
1.44330293379372
1.44335289740999
1.443352664841719
1.443266644009402
1.438732651440549
1.36313234954297
1.443352670092243
1.443268525731489
1.438887700744093
1.365890921724642
1.443352673020039
1.443269755353392
1.438760283297376
1.362509890709635
1.443352719046342
1.44328146932906
1.438878547211399
1.358034815764428
1.443352897415658
1.443353077847529
1.443353170065558
1.44335322883427
1.443302933789847
1.443322374930771
1.44333510102478
1.443341773983358
1.439539006121851
1.441064132293515
1.442004897621239
1.442156473191062
1.36197026041132
1.39895683165904
1.427388924169584
1.426233500891421
)
;

boundaryField
{
    back
    {
        type            empty;
    }
    inlet
    {
        type            calculated;
        value           nonuniform List<scalar> 
16
(
1.443353270571932
1.443353270571932
1.443353270571932
1.443353270571932
1.443353270571932
1.443353270571932
1.443353270571932
1.443353270573874
1.443353270572922
1.443353270571932
1.443353270571932
1.443353270571933
1.443353270571932
1.443353270571932
1.443353270571932
1.443353270571932
)
;
    }
    front
    {
        type            empty;
    }
    top
    {
        type            calculated;
        value           uniform 0;
    }
    outlet
    {
        type            calculated;
        value           nonuniform List<scalar> 
16
(
1.443352434023663
1.443352436787138
1.443352427897173
1.44335241796958
1.443353207787562
1.443353128382874
1.443352997875908
1.443352669048947
1.443352434019425
1.443352436781842
1.443352427901693
1.44335241798421
1.443352669051903
1.443352997879378
1.44335312839993
1.443353207804831
)
;
    }
    bottom
    {
        type            calculated;
        value           uniform 0;
    }
    wall
    {
        type            calculated;
        value           uniform 0;
    }
}


// ************************************************************************* //
