/*--------------------------------*- C++ -*----------------------------------*\
  =========                 |
  \\      /  F ield         | OpenFOAM: The Open Source CFD Toolbox
   \\    /   O peration     | Website:  https://openfoam.org
    \\  /    A nd           | Version:  11
     \\/     M anipulation  |
\*---------------------------------------------------------------------------*/
FoamFile
{
    format      ascii;
    class       surfaceScalarField;
    location    "0.116";
    object      phi;
}
// * * * * * * * * * * * * * * * * * * * * * * * * * * * * * * * * * * * * * //

dimensions      [0 3 -1 0 0 0 0];

internalField   nonuniform List<scalar> 
1652
(
2.843686947071611
0.8895636090847481
0
1.954123337988149
0.8895636090834615
-2.220446049250313e-16
1.064559728903521
0.8895636090673664
-1.999289622744982e-12
0.8895541837489751
-1.307531860561539e-11
0.1749971784845194
2.843686947076741
1.779127218162428
1.954123337998014
1.779127218162188
1.064559728923644
1.77912721802972
1.779080853315435
0.1750081666678367
2.843686947090741
2.668690827246526
1.954123338008367
2.668690827244562
1.064559729093784
2.668690826201926
2.668434342510507
0.1750373953167537
2.843686947092868
3.558254436328659
1.954123338013008
3.558254436324421
1.064559733632221
3.558254411247929
3.557120269381464
0.1751310821890284
4.418652025448567
2.872852967045247
5.279049614570503
2.872852967043177
6.139447203695429
2.872852967042497
2.872852967041383
6.999844793235471
4.418652025437511
2.012455377932159
5.27904961455098
2.012455377929711
6.139447203663639
2.012455377929235
2.012455377926269
6.999844792777397
4.418652017349532
1.152058099980327
5.27905092994639
1.152056393406823
6.138176778005396
1.152182349666067
1.152080644385273
6.999096196676009
4.438596006066398
0.2499562038665319
5.418899574489937
0.1143337762463922
6.444262945146625
0.04909805283919844
7.47555902651223
0.03007179257045156
6.941512774362806
0.05833171616973165
6.88317906203991
0.05832992173306839
6.824848062888246
0.05832580848112978
0.05832797227773556
6.766516064598425
6.941522620515313
0.1166474384944086
6.883225346630396
0.1166143471054721
6.824924397337808
0.1165528796727103
0.1165589583520403
6.766620607608053
6.946693829693056
0.1678252317431016
6.895504662910003
0.1645489730313466
6.841764893067695
0.1616105222922291
0.1577798452086933
6.788852780898817
7.540342633022433
0.02292462574911824
7.598673445872769
0.01542194487603915
7.660229704125616
0.01394587237258871
7.706735994364519
-0.00311778083854275
7.72805298289012
0.03533373165942705
-0.183568300740502
7.610922042357768
0.07115366776292825
-0.05404501696668884
7.480731153820521
0.06900824118490007
-0.01732404766492301
0.05010875940617077
7.34803987759349
-0.007483376715750001
6.803555977125518
0.0002924700560654747
6.831995601345705
0.0009544699100122456
6.851841193827235
0.001869118622447652
0.001901196838523522
6.849474153048436
6.766715628076537
1.241856467493196e-05
6.767005802870643
3.427002431222181e-05
6.767495257507639
7.872137069975249e-05
9.113626204926284e-05
6.767583035613787
6.766516568820084
6.766516159718245
6.766514641130951
6.766511430225471
6.766509594684477
-8.002313116717286e-05
6.766511787910171
-4.833921795099894e-05
6.766515233927429
-1.542551128397296e-05
-2.086487290942074e-06
6.766516526742026
6.767447081956224
-0.001622636138563838
6.767013375053478
-0.001053553635008253
6.766624732223763
-0.0003954600596601798
-6.312401646768606e-05
6.766523897975889
6.834186970280439
-0.03474908679862354
6.809288061673636
-0.02359279719681812
6.782294433776298
-0.01460201860313909
-0.004584149141172777
6.769070690784821
7.213590650598691
-0.004143199599978997
7.08389962781454
-0.004011380997252179
6.960308048995302
-0.004224401922058751
6.85261766232565
-0.001866831455094142
0.0008876415982798647
6.786865748408891
-0.002540615442987393
4.746765112972895e-06
6.766691705482652
1.119397888826867e-07
6.76651689370295
6.766516629476476
9.177875630195231e-05
6.768157476289764
-0.001138044337302468
3.162438636516995e-07
6.766508522879368
1.172696717510746e-08
6.766516301643875
6.766516638104945
-5.681088955156177e-06
6.766849976518436
-2.175831877343493e-05
-3.075285544218431e-06
6.766501360345994
-3.283834315581657e-10
6.766515462328607
6.766516642145771
0.001387887989860725
6.844240027744264
-0.1265837479792863
4.126589194686225e-06
6.766982825394061
-1.890067669929607e-06
6.766511467035502
6.766514126650572
0.1555540327101569
6.610962183463464
0.3110908819676865
6.610972068547288
0.4587897353107565
6.615874561493852
6.932996439724523
0.1324026527903632
0.15555090568317
6.455411506006788
0.3109892242050751
6.455432979343056
0.441773517066036
6.46586150063352
6.85430398360621
0.1499655436552264
0.1555376369753996
6.299864043131235
0.3107849549400124
6.300004554974888
0.420948743396176
6.320506711480446
6.702988640285893
0.09488351665162009
0.1555110811600477
6.144314342798574
0.3104038947690297
6.14453122909554
0.3955609195964924
6.176790343776138
6.541129960876385
0.05496445419759433
-0.3623051711068712
6.427442569003621
0.01124076678185526
-0.3098899206268583
6.03826258300797
-0.1554839601597847
5.989245641689172
5.988768502948985
-0.3314146731882262
6.308562680919067
0.004490013360755718
-0.3091299175105134
5.895140545838631
-0.1554243083472121
5.83371805641911
5.833220827278728
-0.2980638720572393
6.120623747676389
-0.008662837082981212
-0.3085103893502653
5.744605631541002
-0.1554133117942973
5.67843640826357
5.677674746083367
-0.2634820955988877
5.823290707541579
-0.0001411835242430826
-0.3073556256425651
5.595877124780501
-0.1553032226801456
5.523025020356116
5.522138343041235
0.1990223730365152
5.322844657054098
0.3937225315903765
5.323753846249161
0.3322723187776411
5.392002963552359
5.466610178406433
0.0253454872718808
0.1988460249321027
5.123579509907169
0.3911757599153982
5.12486133731953
0.2916137450215047
5.194130047251643
5.134290013868445
0.06880293134100057
0.1986626981321969
4.924111219351928
0.3895804107260386
4.925385862785195
0.3309230095329357
4.979882463836331
4.924817707047039
0.1781054852911015
0.1989618419459549
4.725139451859827
0.3931869766927382
4.727272115695104
0.434592517254784
4.769785010630266
4.758037120299324
0.3674271948462531
-0.3367753982351315
5.060579954939796
-0.6942322412724753
5.065792481417662
-1.231594595439387
5.142262601876149
4.887439992395843
-1.442102951348561
-0.3372941600270895
5.395818090471072
-0.698433085108476
5.406961343516364
-1.023626646388291
5.430998403406608
4.420088865186931
-0.4592792597729691
-0.3363616638638623
5.731234130140169
-0.6712799857301515
5.734200057648968
-0.9295586035820849
5.703813605752241
3.86686299071978
-0.06330937919789639
-0.3353387589962273
6.066555219345405
-0.6642037177192491
6.064973589602771
-0.7989075769315906
5.898592471237596
3.460672299496356
-0.03588752512793145
0.3557785200684156
3.307320696879206
-0.01057680567739126
0.3422550340020991
5.992784792136417
0.1749097860486265
6.237715782583757
6.241508166345199
0.3373010458305857
3.171641816199215
-0.004455950965558057
0.3414515302431083
6.104331299987088
0.1749089486227782
6.411413510788305
6.416512917216411
0.345357812830238
3.011420648898636
0.0002089252456097881
0.3427360431536466
6.250531158333665
0.1749474722047262
6.586763366955407
6.591509418800278
0.3284314884150476
2.869640859733106
0.01184376338343449
0.3423908856989033
6.412950308306509
0.1749486891386884
6.76279674244539
6.766507820809934
-0.1391054427481416
3.546679944536461
0.08401009037221162
-0.005601510315901503
6.60057149815532
-3.716222680116843e-05
6.765582503106409
6.766514589945749
-0.08361496310387251
4.369859575980543
0.1136530447566025
-0.00185518265448148
6.704009052235827
-9.587823607937196e-06
6.766299611890497
6.766516265242652
-0.04927526049078612
5.148814433717193
0.1322530993508356
-0.0006997251924032444
6.751143718372159
-3.083705523598823e-06
6.766516473485327
6.766516631505206
-0.03043770944601631
0.1175952378853368
5.845630492184436
-0.0003153687302011043
6.752837241220547
-1.346532659596278e-06
6.766404665463966
6.766516622116217
1.037567315294045
-0.8412928552862695
-0.02263037655284386
-6.293054966022282e-11
1.979881858205206
-0.8688075696835136
-3.059774655866931e-12
2.858224227981749
-0.8748311241102313
3.093081346605686e-11
-0.87497941380051
-2.844302571247681e-11
1.043466826398455
-1.734006928317214
-0.02523791853308457
1.979971362157941
-1.737793012742582
2.858224584909285
-1.749648021533811
-1.749958779351741
1.044324539542806
-2.591964395435733
-0.03939867542667438
1.979995758581699
-2.610367410688077
2.85822435295503
-2.624506527849777
-2.62493823116405
1.048169746323795
-0.05485569244832517
-3.416663738449853
1.980382020918465
-3.489388636327683
2.858226561000108
-3.499599969742496
-3.499919551830915
-0.03043770944548108
-5.148814433726582
0.1175952378843503
5.84563049219484
-0.0003153687383847803
-6.751143718375709
6.752837241236437
-1.346566709914399e-06
-6.766516473504453
6.76640466547979
-6.766516631547536
6.766516622184999
-0.0492752604937795
-4.369859576003432
0.1322530993528677
-0.0006997251999851795
-6.704009052254416
-3.08369565305e-06
-6.766299611912731
-6.766516265222352
-0.08361496312104777
-3.546679944537598
0.1136530447563842
-0.00185518267258078
-6.600571498162044
-9.587823746715074e-06
-6.765582503116343
-6.766514589947375
-0.1391054427428963
-2.869640859717207
0.08401009036931101
-0.005601510306836532
-6.412950308288025
-3.716222392347035e-05
-6.762796742428923
-6.766507820811739
-0.1749097860435072
6.241508166363815
-6.066555219405189
-0.3422550339853149
6.237715782607614
-6.064973589625213
-0.3557785200622282
5.992784792114661
-5.89859247118033
3.307320696844338
-3.460672299452499
-0.01057680567764889
-0.1749089486008426
6.416512917235971
-0.3414515302180152
6.41141351081214
-0.337301045826721
6.104331299988535
3.171641816164558
-0.004455950965141529
-0.17494747219232
6.59150941880971
-0.3427360431329538
6.586763366964164
-0.3453578128219635
6.250531158316299
3.011420648877689
0.0002089252462997224
-0.1749486891286072
-0.3423908856737018
-0.3284314884038598
0.01184376338213439
0.7989075769346917
-3.866862990682339
-0.03588752512846589
0.6642037177583091
-5.703813605721521
0.3353387590217859
-5.734200057681136
-5.73123413014811
0.9295586035882413
-4.420088865160435
-0.06330937919660913
0.6712799857461043
-5.430998403387295
0.3363616638672186
-5.406961343557952
-5.395818090470711
1.023626646399082
-4.887439992385553
-0.4592792597707356
0.6984330851283417
-5.142262601871284
0.3372941600276905
-5.065792481447659
-5.060579954927896
1.231594595453181
-4.75803712029698
-1.442102951352993
0.6942322412894433
-4.769785010634566
0.3367753982403261
-4.727272115706763
-4.725139451841226
0.1990223730405971
5.322844657070954
-5.522138343064873
0.3937225316069566
5.323753846224816
-5.523025020441557
0.3322723187852126
5.392002963535508
-5.59587712472236
5.466610178397758
-5.823290707498253
0.02534548727433883
0.1988460249318384
5.123579509926746
0.3911757599186764
5.124861337315962
0.2916137450318956
5.194130047224263
5.134290013859078
0.06880293134107607
0.1986626981395614
4.924111219414844
0.3895804107435293
4.925385862788445
0.3309230095364298
4.979882463823307
4.924817707040606
0.1781054852901515
0.1989618419568814
0.3931869767124375
0.4345925172576691
0.3674271948464931
-0.2634820955671343
-6.120623747620535
-0.0001411835170540554
-0.3073556256233569
-5.744605631434808
-0.1553032226693287
-5.678436408257626
-5.677674746106443
-0.2980638720465562
-6.308562680901017
-0.008662837085281039
-0.3085103893366951
-5.895140545878741
-0.1554133117883134
-5.833718056468154
-5.833220827291265
-0.3314146732075573
-6.42744256903246
0.004490013357204115
-0.3091299174916488
-6.038262583031057
-0.1554243083368994
-5.989245641771859
-5.988768502953209
-0.3623051710838395
-6.541129960900643
0.01124076679444541
-0.3098899206200226
-6.176790343715955
-0.1554839601543651
-6.144531229163314
-6.144314342804989
0.1555540327118148
6.610962183482974
-6.766514126670393
0.3110908819688095
6.610972068559263
-6.766511467028207
0.4587897353185671
6.615874561501767
-6.766982825401497
6.93299643974062
-6.844240027764106
0.1324026527781611
0.1555509056826766
6.455411505995285
0.3109892242035976
6.455432979367229
0.4417735170532935
6.46586150064253
6.854303983612965
0.1499655436672237
0.1555376369796486
6.299864043129074
0.3107849549480307
6.300004554965192
0.4209487434091636
6.320506711499145
6.702988640268681
0.09488351664139527
0.1555110811532427
0.3104038947537788
0.3955609195835948
0.05496445420112706
-6.76651664214781
1.890072775179164e-06
-6.766516638106268
3.286418914782985e-10
-6.76651662947787
-1.172711860952802e-08
-1.119372888824799e-07
-6.766516526735683
-6.766515462311937
-4.126587565767004e-06
-6.766516301649764
3.075281924114215e-06
-6.766516893717077
-3.162428556802155e-07
-4.746762660601256e-06
-6.766523897969241
-6.766501360353709
-0.001387887990366266
-6.766508522884182
5.681090703313352e-06
-6.766691705476771
-9.177875522980994e-05
-0.0008876416028777978
-6.769070690777542
-6.766849976542469
-0.1265837479792746
-6.768157476288855
-2.175834765255624e-05
-6.78686574839521
-0.00113804433600323
-6.85261766232679
-0.002540615442476468
-2.086490122898965e-06
-6.766515233928637
-6.312402035713038e-05
-6.766624732224825
-0.004584149144705729
-6.782294433779864
-6.96030804900334
-0.001866831453019357
-1.542551091915367e-05
-6.766511787908539
-0.0003954600603153224
-6.76701337505432
-0.01460201858854865
-6.809288061663871
-7.083899627820336
-0.004224401919561638
-4.83392181673814e-05
-6.76650959468569
-0.001053553634227877
-6.767447081952947
-0.02359279719961827
-6.834186970287969
-7.213590650600612
-0.00401138099624776
-8.002313304644737e-05
-6.766511430225645
-0.00162263614565239
-6.767583035629034
-0.03474908679092875
-6.849474153066895
-7.348039877592299
-0.004143199598643788
-1.24185753723749e-05
6.76651656881053
-6.766516064584075
-0.0002924700704426408
6.766715628056901
-6.766620607587812
-0.03533373167787673
6.803555977095178
-6.7888527808418
7.728052982907493
-7.70673599440806
-0.1835683007423192
-3.427002709655014e-05
6.766516159712015
-0.0009544699143912982
6.767005802867769
-0.07115366777076065
6.831995601372065
7.610922042367421
-0.05404501697096542
-7.872137253772671e-05
6.766514641129102
-0.001869118627101596
6.767495257520248
-0.06900824119343385
6.851841193854185
7.480731153823029
-0.01732404766510687
-9.113626918544337e-05
-0.001901196851011644
-0.05010875941126341
-0.007483376718267931
-0.1577798452168558
-7.660229704169763
-0.003117780835670936
-0.116558958368339
-6.841764893038627
-0.05832797227743303
-6.824924397341692
-6.824848062879103
-0.1616105223077079
-7.598673445910565
0.01394587236912115
-0.1165528796905549
-6.895504663010499
-0.05832580848926672
-6.883225346635514
-6.883179061949182
-0.1645489730646776
-7.540342633031313
0.01542194488473309
-0.1166143471241079
-6.946693829920732
-0.05832992173349383
-6.94152262052391
-6.94151277435577
-0.1678252317516525
-7.475559026484345
0.02292462574776427
-0.1166474385183536
-6.999096196798542
-0.05833171617653155
-6.999844792820516
-6.999844793231987
-1.152080644325694
-6.444262945132629
0.03007179256362458
-2.012455377911027
-6.138176777883549
-2.872852967041305
-6.139447203691591
-6.139447203692531
-1.152182349675471
-5.418899574461303
0.04909805285144786
-2.01245537791647
-5.279050929936853
-2.872852967042254
-5.279049614566447
-5.279049614567399
-1.152056393406486
-4.438596006036438
0.1143337762785768
-2.012455377921992
-4.418652017346139
-2.872852967044603
-4.418652025443835
-4.418652025446893
-1.152058099978069
-3.557120269374885
0.2499562038597788
-2.012455377927508
-3.558254411249719
-2.872852967046921
-3.558254436324423
-3.558254436328661
2.843686947076677
0.8895636090796828
1.954123337995112
0.8895636090815642
1.064559728909375
0.8895636090687162
0.8895541836806793
0.1749971784534896
2.843686947077599
1.7791272181565
1.954123337999196
1.77912721815997
1.064559728924842
1.779127218031486
1.779080853305258
0.1750081664285922
2.843686947089469
2.668690827241873
1.95412333800662
2.668690827242819
1.064559729092071
2.668690826209136
2.668434342500423
0.1750373954112579
2.843686947088214
1.954123338006611
1.064559733625661
0.1751310821436732
0.1749964191379876
0.1749964190708644
0.1749950406386921
0.1750048240131183
0.1749991232108649
0.1750164893000272
0.1750960453739789
0.1749556523432559
0.1750048242773113
0.1749950405578931
0.1750016722695531
0.1750016720401857
0.1749923316288644
0.1750065648303729
0.1744060491920662
0.175473015890115
0.1750164892383972
0.1749991231491186
0.1750065647138222
0.174992331539685
0.1749552325000751
0.1749552326755004
0.1719509695804936
0.1767407431298814
0.1750960454172386
0.1749556522979346
0.174406049173552
0.1754730158861587
0.1719509695744813
0.1767407432659566
0.1715082295688835
0.1715082296542883
-0.07335303914608121
0.2434895497508298
-0.1367198811627836
0.2379825665917444
-0.2032845958791462
0.2397170212975083
0.2195998560071278
-0.01465788891216702
0.2569594409925353
-0.03489626853072259
0.2565162480034239
-0.06475666634911714
0.2670081052458643
0.265898051898116
-0.008550710091298486
0.2639711460579311
-0.02148730992991665
0.2680767114113748
-0.03294877868383872
0.277407163832771
0.2809614795268371
-0.001739618621588557
0.2667922565460183
-0.01283466975362235
0.278961032413676
-0.02231025543919707
0.2856610942436466
0.2879002600616972
0.2902041254863824
0.01992651975756238
0.2921832121938431
0.01349261924256268
0.2953333699199048
0.01159736782952331
-0.002689940516807376
0.2972439674677012
0.2913493867622826
0.01372904300309785
0.2946118869037522
0.01106793318502536
0.2985332671328504
0.00870744071011581
-0.007593754911639439
0.3061872288202762
0.2889035703307534
0.003056063974502254
0.2942086053485349
0.006039782283017159
0.2990118042692012
0.004585436059533654
-0.03255470554024326
0.3261304317205972
0.2686760122873551
0.2747653107727659
0.280366610837934
0.2504887788694355
0.2759449495008814
-0.1598241361891346
0.2534445660975748
-0.03015778622123333
0.2458279281451708
-0.005233926438944103
-0.004073087795963604
0.2443395584116232
0.2689586439894031
-0.1206837920980331
0.2526905136408162
-0.01167951774567855
0.2511698274129229
0.001095104628803301
-0.001057044746052338
0.2499704129590019
0.2742065818498147
-0.06762531718211889
0.2597525368546778
0.005752501276978239
0.2567939198084915
0.00854019457343469
0.004944949822160594
0.2531177998502518
0.183235868289629
0.1913179716132357
0.2042313957909375
0.212184412975312
0.2430259248000046
-0.00262304906680022
0.241951157352399
-0.002734087440539212
0.241390442740191
-0.001533679283880929
-0.001095410501117722
0.2396402120499938
0.2461299577196039
0.001078200395281281
0.244007700492511
0.000842933551664149
0.2430296951914956
0.0002788556341832837
0.0003537221287653325
0.2404023607470979
0.2490179332340296
0.006158216289246288
0.2466248672633251
0.005530127965275689
0.2449524243500786
0.003073753427258297
0.002301082090044815
0.2417558227328286
0.2201982492376418
0.2280853233546316
0.2334454689079966
0.2340143813956173
0.235852188860376
-0.00141146610055326
0.2337679481901522
-0.0007720760652826786
0.2334469610824016
-2.307172562415749e-05
-0.1466303327806034
0.2460380493388427
0.2364600821057149
0.0002392250800685725
0.2339951629364181
5.116724943937667e-05
0.2334940489427956
0.0001951626525866779
-0.1391438320879219
0.216835054223064
0.2373939562773297
0.002136760531234627
0.2343631540286793
0.001212560119417228
0.2333458084892854
0.0003728010188054909
-0.09463750496364776
0.1787732316183955
0.233514117695964
0.2333894182350749
0.2321263968699767
0.1259737353176782
0.2710461022932529
0.09810708501254584
0.2754192782221863
0.1360895030152576
0.2787528017302889
0.08134053001025565
0.04629020986386367
0.2804531065033476
0.2487212269761735
0.06127612795433857
0.2712666019494523
0.1075038594160668
0.279976200856399
0.06536492541790229
0.0373602302685917
0.2836926717534713
0.2019632027427417
0.03347738366346953
0.2460160096892294
0.0564942244345934
0.2738233383444758
0.03174307911577279
0.02312250166618346
0.2835195319984363
0.1568973841290704
0.2093664949378868
0.2357222817589707
0.2551155442791699
0.2825216345732928
0.00957944172870584
0.2896102684900181
0.003174341259712943
0.2958140402927436
-0.007439920960892632
-0.0009760047836500085
0.3014754156103024
0.2862058427172304
0.008861120654804377
0.2937881344760656
0.002629474229943418
0.3004074126788659
-0.004882091681347456
-0.0004303595191440523
0.3061845432517576
0.28767879326024
0.007838510130251608
0.2960080154118067
0.00221638105285038
0.3039033743790829
-0.002469200602867927
0.001065936396987932
0.3098435303550636
0.2659262800863921
0.2764587993988959
0.2848084104942654
0.2936492437256314
0.3086286444827097
0.01839446426955038
0.3242646974068012
0.05471711320457229
0.3542441085774786
0.1505609998740756
0.299006226304329
0.4263168929357515
0.3142693586088587
0.01178014432942498
0.3304693376093398
0.04024487878197425
0.3597739868381485
0.1243240065243008
0.1952654793285544
0.4680088149820756
0.3175153746993338
0.007625117905884604
0.332644459128638
0.02784059350673296
0.3705084286560424
0.09131180276216211
0.04697977919644669
0.5258345586263297
0.3055077230273863
0.3359507376332302
0.4299866109633703
0.4858192672449576
0.2228101079323878
-1.227668140106628
0.02496512062370737
-0.2553373732881907
0.004090514546681955
-0.03446882761542486
-0.02589303242227909
0.0008521994114915124
0.1561740868757492
-0.9106311281890261
0.01408405317270318
-0.1093279840396612
0.004079850184880487
-0.01738144433072743
-0.01487767548669622
-0.001151046193369332
0.07721376319745354
-0.4591664630887589
0.005943118383892989
-0.03447913340431789
0.000486852741194907
-0.005109658430402154
-0.007216816076478845
-0.001068615247898627
0.02894566922910728
-0.001927556994473814
0.0004719303356747733
-0.0001953086991697064
0.001611843639803268
-0.009315102738744536
0.001280478855105195
-0.002561868841240315
1.918680746480078e-05
0.001766612562317534
0.004093912999816977
0.006225572271873706
-0.001794213857733025
-0.006836349770464323
-0.002716359403521686
-0.001247867337445689
-0.002401847996754324
0.0002250478705116271
0.001968378825428538
-0.003813679488773595
-0.00202998942171569
-0.003693565416972348
-0.00332666137516272
-0.0005677967885890714
-0.00539079051476841
-0.0003453357947234559
0.002398262047478797
-0.009556399388171485
-0.001051489951300317
-0.003951700840902714
-0.009069869892355292
-0.01045370983755337
0.05995689628698396
0.03613031646730987
0.1137599633395915
0.0761932881392922
0.1584152081826781
0.106382027788641
0.1080992385512468
0.1919278539075356
0.02899570007985104
0.009428713967710028
0.08316031752111862
0.03581182594310149
0.1343503789341229
0.07089394282083045
0.08520142735048197
0.1805748848845533
0.006528167098067736
-0.001319833125441927
0.04936478927516649
0.006957144150345013
0.1048126681197012
0.03582006339504673
0.05295832085751215
0.1591249330234608
-0.00982813903979602
0.006752752090197225
0.05987854034367597
0.1356025989471526
0.1548035179209548
-0.1852559188083722
0.2366295940202274
0.1208491672812745
-0.1302282226275299
0.1756793273506893
0.08498096424960218
-0.06912444361251095
0.1136954845171578
-0.06585198769379354
0.06158972782890874
0.07801491528326948
0.1396114549459762
-0.1317875843947252
0.09638566559094669
-0.08177522677474379
0.07102048062700435
-0.04085283533094279
-0.04376095992617177
0.03073108601376755
0.1102566445584405
-0.07509562277827671
0.07015598151597729
-0.03860611137745758
0.02404474396675314
-0.01732005524257805
-0.01130327572757316
-0.01299237163072619
0.0669251650266116
0.02517254301806249
-0.02613416089942727
-0.04280459519461102
-0.04029503529700261
0.00183191948707425
-0.03081080473894262
-0.002799228710700256
-0.01644556115135063
-0.005221743091568851
-0.004898073762830739
-3.337607967779377e-15
-0.02158617861767801
0.01452700483335344
-0.01848383068640386
-0.0003986024631347819
-0.01024696281840944
-0.006905638429256074
-0.007341264069753842
7.596007156607243e-14
0.009909020172631379
0.03404686432820949
0.003510389198463887
0.01292083192976662
0.00155646863053225
0.0005554388673078073
-0.00289053095287219
1.329561460927664e-13
0.04525452845691522
0.03067202394051168
0.01674318311728579
3.946565296786275e-13
-0.004898073762813947
0.01644556115132193
-0.007341264069739919
0.01024696281854327
-0.002890530952940954
-0.001556468630226467
-0.01674318311633768
0.02263037655262625
-0.005221743091541258
0.03081080473892498
-0.006905638429250155
0.01848383068642513
0.0005554388673031166
-0.003510389198178691
-0.03067202393976331
0.02523791853321664
-0.002799228710719234
0.0402950352969845
-0.0003986024631258099
0.02158617861759176
0.01292083192980221
-0.00990902017248619
-0.04525452845624564
0.03939867542679024
0.001831919487025963
0.04280459519462478
0.01452700483336352
0.0129923716306837
0.03404686432820118
-0.03073108601367739
-0.06158972782822251
0.05485569244825659
-0.08498096424894463
-0.06585198769366085
0.07801491528314433
-0.1208491672808406
-0.06912444361208989
0.1136954845170428
-0.1548035179206816
-0.1302282226277103
0.1756793273509003
-0.1852559188084311
-0.1919278539075232
0.2366295940203192
-0.07102048062636158
-0.04376095992615626
-0.09638566559052512
-0.04085283533079944
-0.1396114549457361
-0.08177522677469483
-0.1317875843947705
-0.1805748848844784
-0.02404474396646819
-0.01130327572757942
-0.07015598151574118
-0.01732005524257763
-0.1102566445582813
-0.03860611137737537
-0.07509562277822951
-0.1591249330233684
0.02613416089950134
-0.02517254301795215
-0.06692516502643803
-0.1356025989469195
-0.0598785403435551
-0.05295832085735566
-0.006752752089885627
-0.03582006339508048
0.009828139039839315
-0.006957144149831937
0.001319833125726519
0.01045370983738295
-0.1048126681197758
-0.08520142735014724
-0.04936478927455737
-0.07089394282147432
-0.00652816709754897
-0.03581182594226445
-0.009428713966734031
0.009556399388055713
-0.1343503789343144
-0.1080992385504824
-0.08316031752053313
-0.1063820277902654
-0.02899570007883691
-0.07619328813858747
-0.03613031646514697
0.003813679488660203
-0.1584152081826945
-0.1137599633392246
-0.05995689628607765
-0.006225572271522262
-1.918680781757762e-05
0.004093912999271331
-0.001280478854961103
0.001766612562629874
-0.001611843639548756
-0.002561868840892059
-0.009315102738857224
-0.0008521994113477611
0.002401847996567261
0.001968378825059965
0.002716359403511845
0.0002250478706784867
0.00179421385795117
-0.001247867337205805
-0.006836349770407799
0.001151046193573107
0.005390790514519571
0.002398262047353286
0.003326661375224331
-0.0003453357947456742
0.002029989421990341
-0.0005677967883806548
-0.003693565416860542
0.001068615248115337
0.009069869892125207
0.003951700840856593
0.001051489951538358
0.0001953086994229674
-0.004090514546609219
-0.02589303242269073
-0.02496512062286312
-0.03446882761489761
-0.2228101079306867
-0.2553373732866885
-1.227668140109087
-0.4263168929354879
-0.004079850184878712
-0.01487767548667285
-0.01408405317236511
-0.01738144433052342
-0.1561740868745106
-0.1093279840389901
-0.9106311281902186
-0.4680088149820895
-0.0004868527410697501
-0.007216816076370973
-0.005943118383791128
-0.005109658430220911
-0.07721376319678525
-0.0344791334040569
-0.4591664630892363
-0.5258345586265157
-0.0004719303355667261
0.00192755699444135
-0.02894566922886986
-0.4858192672452794
-0.3542441085771341
0.2990062263047973
-0.3242646974061446
0.1505609998731309
-0.3086286444825675
0.05471711320463091
0.01839446427239944
-0.3014754156099223
-0.3597739868381704
0.1952654793285743
-0.3304693376092451
0.1243240065238034
-0.3142693586091581
0.04024487878228178
0.01178014433336538
-0.3061845432522767
-0.3705084286565907
0.04697977919602148
-0.3326444591289752
0.09131180276110418
-0.3175153747004034
0.02784059350789592
0.007625117908708123
-0.3098435303554348
-0.4299866109651972
-0.3359507376371331
-0.3055077230309571
-0.2936492437274043
-0.2958140402915756
-0.0009760047760032364
-0.2896102684901118
-0.007439920962886704
-0.2825216345758675
0.003174341255810509
0.009579441739589689
-0.2804531065047798
-0.3004074126775644
-0.000430359513178491
-0.2937881344764894
-0.004882091682549494
-0.2862058427218603
0.002629474228608375
0.008861120662369548
-0.2836926717560039
-0.3039033743780574
0.001065936400737044
-0.2960080154129898
-0.002469200603466115
-0.2876787932647322
0.002216381052972172
0.007838510136183641
-0.2835195320013979
-0.2848084104934382
-0.2764587994009575
-0.2659262800912174
-0.2551155442784998
-0.2787528017272605
0.0462902098668132
-0.2754192782235172
0.08134053000359553
-0.2710461022948499
0.1360895030284837
0.09810708499982623
-0.2460380493369669
-0.2799762008534099
0.0373602302722702
-0.2712666019506464
0.06536492541344996
-0.2487212269730034
0.1075038594251005
0.06127612794682824
-0.2168350542205918
-0.2738233383408358
0.023122501667872
-0.2460160096884813
0.0317430791118396
-0.2019632027369908
0.05649422444041075
0.03347738365868791
-0.1787732316128861
-0.2357222817528693
-0.2093664949377589
-0.1568973841210796
-0.1259737353146028
-0.2334469610761057
-0.1466303327835799
-0.2337679481877394
-2.3071745367087e-05
-0.2358521888602938
-0.0007720760595094078
-0.001411466099552061
-0.2396402120508253
-0.2334940489370711
-0.1391438320906879
-0.2339951629365112
0.000195162644328617
-0.2364600821046874
5.116725401344002e-05
0.000239225082430794
-0.2404023607476894
-0.2333458084865978
-0.09463750496377243
-0.2343631540316815
0.0003728010156089367
-0.2373939562754535
0.00121256012021187
0.002136760534648341
-0.241755822733355
-0.2321263968711798
-0.2333894182428174
-0.2335141176965004
-0.2340143813967208
-0.2413904427410778
-0.001095410499344029
-0.2419511573526246
-0.001533679282913369
-0.2430259248007342
-0.002734087439187738
-0.002623049066210248
-0.244339558411164
-0.2430296951914983
0.0003537221292639336
-0.2440077004923556
0.0002788556341666304
-0.2461299577198225
0.0008429335530467097
0.001078200394713458
-0.2499704129576456
-0.2449524243497618
0.002301082090138684
-0.246624867263348
0.003073753427699333
-0.2490179332339227
0.005530127966233922
0.006158216288534468