/*--------------------------------*- C++ -*----------------------------------*\
  =========                 |
  \\      /  F ield         | OpenFOAM: The Open Source CFD Toolbox
   \\    /   O peration     | Website:  https://openfoam.org
    \\  /    A nd           | Version:  11
     \\/     M anipulation  |
\*---------------------------------------------------------------------------*/
FoamFile
{
    format      ascii;
    class       volVectorField;
    location    "0.116";
    object      U;
}
// * * * * * * * * * * * * * * * * * * * * * * * * * * * * * * * * * * * * * //

dimensions      [0 1 -1 0 0 0 0];

internalField   nonuniform List<vector> 
880
(
(25 -7.768126373978579e-16 0)
(25 1.138236637035847e-16 0)
(25.00000000000002 -1.109699369327039e-11 0)
(24.99999508873971 -9.084277469182489e-06 0)
(25 1.210301178234613e-15 0)
(25 -2.576598680909502e-15 0)
(25.00000000011667 -1.631705823084846e-10 0)
(24.99988683004527 -0.0002883847305912915 0)
(25 0 0)
(25.00000000000001 2.535613030115412e-15 0)
(25.00000000186662 -2.495101905847614e-09 0)
(24.99999881487999 -0.0006571635617816336 0)
(25 0 0)
(25 -1.635267330101326e-15 0)
(25.00000006529764 -4.071380061730115e-08 0)
(24.99863031968611 -0.006175885132505905 0)
(25 -5.111057847909681e-16 0)
(25 -1.590396499354682e-15 0)
(25.00000000000001 -4.282309534594797e-12 0)
(24.99999999952739 1.435472680056048e-09 0)
(25 -6.654691602065224e-15 0)
(25 1.0314201729014e-14 0)
(25.00000000000003 4.051215778057534e-13 0)
(25 -2.403876330506226e-12 0)
(25.00000442190465 -3.507414877252837e-06 0)
(24.99998224144803 1.488050850707909e-05 0)
(25.0006707352477 0.005545966666714157 0)
(25.00167490353494 -0.01160834769469785 0)
(24.86541203086902 0.05056239177774643 0)
(24.53616157330439 0.3289597861309444 0)
(24.3639575814888 0.6920306049121138 0)
(24.32293062023991 0.9345530697262159 0)
(24.99999962473466 -8.710250281207824e-07 0)
(24.99999885767556 -1.587472128407839e-06 0)
(24.99999288121482 -7.873551552220604e-06 0)
(24.99999515953805 -3.082059237631652e-06 0)
(24.99998018388969 7.953612779055959e-06 0)
(24.99995704144697 4.985536331458883e-05 0)
(24.99996910348243 0.0001511210306383435 0)
(24.99997069331614 9.708341701210569e-05 0)
(24.98798799945805 0.006848759319879253 0)
(24.98552897716736 0.01941593141697867 0)
(24.98840098708512 0.03477869778006763 0)
(24.98588929858326 0.03359557851506959 0)
(24.32429168345725 1.153168830834647 0)
(24.27064478440658 1.449187444789198 0)
(24.40028535480889 1.581508227863304 0)
(24.24568529284733 1.863525509505597 0)
(24.66644000545902 2.047924065743927 0)
(25.07778980098976 1.917643704978461 0)
(25.41140968991227 1.517221005548802 0)
(25.56542166424913 1.005946739381474 0)
(24.97903305517625 0.06026206390976495 0)
(24.94008589699975 0.1176165196887643 0)
(24.99006490654869 0.1722991802040838 0)
(25.02577897197726 0.1583696288702851 0)
(24.9999033273741 0.0002950606605383951 0)
(24.99954741277012 0.0008069795420764564 0)
(24.99943873174328 0.001842777250735466 0)
(24.99996700562744 0.002118326962149242 0)
(24.99998803076172 -1.050375511124644e-05 0)
(24.99997265856895 -2.661465314424618e-05 0)
(24.99993575115826 -5.602125093913413e-05 0)
(24.99991916795673 -6.053124817408117e-05 0)
(24.99992577052317 -4.79442916666653e-05 0)
(24.99995504601669 -2.363660360810376e-05 0)
(24.99998601590234 -6.373714713899214e-06 0)
(24.99999812238707 -7.803681563905988e-07 0)
(25.00028763410263 0.001854134570836043 0)
(25.00041844159987 0.001114659843827233 0)
(25.00021342311164 0.0003555099247406406 0)
(25.00003828233365 4.82287148532943e-05 0)
(25.04455741593874 0.1251613393220605 0)
(25.04365473677342 0.07882833078375033 0)
(25.02490653902161 0.03459271805089432 0)
(25.00782794728711 0.008392479397519444 0)
(25.54060255468816 0.6222268926555891 0)
(25.43779556958845 0.387014887295198 0)
(25.3078130169492 0.2337742297137551 0)
(25.17126291761501 0.115386271148041 0)
(25.06188824200493 0.03628955927199357 0)
(25.00108575387101 0.001013355963051926 0)
(25.00000220727533 2.593626319847583e-06 0)
(24.99999991163685 -3.409799467836672e-08 0)
(25.01068244837947 0.006823943082254347 0)
(25.00007345754077 9.281573539251186e-05 0)
(25.00000014616241 2.730306638047233e-07 0)
(24.9999999920715 -2.709781617379336e-09 0)
(25.00084175544432 -0.000428862214531919 0)
(25.00001878078139 -5.009048552921615e-05 0)
(25.00000029764523 -1.48334128403892e-06 0)
(24.99999995620565 -1.805754213448026e-09 0)
(24.75672093345469 0.2209148603621192 0)
(24.99902012178029 0.001750024482981695 0)
(25.00003112220056 -1.275366629739821e-05 0)
(25.00000450396511 -3.1233368242383e-06 0)
(25.00000008961819 -5.218079245717184e-06 0)
(25.00001308365658 -3.878671063083546e-05 0)
(24.98954942476045 0.003433608960351599 0)
(22.74708594569297 0.8345975542626987 0)
(24.99999826492718 -2.643647784981873e-06 0)
(24.99988856438577 2.930244864240111e-05 0)
(24.94779577663859 0.02582278832449885 0)
(21.34721894794791 2.073234434171739 0)
(24.99999242899905 -1.437321545726219e-05 0)
(24.99958730235199 0.0003171238000479411 0)
(24.88720412576692 0.08384450628269854 0)
(20.55351588332571 3.471114385281821 0)
(24.99995477492334 -4.088334248877398e-05 0)
(24.99952496851264 0.0009520197741779462 0)
(24.84818096933699 0.1593399252729169 0)
(20.30221530410378 4.736845760066086 0)
(20.1284084032677 5.934981479983336 0)
(24.79426522960851 0.272866948719462 0)
(24.99905214029314 0.00154599862303812 0)
(24.99994466482275 -6.623489373820987e-05 0)
(20.30371659531446 6.553923527426556 0)
(24.78041896905569 0.371202822435487 0)
(24.9992272691466 0.0029542122940811 0)
(24.99987124252659 -0.0001159043813030131 0)
(20.24070157487427 7.157814503488024 0)
(24.71876837443957 0.4674307122741237 0)
(24.99844187262848 0.003172332182059993 0)
(24.9998721983884 -0.0001347668866643531 0)
(20.23407707180336 7.469645414937474 0)
(24.66193532306571 0.6000820197550977 0)
(24.99831433128523 0.005688206521139064 0)
(24.99974914036655 -0.0002277517256675834 0)
(24.99971142489464 -0.0002787387803191393 0)
(24.99766664729437 0.006262165541089063 0)
(24.56723467011086 0.7231389819883907 0)
(19.74473507060848 8.005573841683624 0)
(24.9995958024402 -0.0004145271381751001 0)
(24.9957194305189 0.01000422139565703 0)
(24.44859372621505 0.9659208632446241 0)
(20.02796460109781 8.300306811895425 0)
(24.99949122449512 -0.0007812540153059115 0)
(24.99610506009654 0.01425891025151737 0)
(24.52772317496596 1.023416773486802 0)
(20.94118620663519 7.812874047984662 0)
(24.99954224978221 -0.0001079871964842686 0)
(24.99348900925471 0.006767563108285597 0)
(24.62244651522175 0.7093155701568488 0)
(22.8124074148615 6.307454064193053 0)
(24.99880483066276 -0.0006833152605332691 0)
(25.00420875599283 0.03508579840958097 0)
(25.19252716469759 0.8789438118810494 0)
(26.01667889458658 3.937730253697208 0)
(24.99769470152886 -0.0002879246400157049 0)
(25.03369278441119 0.0305552265002963 0)
(25.42476420795167 0.3503515413437626 0)
(27.75260058863685 1.371748044968142 0)
(24.99992204038161 -5.592413385739448e-05 0)
(25.02159514974641 0.003616232525735058 0)
(25.3005126113229 -0.1113347413363326 0)
(26.52737717384354 -1.411004757261795 0)
(24.99997199826325 -0.0002472382229233769 0)
(24.99734925472372 -0.01371682064502055 0)
(24.86382942829696 -0.4292562706533511 0)
(23.0848837644157 -3.076718376365169 0)
(20.50241010606078 -3.45354023100096 0)
(24.61283811092751 -0.4803097012692364 0)
(24.99107536759909 -0.01579621906365993 0)
(24.99993062591323 -0.0001167607704659683 0)
(19.10160408446793 -3.253624651065621 0)
(24.44361274489363 -0.4643056323683825 0)
(24.9857432246916 -0.01511385428174474 0)
(24.99992362818707 -9.41497855303705e-05 0)
(18.72034351180979 -2.087457948218777 0)
(24.39446899580009 -0.3436929260908843 0)
(24.98986334469661 -0.008715973703677578 0)
(24.99998001498504 -3.718412713357714e-05 0)
(17.6435579218659 -1.078727527464762 0)
(24.29329189338156 -0.2879120112278488 0)
(24.98879471231179 -0.008248876609444639 0)
(24.99997278604977 -3.681533853067943e-05 0)
(19.16662144326357 0.1648197751223563 0)
(24.55487733376572 -0.1233448008331889 0)
(24.99524289870629 -0.002817360186630623 0)
(24.99998897345983 -1.167688259358825e-05 0)
(21.16805008190928 0.7540579974795839 0)
(24.79457688852608 -0.05949616297074106 0)
(24.99868780183222 -0.0008286769366988599 0)
(24.99999735754975 -2.748738775061027e-06 0)
(22.76802589302945 0.6735776273081758 0)
(24.91529431924313 -0.03244759066060215 0)
(24.999644788232 -0.0002854463720579661 0)
(24.99999945460394 -8.374962306379788e-07 0)
(23.98934300039951 0.4493297106368033 0)
(24.98390039942878 -0.03096597318535082 0)
(25.00002179316343 -0.0001963916347222623 0)
(24.99999991441513 -5.613479356847517e-07 0)
(23.4905447505085 -0.1080524395452225 0)
(24.90473509660482 -0.002784840017973439 0)
(24.99803735433827 -2.255767354236056e-05 0)
(24.99998551033405 -6.847020079516395e-08 0)
(23.57576413675628 -0.3618024228222127 0)
(24.9081795876278 -0.007785637871225254 0)
(24.99805919743536 -5.578082153487938e-05 0)
(24.99998555819959 -1.588634240981186e-07 0)
(23.53624181638996 -0.6884135829952023 0)
(24.90600558902695 -0.0174717615391689 0)
(24.99802353633992 -0.0001105108500460263 0)
(24.99998540421849 -3.079245033123444e-07 0)
(23.51104790892256 -0.7202174660713142 0)
(24.91053066170081 -0.02670336377672645 0)
(24.99797281360344 -0.0002707301941478024 0)
(24.99998523226485 -1.128064905768855e-06 0)
(23.98934300049724 -0.4493297106939774 0)
(24.98390039948705 0.03096597320462846 0)
(25.00002179326942 0.0001963916965477589 0)
(24.99999991426482 5.615387746392785e-07 0)
(22.76802589307799 -0.673577627180811 0)
(24.91529431932974 0.03244759066674142 0)
(24.99964478844829 0.0002854464383402802 0)
(24.99999945457803 8.37433165597908e-07 0)
(21.16805008187007 -0.7540579972899965 0)
(24.79457688846315 0.05949616313851069 0)
(24.99868780181827 0.000828677072961733 0)
(24.99999735754109 2.748733889429399e-06 0)
(19.16662144315017 -0.1648197752345673 0)
(24.5548773335747 0.1233448007497282 0)
(24.99524289866639 0.002817360132140391 0)
(24.999988973518 1.16768685333121e-05 0)
(24.99993062568563 0.000116760696111157 0)
(24.99107536739519 0.01579621899067811 0)
(24.61283811087917 0.4803097011624252 0)
(20.50241010602933 3.453540230928076 0)
(24.99992362798592 9.414992340502124e-05 0)
(24.98574322456628 0.01511385438090898 0)
(24.44361274487635 0.4643056323080872 0)
(19.10160408446005 3.253624650908371 0)
(24.99998001510798 3.718414515188253e-05 0)
(24.98986334455932 0.008715973642883387 0)
(24.39446899576205 0.3436929261012554 0)
(18.72034351171284 2.087457948127917 0)
(24.99997278606005 3.681530563175379e-05 0)
(24.98879471225025 0.008248876646371835 0)
(24.29329189319336 0.2879120110903586 0)
(17.64355792185895 1.078727527596399 0)
(23.08488376451945 3.076718376474792 0)
(24.86382942841727 0.4292562706727286 0)
(24.99734925498199 0.01371682035065685 0)
(24.99997199842713 0.0002472380805060428 0)
(26.52737717399932 1.411004757390632 0)
(25.3005126114651 0.111334741351505 0)
(25.02159514992682 -0.003616232352380986 0)
(24.99992204068847 5.592404029750992e-05 0)
(27.75260058863894 -1.37174804499007 0)
(25.4247642081065 -0.3503515412973932 0)
(25.03369278441519 -0.03055522647721827 0)
(24.99769470165836 0.0002879250308843874 0)
(26.0166788945615 -3.937730253703239 0)
(25.19252716476721 -0.878943811916904 0)
(25.00420875608798 -0.03508579824714474 0)
(24.998804830298 0.0006833152112162658 0)
(24.99971142497561 0.0002787387888523431 0)
(24.99766664723486 -0.006262165615056635 0)
(24.56723467010628 -0.7231389818782255 0)
(19.74473507049944 -8.005573841602004 0)
(24.99959580243791 0.00041452710741929 0)
(24.99571943033337 -0.01000422148747271 0)
(24.44859372614204 -0.9659208632184332 0)
(20.02796460109283 -8.300306811866781 0)
(24.99949122424817 0.0007812539757438942 0)
(24.99610506007329 -0.01425891017980257 0)
(24.52772317505702 -1.02341677341944 0)
(20.94118620664271 -7.812874047974376 0)
(24.99954224967867 0.0001079871366258354 0)
(24.99348900923394 -0.006767562985361172 0)
(24.62244651528536 -0.7093155700872813 0)
(22.81240741487738 -6.307454064202995 0)
(20.2340770715604 -7.469645414934078 0)
(24.66193532297521 -0.6000820197366601 0)
(24.99831433091417 -0.005688206641441506 0)
(24.99974914036172 0.0002277517669512186 0)
(20.24070157464602 -7.157814503469367 0)
(24.7187683740239 -0.4674307123684803 0)
(24.99844187261513 -0.003172332194006833 0)
(24.99987219833469 0.0001347668818648824 0)
(20.30371659531631 -6.553923527463207 0)
(24.78041896908498 -0.3712028223487218 0)
(24.99922726901748 -0.00295421238508218 0)
(24.99987124260147 0.0001159043758481525 0)
(20.12840840323257 -5.934981479996399 0)
(24.79426522994017 -0.2728669487890137 0)
(24.99905214040421 -0.001545998626310372 0)
(24.99994466486815 6.623489315873168e-05 0)
(25.00000008949815 5.218093493574369e-06 0)
(25.00001308355004 3.878670833563523e-05 0)
(24.98954942484604 -0.003433608901111513 0)
(22.74708594574673 -0.8345975542763753 0)
(24.99999826501729 2.643642568412741e-06 0)
(24.99988856453763 -2.930244777933495e-05 0)
(24.9477957764269 -0.02582278844433972 0)
(21.34721894819451 -2.073234434157622 0)
(24.99999242912348 1.43732112592369e-05 0)
(24.99958730239294 -0.000317123715383862 0)
(24.88720412572897 -0.08384450608618906 0)
(20.55351588305441 -3.471114385394685 0)
(24.99995477507385 4.088334479090262e-05 0)
(24.99952496830185 -0.0009520198824474106 0)
(24.84818096931364 -0.1593399254570704 0)
(20.30221530418113 -4.736845759924105 0)
(25.00000450395064 3.123334499163998e-06 0)
(24.99999995613052 1.812342953788675e-09 0)
(24.99999999206144 2.702212724454454e-09 0)
(24.9999999116526 3.411437007750616e-08 0)
(25.00003112234435 1.275369739694933e-05 0)
(25.00000029761527 1.483315849742043e-06 0)
(25.00000014601133 -2.730228817788371e-07 0)
(25.00000220735017 -2.593583895297755e-06 0)
(24.99902012174057 -0.001750024494611098 0)
(25.00001878074054 5.009050762496914e-05 0)
(25.00007345766593 -9.281570608033444e-05 0)
(25.0010857539268 -0.001013356046077097 0)
(24.75672093346896 -0.2209148603170338 0)
(25.00084175547454 0.0004288623103261655 0)
(25.0106824482877 -0.006823943184862801 0)
(25.06188824203305 -0.03628955924784629 0)
(24.9999981225018 7.803633807099224e-07 0)
(25.00003828235017 -4.822877174441372e-05 0)
(25.00782794714456 -0.008392479501729354 0)
(25.17126291756162 -0.115386271087634 0)
(24.99998601597463 6.373698828389766e-06 0)
(25.00021342315684 -0.0003555099038231128 0)
(25.02490653876937 -0.03459271795168842 0)
(25.30781301694171 -0.2337742296324189 0)
(24.99995504588464 2.363659997260131e-05 0)
(25.00041844161965 -0.001114659849580548 0)
(25.04365473688663 -0.07882833076929051 0)
(25.43779556960568 -0.3870148873035685 0)
(24.99992577049221 4.794434443218903e-05 0)
(25.00028763409697 -0.001854134665053398 0)
(25.04455741583707 -0.1251613393232738 0)
(25.540602554772 -0.6222268925795775 0)
(24.99998803095434 1.050367755658331e-05 0)
(24.99990332750788 -0.000295060725913494 0)
(24.97903305499008 -0.06026206414805235 0)
(24.66644000545112 -2.047924065818181 0)
(24.99997265875897 2.661462563688782e-05 0)
(24.9995474128075 -0.0008069794591672851 0)
(24.94008589700888 -0.1176165197227333 0)
(25.07778980108306 -1.917643705046007 0)
(24.99993575123049 5.602127415481329e-05 0)
(24.99943873155504 -0.001842777184835705 0)
(24.99006490661738 -0.1722991801971595 0)
(25.4114096899935 -1.51722100555458 0)
(24.9999191680206 6.053126961215853e-05 0)
(24.99996700548366 -0.002118327021231975 0)
(25.02577897202342 -0.1583696288198815 0)
(25.56542166431277 -1.005946739447187 0)
(24.24568529285115 -1.863525509411685 0)
(24.98588929825237 -0.03359557847203545 0)
(24.99997069343786 -9.708346276649034e-05 0)
(24.99999515962582 3.081989635880594e-06 0)
(24.40028535473895 -1.581508227933418 0)
(24.9884009867337 -0.03477869762858025 0)
(24.99996910352654 -0.0001511210585137462 0)
(24.99999288111474 7.873698735328843e-06 0)
(24.27064478428191 -1.449187444688889 0)
(24.98552897751872 -0.01941593103256666 0)
(24.9999570414029 -4.985538313280726e-05 0)
(24.99999885777188 1.587381849591235e-06 0)
(24.32429168345968 -1.153168830909435 0)
(24.98798800029469 -0.006848759426831668 0)
(24.99998018392493 -7.953561285606457e-06 0)
(24.99999962468122 8.710260802261923e-07 0)
(24.3229306201659 -0.9345530697541941 0)
(25.0016749029508 0.0116083472090076 0)
(25 2.565832035050251e-12 0)
(24.9999999994982 -1.425925733447417e-09 0)
(24.36395758149593 -0.6920306049232203 0)
(25.00067073560646 -0.005545966274668059 0)
(25 -4.217588513512744e-13 0)
(25.00000000000001 4.346550900399166e-12 0)
(24.53616157319249 -0.3289597860665768 0)
(24.99998224149926 -1.488050326734509e-05 0)
(25 -1.942552054127218e-15 0)
(25.00000000000001 1.295298051813608e-15 0)
(24.86541203081425 -0.05056239176319077 0)
(25.00000442194221 3.507413751140148e-06 0)
(25 -2.035050417273926e-15 0)
(25.00000000000002 -7.127593946836093e-15 0)
(25 1.420908939734042e-15 0)
(25 2.370669190924073e-15 0)
(24.99999999999669 1.071516400112004e-11 0)
(24.9999950898734 9.08444463041207e-06 0)
(24.99999999999999 -2.843418720158383e-19 0)
(25 3.534683226090991e-15 0)
(25.00000000011357 1.644325432793651e-10 0)
(24.99988683104261 0.000288384447616071 0)
(25 -1.366459512028481e-15 0)
(25 -2.923414798706652e-15 0)
(25.00000000185519 2.490793394473248e-09 0)
(24.99999881491388 0.0006571635159930137 0)
(25 -2.562441517502174e-15 0)
(25 -1.302168249819419e-15 0)
(25.00000006538608 4.069115521630065e-08 0)
(24.99863031974827 0.006175885240854168 0)
(24.99998484342044 -7.944032500034392e-10 0)
(24.99989708192386 0.0002957032728941859 0)
(24.99920652620989 0.0008945840123933706 0)
(24.97778546510498 0.001500368184151904 0)
(24.99989707972441 -0.0002957121041953873 0)
(24.99989406913181 -7.126638751467367e-09 0)
(24.99889726763647 -0.001518399504303252 0)
(24.88168588346864 -0.05250553606713886 0)
(24.99920652557127 -0.000894580514715032 0)
(24.99889726522955 0.001518398647263972 0)
(24.94888438480936 8.52502755604902e-09 0)
(24.23360569143534 -0.1728361102394384 0)
(24.97778546442953 -0.001500369852981184 0)
(24.88168588341454 0.05250553111354517 0)
(24.23360569684136 0.1728361207860249 0)
(21.71114193613727 -3.906918139459313e-09 0)
(19.3369111623444 2.479696243094319 0)
(20.36087343681681 3.132881831609235 0)
(22.84793902808543 2.270980742898447 0)
(24.11836931998064 1.045617995041359 0)
(19.83764669014661 4.477571091212901 0)
(20.09745300619901 4.623682482186494 0)
(21.15733407232956 4.406693121867631 0)
(22.40030986807389 3.611288053508753 0)
(20.38042082462393 5.538543834203647 0)
(20.9873231514392 4.900973725834042 0)
(21.69598483545206 5.075058380694093 0)
(22.56851866185721 4.794131323074515 0)
(21.02608637371885 6.061093522698433 0)
(21.64904677790475 5.213584972052621 0)
(22.2453845525278 5.346291343548695 0)
(22.88186574396655 5.126281248741546 0)
(23.06798926209152 5.159139491436333 0)
(23.14635521443287 5.358346483706415 0)
(23.29676709941306 5.467171765955393 0)
(23.24924376361065 5.768281416618382 0)
(22.77807740922868 5.409287171604621 0)
(23.04622404655647 5.521901269893176 0)
(23.2055274871381 5.591602958641367 0)
(23.66910355595599 6.051215950881404 0)
(22.35982758677272 5.421885851737147 0)
(22.87858242482436 5.579793234213875 0)
(23.06251512578857 5.66960478822555 0)
(25.15931542310986 6.449267807816289 0)
(20.9657830581451 5.908482886592084 0)
(21.33546976665637 5.64733988463785 0)
(21.59981709605601 5.502206625916649 0)
(26.99495625621121 7.590993894696188 0)
(25.27740682222817 4.248869854756609 0)
(27.3055679265845 1.627377814924387 0)
(26.80671922449001 0.4237330212445503 0)
(26.21755433476863 0.1652218774535432 0)
(26.74263250779645 3.398601542878942 0)
(28.59475652444507 0.6354532962832572 0)
(27.7104268189502 -0.02820126523611922 0)
(26.92069429823408 0.08101968588238391 0)
(29.59461872933039 2.684137363491127 0)
(29.99576263086521 0.03592058625223852 0)
(28.340481726736 -0.1389903114416169 0)
(27.21331836227337 -0.07528759210275104 0)
(21.53603106645372 1.912212225847841 0)
(22.13318307902966 0.4551498928646011 0)
(22.05178527930563 0.1170528154147926 0)
(22.35378815375689 0.01682823288791566 0)
(25.84922485934861 0.0929085665499583 0)
(25.59172161180407 0.09706151059153169 0)
(25.47020182153165 0.04679767636603348 0)
(25.36160250543182 0.04804453077789828 0)
(26.33727953410409 0.07651641408212959 0)
(25.92622512219776 0.06646860345697084 0)
(25.6890007575263 0.03063531409179101 0)
(25.51141659646746 0.01124169232315607 0)
(26.58985597251508 -0.1069764632460019 0)
(26.17308724742758 -0.09123845875932451 0)
(25.87773112827415 -0.04581310232486385 0)
(25.64180516498772 -0.03925275930794748 0)
(23.03764271980732 -0.3037614179506993 0)
(23.81818630401951 -0.4658870682862747 0)
(24.4624337768584 -0.3689194663164255 0)
(24.71170625395807 -0.2758350530170401 0)
(25.1846399444406 0.05215326242916157 0)
(25.05450108540299 0.02271302305714903 0)
(25.00670649509507 0.001812588623557325 0)
(22.52510500401236 2.699559092380527 0)
(25.28257223687347 0.01528286608725886 0)
(25.09505239449989 0.01509525105877653 0)
(25.01405541948051 -0.001306062169376801 0)
(20.20347585317984 3.136075191056302 0)
(25.3766426227414 -0.03201322112445926 0)
(25.14012212933466 -0.01467692907184392 0)
(25.02256415529427 -0.01322883837322679 0)
(17.80305801053398 2.201487970593606 0)
(24.84433094753269 -0.1978763762475379 0)
(24.94319594521385 -0.07839582798225934 0)
(24.97416002496439 -0.005468074976067348 0)
(13.12639828080343 0.6816049256160768 0)
(15.36783568656168 7.662578863883243 0)
(15.5960118703831 7.96724204369729 0)
(15.78156085660022 8.952872666408432 0)
(16.20137270584178 9.939113022958267 0)
(13.00645025725182 7.877834325665247 0)
(14.60743412169686 8.238844837698087 0)
(15.44486926986052 9.285092168124388 0)
(16.04961913942481 10.10022942681918 0)
(10.57198402434914 6.803076454748277 0)
(12.89328297386045 7.972331369555099 0)
(14.59489226483519 9.335155010328949 0)
(15.67961790467896 10.09143483992099 0)
(7.755561175617253 2.924754420587584 0)
(10.72599888411261 4.714289317842373 0)
(12.37440075706409 7.092927432498773 0)
(13.67880582957463 9.132867304043049 0)
(16.36648724454207 10.7761541769148 0)
(16.59959059010366 11.08731820380027 0)
(16.75074808906402 11.36902038798826 0)
(16.91495538434032 11.39720700800478 0)
(16.32036806252329 10.73460188859879 0)
(16.5664396562343 10.9552175384809 0)
(16.77287068316881 11.19921011465772 0)
(16.97627463297375 11.24394873262634 0)
(16.15379477529658 10.62144954152171 0)
(16.41845944352283 10.88068156149451 0)
(16.68252557449665 11.13345151000177 0)
(16.88940217641085 11.22030148282743 0)
(14.66354093904544 10.23369992128871 0)
(15.12196484023809 10.74865057289253 0)
(15.56010187013711 10.79514806240105 0)
(15.72858860816615 10.80090375527008 0)
(16.98431457787441 11.43393568456657 0)
(17.51633235975396 11.35987348189007 0)
(18.74921939331925 10.83941943037415 0)
(21.06767224569736 9.734388180269629 0)
(17.0646211058621 11.26909684163357 0)
(17.54857151843471 11.20820076419247 0)
(18.80593471617921 10.90396044307361 0)
(22.00124346319203 11.46510539431665 0)
(16.98484227761647 11.28237496983065 0)
(17.33856721924781 11.22845640577343 0)
(19.136745121739 11.42545711700037 0)
(27.07877831300789 16.7264071589478 0)
(16.13797254948181 10.91356828319455 0)
(16.7128794418584 10.75105577141936 0)
(19.37656202689658 11.76280632123474 0)
(37.11335890130196 22.09859499943953 0)
(26.0348451759528 5.283222701455609 0)
(29.29615536190455 -2.264227518569559 0)
(8.301207183305653 -4.991989238389093 0)
(5.202337491765154 -1.265388843580094 0)
(27.24806527769202 4.578834444923079 0)
(24.36203877309884 -1.975764938907662 0)
(4.208371515538777 -5.47110138793137 0)
(2.285712393304347 -0.6872556058316274 0)
(26.86016800481011 4.030245784903689 0)
(16.54481100763417 -5.168009900934865 0)
(1.845326952294545 -2.736222738258014 0)
(1.252657916961412 -0.1777722760051529 0)
(17.46185946586388 -6.750065280114526 0)
(6.055829738936704 -5.530930764949454 0)
(-0.3090799664894733 -0.5014786980866719 0)
(0.4341727288293072 -0.5083337014655506 0)
(2.772703666683233 -0.6728249363983404 0)
(1.269237380240129 -0.5206042358729266 0)
(0.5158589095628197 -0.1663612469417637 0)
(-0.8431959844501759 1.205737786038998 0)
(0.92491267621565 0.7404625797391033 0)
(-0.2577297650155357 1.135867892337715 0)
(-0.7808761489952702 1.371458352118313 0)
(-0.3270500298819046 2.896218569908045 0)
(0.4876914240808169 0.4983233913441142 0)
(-0.188009404863824 1.423909868480942 0)
(0.00097785919334644 2.650916423849758 0)
(-0.5338445449803777 4.732105475230656 0)
(0.2681117402775689 0.1450596465460501 0)
(0.304412021881297 1.332523790085128 0)
(0.05901330070010925 3.655566778385707 0)
(-1.203251210633159 5.238641332844955 0)
(8.766638840812625 -3.933492109750144 0)
(16.19058059609377 -4.644858724355022 0)
(20.51122248310975 -4.655087281262885 0)
(23.21643993909482 -3.674686953482639 0)
(4.529575300661706 -0.8592581653590112 0)
(12.52192552389474 -2.479578631921998 0)
(18.0710618854722 -3.816066634686901 0)
(21.77014329066284 -4.040490408727957 0)
(-0.4632344127274642 -0.9970147696167693 0)
(5.745336053682178 -2.230371501892258 0)
(13.10388355006979 -3.62871814967761 0)
(20.71539276416886 -3.153509352702014 0)
(-2.061347570265407 1.585118634734413 0)
(1.80793202785654 1.348223272371143 0)
(9.45904944061496 1.996876589283719 0)
(23.51241435237886 -1.241248014231299 0)
(24.34038816664175 -7.702616428975438 0)
(24.42996331746648 -13.40688658522431 0)
(26.81474204708406 -22.7113929330093 0)
(23.39531303900737 -20.61777994228544 0)
(23.02259423641508 -9.035020847143748 0)
(23.5194819658987 -14.38811104274076 0)
(22.8930660634871 -21.95250578424396 0)
(17.17817966650375 -11.43483532787049 0)
(22.41961144132091 -9.611884541813964 0)
(22.27388105880786 -17.38607073122182 0)
(15.10588153506277 -16.94715682554526 0)
(8.939183097237427 -0.5530992328493739 0)
(15.2680497914185 -13.11109129029116 0)
(11.73344610805269 -14.35578983235984 0)
(2.232597018964068 -1.880361744287242 0)
(0.7451096553882883 5.459105081146632 0)
(-0.4021842494719334 5.993371909259383 0)
(-1.654058150730269 5.787196504327594 0)
(-2.487708953537551 4.04195890898339 0)
(-2.521028313354877 1.338629573357238 0)
(2.357515411413734 3.524884469437002 0)
(-1.135743191313608 4.26116501571531 0)
(-2.871085215744592 2.869068761285829 0)
(-2.768439159839725 0.987493910969619 0)
(8.315077162207421 -2.492839758023043 0)
(1.455407904657128 -0.929699499876923 0)
(-1.994072854969167 -0.6841712018029988 0)
(-2.49539593582009 -0.2643067916698512 0)
(17.75487699351437 -9.55836380206641 0)
(10.29458897803658 -5.110930344563703 0)
(5.84139168927689 -3.700002492933154 0)
(4.758619331711746 -1.21985856970907 0)
(-2.521028313349839 -1.33862957335549 0)
(-2.768439159827551 -0.9874939109963864 0)
(-2.495395935820485 0.2643067916187779 0)
(4.758619331654907 1.219858569591179 0)
(-2.4877089535223 -4.04195890898129 0)
(-2.871085215736706 -2.869068761303557 0)
(-1.994072854967984 0.6841712017451671 0)
(5.841391689270851 3.700002492818605 0)
(-1.654058150724518 -5.787196504332512 0)
(-1.135743191314005 -4.261165015703354 0)
(1.455407904663651 0.929699499844675 0)
(10.29458897804024 5.110930344462439 0)
(-0.4021842494735121 -5.993371909264797 0)
(2.357515411413476 -3.524884469410988 0)
(8.315077162212777 2.49283975800738 0)
(17.75487699353096 9.558363801976325 0)
(23.39531303904876 20.61777994220988 0)
(26.81474204721148 22.71139293297523 0)
(24.42996331759178 13.40688658521296 0)
(24.34038816675396 7.702616428987345 0)
(17.17817966651999 11.43483532784071 0)
(22.89306606347384 21.95250578415454 0)
(23.51948196595524 14.38811104270161 0)
(23.0225942364936 9.035020847147161 0)
(8.939183097244804 0.5530992328382714 0)
(15.10588153506532 16.94715682546773 0)
(22.27388105884163 17.38607073124072 0)
(22.41961144135646 9.611884541805402 0)
(0.7451096553849312 -5.45910508115298 0)
(2.232597018962718 1.880361744251623 0)
(11.73344610803511 14.35578983235896 0)
(15.26804979143092 13.11109129028498 0)
(23.51241435241996 1.241248014225425 0)
(9.459049440609466 -1.996876589298193 0)
(1.807932027836053 -1.34822327239897 0)
(-2.061347570277975 -1.585118634766969 0)
(20.7153927642043 3.153509352699918 0)
(13.10388355006107 3.628718149694363 0)
(5.74533605360215 2.230371501864274 0)
(-0.4632344127699661 0.9970147695548441 0)
(21.77014329071902 4.040490408712411 0)
(18.07106188545206 3.816066634735974 0)
(12.52192552379679 2.479578631853715 0)
(4.529575300587504 0.859258165238584 0)
(23.21643993917148 3.674686953456627 0)
(20.51122248305861 4.655087281359088 0)
(16.19058059599615 4.644858724355454 0)
(8.766638840766147 3.93349210959544 0)
(-0.8431959843759123 -1.205737786007349 0)
(0.515858909497007 0.1663612469860757 0)
(1.269237380183974 0.5206042357565938 0)
(2.772703666660038 0.6728249362517214 0)
(-0.3270500298008516 -2.896218569912038 0)
(-0.7808761490397476 -1.371458352047497 0)
(-0.2577297650627272 -1.135867892407609 0)
(0.9249126762321945 -0.7404625798850044 0)
(-0.5338445449320764 -4.732105475197831 0)
(0.0009778591667607111 -2.650916423784757 0)
(-0.1880094048914868 -1.42390986855084 0)
(0.4876914240665537 -0.4983233914631931 0)
(-1.203251210603461 -5.23864133281418 0)
(0.05901330071250249 -3.655566778327907 0)
(0.3044120218545434 -1.332523790155098 0)
(0.2681117402618777 -0.1450596466366046 0)
(5.202337491822082 1.265388843552914 0)
(8.301207183220056 4.991989238426529 0)
(29.29615536190123 2.264227518583555 0)
(26.03484517597347 -5.283222701478425 0)
(2.285712393368799 0.6872556057410335 0)
(4.208371515548095 5.471101387927326 0)
(24.362038773125 1.975764938856213 0)
(27.24806527777395 -4.578834444960989 0)
(1.252657916976608 0.1777722758774044 0)
(1.845326952287341 2.736222738256133 0)
(16.54481100766217 5.168009900963288 0)
(26.86016800489253 -4.030245784980679 0)
(0.434172728805945 0.5083337013545081 0)
(-0.3090799664897586 0.5014786980650084 0)
(6.05582973900061 5.530930764989046 0)
(17.46185946594123 6.75006528008555 0)
(21.06767224570959 -9.734388180257564 0)
(18.74921939328427 -10.83941943036698 0)
(17.51633235971095 -11.35987348186507 0)