/*--------------------------------*- C++ -*----------------------------------*\
  =========                 |
  \\      /  F ield         | OpenFOAM: The Open Source CFD Toolbox
   \\    /   O peration     | Website:  https://openfoam.org
    \\  /    A nd           | Version:  11
     \\/     M anipulation  |
\*---------------------------------------------------------------------------*/
FoamFile
{
    format      ascii;
    class       volScalarField;
    location    "0.359235";
    object      Ma;
}
// * * * * * * * * * * * * * * * * * * * * * * * * * * * * * * * * * * * * * //

dimensions      [0 0 0 0 0 0 0];

internalField   nonuniform List<scalar> 
880
(
1.118016635923817
1.118016634793396
1.117913278767118
1.101702645306823
1.118016635922823
1.118016632481563
1.117870541557582
1.096269185787716
1.118016635905757
1.118016621504525
1.117737700162623
1.089039392853231
1.118016635824109
1.118016566727045
1.117400367556583
1.069555382868875
1.118016636535324
1.118016634945924
1.118016603634978
1.118016146181561
1.118016282150651
1.118014695905088
1.11800838637651
1.118021818288542
1.116457631380088
1.115369385941156
1.113824388080327
1.113109276350337
1.031318741081472
0.9943410630126657
0.9723378650548482
0.970077615568867
1.118010992370164
1.117995259956281
1.117968928338552
1.117859302606948
1.117902556985479
1.11746809731906
1.116770922995385
1.115507672570258
1.10443411576515
1.097435578378292
1.088274723635348
1.079904139018057
0.9590694514210674
0.9591352734250087
0.9575137724900896
0.981053713278682
1.040053192315565
1.075624273617964
1.089969233454392
1.10439309507588
1.065631786341502
1.065219129709185
1.069326382280974
1.07770747644649
1.111149070942276
1.105552690052869
1.100432831311926
1.097673194366132
1.117316754746716
1.11640105066604
1.115078595545038
1.113440692644958
1.111890128687546
1.110735978887485
1.109985394487312
1.109840001064938
1.097061505496759
1.098712195399997
1.102514914132897
1.107802606840361
1.086124938708943
1.096164073252553
1.105647037287682
1.113536489119263
1.111645873006154
1.119220197227636
1.12341639783888
1.126389535458022
1.128791891651942
1.120906556860698
1.113436971906345
1.10995196911584
1.079490812154039
1.125823044792393
1.120187722281846
1.110313946297852
0.8046152621811047
1.115051014363512
1.125647195562594
1.111386114752787
0.5734048962285472
1.037972338595239
1.125572565677553
1.113024066352283
1.113322202971224
1.121409890523716
0.9542290384778916
0.5177905943116408
1.108802962412764
1.108874666852986
0.8848705519358341
0.5549433327951807
1.106524243098769
1.08024672993694
0.8075062274942446
0.574616770440585
1.10089587429712
1.033510579667462
0.7627583899017649
0.6140862158680606
0.6624722172509494
0.7509879505954967
0.9749000857211141
1.089464091895126
0.7143565488535436
0.7749391448234604
0.9219160111316939
1.069248611691594
0.767491685916353
0.8176035970118571
0.905348680025691
1.037927070201655
0.8151714771796688
0.8746818489199748
0.9234563396464787
1.006076383011576
0.985419564314799
0.9755972233885603
0.9503704253402082
0.8753675237724676
1.009920027258773
1.039761022135914
1.036596004672519
0.9571062856428165
1.038620663970585
1.101927597542087
1.127949748763779
1.064399209613752
1.064422983072775
1.149828081183234
1.216003058189009
1.193060766983399
1.084293467761079
1.191060993164475
1.305726346079745
1.394837696795231
1.109067106391262
1.221505929389263
1.36610276573116
1.585974674136486
1.124974283121976
1.226891807800819
1.411597801109783
1.77490213998109
1.134436739122512
1.212807930194612
1.38697057802071
1.945071768552473
1.717464309391771
1.321799154901934
1.201072813225465
1.140474167894219
1.181726021089396
1.275074113421853
1.188874072004052
1.140461530259886
1.027533072838579
1.25284536715661
1.179569221210587
1.136956360978026
0.8788692332160296
1.215797726591674
1.165456493821431
1.132922871474447
0.8055029805595024
1.162028741755734
1.142391967909094
1.125674892110608
0.7301834845803732
1.092242076201439
1.117139483772784
1.118953257852417
0.6969536104682601
1.041878833764086
1.105959148058558
1.117614318671111
0.680709901858162
1.033195503721864
1.106960163507639
1.117614705097014
0.650005614933212
0.9389532651245924
1.069466202301937
1.11302842531302
0.6571853845166113
0.937224854954958
1.069605559760645
1.112891723043982
0.6852875094255549
0.9362584947792169
1.070401511234635
1.112842295133081
0.7090164032317997
0.943967242638178
1.07378495691071
1.113118212728641
0.6807099018586579
1.033195503723136
1.106960163511529
1.117614705102172
0.6969536104694345
1.041878833768114
1.105959148060307
1.117614318674212
0.7301834845830927
1.092242076204698
1.117139483773726
1.118953257855895
0.8055029805603368
1.162028741760136
1.142391967909643
1.125674892112129
1.140474167892059
1.201072813226701
1.321799154901603
1.717464309391362
1.140461530259388
1.188874072004511
1.275074113422288
1.181726021092795
1.136956360976031
1.179569221210345
1.252845367162134
1.027533072836643
1.132922871471821
1.165456493818014
1.215797726593932
0.8788692332175417
1.945071768558875
1.386970578021729
1.212807930197206
1.134436739122183
1.774902139981741
1.411597801110458
1.226891807802477
1.124974283120249
1.585974674135546
1.366102765729804
1.221505929391336
1.109067106386321
1.394837696793512
1.305726346081784
1.191060993168225
1.084293467756467
0.9854195643128821
0.9755972233854698
0.9503704253381702
0.8753675237727419
1.009920027258338
1.03976102213624
1.036596004670664
0.9571062856423841
1.03862066397454
1.101927597544031
1.127949748762636
1.064399209613028
1.064422983071807
1.149828081185877
1.216003058188622
1.193060766981498
0.815171477180041
0.8746818489194147
0.9234563396443768
1.006076383004388
0.7674916859171327
0.8176035970122776
0.9053486800249481
1.037927070200122
0.7143565488538894
0.7749391448244107
0.9219160111314394
1.06924861168849
0.6624722172518942
0.7509879505947221
0.9749000857168466
1.089464091893938
1.113322202971912
1.121409890523386
0.95422903847961
0.5177905943130924
1.108802962407348
1.108874666851675
0.8848705519366851
0.5549433327968443
1.106524243090027
1.080246729931062
0.8075062274941005
0.5746167704413452
1.100895874294881
1.033510579669487
0.7627583899030888
0.6140862158687203
1.11302406635152
1.111386114753405
1.110313946294018
1.109951969115258
1.125572565681863
1.125647195565783
1.120187722280297
1.113436971905164
1.037972338599765
1.115051014363767
1.125823044795476
1.120906556861907
0.5734048962307179
0.8046152621841449
1.079490812153395
1.128791891651657
1.109840001062344
1.107802606838213
1.113536489118307
1.12638953545716
1.109985394490212
1.102514914129118
1.105647037286967
1.123416397838166
1.110735978887176
1.098712195399435
1.096164073256493
1.119220197230645
1.111890128690362
1.097061505497208
1.086124938707079
1.111645873006726
1.117316754746984
1.111149070946574
1.065631786340146
1.040053192313112
1.116401050669151
1.105552690057636
1.065219129708587
1.075624273618412
1.115078595541121
1.10043283131607
1.069326382283272
1.089969233459415
1.113440692647311
1.097673194367251
1.077707476446122
1.104393095078329
0.9810537132794797
1.079904139018418
1.115507672574788
1.117859302603148
0.9575137724910293
1.088274723634816
1.116770922997541
1.117968928340334
0.9591352734249723
1.097435578380159
1.117468097327107
1.117995259959068
0.9590694514218208
1.104434115767972
1.117902556989294
1.118010992367372
0.9700776155676474
1.113109276350779
1.118021818288963
1.118016146179376
0.9723378650529749
1.113824388080823
1.118008386380151
1.118016603632226
0.9943410630067077
1.115369385942355
1.118014695908867
1.118016634947369
1.031318741072478
1.116457631382648
1.118016282153096
1.118016636532614
1.118016635923625
1.118016634792657
1.117913278767006
1.101702645305975
1.118016635921967
1.118016632485307
1.11787054155886
1.096269185776869
1.118016635905015
1.118016621508175
1.117737700162434
1.089039392837539
1.118016635822622
1.118016566729229
1.117400367556762
1.069555382856922
1.090022000264884
1.079809455271639
1.058234884389569
1.008456297824551
1.079809455280663
1.064150666481724
1.027796481567139
0.9529335296728368
1.058234884409223
1.027796481581619
0.9622083325880357
0.8591096113307644
1.008456297843275
0.9529335296946366
0.8591096113442551
0.7515453830516711
0.7259581880903416
0.7634730685992007
0.8354135761686948
0.9069060801733251
0.7808841544925547
0.7857147204380966
0.8156866231499618
0.8610037852593102
0.7683372504701843
0.8085911032775572
0.8384378264231392
0.8598149262500584
0.8035048773799542
0.8475339024475239
0.8694717361206155
0.8807783617054369
0.8966521626171126
0.90951589646785
0.9296248412569244
0.9684916099409294
0.8949921952238259
0.9106170729591425
0.9352853164713509
0.9903472768257472
0.8839071808464291
0.9081223128486922
0.9365983867100169
1.054092941747169
0.8334670804096104
0.8609973032846019
0.8995071793203288
1.141561397564778
1.149102649400638
1.190190966387444
1.162244736527137
1.155848554575727
1.270484109325167
1.298132303872477
1.245479979157532
1.213594531045596
1.425516416183906
1.363578547101044
1.297061595407815
1.251312165850059
1.160550748683774
1.101035938776244
1.087576847731874
1.08967840267422
1.158621850611458
1.159546101177408
1.157141135323585
1.153222030708746
1.197679268133399
1.182974945287222
1.168753773164172
1.156243669085883
1.223635508302478
1.198458010617605
1.175102496226594
1.153896302927969
1.088934745892772
1.07862754587065
1.068265177427051
1.050980237003532
1.122114613418882
0.8700137592852401
0.5643574786360032
0.3648342722432565
1.090920587047758
0.6976148370498894
0.3661662850711391
0.1741362208593266
1.032837270576582
0.5043408407615004
0.1475444002727693
0.03135549176721441
0.8517612394990489
0.3004650936660962
0.02332795127475804
0.1011544342768217
0.3408978179408055
0.4415094520459957
0.5060763876913793
0.5696193175789607
0.243398676633058
0.3991283631762694
0.4925646995552435
0.5666265755785063
0.1101849854727685
0.3087583599954019
0.4557145670226139
0.5501826036472263
0.00985846268443937
0.160977685707744
0.3251028409881869
0.4612703046573964
0.6437895779389822
0.70912330092066
0.7653463091036747
0.8044259520664897
0.6372068549580757
0.7038024988958769
0.7599630960986442
0.7996776430681826
0.6207887345874559
0.6914813578418785
0.7536166298868421
0.7976357095550232
0.5749307329992591
0.6673092064814707
0.7485519441497561
0.7963448211202427
0.850550897674838
0.9213132957373155
1.016683871582785
1.13083218546192
0.8424443908177164
0.9072177852356877
0.9950902668755662
1.146748644631163
0.8386708033016352
0.8955821967246893
1.009277160891872
1.465247410827535
0.8366972658063528
0.890127673601016
1.035239622166976
2.043034364962663
1.358004066589432
1.502747115310914
0.7467052087191416
1.540949993696026
1.440688618779417
1.291888239075766
1.120960794601179
1.900704643059264
1.484630755702304
0.9245272155113978
1.364564653064465
1.930162075882578
1.143592123599724
0.437243092485046
1.650010062368282
1.864180309676684
1.320057241252948
0.8906975071674738
0.6860901990430751
0.451893732257471
1.399963523356945
0.9917528305581331
0.7130689305670758
0.351239852024499
1.33799740181808
0.9695899595730246
0.614746350455378
0.2354613864396024
1.275452790011344
0.9266889178754946
0.5551663794699176
0.1790068801264112
0.3129809412448523
0.09001530803373603
0.1519549982321028
0.3539396668846414
0.3575664237502324
0.2740350403050408
0.06743082547574071
0.2737596686274014
0.3253533177963229
0.3765511652644614
0.2087348206772592
0.1802093987235458
0.2563798908512568
0.3770709465064922
0.2874950274307112
0.05460185488462965
0.3303613219586488
0.3633326533582674
0.3674664707972153
0.3665581304752878
0.3127526354612586
0.2977566591309326
0.3017593090099654
0.2879435376844042
0.2125425343151467
0.1577258822592457
0.1531303775215443
0.1300880981047308
0.1153299833317718
0.06703560499749026
0.08520946372576363
0.08051867571168411
0.06427399291678808
0.06053972608256426
0.05568912774797442
0.04946480166548239
0.0859071446426454
0.03554238897006261
0.01249126825943747
0.03216512866218047
0.2343479754629728
0.1729372959983042
0.1018708055465787
0.04156920238024517
0.3263226064621478
0.2781481210158518
0.2179034513595282
0.1782806033815504
0.04946480166523324
0.03216512866221729
0.0415692023800451
0.1782806033814162
0.05568912774728525
0.01249126825957055
0.1018708055466029
0.2179034513603745
0.06053972608196913
0.03554238897023972
0.1729372959984383
0.2781481210165403
0.06427399291637541
0.08590714464290811
0.2343479754631858
0.3263226064622039
0.3665581304743001
0.3674664707971957
0.3633326533578182
0.3303613219584234
0.2879435376843616
0.3017593090098722
0.2977566591304532
0.3127526354609734
0.1300880981048721
0.1531303775215535
0.1577258822592024
0.2125425343149226
0.08051867571178246
0.08520946372614076
0.0670356049980475
0.1153299833322908
0.05460185488428965
0.2874950274285396
0.3770709465039709
0.2563798908496298
0.1802093987234369
0.2087348206757804
0.3765511652614073
0.3253533177931335
0.273759668627278
0.06743082547502822
0.2740350403015682
0.3575664237468534
0.3539396668847287
0.1519549982335112
0.09001530802973524
0.3129809412397205
0.4518937322528415
0.6860901990438887
0.8906975071823428
1.320057241241561
0.3512398520216349
0.7130689305658081
0.9917528305639497
1.399963523358177
0.2354613864384087
0.6147463504545096
0.9695899595740226
1.337997401819643
0.1790068801265718
0.5551663794698627
0.9266889178758326
1.275452790014446
1.540949993655998
0.7467052087155743
1.502747115306716
1.358004066586237
1.90070464304987
1.120960794609289
1.291888239074408
1.440688618778827
1.930162075888359
1.364564653071171
0.9245272155099752
1.484630755700638
1.864180309679522
1.650010062377037
0.4372430924856084
1.143592123600893
1.130832185460767
1.016683871582527
0.9213132957378496
0.8505508976753579
1.146748644630871
0.9950902668744103
0.9072177852352287
0.8424443908184681
1.46524741082725
1.009277160891731
0.8955821967239361
0.8386708033016907
2.043034364959635
1.03523962216637
0.8901276735997444
0.8366972658069614
0.8044259520677504
0.7653463091050733
0.7091233009203625
0.6437895779392017
0.7996776430693385
0.7599630960984741
0.7038024988969722
0.6372068549581591
0.7976357095545744
0.7536166298875853
0.6914813578422114
0.6207887345877584
0.7963448211207149
0.7485519441499525
0.6673092064815763
0.5749307329983688
0.5696193175795917
0.5060763876932479
0.4415094520459909
0.3408978179414358
0.5666265755787797
0.4925646995572035
0.3991283631769844
0.2433986766339298
0.5501826036476016
0.4557145670235102
0.30875835999615
0.1101849854735462
0.4612703046566641
0.3251028409873358
0.1609776857079918
0.009858462684658171
0.3648342722442409
0.5643574786385427
0.8700137592860219
1.122114613416684
0.1741362208602
0.3661662850735932
0.6976148370523663
1.090920587045817
0.0313554917666183
0.1475444002743882
0.5043408407640482
1.032837270574431
0.1011544342766543
0.02332795127486604
0.3004650936669213
0.8517612394959314
1.153222030707626
1.157141135327393
1.159546101183544
1.158621850616157
1.156243669083866
1.168753773165095
1.182974945292262
1.197679268136874
1.153896302925522
1.175102496226616
1.198458010622357
1.223635508306349
1.050980236999259
1.068265177428269
1.078627545873613
1.088934745896333
1.155848554580594
1.162244736534078
1.190190966386216
1.149102649399633
1.213594531051822
1.245479979164453
1.298132303871343
1.270484109324748
1.251312165856646
1.297061595414746
1.363578547099409
1.425516416184462
1.089678402674856
1.087576847737417
1.101035938775265
1.16055074868621
0.9684916099409749
0.9296248412567242
0.9095158964648776
0.8966521626148621
0.9903472768260722
0.9352853164679843
0.9106170729556716
0.8949921952202625
1.054092941747615
0.9365983867094232
0.9081223128451772
0.8839071808412845
1.141561397564
0.8995071793179297
0.8609973032813407
0.8334670804055819
0.8807783617036716
0.8598149262469965
0.8610037852564554
0.9069060801615444
0.8694717361186429
0.8384378264186154
0.8156866231448269
0.8354135761557135
0.8475339024413688
0.8085911032702849
0.7857147204304507
0.7634730685898599
0.8035048773757982
0.7683372504631334
0.7808841544849628
0.7259581880869127
0.6232863568414435
1.00270573769484
1.099020733550299
1.116673364721006
0.6574129142627565
0.9785220316772967
1.09185539914811
1.115850724564363
0.6902746087070397
0.9705201045417087
1.085819593229628
1.114840439609097
0.7062613066417246
0.9574434024164628
1.079433191281812
1.11385291210178
1.113028425310852
1.069466202301665
0.9389532651233927
0.6500056149311882
1.112891723044457
1.069605559760715
0.937224854953817
0.6571853845175392
1.112842295133595
1.070401511235251
0.9362584947781856
0.6852875094259632
1.113118212729829
1.073784956912753
0.9439672426373839
0.709016403230866
1.113852912102118
1.114840439606575
1.115850724564903
1.116673364725213
1.079433191285597
1.085819593231373
1.091855399150922
1.099020733553361
0.9574434024172362
0.9705201045430932
0.9785220316780818
1.00270573769473
0.7062613066415098
0.6902746087072824
0.6574129142626162
0.6232863568413404
)
;

boundaryField
{
    back
    {
        type            empty;
    }
    inlet
    {
        type            calculated;
        value           nonuniform List<scalar> 
16
(
1.118016635923818
1.118016635923327
1.118016635921992
1.118016635900154
1.118016636034887
1.118016635839496
1.118016624558399
1.118016452908681
1.11801645290782
1.118016624557769
1.118016635839877
1.118016636034292
1.118016635923624
1.118016635923231
1.118016635921705
1.118016635899328
)
;
    }
    front
    {
        type            empty;
    }
    top
    {
        type            calculated;
        value           uniform 0;
    }
    outlet
    {
        type            calculated;
        value           nonuniform List<scalar> 
16
(
1.111558923525733
1.111422222522575
1.111388645764424
1.111763770383295
1.116097285569833
1.115120080251955
1.113890261934661
1.112672834899474
1.111558923523149
1.111422222522632
1.111388645764964
1.111763770384595
1.112672834899693
1.113890261931981
1.115120080252877
1.116097285574218
)
;
    }
    bottom
    {
        type            calculated;
        value           uniform 0;
    }
    wall
    {
        type            calculated;
        value           uniform 0;
    }
}


// ************************************************************************* //
