/*--------------------------------*- C++ -*----------------------------------*\
  =========                 |
  \\      /  F ield         | OpenFOAM: The Open Source CFD Toolbox
   \\    /   O peration     | Website:  https://openfoam.org
    \\  /    A nd           | Version:  11
     \\/     M anipulation  |
\*---------------------------------------------------------------------------*/
FoamFile
{
    format      ascii;
    class       volScalarField;
    location    "0.359235";
    object      T;
}
// * * * * * * * * * * * * * * * * * * * * * * * * * * * * * * * * * * * * * //

dimensions      [0 0 0 1 0 0 0];

internalField   nonuniform List<scalar> 
880
(
500.0000000000027
500.000000292371
500.0240602227132
503.3407765076863
500.0000000004407
500.0000008570672
500.0298639301876
504.8871003135071
500.0000000016356
500.0000033381324
500.0553408100241
506.7156132287984
500.0000000211684
500.0000146202235
500.1147605493962
509.4283553012232
499.9999999006574
500.000000075423
500.0000101656999
500.0001636962978
500.0000671562473
500.0002570834772
500.0016144155917
500.0023565876341
500.26336048216
500.4346971075744
500.7186485937311
500.9607490855462
514.9177741572119
521.1124956028494
526.3741984695163
529.029124622525
500.0004089518852
500.0033846548601
500.0128249258596
500.0397776038868
500.0227912494754
500.0985650542442
500.2005056598752
500.4220158267635
502.4155641589041
503.6983703421425
505.2861213178369
507.2306804899353
531.2572419851015
533.8983396368994
534.3925374421216
533.1639891828223
522.8401662564542
517.6388921058599
515.4439862560569
513.969554075195
511.0474685452057
512.6641308599659
513.5778992212933
513.7075215836355
501.1772261846469
502.0602886131975
503.0082895833897
503.7665485853379
500.1411447859047
500.3405951188925
500.6412488010255
501.0639091289911
501.5574281869001
502.0498724444582
502.5355748330218
502.8872067040663
504.3927974166191
504.7489713117635
504.9504311583165
504.9005390984827
513.0678619048416
512.169208349012
510.9866062709334
509.7491116244295
512.2219196780011
511.0323513559325
510.2808473361583
509.5130094430215
508.9399862839146
508.8784181128632
504.7597449563531
503.095259440225
519.1983744460081
508.0402652817006
504.3860079621692
503.0560230179563
571.3175512252536
510.4332678221098
503.929168189385
502.6033787534426
620.3432743791814
523.8954068652329
504.7804600288409
502.4448423305288
502.3964652633701
506.0673387003472
539.6769642836813
637.4090232172524
501.515800388136
508.5901942680018
556.3023807430716
635.1890020181451
501.8917761112612
514.4419254875329
576.6098787823662
636.1937511332198
503.3245256587094
524.8669202661462
594.7473578721775
633.4378807625519
628.3169750061852
604.8050591079121
539.8150062690557
506.4862862339622
621.8132806888984
607.4543875249117
554.997346890878
512.1636754917154
614.4988999079424
605.283984830841
566.9941707394745
521.1586329909686
606.6429425496417
594.2588736489008
569.0863811306685
532.0889556113207
541.2915128408305
563.5992410584647
579.7593299025415
597.1536774594774
539.8323038452187
552.0557815230443
562.8278753102493
582.209420744119
535.8348061385757
540.321332487287
544.5107109160394
560.5778878498106
530.636808230075
529.8354695167501
525.3123780068519
530.4063552857172
526.752014112354
520.4504094390927
508.4953632659661
495.5317921129872
520.5908822686217
511.2779174758344
491.9683853161303
459.8352162089729
515.7627712833228
506.01720911445
477.9308662702618
425.120106217871
511.5880623768036
504.5831515520896
477.6789848450659
399.8633170961833
410.5432553181543
486.8269712438858
503.2609138951185
507.768274370893
477.941577263537
493.03746302715
502.4041474817805
505.1697020313429
517.2618620648984
495.734884423651
500.8735093711604
503.3597865102237
530.1730354251832
500.4064528661476
500.227281463657
502.2904202946898
539.0029690622442
504.3271966407689
498.9655303886863
500.3928956077137
533.7935260952172
504.2974033804641
497.6634594328663
499.2219035115189
525.794357821614
503.4848354062725
497.275391470621
499.1942577470476
517.7062506306958
499.1153625973724
497.0794284035905
499.4039217957042
479.7730632412726
469.40233831352
488.9356665257968
498.6805981933144
474.25513527741
471.294288736705
489.4247995191951
498.6804373673786
465.2297338813373
473.4183570571039
490.3270667293347
498.6946039336929
459.5018647725882
476.2502496375336
491.3791917386033
498.783940207715
517.7062506307706
499.1153625970801
497.0794284039694
499.4039217954457
525.7943578217372
503.4848354056448
497.2753914706335
499.1942577463224
533.793526095276
504.2974033797492
497.6634594317106
499.221903510549
539.0029690623223
504.3271966400352
498.9655303885256
500.3928956071247
507.7682743711536
503.2609138953511
486.8269712441829
410.5432553172097
505.1697020312608
502.4041474818224
493.0374630277353
477.9415772626724
503.3597865101821
500.8735093712235
495.7348844228055
517.261862064727
502.2904202945489
500.227281464074
500.4064528655454
530.173035425528
399.8633170975321
477.6789848449279
504.5831515521114
511.5880623769258
425.1201062178399
477.9308662703497
506.0172091148098
515.7627712833248
459.8352162091876
491.9683853165219
511.2779174757968
520.5908822687709
495.5317921133709
508.4953632656797
520.4504094385798
526.7520141124495
541.2915128408273
563.5992410590549
579.7593299032048
597.1536774599493
539.8323038447753
552.0557815227138
562.8278753104403
582.2094207446836
535.8348061377883
540.3213324869971
544.5107109159609
560.5778878501518
530.6368082298287
529.8354695163349
525.3123780066514
530.4063552861293
606.6429425499921
594.2588736492634
569.0863811309575
532.0889556122651
614.4988999084079
605.2839848312184
566.9941707395749
521.158632990892
621.8132806894182
607.4543875252302
554.9973468905681
512.1636754917128
628.3169750067148
604.8050591082466
539.8150062694974
506.4862862338748
502.3964652632636
506.0673387003487
539.6769642835468
637.4090232172517
501.5158003888803
508.5901942683946
556.3023807431757
635.1890020183215
501.8917761123224
514.441925488531
576.6098787827231
636.19375113305
503.3245256587234
524.8669202659346
594.7473578727138
633.4378807628408
502.4448423303645
502.6033787533049
503.0560230185102
503.0952594403761
504.7804600281317
503.9291681890575
504.3860079621245
504.7597449562588
523.8954068645129
510.4332678221095
508.0402652811954
508.8784181127259
620.3432743789414
571.3175512248514
519.1983744460754
508.9399862837865
502.8872067045605
504.9005390987796
509.7491116248058
509.5130094434989
502.535574832822
504.950431158791
510.9866062713534
510.2808473364361
502.049872444483
504.7489713119762
512.1692083489133
511.032351355348
501.5574281864781
504.392797416492
513.0678619052544
512.2219196781725
500.1411447854662
501.1772261843637
511.047468545769
522.8401662568784
500.3405951182364
502.0602886127175
512.6641308605978
517.6388921059912
500.6412488013616
503.0082895831021
513.57789922168
515.443986255303
501.0639091285735
503.7665485852804
513.7075215842035
513.9695540747766
533.1639891828579
507.2306804900491
500.422015826606
500.0397776043562
534.3925374422384
505.2861213180057
500.2005056596632
500.0128249257143
533.8983396373042
503.6983703420758
500.0985650530296
500.0033846542447
531.2572419852091
502.415564158676
500.0227912491007
500.0004089525498
529.0291246223122
500.9607490858035
500.0023565878815
500.0001636970676
526.374198469023
500.7186485937669
500.001614415231
500.0000101662637
521.11249560223
500.4346971075324
500.0002570830516
500.0000000750826
514.917774156688
500.2633604820512
500.0000671559503
499.999999901189
500.0000000001753
500.0000002925185
500.0240602226429
503.3407765074525
500.0000000005271
500.0000008567644
500.0298639301102
504.8871003135627
500.0000000018922
500.0000033379117
500.0553408101385
506.7156132292824
500.0000000219066
500.0000146200865
500.1147605494805
509.4283553014613
506.2253852092961
508.927800306637
513.249119427482
521.8954559467278
508.927800307113
512.3866806327893
518.7554414880293
531.331971211941
513.249119427745
518.7554414880977
528.8804844900978
544.0767244632452
521.8954559468052
531.3319712117918
544.0767244637693
560.2594365315942
577.2415661503259
564.2358630587345
557.3543729799286
544.9497602949782
575.4560652697184
571.5455667240391
570.3313661172135
564.6287719921767
575.3921326880104
574.3216982829786
573.7613189887571
572.0572808025676
571.979922568335
571.5450224931451
571.6839317631525
570.9796391933639
567.8988170789085
565.5535204738613
560.4612742239992
553.2864775955372
567.5582910498174
565.153229068495
560.2394936764196
553.964453904281
567.574690208636
564.992483545235
559.9824095481612
554.5583874004382
567.6370242052107
564.7358785286438
560.1859828889561
550.972498311855
512.3813967944359
492.8099305378254
489.9499957660233
490.450361604006
501.8265075883902
488.7084670760151
489.9705415079011
491.0968220270768
491.5798524955027
488.8778350738179
491.5594155118249
492.8374603803415
469.9267214537907
484.1233900817301
489.9013742982899
491.5988112299755
490.793235745327
491.810560376963
493.3328072008504
494.8470523953449
491.0039685040202
491.480878179311
492.8627806984837
494.8616547880011
492.3165068637867
492.3387029144444
493.2673922854855
494.7357940459445
491.2483758253926
491.4195765372355
492.7259148175664
494.8404762790115
505.0239944580375
567.6788377334294
639.3611622773453
664.5430529570299
510.9445072092684
581.1651884050315
642.0074080310785
660.2507408991454
516.4236745803357
589.4962940563713
641.9774748478687
660.9491336854844
520.2327775598568
597.7641414648009
642.1821554651269
661.3620803139969
694.3007070153811
681.445376856761
670.1402214296015
656.8753963755655
702.7508386217454
690.0069354561815
676.8984427667488
662.5496065315673
708.728516011152
697.4719780491058
683.0151848244783
668.0408939475828
706.6522816058279
701.2940564527353
687.194178726568
671.8353376473771
643.6165537554959
633.0274402342019
623.2184073260657
618.968336386723
648.7151047979844
637.1083736659341
625.9498645373034
621.0677535947144
653.8784927691103
640.6187442199707
629.5063921447842
623.1777276100759
658.2971295259548
643.6929057232961
632.99709126785
625.5985199863878
615.0673943272501
607.6463098386505
590.9806369464293
565.0080285454145
616.8447912519654
609.2347743577235
593.7784789379839
592.6505311838921
617.8389128496015
610.154476506744
602.7702914422352
620.415654937453
619.7333804223558
614.0056205826693
616.3504334354728
603.9811830867196
522.5290477045763
460.1975426308629
422.6647602612965
426.5545151210592
512.0672414725591
421.983339181187
305.5274817568374
252.9694598258851
468.7318703006899
368.1011467197613
252.1782300191256
231.8541082331551
368.0077165715426
282.5859954390054
227.8297923272706
239.5914100867079
376.1157590087361
403.928797399598
471.0882517867969
522.9248051295386
306.492935425214
380.3619362632613
441.8191660149584
491.7072609023258
291.6677692269831
350.9025255333257
404.4010998787938
445.1305512112185
298.9379186450896
351.4327756480682
402.1229847765394
431.1493087261723
487.0602544014867
510.3454547005411
509.2790292487483
509.6863595439572
435.7730835818439
473.9286981416966
492.6745454875705
510.5665988348647
407.3528208594354
432.9141951696058
470.5543943564473
514.1739203878552
392.4918788573461
408.2739295641135
445.0625664046552
512.9342603834291
491.8256691842749
470.6129990868372
459.3923616305815
459.702712640626
495.1778826365643
486.0216001783072
482.0169167687289
475.8951457086314
504.2367342853108
507.4082895991719
501.6103007050738
488.6177671731302
503.6011521713056
508.6046092016076
498.7249336300484
484.0921289866764
465.9313510244025
450.6275109713579
442.237435386794
439.8957400337599
471.5292212924799
455.6888019079596
444.4204017642161
441.0565719503257
469.795448172482
461.2959704908728
452.6152702287355
448.99882588204
462.8004177910847
460.2206149014177
455.4801297695356
452.345451458455
439.8957400337241
441.0565719503068
448.9988258820467
452.3454514585471
442.2374353866143
444.4204017640516
452.6152702287317
455.4801297698021
450.6275109710808
455.6888019076946
461.2959704908036
460.2206149016031
465.9313510239948
471.5292212922911
469.7954481724458
462.8004177912175
459.702712640772
459.3923616306322
470.6129990871596
491.8256691845385
475.8951457086598
482.0169167688224
486.0216001785625
495.1778826368102
488.6177671730055
501.6103007050087
507.4082895991694
504.2367342853758
484.0921289864851
498.7249336299576
508.6046092015845
503.6011521712726
512.9342603835058
445.0625664050811
408.273929564725
392.4918788579536
514.1739203879617
470.5543943568564
432.9141951701966
407.3528208601107
510.5665988350379
492.6745454878493
473.9286981422403
435.7730835827338
509.6863595440966
509.2790292489411
510.3454547009836
487.0602544022228
522.9248051293687
471.0882517867117
403.9287973981068
376.1157590174797
491.7072609023214
441.8191660151973
380.3619362625956
306.4929354253958
445.1305512115154
404.4010998793358
350.9025255331685
291.6677692267376
431.1493087265608
402.1229847771231
351.4327756483381
298.9379186448661
426.5545151425557
422.6647602631926
460.197542631019
522.5290477052199
252.9694598288163
305.527481756865
421.9833391811824
512.067241472659
231.8541082331868
252.1782300188688
368.1011467201991
468.7318703011019
239.5914100869861
227.8297923268863
282.5859954396163
368.0077165718794
565.0080285457817
590.9806369468263
607.6463098391667
615.0673943276616
592.6505311842565
593.7784789381211
609.2347743579819
616.8447912523396
620.415654937631
602.7702914422496
610.1544765067392
617.8389128498254
603.981183087205
616.3504334354074
614.0056205825319
619.7333804226195
618.9683363872787
623.2184073264966
633.027440234096
643.6165537553331
621.0677535952135
625.9498645373732
637.1083736655909
648.7151047976131
623.1777276103031
629.5063921449549
640.6187442196378
653.8784927689262
625.5985199867162
632.9970912680661
643.6929057232436
658.2971295254812
656.8753963752404
670.1402214293132
681.4453768564538
694.3007070152694
662.5496065311507
676.8984427667373
690.0069354559694
702.7508386215484
668.040893947372
683.015184824268
697.471978048565
708.728516011013
671.8353376471244
687.1941787264061
701.2940564524877
706.6522816055208
664.5430529570207
639.3611622770882
567.6788377333895
505.0239944584968
660.2507408990051
642.007408030795
581.1651884049335
510.9445072098241
660.9491336852529
641.9774748475336
589.4962940561669
516.4236745809086
661.3620803139726
642.1821554647893
597.76414146458
520.2327775604213
494.8470523959937
493.3328072007826
491.8105603762329
490.7932357449385
494.8616547886466
492.8627806983419
491.4808781783431
491.0039685036082
494.7357940465862
493.2673922851499
492.3387029134582
492.3165068632496
494.8404762796441
492.7259148171973
491.4195765361798
491.2483758247471
490.4503616032221
489.9499957653999
492.8099305381961
512.3813967948028
491.0968220263268
489.9705415070581
488.7084670765375
501.8265075886794
492.8374603795692
491.5594155108469
488.87783507427
491.5798524957157
491.5988112291803
489.9013742971271
484.1233900821078
469.9267214540087
553.2864775957358
560.4612742243066
565.5535204744538
567.8988170787768
553.9644539043704
560.2394936766573
565.1532290690112
567.5582910497059
554.5583874004186
559.9824095482749
564.9924835455619
567.5746902083239
550.9724983118904
560.1859828890143
564.7358785288847
567.6370242049802
570.9796391924447
572.0572808014289
564.6287719913112
544.9497602950985
571.6839317621592
573.7613189873285
570.3313661155638
557.3543729793977
571.5450224920746
574.32169828127
571.545566721288
564.2358630567832
571.9799225674215
575.3921326861231
575.456065266284
577.2415661466725
505.1311524407741
497.2537020821674
496.813603915294
499.4842443878301
485.4160616362234
492.0360886801399
495.3926960777789
499.3454275843465
470.3699997228219
486.3989467187812
493.9791947687434
499.1480639535218
460.1372432178161
480.4285444727522
492.4956198124661
498.9411060741886
498.6805981929391
488.9356665257872
469.4023383134946
479.7730632413613
498.6804373670035
489.4247995193494
471.2942887366547
474.2551352777633
498.6946039337158
490.3270667297499
473.4183570568941
465.2297338816315
498.7839402078166
491.3791917387842
476.2502496373747
459.5018647727121
498.941106074082
499.1480639533783
499.3454275846889
499.4842443879913
492.4956198122047
493.9791947685467
495.3926960774685
496.8136039154491
480.4285444728606
486.3989467190961
492.0360886806856
497.2537020825677
460.1372432176349
470.3699997225743
485.4160616362329
505.1311524409037
)
;

boundaryField
{
    back
    {
        type            empty;
    }
    inlet
    {
        type            zeroGradient;
    }
    front
    {
        type            empty;
    }
    top
    {
        type            zeroGradient;
    }
    outlet
    {
        type            fixedValue;
        value           uniform 500;
    }
    bottom
    {
        type            zeroGradient;
    }
    wall
    {
        type            zeroGradient;
    }
}


// ************************************************************************* //
