/*--------------------------------*- C++ -*----------------------------------*\
  =========                 |
  \\      /  F ield         | OpenFOAM: The Open Source CFD Toolbox
   \\    /   O peration     | Website:  https://openfoam.org
    \\  /    A nd           | Version:  11
     \\/     M anipulation  |
\*---------------------------------------------------------------------------*/
FoamFile
{
    format      ascii;
    class       volScalarField;
    location    "0.1005";
    object      T;
}
// * * * * * * * * * * * * * * * * * * * * * * * * * * * * * * * * * * * * * //

dimensions      [0 0 0 1 0 0 0];

internalField   nonuniform List<scalar> 
880
(
300
300
300
300.000173867215
300
300
299.9999999999072
300.0010675067269
300
300
300.0000000022865
300.0049165757777
300.0000000000001
300
300.0000001184352
300.0033177943363
300
300
299.9999999999999
300.0000000002928
300
300
299.9999999999997
300
299.9999989564633
300.0000183977793
300.0262743633546
299.9431272848062
300.9139497300995
304.0617958708217
306.8229546453235
307.9927530394313
300.0000039194858
300.0000126456504
300.0000150766809
300.0000082578072
300.0001003247308
300.000265966032
300.0005361506583
300.0003326732086
300.0733492285228
300.1368020905397
300.2005141981296
300.1913944219423
309.5155142287594
311.204973139896
312.5241740135617
314.0843049628316
313.1204693188387
310.5374517092104
307.9971651323748
305.8388972708664
300.3392309883575
300.5373414620776
300.7016829389359
300.5856206856189
300.0010975238881
300.0024125572016
300.0043474634002
300.0043448993401
300.0000381158878
300.0000818801372
300.0001322951526
300.000119938526
300.0000650677053
300.0000157314111
300.0000012692781
300.0000000228232
300.0030470634874
300.0012165751903
300.0002256344883
300.0000156819779
300.4016656274159
300.1856298138145
300.0518855800199
300.0070370824163
303.9428183193211
302.4150960436236
301.1909852927604
300.363820102003
300.0479537080254
300.0003091337258
300.0000003300117
300.0000000008557
300.0036032433636
300.000035858717
300.0000000102876
299.9999999977614
299.9959511649132
299.999764163628
300.0000010823455
300.0000004085766
302.0607646909726
300.0059370687731
299.9996908366235
299.999978637034
299.9999714003741
299.9998544559654
300.0570468589759
318.9629314680282
299.9999939247826
300.0003470018513
300.3121129445022
334.1386744022045
300.000053249485
300.0015370408947
300.6971256856315
343.8842917103973
300.0001321837047
300.0042976903342
301.3121862256617
353.0506126546454
360.5224979258877
301.7856656803952
300.0055629531028
300.0001788680559
367.034257622972
302.4636298211412
300.0096515418339
300.0002916934451
370.5814352082068
302.7898809725515
300.0103102440796
300.0003176041074
374.1426784519986
303.5740298375634
300.0177919111716
300.0005730030204
300.000601404719
300.018955715713
304.2945714800748
378.5031801830024
300.0008843101328
300.028431920675
305.5023512146383
379.8433444502297
300.0014953819406
300.0388385791019
305.8635496493415
373.9310413996546
299.9998291079676
300.0114219325863
303.2678307475107
354.111644280672
300.0030436865155
300.0905604426874
304.5460638084619
333.9369658266376
300.0018095799803
300.1316225856476
303.4207968093415
315.9522838459512
299.9985128345878
300.0403393906374
302.2848453374561
311.4792391057659
299.9977127526613
299.9229419009148
300.2639712885453
310.4351927005861
304.1396979209221
298.8537394830045
299.8990424386646
299.999482497304
296.5095188604513
298.535118346606
299.9393161068963
299.9997560501371
288.005558727414
298.3522934591103
299.9699681138353
299.9999076528519
285.4470488724814
298.401016073203
299.9719931609765
299.999907592617
284.871343051901
299.2414133300213
299.9921289417367
299.9999719091651
284.876856641044
299.6701414578432
299.9979911235339
299.9999940607388
286.3543669198654
299.8071103486318
299.9992006193459
299.9999982104176
290.5409386568004
299.9101974666731
299.9996935201658
299.9999989053536
297.068590342357
299.7684544700116
299.9948961032664
299.9999649373917
297.534047104878
299.7743716958042
299.994866146678
299.9999648653863
298.0327321279853
299.7712928150144
299.9946862303688
299.9999645665952
299.483654016275
299.7946149824306
299.9940539289211
299.9999641167793
290.5409386562023
299.9101974660169
299.9996935190887
299.9999989070052
286.3543669193651
299.8071103479918
299.9992006172026
299.9999982105388
284.8768566409864
299.6701414587798
299.9979911238757
299.9999940608511
284.8713430523671
299.2414133321515
299.9921289418831
299.9999719084977
299.999482497209
299.8990424401272
298.853739483349
304.1396979207397
299.9997560520767
299.9393161076566
298.5351183470144
296.5095188606537
299.999907651803
299.9699681153718
298.3522934581592
288.0055587280883
299.9999075927351
299.9719931615944
298.4010160751042
285.4470488718106
310.4351926995323
300.2639712871302
299.9229418987429
299.9977127519858
311.479239104229
302.2848453362399
300.0403393890363
299.9985128311508
315.9522838460091
303.4207968082159
300.1316225860175
300.001809580777
333.9369658269859
304.5460638080745
300.0905604417489
300.0030436894482
300.0006014037348
300.0189557179191
304.2945714811604
378.5031801837784
300.0008843101081
300.0284319221341
305.5023512154062
379.843344450376
300.0014953832393
300.0388385791594
305.863549648289
373.9310413997012
299.9998291108411
300.0114219327698
303.2678307465283
354.1116442804996
374.1426784533945
303.574029837299
300.0177919134775
300.0005730030951
370.5814352095241
302.789880977747
300.0103102426537
300.0003176045515
367.0342576221498
302.4636298187522
300.0096515475381
300.0002916927182
360.5224979267417
301.7856656776234
300.0055629496912
300.0001788674862
299.9999714017197
299.9998544570498
300.0570468592011
318.9629314669888
299.9999939241295
300.000347000547
300.3121129450088
334.1386744021581
300.0000532486187
300.0015370395809
300.6971256851685
343.8842917103034
300.0001321825885
300.0042976927749
301.3121862277773
353.0506126553909
299.9999786366756
300.0000004091613
299.9999999978953
300.0000000006754
299.9996908354843
300.0000010824476
300.0000000115601
300.0000003291833
300.0059370691171
299.9997641638786
300.0000358578619
300.0003091334184
302.0607646912638
299.9959511653965
300.0036032432369
300.0479537081386
300.0000000216207
300.00001568215
300.0070370838407
300.3638201025488
300.0000012689773
300.0002256339757
300.0518855824179
301.1909852926433
300.000015732461
300.0012165754638
300.1856298122021
302.4150960433431
300.0000650679814
300.0030470635058
300.401665628755
303.9428183186452
300.0000381142156
300.0010975225207
300.3392309887051
313.1204693187308
300.0000818784439
300.0024125570828
300.5373414624383
310.5374517082844
300.0001322943118
300.0043474647549
300.701682938839
307.997165131846
300.0001199377896
300.0043449003422
300.5856206854437
305.8388972700545
314.0843049634881
300.1913944245381
300.0003326724374
300.000008257037
312.5241740142236
300.2005142000442
300.0005361504805
300.0000150768671
311.2049731410301
300.1368020881147
300.0002659665316
300.0000126453712
309.5155142284287
300.0733492254339
300.000100324009
300.0000039200343
307.9927530400687
299.9431272893459
300
300.0000000005577
306.8229546448363
300.0262743579768
300
300.0000000000001
304.0617958711336
300.0000183974101
300
300
300.9139497295739
299.9999989560275
300
299.9999999999999
300
299.9999999999999
300
300.0001738660152
300.0000000000002
300
299.9999999998095
300.0010674977493
300
300
300.0000000024659
300.0049165751534
300
300
300.0000001176889
300.0033177941456
300.0002990949329
300.0012246802248
300.0073224455863
300.2009475977439
300.0012247006499
300.0013822049765
300.0039396642644
300.807789596956
300.0073224445649
300.0039396516597
300.2993433139209
305.574706145814
300.2009475859773
300.8077895986221
305.5747062185696
324.8779328112572
353.9378533939994
334.553529217695
321.3778845948871
309.7367084803772
349.857037572465
345.0840735787522
340.5748935612063
331.6669249361204
346.2173225137861
344.522234979506
342.7919104400486
338.602789835644
345.2855072714535
343.8317522662913
342.8371163228178
340.9038929238857
343.5621501473029
344.8569503712168
345.870170238087
348.3797775142685
343.5114715619403
344.4730199333064
345.348988249956
348.2458312393001
343.4992921411895
343.6966433915675
344.4928740479079
346.3762518613088
343.6469581051268
343.2674454534523
344.0619273485506
342.2329673601204
331.7048455601092
314.6021830120591
306.3799152640956
303.4410903141098
322.8599907692891
306.0858657605798
304.0869750966494
304.1442234537253
312.4144533151297
299.8332335184571
304.7473087345408
305.5344913415988
287.5610387812662
292.188766892441
303.6086516114229
304.9653430386227
302.8625562926764
302.9229715910545
302.1588517775739
300.9238464136856
303.5367826872242
303.15829653096
302.0867712550564
300.8824954938253
304.6207679305643
303.7168771311061
302.3316312960567
301.0340459395287
303.9248917072802
303.1748658170778
301.9864917570127
300.6497576528723
300.2223763629923
300.0239596974924
299.9974148313081
327.3838715774512
300.2510575216526
300.0351054086486
299.9965322398189
343.4545704263077
300.326892781622
300.0492739032245
300.0014292291282
352.5273007822167
300.119635879792
300.0044432809318
300.0019250785656
356.3439826834801
402.4105263992807
415.2688239901393
419.5970291134838
424.6769665173506
417.8067184902492
421.0526679246187
419.6516212384284
421.2492515387777
422.6419908652666
418.2240233342032
417.4203605783391
416.6823760382744
432.5098035436642
423.0214465260567
416.2656545630054
414.5607943783167
429.4102516884925
434.7727169305642
436.4909424584242
437.2957280360331
423.5776604531164
427.8174920935377
429.1834312372321
430.0408170792538
417.0117099414555
419.9156811748073
421.527788796598
422.5590267052086
414.3302981874691
416.6371386323611
418.2015663623918
419.3650601779794
436.3942475285703
431.8476413323564
420.8943156399266
401.366581230567
429.3697343292233
425.5406600770759
416.1299015725253
415.4114058572944
422.1899718810308
419.1300759480253
414.1601567474697
426.2321275262549
418.9303781670189
417.1641789515639
417.0393845977929
407.2522582006155
360.788886492437
296.4077930111173
219.520433751745
214.0664897252042
347.9413002721429
260.9556533164899
201.0453221460384
185.7156702349604
311.4185078142704
219.4270799385559
176.4141223220997
162.4020923007099
239.7597289794444
164.2642335972011
175.1377042545646
154.3864623672564
218.3695411563271
219.2169345296136
218.5554122252431
215.232619867497
187.3967390469307
186.2975572750217
188.5234538985634
197.7517002902126
159.0277875420019
157.4207082409359
166.1079555210194
200.9038897789128
146.9553379467197
144.3139893664664
156.4144117189527
206.3177754959746
260.6102362450085
257.1528606433089
257.4236422088374
266.6872413828111
277.0119973812006
270.4134118440684
261.4241763538625
270.866714122586
269.6597995817867
284.1284011821228
277.8954343108299
283.645148892473
244.0817455655971
271.3159940075699
280.3378638721369
296.4050806017232
244.4493406741251
218.1193497817289
180.8362030808918
164.6296236528486
246.9828066969489
214.7276609149071
181.1724306103463
154.0236249733231
240.2860051137069
191.2423848114041
129.0288764493602
148.3213218835807
214.8942457095281
133.6916394264211
83.53391141660374
134.5446054879131
155.9219755506252
165.3044934805163
180.9065522465058
186.1710456977754
168.5503133989996
176.7127459403303
188.368062628653
191.9723788244853
192.1696947588689
209.6825344082862
214.268302648677
215.0345642341797
235.8302872850201
278.8516668020014
271.3582114440017
260.8414177013471
186.1710456978265
191.9723788244553
215.0345642341325
260.8414177011201
180.9065522467498
188.3680626285608
214.2683026486221
271.3582114436301
165.3044934807621
176.712745940376
209.6825344081216
278.8516668015898
155.9219755507482
168.5503133991485
192.1696947591083
235.8302872842487
164.6296236523037
180.8362030806302
218.1193497810309
244.4493406733522
154.0236249733777
181.1724306104015
214.7276609151431
246.9828066963732
148.3213218835551
129.028876448855
191.242384810875
240.2860051135835
134.54460548782
83.53391141649071
133.6916394262984
214.8942457092834
296.4050806014811
280.3378638719046
271.3159940071928
244.0817455644701
283.6451488923258
277.8954343108434
284.1284011820146
269.6597995805448
270.8667141223566
261.4241763538375
270.4134118438539
277.0119973801321
266.6872413824184
257.4236422086537
257.152860642874
260.6102362441375
215.2326198669914
218.5554122260413
219.2169345298078
218.3695411560397
197.7517002899974
188.5234538995742
186.297557275471
187.3967390466198
200.9038897788712
166.107955521747
157.420708241452
159.0277875418759
206.317775495702
156.4144117193859
144.3139893668299
146.9553379466848
214.0664897239537
219.520433750398
296.4077930110572
360.788886492607
185.7156702336233
201.045322144796
260.9556533160274
347.9413002714232
162.4020922997855
176.414122320709
219.42707993845
311.418507813828
154.3864623665405
175.1377042527412
164.2642335961215
239.7597289789866
401.3665812306505
420.8943156401297
431.8476413324157
436.3942475286572
415.4114058574738
416.129901572835
425.540660077311
429.3697343296432
426.2321275264534
414.1601567477687
419.1300759485304
422.1899718817602
407.2522582004637
417.0393845981588
417.1641789521144
418.9303781679416
437.2957280359808
436.4909424576517
434.772716931843
429.4102516885599
430.0408170795423
429.1834312367026
427.8174920940083
423.5776604534287
422.5590267058333
421.5277887963376
419.9156811746875
417.0117099422036
419.3650601788108
418.2015663621737
416.6371386319718
414.330298188643
424.6769665179077
419.5970291127157
415.2688239898172
402.4105263986343
421.2492515399949
419.6516212371519
421.0526679251938
417.8067184894397
416.6823760400991
417.4203605762412
418.2240233346968
422.6419908642287
414.5607943804547
416.2656545605651
423.0214465264991
432.5098035421942
327.3838715756661
299.9974148253036
300.0239596998121
300.2223763628388
343.4545704246618
299.9965322358393
300.03510541072
300.2510575214558
352.5273007801964
300.0014292273013
300.0492739049954
300.3268927813334
356.3439826810196
300.0019250768966
300.0044432836232
300.1196358789784
300.9238464136283
302.1588517770415
302.9229715908938
302.862556292528
300.8824954936971
302.0867712547181
303.1582965307379
303.5367826869507
301.0340459394803
302.3316312957735
303.7168771307375
304.620767930127
300.6497576529499
301.9864917565127
303.1748658168493
303.9248917067428
303.4410903132975
306.3799152635555
314.6021830112295
331.7048455597854
304.1442234529207
304.0869750961759
306.0858657598171
322.8599907690482
305.5344913408412
304.7473087342301
299.8332335178389
312.4144533149056
304.9653430377978
303.6086516113252
292.1887668917671
287.5610387806811
348.37977751348
345.8701702378125
344.8569503728735
343.5621501492233
348.2458312384129
345.3489882498664
344.4730199347559
343.5114715631873
346.3762518605443
344.4928740474804
343.6966433922717
343.4992921423168
342.2329673595709
344.0619273482699
343.2674454543115
343.646958105678
340.9038929218387
338.6027898360389
331.666924936354
309.7367084809754
342.837116321904
342.79191043993
340.5748935624137
321.3778845831138
343.8317522660475
344.522234979912
345.084073578672
334.5535292048157
345.2855072709588
346.2173225132009
349.8570375707953
353.9378533970474
294.9044901415759
299.9053633993633
299.9992540145193
299.999997023121
295.15017169822
299.8854340355363
299.9987379865324
299.9999933997114
297.6064682698911
299.8720465803515
299.9978006291867
299.9999867201843
299.7228050124069
299.8365933680193
299.9949733937464
299.9999725451917
299.9999649383421
299.9948961032042
299.7684544694802
297.068590341913
299.9999648660848
299.9948661477227
299.7743716944179
297.5340471052634
299.9999645654794
299.9946862316271
299.7712928139846
298.0327321267744
299.9999641135826
299.9940539303599
299.7946149793353
299.4836540155388
299.9999725443316
299.9999867188853
299.9999933955731
299.9999970194722
299.9949733941706
299.9978006291619
299.9987379860725
299.9992540131667
299.836593367722
299.8720465793501
299.8854340365597
299.9053633985105
299.7228050117843
297.606468268454
295.1501716977421
294.9044901416859
)
;

boundaryField
{
    back
    {
        type            empty;
    }
    inlet
    {
        type            zeroGradient;
    }
    front
    {
        type            empty;
    }
    top
    {
        type            zeroGradient;
    }
    outlet
    {
        type            fixedValue;
        value           uniform 300;
    }
    bottom
    {
        type            zeroGradient;
    }
    wall
    {
        type            zeroGradient;
    }
}


// ************************************************************************* //
