/*--------------------------------*- C++ -*----------------------------------*\
  =========                 |
  \\      /  F ield         | OpenFOAM: The Open Source CFD Toolbox
   \\    /   O peration     | Website:  https://openfoam.org
    \\  /    A nd           | Version:  11
     \\/     M anipulation  |
\*---------------------------------------------------------------------------*/
FoamFile
{
    format      ascii;
    class       surfaceScalarField;
    location    "8.6";
    object      phi;
}
// * * * * * * * * * * * * * * * * * * * * * * * * * * * * * * * * * * * * * //

dimensions      [0 3 -1 0 0 0 0];

internalField   nonuniform List<scalar> 
8667
(
15.8865
1.8955134
-0.0042358536
13.987131
1.879734
0.019634903
12.086501
1.8501302
0.050500541
10.178166
1.7531386
0.15519557
8.2863897
1.6239407
0.26783603
6.4052815
1.4289586
0.45214958
4.5534025
1.1771916
0.67468743
2.7534216
0.82663517
0.97334566
0.23164105
1.5037342
1.0180464
15.884752
3.7885397
13.982834
3.7816524
12.080784
3.7521795
10.17014
3.6637829
8.2725328
3.5215477
6.3942843
3.3072071
4.5371467
3.0343292
2.7561309
2.6076509
1.9641533
1.0236187
15.883864
5.6824533
13.982169
5.6833479
12.073083
5.6612649
10.164566
5.5723
8.2569592
5.429155
6.377572
5.1865944
4.5265431
4.8853581
2.7405674
4.3936266
3.7123878
0.99233289
15.882777
7.5774544
13.977658
7.5884664
12.071944
7.5669797
10.161954
7.4822899
8.2506426
7.340466
6.3640038
7.0732332
4.5029774
6.7463844
2.7312332
6.1653709
5.4449683
0.99865269
15.883413
9.4718171
13.978816
9.4930633
12.070493
9.4753033
10.16114
9.3916424
8.2422209
9.2593855
6.3509215
8.9645326
4.4845072
8.6127987
2.7185511
7.931327
7.1538905
1.0096289
15.884462
11.365133
13.978386
11.39914
12.069341
11.384348
10.157721
11.303263
8.2398626
11.177243
6.3372269
10.867168
4.4643443
10.485681
2.6981359
9.6975354
8.8329518
1.0190747
15.885473
13.257437
13.982289
13.302325
12.072258
13.294378
10.157684
13.217837
8.2380454
13.096882
6.3269967
12.778217
4.4424521
12.370226
2.6836181
11.456369
10.511296
1.0052735
15.8872
15.148015
13.985352
15.204173
12.074531
15.205199
10.157414
15.134955
8.2360706
15.018226
6.3190015
14.695286
4.4232856
14.265942
2.6576234
13.222032
12.172747
0.99617261
15.889168
17.036625
13.989312
17.10403
12.078472
17.116038
10.160187
17.05324
8.2331743
16.945238
6.310952
16.617508
4.402
16.174894
2.6375434
14.986488
13.821302
0.98898841
18.861826
15.952576
20.68389
15.955714
22.502663
15.959011
24.31879
15.961653
26.131632
15.964918
27.941436
15.967976
29.749503
15.969713
31.551678
15.975605
15.97355
33.355908
18.941807
14.114799
20.77621
14.121311
22.607282
14.127939
24.432445
14.13649
26.253859
14.143504
28.067276
14.154559
29.877384
14.159605
31.684061
14.168928
14.170587
33.487024
18.968125
12.262713
20.820435
12.269001
22.672827
12.275547
24.523256
12.286061
26.371965
12.294795
28.217298
12.309227
30.059028
12.317875
31.897911
12.330046
12.338869
33.729629
18.914604
10.401349
20.778913
10.404691
22.644572
10.409888
24.513697
10.416936
26.381756
10.426735
28.252664
10.438319
30.117796
10.452743
31.981967
10.465875
10.483344
33.837492
18.816598
8.5299894
20.696249
8.5250394
22.578399
8.5277391
24.468222
8.5271125
26.359043
8.5359143
28.25982
8.5375423
30.162781
8.5497817
32.077281
8.5513748
8.5656847
33.99494
18.480794
6.6667035
20.356284
6.6495494
22.240957
6.643066
24.139263
6.6288069
26.044349
6.6308288
27.958267
6.6236241
29.873588
6.6344607
31.790391
6.6345717
6.6485881
33.707487
18.022336
4.819261
19.89453
4.7773559
21.788981
4.748615
23.715778
4.7020095
25.667107
4.6795003
27.642142
4.6485887
29.637541
4.639062
31.64845
4.6236625
4.6238592
33.673179
16.684085
3.1216638
18.463473
2.9979686
20.310403
2.9016841
22.21799
2.794423
24.165613
2.7318769
26.157429
2.6567731
28.167266
2.6292246
30.205048
2.5858813
2.5809665
32.24794
15.374073
1.5688926
17.169884
1.2021579
19.29243
0.77913856
21.55682
0.53003236
23.87041
0.41828746
26.235189
0.29199408
28.603313
0.26110028
30.971224
0.21796983
33.333931
0.21826004
33.250926
0.10498173
33.149733
0.1011935
33.052642
0.097090321
32.957743
0.094898985
32.869118
0.088625626
32.781134
0.087983247
32.699736
0.081398675
32.618098
0.081637417
0.074483549
32.543615
33.403629
0.18837634
33.321734
0.18308826
33.24345
0.17537511
33.165073
0.17327559
33.090765
0.16293309
33.016778
0.161971
32.947383
0.15079383
32.877782
0.15123783
0.13943488
32.812831
33.646262
0.27174294
33.565068
0.26428259
33.482215
0.25822768
33.402581
0.2529102
33.318299
0.24721537
33.239906
0.24036349
33.157328
0.23337175
33.083533
0.2250326
0.21763967
33.005329
33.750278
0.35895718
33.667166
0.34739428
33.583929
0.34146443
33.505608
0.33123092
33.426659
0.32616427
33.354177
0.3128463
33.280021
0.30752752
33.214487
0.29056614
0.28545405
33.146673
33.901858
0.45203998
33.812474
0.43677803
33.726112
0.42782653
33.64256
0.4147828
33.562148
0.40657634
33.485533
0.38946065
33.412106
0.38095454
33.342886
0.35978693
0.35217043
33.276169
33.628067
0.53146026
33.555632
0.50921306
33.487664
0.4957948
33.426452
0.47599477
33.36849
0.46453831
33.316753
0.44119735
33.266627
0.43108056
33.221314
0.40510059
0.39505543
33.178429
33.614573
0.59006631
33.568468
0.55531832
33.524557
0.53970524
33.488376
0.51217587
33.453106
0.49980801
33.421107
0.47319673
33.388088
0.46409954
33.352496
0.44069218
0.43470247
33.312849
32.342585
0.49542215
32.439011
0.45889236
32.548108
0.43060822
32.657119
0.40316429
32.773497
0.38343058
32.882846
0.36384722
32.98515
0.3617958
33.055569
0.37027266
0.39031493
33.099957
33.66436
0.16499272
33.948593
0.17465961
34.19715
0.18205148
34.393678
0.20663626
34.527733
0.24937581
34.581573
0.31000704
34.574175
0.36919383
34.483015
0.4614327
34.357486
0.5158436
34.293702
0.54159802
-0.47781348
34.089366
0.51598367
-0.3116485
33.806798
0.49837781
-0.21580919
33.49754
0.48099509
-0.17173718
33.188509
0.46363811
-0.15460746
32.854171
0.46028172
-0.12594318
32.521526
0.44258462
-0.10994043
32.187233
0.44055873
-0.10626505
0.4365695
31.847544
-0.096880701
33.214561
0.42699358
33.290231
0.44031396
33.335319
0.45328945
33.353257
0.4630572
33.345779
0.47111591
33.327712
0.47834948
33.284557
0.48573949
33.233216
0.49189992
0.50286561
33.16692
33.376429
0.36341387
33.43951
0.37723265
33.49351
0.39928967
33.544893
0.41167465
33.583829
0.43217977
33.618125
0.44405317
33.639191
0.46467376
33.653304
0.47778646
0.49936639
33.656804
33.252012
0.28983018
33.32845
0.30079464
33.403176
0.32456386
33.479874
0.33497715
33.552722
0.35933088
33.626882
0.36989328
33.696008
0.39554811
33.767074
0.40672057
0.43406457
33.832376
33.332594
0.2334054
33.392692
0.24069701
33.454929
0.2623263
33.520127
0.26977909
33.585598
0.29386003
33.653857
0.30163436
33.721997
0.32740854
33.793388
0.33532942
0.36381848
33.863634
33.212047
0.16803153
33.275658
0.17708538
33.347964
0.19002073
33.420592
0.19715126
33.498836
0.21561583
33.580768
0.21970228
33.665178
0.24299879
33.753473
0.247034
0.27394764
33.843344
33.063657
0.10970352
33.117141
0.12360121
33.182801
0.12436018
33.242883
0.13706905
33.316801
0.14169797
33.385022
0.15148178
33.468386
0.15963438
33.54651
0.16891051
0.18016035
33.640297
32.872448
0.050086426
32.93722
0.058829029
33.00235
0.059230191
33.070977
0.068442106
33.14459
0.068085249
33.218196
0.077875011
33.300347
0.077483512
33.381796
0.087461912
0.088732492
33.473224
32.593701
32.65253
32.71176
32.780203
32.848288
32.926163
33.003646
33.091108
33.179841
33.27737
-0.097528823
33.379165
-0.10179562
33.486638
-0.10747242
33.604893
-0.11825503
33.723637
-0.1187445
33.858898
-0.13526111
33.993413
-0.13451442
34.147139
-0.15372648
-0.1541929
34.301332
33.563678
-0.18798279
33.666522
-0.20463989
33.768825
-0.20977493
33.884795
-0.23422582
34.000336
-0.23428502
34.131798
-0.26672373
34.263313
-0.26602883
34.411726
-0.30213965
-0.30119135
34.558725
33.730083
-0.27776841
33.833889
-0.30844648
33.936678
-0.31256336
34.049309
-0.34685678
34.166168
-0.35114472
34.289628
-0.39018328
34.418517
-0.39491766
34.555193
-0.43881611
-0.44320008
34.697202
33.937809
-0.37223365
34.032618
-0.40325463
34.132882
-0.41282797
34.233104
-0.44707869
34.340395
-0.45843596
34.447776
-0.49756347
34.563977
-0.51111954
34.681814
-0.55665239
-0.57173454
34.810348
33.937836
-0.44643547
34.010141
-0.47556045
34.087654
-0.49034079
34.163904
-0.52332816
34.247425
-0.54195717
34.330445
-0.58058373
34.422771
-0.60344492
34.515843
-0.64972494
-0.67635433
34.620463
33.900699
-0.5147589
33.963344
-0.53820556
34.030691
-0.5576873
34.092486
-0.58512349
34.160543
-0.61001395
34.223617
-0.64365829
34.294544
-0.67437157
34.360374
-0.71555482
-0.75146881
34.435489
33.658237
-0.516192
33.647939
-0.52790786
33.640817
-0.55056534
33.623526
-0.56783231
33.608346
-0.59483463
33.584661
-0.61997249
33.570208
-0.65991934
33.542994
-0.68833991
-0.73445974
33.525984
33.087452
-0.43672438
32.995009
-0.4354654
32.897139
-0.45269498
32.787184
-0.45787757
32.667957
-0.47560772
32.541575
-0.49358968
32.405392
-0.52373707
32.257752
-0.54069994
-0.59639415
32.119687
31.520583
-0.10976343
31.191695
-0.1065774
30.851917
-0.11291717
30.528191
-0.13415156
30.179689
-0.12710551
29.844458
-0.15835855
29.500865
-0.18014425
29.145415
-0.18524963
28.802552
-0.25353177
0.62703873
28.431856
-0.25634186
0.78385636
31.962869
0.80252584
33.507315
0.731236
34.506778
0.62468842
34.72701
0.49298464
34.942052
0.34112483
34.849062
0.17379465
34.726055
34.475127
0.68636312
28.06171
-0.31621725
0.83507588
31.814156
0.84268005
33.499711
0.76065166
34.588807
0.64068004
34.846982
0.4966069
35.086125
0.34025972
35.005409
0.1752254
34.891089
34.650352
0.7383053
27.704818
-0.38141406
0.8938806
31.658581
0.90619435
33.487397
0.82479183
34.670209
0.70157593
34.970198
0.55226986
35.235431
0.38445613
35.173223
0.19746196
35.078083
34.847814
0.82879583
27.317568
-0.4415451
0.95753211
31.529845
0.94943555
33.495494
0.85604609
34.763599
0.71750409
35.10874
0.55434726
35.398588
0.38203277
35.345537
0.19915977
35.260956
35.046974
0.90480199
26.927287
-0.51452142
1.0443375
31.390309
1.0305837
33.509248
0.930761
34.863421
0.78712284
35.252378
0.61682364
35.568887
0.43045114
35.53191
0.22248549
35.468922
35.269459
1.0013295
26.627203
-0.70124495
1.109161
31.282478
1.0777462
33.540662
0.96266678
34.978501
0.80199737
35.413048
0.61646059
35.754424
0.42738138
35.720989
0.22552558
35.670778
35.494985
1.1280005
26.251717
-0.75251528
1.2175836
31.192895
1.1781719
33.580074
1.0496245
35.107048
0.88108184
35.58159
0.68568125
35.949825
0.48000584
35.926664
0.25026761
35.900516
35.745253
1.250601
26.009648
-1.0085316
1.2927503
31.150745
1.2281492
33.644675
1.0796428
35.255555
0.89277645
35.768457
0.68152382
36.161077
0.47307226
36.135116
0.25198104
36.121607
35.997234
1.4354492
25.811304
-1.2371055
1.4472433
31.138951
1.3582017
33.733717
1.1894852
35.424271
0.98804851
35.969893
0.76147168
36.387654
0.53330826
36.363279
0.28020021
36.374715
36.277434
0.091377495
36.186056
0.22705297
36.23904
0.36307952
36.227253
0.48471954
36.266014
0.59710335
35.857509
0.68280714
35.338567
0.74645244
33.670071
0.60859363
31.27681
26.359261
0.060637158
0.076873624
36.109183
0.18310161
36.132812
0.2989063
36.111448
0.41251479
36.152406
0.51531149
35.754713
0.59275111
35.261128
0.63568922
33.627133
0.53072004
31.381779
26.488338
0.40164254
0.086514019
36.022669
0.21370009
36.005626
0.33991431
35.985234
0.44858384
36.043736
0.53535583
35.667941
0.58804057
35.208443
0.6465161
33.568658
0.56975943
31.458536
26.531522
0.52657544
0.07537927
35.947289
0.17402033
35.906985
0.27772836
35.881526
0.38049908
35.940965
0.46304106
35.585399
0.5169331
35.154551
0.54735898
33.538232
0.5241067
31.481788
26.527183
0.52844582
0.08880443
35.858485
0.2142997
35.781489
0.33139709
35.764428
0.4277545
35.844608
0.49921626
35.513937
0.528119
35.125648
0.55556297
33.510788
0.52616487
31.511186
26.577366
0.47598201
0.077651458
35.780834
0.17673939
35.682401
0.28212137
35.659046
0.38396158
35.742768
0.44814266
35.449756
0.47302884
35.100762
0.46411427
33.519702
0.44689085
31.52841
26.517283
0.50697396
0.098411068
35.682422
0.22888222
35.55193
0.33920592
35.548723
0.42844825
35.653525
0.4883907
35.389813
0.49302416
35.096129
0.48684301
33.525884
0.44030991
31.574943
26.56102
0.39657281
0.090774581
35.591648
0.19835091
35.444354
0.31270917
35.434364
0.4174872
35.548747
0.46661308
35.340688
0.47108143
35.09166
0.4194097
33.577555
0.37040769
31.623945
26.525639
0.40578884
0.11888085
35.472767
0.2630876
35.300147
0.3777222
35.31973
0.47126028
35.455209
0.51659283
35.295355
0.50615847
35.102095
0.46109475
33.622619
0.39905354
31.685986
26.589703
0.334989
-0.36311507
26.559498
0.39332024
-0.41964083
31.742512
-0.5225106
33.725489
-0.5265043
35.106088
-0.48344031
35.252291
-0.37013528
35.341904
-0.23891084
35.188505
-0.1111108
35.172347
35.361656
-0.4200194
26.635313
0.34420523
-0.48914467
31.811637
-0.5778433
33.814187
-0.59013356
35.118379
-0.54767985
35.209837
-0.4423451
35.236569
-0.31610159
35.062262
-0.15097302
35.007219
35.210683
-0.40768113
26.630544
0.41244963
-0.47043225
31.874388
-0.62019323
33.963948
-0.63402611
35.132212
-0.58877071
35.164582
-0.4573575
35.105156
-0.30499558
34.9099
-0.14660553
34.848829
35.064078
-0.48300511
26.748849
0.36470055
-0.57034213
31.961725
-0.70515339
34.09876
-0.72025247
35.147311
-0.67110575
35.115435
-0.54084006
34.974891
-0.38477954
34.753839
-0.19022624
34.654275
34.873851
-0.48616592
26.785024
0.44999076
-0.57047826
32.046037
-0.77328254
34.301564
-0.79229182
35.16632
-0.73230177
35.055445
-0.57180803
34.814397
-0.38835672
34.570388
-0.19334372
34.459262
34.680508
-0.58046391
26.933003
0.43248493
-0.70997844
32.175552
-0.90237459
34.49396
-0.90700062
35.170946
-0.82844524
34.97689
-0.66044576
34.646397
-0.46760235
34.377545
-0.23569596
34.227356
34.444812
-0.60121677
26.992306
0.54191397
-0.74946225
32.323797
-1.007379
34.751877
-1.0061046
35.169671
-0.91262165
34.883407
-0.71021799
34.443994
-0.48325434
34.150581
-0.24505334
33.989155
34.199758
-0.70833488
27.204839
0.49580134
-0.93188783
32.54735
-1.1739867
34.993976
-1.1455699
35.141255
-1.0181354
34.755972
-0.79960536
34.225464
-0.55982343
33.910799
-0.2851122
33.714444
33.914646
-0.74810514
27.392991
0.55995371
-1.024609
32.823854
-1.3178943
35.287261
-1.2666588
35.090019
-1.118787
34.6081
-0.8595827
33.966259
-0.58146187
33.632678
-0.29535026
33.428332
33.619296
0.44750299
33.171793
0.88249015
32.993345
1.291647
33.223522
1.6907865
33.56712
1.9942659
34.304621
2.1733329
34.910952
1.9225651
35.538029
1.3744601
33.371959
28.116559
0.65089154
0.45740261
32.71439
0.90856212
32.542185
1.3614549
32.770629
1.8117753
33.116799
2.1673174
33.949079
2.4126078
34.665662
2.1620432
35.788593
1.5341926
33.99981
28.880893
0.76985909
0.48094919
32.233441
0.95936894
32.063766
1.437
32.292998
1.9230464
32.630753
2.3477004
33.524425
2.6660758
34.347287
2.5770812
35.877588
1.8692518
34.707639
30.159734
0.59041072
0.48530016
31.748141
0.98105529
31.56801
1.4938615
31.780191
2.0233156
32.101299
2.4900117
33.057729
2.89674
33.940558
2.8963216
35.878006
2.2900573
35.313903
31.725295
0.7244956
0.4892211
31.25892
1.0059995
31.051232
1.5439073
31.242284
2.1108153
31.534391
2.6533804
32.515164
3.1553683
33.43857
3.3579324
35.675442
2.8278979
35.843938
33.738472
0.81472089
0.48119586
30.777724
1.0136999
30.518728
1.5809418
30.675042
2.1787508
30.936582
2.7648898
31.929025
3.3460311
32.857429
3.6833638
35.33811
3.4219716
36.10533
35.926616
1.2338279
0.47239225
30.305332
1.0119491
29.979171
1.5956591
30.091332
2.2299094
30.302332
2.8992191
31.259715
3.5440494
32.212599
4.1002702
34.781889
4.0670267
36.138574
37.592122
2.4015206
0.45083717
29.854495
0.99087579
29.439133
1.5972601
29.484947
2.2560246
29.643567
2.9483494
30.56739
3.6506554
31.510293
4.2496713
34.182873
4.6640651
35.72418
38.993475
3.2627127
0.45162392
29.402871
0.97386129
28.916895
1.5806313
28.878177
2.2825915
28.941607
3.0306938
29.819288
3.8080905
30.732896
4.6390455
33.351918
5.5750216
34.788204
39.905064
4.6634323
-1.0713079
30.474179
-1.9745385
29.820126
-2.8061767
29.709816
-3.641582
29.777012
-4.6027515
30.780457
-5.8564786
31.986623
-7.5496258
35.045065
-10.027972
37.26655
42.700511
-12.823419
-1.0872067
31.561385
-2.0066877
30.739607
-2.8379891
30.541117
-3.6320229
30.571046
-4.547228
31.695662
-5.8422031
33.281598
-7.7039502
36.906812
-10.165451
39.728051
44.169796
-11.634737
-1.1654131
32.726798
-2.0647921
31.638986
-2.857704
31.334029
-3.6087454
31.322088
-4.5185212
32.605438
-5.8709409
34.634018
-7.8830574
38.918929
-9.9065517
41.751546
40.494507
-6.231263
-1.1984149
33.925213
-2.1025034
32.543074
-2.8892399
32.120765
-3.5825373
32.015385
-4.468368
33.491269
-5.823584
35.989234
-7.8062897
40.901634
-9.3947577
43.340014
31.822386
-0.7226365
-1.3036716
35.228885
-2.1853525
33.424755
-2.9298075
32.86522
-3.5658371
32.651415
-4.3984876
34.32392
-5.7649114
37.355658
-7.5905921
42.727315
-8.8137441
44.563166
23.022514
-0.013872546
-1.3365868
36.565472
-2.2455882
34.333756
-2.9857109
33.605343
-3.5428518
33.208555
-4.3214512
35.102519
-5.7026477
38.736854
-7.3932895
44.417957
-8.1082164
45.278093
14.912492
0.0018061947
-1.4472618
38.012734
-2.3631839
35.249679
-3.0509582
34.293117
-3.5395116
33.697109
-4.2421595
35.805167
-5.5620905
40.056785
-7.1451387
46.001005
-7.4841539
45.617108
7.5238048
-0.095466845
-1.5001836
39.512917
-2.4451054
36.1946
-3.1389004
34.986912
-3.5226954
34.080904
-4.1422511
36.424723
-5.4004444
41.314979
-6.8592389
47.4598
-5.9213133
44.679182
1.1159117
0.48657975
-1.6304824
41.1434
-2.5865693
37.150687
-3.2311263
35.631469
-3.5394987
34.389276
-4.064686
36.94991
-5.1066736
42.356966
-6.2169774
48.570104
-2.924937
41.387142
-3.1422791
1.3332538
1.2738184
-5.0178108
0.60171326
2.7420055
39.918955
2.1051731
49.206936
1.7718941
42.690245
1.8709819
36.850822
2.0378827
34.222375
1.7822437
35.887108
1.1913172
37.741614
42.334717
1.170502
-6.5265025
0.33818967
2.4871284
38.602328
1.894534
49.79953
1.7410076
42.843772
1.9537799
36.63805
2.1616549
34.0145
1.9330265
36.115737
1.2881946
38.386446
43.622912
0.98337116
-8.0773943
0.56752057
2.2899071
37.295792
1.7519904
50.337447
1.6562277
42.939534
2.0108721
36.283406
2.3065894
33.718783
2.0329749
36.389351
1.3168723
39.102548
44.939784
0.75135421
-9.5788924
0.75014385
2.0234398
36.023707
1.5749037
50.785983
1.6510825
42.863356
2.1307186
35.80377
2.4501605
33.399341
2.1899308
36.649581
1.4302479
39.862231
46.370032
0.51742323
-11.061748
0.96543193
1.8260879
34.715042
1.4196475
51.192424
1.570351
42.712652
2.2189345
35.155186
2.6187442
32.999531
2.2947398
36.973586
1.4425144
40.714457
47.812546
0.39766701
-12.416556
0.95714153
1.5856797
33.52703
1.2428839
51.535219
1.5786081
42.376928
2.3712421
34.362552
2.7763801
32.594393
2.4531743
37.296791
1.5143324
41.653299
49.326879
0.28577213
-13.443437
0.7411088
1.391416
32.421386
1.0902714
51.836364
1.5095414
41.957658
2.4769323
33.395161
2.9609695
32.110356
2.5444849
37.713276
1.5161297
42.681654
50.843008
0.19429556
-13.142293
-0.4954399
1.1372136
31.478468
0.90214485
52.071433
1.522368
41.337435
2.6678022
32.249727
3.1241364
31.654022
2.6867497
38.150663
1.5773472
43.791056
52.420355
0.045777081
-12.790724
-0.3973455
0.87517415
30.649071
0.74785093
52.198756
1.4501494
40.635137
2.7793637
30.920513
3.3142422
31.119143
2.765521
38.699384
1.5512761
45.005301
53.971632
-1.4403054
-9.6042694
-1.7461497
-5.1703369
34.379102
-5.3919368
52.420356
-0.92301651
36.166216
3.9157334
26.081763
5.3448009
29.690076
4.5926581
39.451527
2.394889
47.20307
56.366521
-1.9751329
-5.4009048
-2.2282317
-5.8366774
38.240647
-5.3987266
51.982405
0.21231088
30.555179
5.6492168
20.644857
6.457767
28.881525
4.5931123
41.316181
1.897604
49.898579
58.264125
-2.9049469
-1.1833512
-1.3126067
-6.4754722
41.811172
-4.7242777
50.231211
2.412175
23.418726
7.0609907
15.996042
6.6462989
29.296217
4.4524359
43.510044
1.6579409
52.693074
59.922066
-3.5768447
3.1368018
-0.74330834
-6.8467924
45.081119
-4.082038
47.466456
3.6463309
15.690357
8.1429047
11.499468
7.0820036
30.357118
3.9245913
46.667457
0.84021207
55.777453
60.762278
-4.3287344
7.9163679
-0.45083172
-6.9912655
47.743651
-3.3519252
43.827116
4.1546141
8.1838183
8.3314443
7.3226378
6.4665217
32.22204
3.0850335
50.048945
0.31633565
58.546151
61.078613
-4.7931788
12.857301
-0.14775453
-7.1200716
50.070543
-2.6218176
39.328862
4.8599211
0.70207954
8.507414
3.675145
6.1502254
34.579229
2.1426713
54.056499
-0.53702882
61.225851
60.541584
-5.6440841
17.89367
0.60771532
-7.5503006
51.97676
-1.8671857
33.645747
5.7288184
-6.8939244
8.2783676
1.125596
4.9276885
37.929908
0.94824427
58.035943
-0.90832191
63.082417
59.633263
-5.8526181
22.556084
1.1902036
-7.2681531
53.392295
-0.53581955
26.913413
6.9224215
-14.352165
8.0939562
-0.045938554
4.0925315
41.931333
-0.011303232
62.139778
-1.5180835
64.589197
58.115179
-6.8730196
2.2552928
27.173811
-6.969597
53.488872
1.1934522
18.750364
7.2334168
-20.39213
7.0254847
0.16199363
2.2168698
46.739947
-1.7282384
66.084886
-1.8446661
64.705625
56.270513
-0.78915177
-39.56293
0.41022636
39.941856
0.46906299
-37.25506
35.996845
2.7059207
20.886998
-23.123856
4.4117824
49.474811
-51.180673
5.0457863
62.407679
-63.041683
5.3608071
57.967984
-58.283005
7.5668315
26.814522
-29.020547
9.5901445
-15.596587
13.573274
-28.986555
27.712974
-0.84916242
-39.138014
0.42424624
0.29322738
-38.39745
2.4443835
18.735842
4.1299767
47.789218
4.7965143
61.741141
5.3385859
57.425912
8.0768738
24.076235
10.557805
-18.077518
-30.40238
-0.92789156
-38.647426
0.43730344
0.12486352
-39.450205
2.2107513
16.649954
3.8424387
46.157531
4.5706285
61.012952
5.4108953
56.585645
8.8061528
20.680977
11.780011
-21.051376
-31.969699
-1.0048714
-38.092704
0.4501494
-0.060749242
-40.394327
2.0137747
14.57543
3.6342154
44.53709
4.4137724
60.233395
5.6795991
55.319819
9.798723
16.561853
13.181591
-24.434244
-33.700954
-1.0847535
-37.473435
0.46548517
-0.26307912
-41.216001
1.7773923
12.534959
3.4031781
42.911304
4.2358426
59.40073
6.1074896
53.448172
11.008483
11.66086
14.672237
-28.097998
-35.576136
-1.1581514
-36.792123
0.47683869
-0.45421958
-41.919933
1.6023745
10.478365
3.250962
41.262717
4.1960242
58.455668
6.7464835
50.897712
12.435175
5.9721682
16.326647
-31.98947
-37.569102
-1.2329679
-36.048591
0.489436
-0.60680909
-42.546092
1.5105405
8.3610153
3.1917802
39.581477
4.2828587
57.36459
7.6609585
47.519612
14.105115
-0.47198816
18.087772
-35.972126
-39.63926
-1.3035223
-35.243116
0.49804716
-0.72391464
-43.1257
1.470371
6.1667297
3.141818
37.91003
4.4457115
56.060696
8.7853315
43.179992
15.891582
-7.5782383
19.865991
-39.946535
-41.773424
-1.4085804
0.50866545
-34.343201
-0.88350604
-43.650774
1.3990767
3.8841469
3.026898
36.282209
4.7149016
54.372693
10.142483
37.752411
17.707925
-15.14368
21.582009
-43.820619
-43.947309
2.0695947
36.108586
-4.4699175
-33.708263
-3.0597018
-15.589982
20.719276
-8.7753171
-80.383155
86.098773
-8.913575
-83.20649
83.344748
-7.2774668
-67.082684
65.446576
-4.2494636
-48.670178
45.642175
-0.8993399
-36.326306
32.976182
1.824474
-25.184904
22.46109
-25.584706
27.40918
2.7899596
38.097985
-4.7793579
-1.8703833
-10.92964
-7.6191705
-74.634367
-8.6903665
-82.135294
-7.9237906
-67.84926
-5.4421047
-51.151864
-2.6547413
-39.113669
0.79723711
-28.636882
-24.787469
2.9914718
39.815765
-4.7092516
-1.6525207
-6.2856475
-7.1047057
-69.182181
-8.3547801
-80.88522
-7.4711526
-68.732887
-5.3803656
-53.242651
-3.4609641
-41.03307
-0.2184225
-31.879423
-25.005891
3.5025284
40.688769
-4.3755335
-0.76488652
-2.0182325
-6.0910616
-63.856006
-8.155586
-78.820695
-7.9189856
-68.969488
-5.907932
-55.253704
-3.8769801
-43.064022
-0.59756123
-35.158842
-25.603452
3.648107
40.501655
-3.4609922
-0.33585606
1.9657306
-5.4226597
-58.769202
-7.5057948
-76.73756
-7.3839936
-69.091289
-5.7710721
-56.866626
-4.028937
-44.806158
-1.352987
-37.834792
-26.956439
3.8326248
38.924709
-2.2556785
0.44869807
5.3496577
-4.3655693
-53.954935
-7.0892411
-74.013888
-7.5498862
-68.630644
-6.0716778
-58.344834
-4.1348676
-46.742968
-1.650532
-40.319128
-28.606971
3.8971247
35.799746
-0.7721612
0.95592191
8.2908599
-3.5864234
-49.412589
-6.1710172
-71.429294
-6.759029
-68.042632
-5.9916908
-59.112172
-4.5446775
-48.189981
-2.4546893
-42.409116
-31.061661
3.8328065
31.883243
0.083696309
1.6220613
10.501605
-2.3752085
-45.415318
-5.5125233
-68.291979
-6.632073
-66.923082
-5.8120581
-59.932187
-4.2260511
-49.775988
-2.4772834
-44.157884
-33.538944
3.583382
28.970498
-0.67063631
2.2510331
11.833953
-1.2708291
-41.893455
-4.2716463
-65.291162
-5.6305917
-65.564137
-5.5339731
-60.028806
-4.2604826
-51.049478
-2.6198632
-45.798503
-36.158807
0.20523238
39.500602
-39.705834
-0.081217397
45.208437
-44.921987
-0.69095378
47.58217
-46.972434
-1.7474047
52.189236
-51.132785
-3.1080267
54.15908
-52.798458
-4.4266366
54.460875
-53.142265
-4.4219159
46.537879
-46.542599
-1.4415415
10.004934
-12.985309
-17.968453
15.805424
0.72148672
0.2736466
39.226955
0.042709307
45.439374
-0.52289888
48.147778
-1.5828504
53.249188
-2.9688255
55.545055
-4.2987083
55.790758
-4.1910236
46.430195
-1.2513242
7.065235
-19.997765
0.77798856
0.29922497
38.92773
0.12251969
45.61608
-0.41945083
48.689749
-1.4467443
54.276481
-2.8462732
56.944584
-4.20376
57.148245
-3.9516665
46.178102
-1.0247929
4.1383614
-21.887653
0.86509478
0.36709627
38.560634
0.2285293
45.754647
-0.26213656
49.180415
-1.2893205
55.303665
-2.7095968
58.364861
-4.0479345
58.486582
-3.680448
45.810616
-0.83178349
1.2896969
-23.620859
0.90142254
0.3836591
38.176975
0.30405283
45.834253
-0.15984922
49.644317
-1.1545783
56.298394
-2.5828377
59.79312
-3.9515487
59.855293
-3.4196238
45.278691
-0.58350761
-1.5464188
-25.181475
0.97710793
0.46162537
37.71535
0.40015328
45.895725
-0.011375089
50.055845
-0.98780254
57.274822
-2.4296679
61.234986
-3.7786503
61.204276
-3.1221193
44.622161
-0.39891284
-4.2696261
-26.545344
0.96495602
0.47067491
37.244675
0.47356736
45.892833
0.090095858
50.439317
-0.851104
58.216022
-2.2950197
62.678902
-3.6794039
62.58866
-2.804203
43.746962
-0.14828352
-6.9255461
-27.588713
0.89508598
0.5443658
36.700309
0.55908122
45.878117
0.24430535
50.754093
-0.68324776
59.143575
-2.1231027
64.118757
-3.475187
63.940744
-2.5360725
42.807849
-0.012850683
-9.4487685
-28.642294
1.0407307
0.54150193
0.62111618
0.32573045
-0.55950018
-2.0048799
-3.3552982
-2.4409049
-0.055719891
0.27248329
2.9031559
11.782807
1.1194619
8.113038
-18.195191
8.2234178
-46.652979
6.2922307
-51.211078
4.1969615
-50.703189
2.3967518
-49.332576
1.2120131
-45.787695
0.3090409
-44.019015
-39.396793
3.9204132
7.332176
0.53021751
8.8237427
-23.09852
8.3643187
-46.193555
6.3365214
-49.18328
4.2986003
-48.665268
2.5526067
-47.586582
1.3442334
-44.579321
0.38304959
-43.057831
-39.013744
4.7382492
2.1593313
0.43459564
9.3961893
-27.75646
8.4482153
-45.245581
6.4273908
-47.162456
4.4418324
-46.67971
2.684532
-45.829282
1.4483935
-43.343183
0.44039998
-42.049838
-38.573344
6.3831451
-4.1053228
-0.11849105
9.8757946
-31.24911
8.4504744
-43.820261
6.4288762
-45.140858
4.5288426
-44.779676
2.8212221
-44.121661
1.579219
-42.10118
0.52574991
-40.996369
-38.047594
8.5355886
-12.243424
-0.39748763
9.9697527
-32.683274
8.3808505
-42.231358
6.468259
-43.228266
4.6307325
-42.94215
2.9423972
-42.433326
1.6744247
-40.833207
0.582569
-39.904513
-37.465025
9.3299649
-20.784297
-0.78909112
9.939182
-33.292491
8.3128293
-40.605006
6.4377301
-41.353167
4.7031663
-41.207586
3.0642844
-40.794444
1.7972065
-39.566129
0.67020891
-38.777515
-36.794816
9.7954231
-27.767717
-2.812004
9.9208036
-33.417872
8.2343701
-38.918572
6.4515625
-39.570359
4.7880871
-39.54411
3.1747107
-39.181067
1.8762459
-38.267665
0.71928565
-37.620555
-36.07553
10.215866
-29.912037
-8.0715458
9.8034954
-33.005501
8.1574928
-37.272569
6.4347207
-37.847587
4.8152584
-37.924648
3.258381
-37.62419
1.9796779
-36.988961
0.80208594
-36.442963
-35.273444
10.346778
-30.136418
-10.122397
9.6244332
-32.283156
8.0644386
-35.712575
6.4191684
-36.202317
4.8795925
-36.385072
3.3495014
-36.094099
2.0404629
-35.679923
0.8481592
-35.250659
-34.425285
0.32922256
39.336403
-39.665626
0.56266278
38.829934
-39.063374
0.76210401
38.599213
-38.798654
0.89683535
38.197088
-38.331819
0.92729372
37.617651
-37.648109
0.8674669
36.194297
-36.13447
0.73157438
34.166045
-34.030153
0.55239198
30.172228
-29.993046
25.382954
-25.330864
0.50030233
0.40140081
38.935003
0.69279698
38.538538
0.89275404
38.399256
1.0107229
38.079119
1.0475658
37.580808
0.9603248
36.281538
0.75003201
34.376338
0.51248835
30.409772
25.488468
0.40697417
0.45577735
38.479225
0.7744813
38.219834
1.0440938
38.129643
1.2297314
37.893481
1.287
37.52354
1.2351804
36.333358
1.0545941
34.556924
0.79533525
30.669031
25.714962
0.56884179
0.52900897
37.950216
0.90831957
37.840523
1.1820907
37.855872
1.3653038
37.710268
1.4435415
37.445302
1.3766597
36.400239
1.1441703
34.789414
0.81739428
30.995807
26.038975
0.4933805
0.5791952
37.371021
0.99742062
37.422298
1.3528831
37.50041
1.6053421
37.457809
1.7196764
37.330968
1.6962591
36.423657
1.5030568
34.982616
1.1688219
31.330042
26.551136
0.65666102
0.64243105
36.72859
1.1285948
36.936134
1.488491
37.140513
1.7548854
37.191415
1.8979896
37.187863
1.8681924
36.453454
1.6610738
35.189735
1.2938589
31.697257
27.267125
0.5778705
0.70370945
36.024881
1.2206009
36.419243
1.6667238
36.69439
1.994123
36.864015
2.2036413
36.978345
2.2283617
36.428733
2.0593069
35.35879
1.7867126
31.969851
28.258988
0.7948491
0.77127484
35.253606
1.3383536
35.852164
1.7995354
36.233209
2.1438532
36.519698
2.3881322
36.734066
2.4392682
36.377597
2.2499809
35.548077
2.02116
32.198672
29.327072
0.95307666
0.82832076
1.4298253
1.983111
2.4087099
2.7577041
2.9329842
2.7684865
2.6840019
1.8746559
-0.054912289
-25.496508
0.22055609
-0.052335172
-29.995623
-0.14594694
-33.936541
-0.22145112
-36.058966
-0.26669234
-37.602868
-0.27453002
-38.323981
-0.23813664
-38.835047
-0.14774581
-39.153765
-39.813372
-0.12236463
-25.669039
0.29489506
-0.10471629
-30.013272
-0.14485365
-33.896404
-0.18086791
-36.022952
-0.20604402
-37.577692
-0.17915414
-38.350871
-0.13798113
-38.87622
-0.090146182
-39.2016
-39.903518
-0.0062346737
-25.883843
0.22103941
0.044782579