/*--------------------------------*- C++ -*----------------------------------*\
  =========                 |
  \\      /  F ield         | OpenFOAM: The Open Source CFD Toolbox
   \\    /   O peration     | Website:  https://openfoam.org
    \\  /    A nd           | Version:  11
     \\/     M anipulation  |
\*---------------------------------------------------------------------------*/
FoamFile
{
    format      ascii;
    class       volScalarField;
    location    "0.2775";
    object      T;
}
// * * * * * * * * * * * * * * * * * * * * * * * * * * * * * * * * * * * * * //

dimensions      [0 0 0 1 0 0 0];

internalField   nonuniform List<scalar> 
880
(
500
500.0000001049402
500.006003907723
501.8080068206699
500.0000000000001
500.0000000623231
500.0101006540748
502.8965207663087
500.0000000000578
500.0000002508157
500.0222715467381
504.3553864150688
500.0000000021151
500.0000013773213
500.0538793821595
506.61687181064
499.9999999538795
500.0000000400813
499.9999996895629
500.0001033169354
500.0000188349742
500.0000195242134
500.0008431560433
500.0012990377204
500.1362234883915
500.2470745166941
500.4758910974333
500.4349714466589
511.6749247667714
517.4837078225747
522.4459528280262
524.7626323203204
500.0002185143058
500.0016372519552
500.003061483916
500.0160175245916
500.0138635928448
500.0410449346487
500.0901516409895
500.172786522853
501.5284860089776
502.5299142007451
503.6423575196737
505.0271831340714
527.1513774232332
530.2615614292698
531.3574062345881
531.1494051064842
521.6474603232742
517.2267790670337
515.7530794173641
514.2457080409391
508.4534808796567
509.8980131541327
510.9474716562929
511.2278680330377
500.5928429575062
501.0518284080404
501.5837530964989
502.0741018674269
500.0576943567758
500.1543749081593
500.3071959052582
500.5037897294409
500.7091498937904
500.8876407942223
500.9649024222634
500.9642328698268
502.4285877427939
502.6577021132011
502.7757566481436
502.8354401599265
511.0245614877774
510.4646501461638
509.7810433871952
509.0242975689443
513.0067550053608
511.829398043762
510.9241200078129
510.521187597329
508.7005114810887
508.1363172037042
502.9331195560579
500.8850379166913
510.6088241331009
507.0950738154841
502.7167596417779
500.7454862284725
529.6806039848149
507.4707195922996
502.1764173154132
500.5281915308692
583.0952033641877
512.4366038212853
502.114216536967
500.3450352414521
500.138331842194
502.13781355142
522.0912392330528
619.1141538675483
500.117416824844
502.3977216288415
532.159799877921
622.8668304750161
500.2350652900224
503.6597535378432
546.4974837017704
630.288533007375
500.5707945508692
506.5612468775494
561.1125587054929
632.8953952477076
632.52479085431
577.2626680817391
512.200370290041
501.282911536241
629.8340074255766
590.4740719992326
521.4005035097932
502.6980465359406
624.6852870251312
597.171834569612
532.6278146308377
505.0323760113595
616.4643288939176
599.6863628463599
543.7571207607646
508.6915255294779
513.7053116464974
548.5977560673655
588.5638538776707
605.3339102974245
514.8358447315394
540.4010868524609
571.0735146509775
589.3965431608864
513.9557540831097
531.7529986769392
552.571743175187
567.3080547209205
511.673944331188
522.0971557165282
532.5814216413866
538.1212198008841
511.1908371647292
516.2075716879481
518.069285817322
505.8259915583794
508.3389478617996
509.5909090204134
502.4991293207638
464.0946602377949
505.6529719415988
505.1780491173085
500.8542848550763
435.2129045346893
503.5974419570036
504.9826762116532
505.174717044382
448.315870078719
506.6883090320873
504.9747077448428
503.2799700783525
501.7826918021765
533.2769274635384
506.7826522071714
502.2296247741295
500.6710574949425
550.9436185274601
509.0372275870761
501.3496597540704
500.0925256558426
543.8855218466609
511.2386130934515
500.0825711218333
499.8156076078331
529.9035422149233
505.6367377542406
498.2482032119888
499.5583768953326
510.1400445841799
499.1498442786256
498.0468043344697
499.6885075665821
492.0697598696169
495.4975136404422
498.2702345914266
499.8705468717936
482.8459730367279
493.9529630957398
498.8049992359121
499.9448741743606
442.5891538860995
483.1014724907676
497.1870031673731
499.8148179522371
446.7818736444489
483.3938127805238
497.0496621603189
499.8161665265939
452.3780070310686
483.2099443177043
496.8831467553764
499.815656749562
460.4261155166737
483.7458886952316
496.7058963578402
499.8122827625167
482.8459730367748
493.9529630959441
498.8049992363787
499.9448741739589
492.0697598696532
495.4975136402213
498.2702345913065
499.8705468711866
510.1400445839768
499.1498442781339
498.0468043338292
499.6885075659511
529.9035422148571
505.6367377536212
498.2482032116707
499.5583768951315
501.7826918020428
503.2799700785143
504.9747077452749
506.688309031883
500.6710574948969
502.2296247741406
506.7826522072683
533.2769274635531
500.0925256561631
501.3496597541139
509.0372275860173
550.9436185273066
499.8156076080342
500.0825711222574
511.2386130926126
543.8855218465862
448.3158700788447
505.174717044846
504.9826762116404
503.5974419567353
435.2129045347205
500.8542848553039
505.1780491175808
505.6529719411521
464.0946602379319
502.4991293209071
509.5909090206694
508.3389478616702
505.8259915587259
518.0692858171818
516.2075716874867
511.1908371648292
513.7053116465304
548.5977560685795
588.5638538786526
605.3339102978169
514.8358447311167
540.4010868528834
571.0735146514392
589.3965431614137
513.9557540824436
531.752998677374
552.5717431753166
567.3080547212971
511.673944331098
522.0971557159711
532.5814216413229
538.1212198012886
616.4643288941132
599.6863628465497
543.757120760721
508.6915255304703
624.6852870254143
597.1718345695779
532.627814630791
505.0323760112179
629.8340074257904
590.4740719994081
521.4005035094797
502.6980465360716
632.5247908544785
577.2626680821751
512.2003702910414
501.2829115361263
500.1383318422348
502.1378135513932
522.0912392328282
619.1141538672039
500.1174168254954
502.3977216294477
532.1597998782157
622.866830474847
500.2350652908874
503.6597535388015
546.4974837020904
630.2885330076959
500.5707945510911
506.5612468766613
561.1125587052982
632.8953952478654
500.3450352412805
500.5281915307227
500.7454862288233
500.885037916782
502.1142165362781
502.1764173150341
502.7167596416451
502.933119555903
512.4366038210241
507.4707195923626
507.0950738149689
508.1363172034786
583.0952033637541
529.6806039847025
510.6088241331431
508.7005114812233
500.9642328701336
502.8354401602629
509.0242975694121
510.5211875976395
500.9649024221997
502.7757566485218
509.7810433876203
510.9241200078084
500.8876407943352
502.6577021134136
510.4646501461518
511.8293980433532
500.7091498935213
502.428587742591
511.0245614879934
513.0067550052225
500.0576943564534
500.5928429573431
508.4534808800387
521.6474603235446
500.1543749075038
501.0518284080043
509.8980131548536
517.2267790671489
500.3071959054686
501.5837530962652
510.947471656114
515.7530794165837
500.5037897291433
502.0741018672788
511.2278680334176
514.2457080404726
531.1494051064462
505.0271831341839
500.172786522844
500.0160175248805
531.3574062346094
503.6423575198151
500.0901516406295
500.0030614837458
530.2615614296936
502.5299142007626
500.0410449336882
500.0016372513887
527.1513774234591
501.5284860088246
500.0138635924434
500.0002185148653
524.7626323203594
500.4349714469333
500.0012990377078
500.0001033176324
522.4459528280614
500.4758910974675
500.0008431559433
499.9999996897258
517.4837078225963
500.2470745166045
500.0000195238912
500.0000000401536
511.6749247668054
500.1362234883129
500.000018834816
499.9999999540144
500.0000000000001
500.0000001053482
500.006003907723
501.8080068105656
500
500.0000000618472
500.0101006540564
502.8965207661719
500.0000000003521
500.0000002506042
500.0222715466992
504.3553864149563
500.0000000023732
500.0000013770577
500.0538793820831
506.616871810636
503.5272211269706
505.4912192798236
508.8019708483028
516.4657147254667
505.4912192801738
507.9712954188474
513.7291031370685
525.3604235028631
508.8019708493886
513.7291031367232
523.3268035700895
538.2751085402554
516.4657147252253
525.3604235028005
538.2751085412007
555.2266063537439
573.4027204566133
559.5181474665811
551.9191565628971
539.0197863792714
571.0642082539669
566.8371144078292
565.3620491393197
559.0874685984688
571.6548412302666
570.3335981568588
569.4566385149715
567.2010764488737
568.8935191680833
568.323318814967
568.0873244059384
566.9410559609757
564.5176898924165
563.5735597448215
559.7045802152423
554.1646011259888
564.79904243177
563.2669545373436
559.5777223837331
554.6907196940778
564.879811308983
563.4164842330232
559.6962368301846
555.2150976502663
565.1800700586764
563.2994208941974
559.8060279012554
551.0075986840761
513.7928118775354
494.9725253689529
492.7540041191664
493.8792533490798
503.1472764375392
490.7140238386343
493.0660995692531
494.4958996502162
492.564402298361
490.5676812069038
494.5962490868241
496.1687143838372
470.4234827826636
485.7716067028234
493.0681636566346
494.79553544397
494.7664007703041
495.9223532978256
497.1485371150958
498.5664317354754
495.2692231368548
496.363533082438
497.6944356423496
499.2522641984199
496.5693537650024
497.3525663632313
498.159690955286
500.010013752664
495.4809310554959
496.5540750439123
498.4429050186932
500.4528494450159
499.9410381163204
524.4785391643813
589.8473617752184
644.009770570248
501.1474101443901
535.5279565035926
602.9749491669505
641.940483580591
502.3251383440361
542.0427388495799
609.9756408690333
642.4636510232634
502.9570300076651
548.0751955377133
615.2802801575464
641.6112985778963
682.8505745915083
670.7029585700686
666.4994602220455
668.358160851487
691.301786931887
678.5771469894142
670.044480127055
672.0154657686872
698.752233775736
687.1615660820578
674.2985362965669
674.2577215858213
697.9364313289234
692.302534827484
676.6949586152355
675.521467937827
662.5737354658812
651.0245507622542
639.5188038842956
626.8398776713783
666.3527398676716
654.6612494167548
641.8088747132712
629.967545270079
669.4396861147786
658.4994867990183
645.0985523855026
632.6596414281483
671.3047257645492
660.6189967873241
652.0618580956068
636.7644105529806
615.9932576340764
604.2955441153977
588.9122302666423
568.2267653234034
616.918083675426
603.8222496515521
588.8593606514639
594.5001891738982
618.2489871887312
603.5310443318766
595.9553449771129
619.7246326533016
620.9910997750624
606.8888776100338
608.2084354003682
602.3416514866744
524.8180245021142
451.4951875278717
335.4283770167614
286.1670298199353
511.6814461652884
409.9926281107921
269.7502672643615
241.9083674480133
468.6881845534694
357.9256734850754
243.7220103930698
233.8206410937752
369.2635165583142
280.0222574019883
231.2272836727423
237.2626458350369
376.7599487981697
433.3078342291121
472.4084816157833
497.2752265092195
328.0879948649415
387.3063990966837
428.9063973982479
457.7154748262311
302.7283051328234
350.0160721950604
390.6929158982174
425.0233463414879
301.2738172222854
347.0197708574989
391.1769365294228
419.9631462446334
499.8373434066472
500.2275227819879
482.475015785987
466.7132123746294
460.2684883545634
481.2256140419303
480.1509772052043
472.9081298189545
424.5587885923724
454.4683268235496
472.4472175249563
494.6555357330596
402.5936462366641
432.6183590375614
458.3861277746694
524.6060076814466
460.2942951409793
456.2263386604047
455.9856402048067
450.4038146014474
456.6960932843853
466.3808979224329
474.5567992687668
469.828861785933
453.7323635228637
473.477071737157
481.7736473009829
471.0605718012337
442.7273699396305
461.3246418754783
463.8114752744008
452.4047712802791
432.6513676902578
417.7113890085059
411.2050301777753
409.8681420879569
454.2148360842482
436.5503468309631
424.3111488771748
420.4771117427974
463.5128517132858
454.9925423074203
443.5674525607238
437.3467037100616
445.0625135661344
443.2534099450185
444.6295297399196
445.3907157338166
409.8681420879328
420.4771117428031
437.3467037100904
445.3907157338949
411.2050301776704
424.3111488770871
443.5674525607262
444.6295297401175
417.7113890082822
436.5503468307854
454.992542307374
443.2534099452221
432.651367689969
454.2148360840562
463.5128517131804
445.062513566163
450.4038146012527
455.9856402045747
456.2263386601706
460.2942951407195
469.8288617857952
474.5567992686553
466.380897922348
456.6960932842454
471.060571801105
481.7736473009119
473.4770717370484
453.7323635227411
452.4047712800672
463.8114752742698
461.3246418754313
442.7273699395399
524.6060076812563
458.3861277747304
432.6183590377255
402.5936462371034
494.6555357329131
472.4472175249097
454.4683268235593
424.5587885927019
472.9081298188563
480.1509772051383
481.225614041833
460.2684883548606
466.7132123745241
482.4750157859286
500.227522781836
499.8373434066735
497.2752265093242
472.408481616096
433.3078342295277
376.7599487982425
457.7154748266157
428.9063973989102
387.30639909729
328.0879948652149
425.0233463419397
390.6929158989265
350.0160721957525
302.7283051332862
419.9631462450722
391.1769365300996
347.0197708583284
301.2738172229162
286.1670298195808
335.4283770153289
451.4951875280664
524.8180245025446
241.908367448091
269.7502672639058
409.9926281109425
511.681446165578
233.8206410941227
243.7220103928861
357.9256734855254
468.6881845539031
237.2626458355869
231.2272836726872
280.0222574025905
369.2635165588548
568.2267653238381
588.9122302669514
604.2955441157275
615.9932576345531
594.5001891743475
588.8593606517376
603.8222496517315
616.9180836757502
619.7246326537019
595.9553449772452
603.5310443318572
618.2489871888532
602.3416514870855
608.2084354003589
606.888877609895
620.9910997750069
626.8398776718401
639.5188038849002
651.0245507625284
662.5737354661411
629.9675452705255
641.8088747134005
654.6612494168719
666.3527398679665
632.6596414282773
645.098552384705
658.4994867991184
669.4396861151539
636.7644105531822
652.0618580959973
660.618996787426
671.3047257649229
668.3581608519067
666.4994602222117
670.7029585697647
682.8505745911232
672.0154657689957
670.0444801269708
678.5771469889328
691.3017869313686
674.2577215861363
674.2985362963221
687.1615660813387
698.7522337750667
675.5214679381299
676.694958614804
692.3025348267004
697.9364313281895
644.0097705698762
589.8473617748717
524.4785391645013
499.9410381165996
641.9404835802831
602.9749491666354
535.5279565036175
501.1474101446623
642.4636510228013
609.9756408688003
542.0427388495949
502.3251383442669
641.6112985774153
615.2802801573474
548.0751955376915
502.9570300078765
498.5664317358832
497.1485371150439
495.9223532973415
494.7664007701584
499.2522641987466
497.6944356421336
496.363533081887
495.2692231366759
500.0100137529796
498.1596909551159
497.352566362677
496.5693537647855
500.4528494453533
498.4429050184988
496.5540750433236
495.4809310553165
493.8792533485077
492.7540041186043
494.9725253691927
513.7928118778838
494.4958996494686
493.0660995686933
490.7140238389875
503.1472764377904
496.1687143829684
494.5962490863199
490.5676812073193
492.5644022985317
494.7955354430846
493.0681636560014
485.7716067031863
470.4234827827242
554.164601126217
559.7045802156002
563.5735597455387
564.5176898928481
554.6907196942243
559.5777223840913
563.266954538002
564.7990424321462
555.2150976503455
559.696236830516
563.4164842336083
564.8798113092822
551.0075986842492
559.8060279015923
563.2994208948004
565.1800700589492
566.9410559607926
567.2010764487331
559.0874685985035
539.019786379627
568.0873244057776
569.4566385148258
565.3620491391549
551.9191565628298
568.3233188148346
570.3335981566912
566.8371144074624
559.5181474661099
568.8935191679511
571.654841230089
571.0642082535417
573.4027204558192
482.4180399610601
492.2716061398665
498.5365316651487
499.9340185455425
475.7078796630964
488.2246097201573
497.792857899554
499.8922336064134
474.5840322309248
485.9950103553252
497.1726130777657
499.8490628251585
468.6011386289791
484.597362629286
496.8167350655842
499.8216126466957
499.8148179521596
497.1870031676681
483.1014724906373
442.5891538860409
499.8161665264415
497.0496621606575
483.3938127802519
446.7818736446702
499.815656749698
496.8831467555074
483.2099443174076
452.3780070313744
499.8122827626372
496.7058963577799
483.7458886950271
460.4261155166849
499.8216126465973
499.849062824844
499.8922336067182
499.9340185456846
496.8167350653256
497.1726130774971
497.792857899198
498.5365316653395
484.5973626293274
485.9950103554891
488.2246097205794
492.2716061402784
468.6011386287998
474.5840322307362
475.7078796628612
482.418039960939
)
;

boundaryField
{
    back
    {
        type            empty;
    }
    inlet
    {
        type            zeroGradient;
    }
    front
    {
        type            empty;
    }
    top
    {
        type            zeroGradient;
    }
    outlet
    {
        type            fixedValue;
        value           uniform 500;
    }
    bottom
    {
        type            zeroGradient;
    }
    wall
    {
        type            zeroGradient;
    }
}


// ************************************************************************* //
