/*--------------------------------*- C++ -*----------------------------------*\
  =========                 |
  \\      /  F ield         | OpenFOAM: The Open Source CFD Toolbox
   \\    /   O peration     | Website:  https://openfoam.org
    \\  /    A nd           | Version:  11
     \\/     M anipulation  |
\*---------------------------------------------------------------------------*/
FoamFile
{
    format      ascii;
    class       surfaceScalarField;
    location    "0.133";
    object      phi;
}
// * * * * * * * * * * * * * * * * * * * * * * * * * * * * * * * * * * * * * //

dimensions      [0 3 -1 0 0 0 0];

internalField   nonuniform List<scalar> 
1652
(
2.843686947071611
0.8895636090847481
0
1.954123337988149
0.8895636090834615
-2.220446049250313e-16
1.064559728910315
0.8895636089993375
-9.170442183403793e-14
0.8895541488454102
1.537481253421902e-11
0.1749975601689703
2.843686947076741
1.779127218162428
1.954123337998014
1.779127218162188
1.064559728963891
1.779127217598384
1.779060227968857
0.1750158139704803
2.843686947090741
2.668690827246526
1.954123338008367
2.668690827244562
1.064559729479604
2.668690822577358
2.668290603513811
0.1750812941660881
2.843686947092868
3.558254436328659
1.954123338013008
3.558254436324421
1.064559740470969
3.558254344960313
3.556786692701143
0.1752191312219062
4.418652025448567
2.872852967045247
5.279049614570448
2.872852967043177
6.139447203694609
2.872852967042487
2.872852967041761
6.999844792997854
4.418652025437513
2.012455377932159
5.279049614550987
2.012455377929711
6.13944720366296
2.01245537792921
2.012455377926334
6.999844792776676
4.418652166798497
1.15205858031928
5.279050974998253
1.152054970222091
6.138698037233727
1.152124042424286
1.152329190837575
6.998494938346933
4.438839242873946
0.2489856190678084
5.424914927837662
0.1102897052546489
6.458120128968384
0.04757789466165518
7.502282033869855
0.03050815631560899
6.941512765523448
0.0583318573557835
6.883177096778999
0.05833193708701601
6.824847203831782
0.0583214889028949
0.05832393021160909
6.766515273091306
6.941520987135942
0.1166458637330888
6.88323110607022
0.1166010512098878
6.82496655284258
0.1165037144836848
0.116486913134322
6.766702650199943
6.946246271672769
0.1666293874971287
6.896624629379447
0.1623933868271997
6.847906094360835
0.1588768695619998
0.1539909495778434
6.797774252454365
7.575567085048038
0.02126747458540745
7.639522410521319
0.01483354439125428
7.696193368596066
0.01416934737899317
7.760914830264255
0.0009834009454150472
7.815756269659101
0.0459094818179222
-0.1797390173914467
7.701094336312572
0.1017373309184219
-0.05650406074730147
7.585301208864091
0.08389254127816287
-0.01395991205396452
0.06508308918145816
7.476285146628043
-0.009006263425044236
6.820697792849067
0.000506668114933051
6.870954655153909
0.001885681719444698
6.896057997877233
0.003551225619256804
0.003836125630349074
6.897090908560107
6.766896126537572
2.366570217282593e-05
6.76755676852087
7.311975543899951e-05
6.768664626810654
0.0001749496639155135
0.0002297062578708875
6.76911963487141
6.766516480041631
6.76651840110106
6.766514628720398
6.766505302413664
6.766496476707261
-0.0002168135474389654
6.766495030870467
-0.0001720248187907503
6.76650350005612
-9.564200012934787e-05
-2.996331463767099e-05
6.766513275806288
6.769069492149969
-0.003465180451209582
6.768485902136717
-0.002699651792287705
6.767487377156485
-0.001673501751411788
-0.0006678865217041308
6.766727446726296
6.882438064000796
-0.04738645475427394
6.856689487971774
-0.03370906026385356
6.823384223290371
-0.02356134913219066
-0.01575074108369706
6.789801901482665
7.354221214473236
-0.005822288913734375
7.227527094497995
-0.003654636969059377
7.10233026049596
-0.003406716628571005
6.982110670161221
-0.003407632285612638
0.006337699309677869
6.875002430336833
-0.0009502147427159491
0.0001181020316315395
6.770950710852975
4.036977252930285e-06
6.766531511105843
6.766516407766568
0.001533236197292509
6.798784891135734
-0.002507075340714482
1.052143224256064e-05
6.766849211817974
3.158693751004193e-07
6.766516625946183
6.766516607467423
9.034119814038677e-05
6.777488073677524
-0.0006945179331970253
-1.622778000864855e-08
6.766587541458268
-1.807153392485716e-07
6.766515165852871
6.766516637632289
0.001862450070067745
6.863292459458965
-0.1447788447524322
8.93995359041444e-06
6.767260192030326
-8.168734328961591e-07
6.766512971912825
6.766513292010135
0.1555535331173746
6.610961381189767
0.3110803848787296
6.610982343568489
0.4563273609007821
6.617501191395132
6.955633865964447
0.1264608456973864
0.1555484682517656
6.455410320951208
0.3109192702949993
6.455466708593977
0.4345808441028142
6.471873365688052
6.897463396595955
0.1472051110699432
0.1555275733759426
6.299867451525383
0.3105659866613975
6.30010411182116
0.405821902710589
6.330347983392377
6.769003637138125
0.09862874418080481
0.1554802679710918
6.144321569058418
0.3099029704518068
6.144713886588542
0.3713135222928826
6.191251679809831
6.572541867432615
0.06878352782833741
-0.3236968687924325
6.392486259028136
0.02318535281514167
-0.3087789756820579
6.058450391000018
-0.1554086835622565
5.989709050413973
5.98878836277673
-0.2768533846897252
6.23196363798789
0.007657390543286957
-0.3071208517797103
5.929558179869388
-0.1552657276600805
5.834483425509612
5.833250894126684
-0.2252840958204034
6.046480552572035
-0.003514534119535839
-0.3051826958796809
5.785988394457284
-0.1551917408934529
5.679419533145128
5.677718905112091
-0.1700269849130458
5.773381995940373
0.003034721052984413
-0.3024300966364343
5.644165175124617
-0.1549223639275591
5.524579620035735
5.522215883416551
0.1985405648888355
5.322936837958008
0.386588135518445
5.325314649871452
0.2128433490262521
5.43789493669772
5.441701915349509
0.03151571301417877
0.1980195182713238
5.123761879900926
0.3804097237732567
5.127023093353045
0.1662259109889087
5.235671752102065
5.111017069932412
0.07359926669834937
0.1975297362937374
4.923761827160318
0.3775270447034651
4.927357802435944
0.2483159247411588
5.015214182560027
4.918488000012626
0.1883971633898348
0.1983158837068415
4.725732324499584
0.3854931951517671
4.729282871546683
0.3826483894001167
4.789149099367254
4.768239126484496
0.3715207707883822
-0.3389354968822427
5.061253302364425
-0.7181193744986267
5.07330957818693
-1.271110393962819
5.172198480663797
4.880874194580906
-1.435446284621438
-0.3401762808332637
5.396434717852837
-0.7199005195080093
5.417946651979422
-1.042935226325373
5.455185596441353
4.36207455558056
-0.4509795431943536
-0.33768079405899
5.731619497627916
-0.6750833282127864
5.740460511436847
-0.9379744988551366
5.72806883976001
3.753119360532202
-0.05851012918981178
-0.3353382024592825
6.066703147065394
-0.6642800177324931
6.065801580581119
-0.7956186473387639
5.917949322085378
3.379265021853852
-0.03783035286360081
0.345075449138213
3.266705261671745
-0.01376748263451637
0.3398140497087613
5.993063703076001
0.1748307637142753
6.236348726678149
6.241577738791323
0.3153209751756895
3.149721747612327
-0.006252100519419067
0.3374819788939249
6.067324536026613
0.1748198628056649
6.408559029219399
6.416492834033763
0.3188360483392622
3.018756537551017
2.011574387172921e-06
0.3381607719635279
6.190042108801517
0.1748746497902994
6.583183184850634
6.591490035338873
0.3011261248797663
2.853524041829405
0.01192741135332766
0.3373430082208778
6.310877924281927
0.1748786753446371
6.758628537191438
6.766491097459467
-0.1693734252751402
3.291607138374191
0.0755859538039186
-0.01080987817946166
6.491424323723473
-9.713148748224931e-05
6.764043110552592
6.766510017257562
-0.1121512823600618
3.904200392364555
0.102231836269823
-0.004100862293217267
6.639517964029001
-2.697452706645898e-05
6.765851256432963
6.766515241091124
-0.07435592288885107
4.608609419829598
0.115534106471038
-0.001669748507768798
6.725916139204255
-9.141782852717384e-06
6.766470160684901
6.766516511503039
-0.04861968011876727
0.1130467244004028
5.252692065696435
-0.0007243698315317904
6.731213042633533
-3.644718995943208e-06
6.76615892887781
6.76651653385311
1.020101178093825
-0.9244732032497796
-0.01413833324576689
-5.724221097125337e-11
1.97721448992376
-0.8681521827871586
-3.323563646517869e-12
2.858164884774475
-0.8746866138103466
3.732392173105836e-11
-0.8749775740626902
-3.69135833011569e-11
1.028454725443098
-1.801514884155235
-0.01671169328441745
1.977503843712271
-1.735352615279525
2.858165343525277
-1.749337427716174
-1.749954876398743
1.024893709195166
-2.576948753879668
-0.02948499575699456
1.977627691386342
-2.608089572957303
2.858165356504821
-2.62413532471204
-2.624932584202925
1.027932764426817
-0.04860445245221256
-3.324379445479433
1.97838072241002
-3.486180491955809
2.85817517507238
-3.499390669414159
-3.499916005620972
-0.04861968011816875
-4.608609419840876
0.1130467243993673
5.252692065705849
-0.0007243698422592093
-6.725916139214415
6.731213042637068
-3.644764626997699e-06
-6.766470160705798
6.766158928902321
-6.766516511551014
6.766516533942822
-0.07435592289394821
-3.90420039238805
0.1155341064733271
-0.001669748517428626
-6.63951796405359
-9.141764889086801e-06
-6.765851256458123
-6.766515241054141
-0.1121512823795078
-3.291607138369967
0.102231836268614
-0.004100862316618548
-6.491424323714535
-2.697452993172256e-05
-6.76404311056197
-6.766510017266367
-0.1693734252685063
-2.853524041813161
0.07558595380116317
-0.01080987816638856
-6.310877924268349
-9.713148362355817e-05
-6.758628537175482
-6.766491097459609
-0.1748307637133247
6.241577738821126
-6.066703147115935
-0.3398140496976835
6.236348726731446
-6.065801580617951
-0.3450754491313194
5.993063703031971
-5.917949322026125
3.266705261631478
-3.379265021809867
-0.01376748263452252
-0.1748198627816668
6.416492834053307
-0.3374819788720648
6.408559029254564
-0.3153209751719883
6.067324536012248
3.149721747584504
-0.006252100518821684
-0.1748746497811228
6.591490035347843
-0.3381607719428121
6.583183184858339
-0.3188360483324796
6.190042108796873
3.018756537535343
2.011574996227394e-06
-0.1748786753328782
-0.3373430081961093
-0.3011261248694571
0.01192741135198116
0.7956186473412353
-3.753119360493367
-0.03783035286382496
0.6642800177662866
-5.728068839730084
0.3353382024870473
-5.740460511476344
-5.73161949764642
0.9379744988609829
-4.362074555552836
-0.05851012918834536
0.6750833282338283
-5.455185596423019
0.3376807940662349
-5.417946652029435
-5.396434717900599
1.04293522633646
-4.880874194571422
-0.4509795431922582
0.7199005195303395
-5.172198480660836
0.340176280834197
-5.073309578226117
-5.061253302342934
1.271110393976769
-4.768239126483302
-1.435446284625091
0.7181193745196803
-4.789149099369345
0.3389354968814772
-4.729282871547963
-4.725732324476666
0.1985405648956838
5.322936837972517
-5.52221588344342
0.3865881355458634
5.325314649854142
-5.52457962013125
0.2128433490366762
5.437894936668216
-5.644165174997695
5.441701915334725
-5.773381995875423
0.03151571301708245
0.1980195182669413
5.123761879923875
0.3804097237701721
5.127023093329846
0.16622591100255
5.235671752068537
5.111017069929522
0.07359926669921313
0.1975297363006575
4.923761827332092
0.3775270447213754
4.927357802428557
0.2483159247443882
5.015214182545224
4.918488000010788
0.1883971633897057
0.1983158837189609
0.3854931951724661
0.3826483894029166
0.3715207707876131
-0.1700269848647648
-6.046480552545273
0.003034721059458012
-0.3024300966049618
-5.785988394390913
-0.154922363910613
-5.679419533108815
-5.677718905132757
-0.2252840958329646
-6.231963638013902
-0.00351453412211189
-0.3051826958739641
-5.929558180003863
-0.1551917408919257
-5.834483425645436
-5.833250894140437
-0.2768533847064646
-6.392486259038538
0.007657390547141651
-0.3071208517551008
-6.05845039098894
-0.1552657276439899
-5.989709050492205
-5.988788362785576
-0.3236968687556247
-6.572541867413285
0.02318535282483358
-0.3087789756740616
-6.191251679734355
-0.155408683556665
-6.144713886603411
-6.144321569068922
0.1555535331216996
6.610961381224755
-6.766513292045619
0.3110803848809978
6.610982343604644
-6.7665129719016
0.4563273609092374
6.617501191407698
-6.767260192038232
6.95563386597696
-6.863292459468485
0.1264608456935762
0.1555484682534894
6.455410320942413
0.3109192702968271
6.455466708597299
0.4345808440924202
6.471873365694853
6.897463396630442
0.1472051110837669
0.1555275733809377
6.299867451521854
0.3105659866705093
6.300104111815182
0.4058219027199499
6.33034798342008
6.769003637125048
0.09862874418117107
0.1554802679621924
0.3099029704324628
0.3713135222869768
0.06878352782593355
-6.766516637642803
8.168791244544948e-07
-6.766516607471218
1.807150238342103e-07
-6.766516407764454
-3.15869536859914e-07
-4.036973129895038e-06
-6.766513275799058
-6.766515165817227
-8.939951721353978e-06
-6.766516625952443
1.622505829690368e-08
-6.766531511119399
-1.052143025448427e-05
-0.0001181020283671508
-6.766727446729856
-6.766587541463679
-0.001862450070442445
-6.7668492118192
-9.03411964858214e-05
-6.770950710846036
-0.001533236197111543
-0.006337699314097667
-6.789801901462116
-6.777488073674729
-0.144778844748534
-6.798784891110975
-0.0006945179347607189
-6.875002430336661
-0.002507075342771004
-6.982110670160683
-0.000950214738043742
-2.996331968818655e-05
-6.766503500057828
-0.0006678865281078972
-6.767487377150658
-0.01575074108214586
-6.823384223305137
-7.102330260506594
-0.003407632283206452
-9.56420001190228e-05
-6.766495030866878
-0.001673501752692985
-6.76848590213762
-0.02356134911723201
-6.856689487971406
-7.227527094502962
-0.003406716625041828
-0.0001720248186671824
-6.766496476716104
-0.002699651792874458
-6.769069492143346
-0.03370906026721598
-6.882438064014768
-7.354221214477498
-0.003654636969624259
-0.000216813550687367
-6.766505302411708
-0.003465180460862083
-6.769119634883352
-0.04738645474645198
-6.897090908580834
-7.476285146632345
-0.005822288912462836
-2.366571493472858e-05
6.766516480033377
-6.766515273081204
-0.0005066681310923471
6.766896126520521
-6.766702650180418
-0.04590948183885163
6.820697792762934
-6.797774252387925
7.815756269686144
-7.760914830316632
-0.1797390173924285
-7.311975910462287e-05
6.766518401099663
-0.001885681722789356
6.7675567685215
-0.1017373309295558
6.870954655131951
7.701094336330999
-0.05650406075215042
-0.0001749496644561921
6.766514628717173
-0.003551225621036824
6.768664626821161
-0.08389254128861462
6.896057997896637
7.585301208874541
-0.01395991205579739
-0.0002297062643146219
-0.00383612564113156
-0.0650830891862002
-0.009006263427191741
-0.1539909495867305
-7.696193368643188
0.0009834009506873853
-0.1164869131495874
-6.847906094404458
-0.05832393021080695
-6.824966552839289
-6.824847203827085
-0.1588768695851537
-7.63952241056105
0.01416934737661391
-0.1165037144998176
-6.896624629616005
-0.05832148891318456
-6.883231106060931
-6.883177096580185
-0.1623933868633399
-7.575567085043822
0.01483354440127521
-0.1166010512308064
-6.946246271887472
-0.05833193707848972
-6.941520987149626
-6.941512765515532
-0.1666293874936453
-7.50228203381299
0.02126747458326206
-0.1166458637563184
-6.998494938391968
-0.05833185736199642
-6.999844792819796
-6.999844792993984
-1.15232919076694
-6.458120128938064
0.03050815632370774
-2.012455377911092
-6.138698037078553
-2.87285296704171
-6.139447203690914
-6.139447203691692
-1.152124042443092
-5.424914927810923
0.04757789468452689
-2.012455377916444
-5.279050974987888
-2.872852967042244
-5.279049614566454
-5.279049614567345
-1.152054970221892
-4.438839242875126
0.1102897052782441
-2.012455377921992
-4.418652166792031
-2.872852967044603
-4.418652025443836
-4.418652025446893
-1.152058580317055
-3.556786692631253
0.2489856189965421
-2.012455377927508
-3.55825434496339
-2.872852967046921
-3.558254436324422
-3.558254436328661
2.843686947076677
0.8895636090796828
1.954123337995112
0.889563609081564
1.064559728916199
0.8895636090004686
0.8895541488103025
0.1749975601267098
2.843686947077599
1.7791272181565
1.954123337999196
1.779127218159969
1.064559728965063
1.779127217600979
1.77906022798449
0.1750158137586396
2.843686947089469
2.668690827241873
1.95412333800662
2.668690827242819
1.064559729477738
2.668690822586615
2.668290603445839
0.1750812940545584
2.843686947088214
1.954123338006611
1.064559740464048
0.1752191311931258
0.1749966651456873
0.1749966650547895
0.1749928502292635
0.1750137690677883
0.1750028863084421
0.1750547965960978
0.175222737666839
0.1749247273719506
0.1750137693464102
0.1749928500679538
0.1750096736936478
0.1750096734367048
0.1749911618657982
0.1750402728367696
0.1744870094297034
0.1755403073503733
0.1750547965601844
0.1750028861844302
0.1750402726364029
0.174991161667189
0.1749861759606982
0.1749861764356136
0.1719175576698927
0.1769750737084574
0.1752227377578249
0.1749247272733783
0.1744870094379783
0.1755403073096845
0.1719175576980739
0.1769750739948981
0.1715322201002504
0.1715322202448709
-0.07296361162322224
0.2431515744843206
-0.135504451313105
0.2376800226287574
-0.2017860118625077
0.2398679652010851
0.2204236054320202
-0.01375236685253489
0.2557026075229876
-0.03322556215618244
0.2558992068677357
-0.06200573619951988
0.2666599528170427
0.2661553394278853
-0.007031605772456762
0.2611460553473656
-0.02000242681032305
0.266922696806414
-0.03175809283910425
0.2765384601526734
0.2799750546803722
-0.005382740472780423
0.2652551709029687
-0.0154212130155974
0.2762623786138985
-0.0229610075799207
0.2833313373382739
0.2859238316338207
0.288432047234539
0.01776552243038343
0.2901896299015712
0.01265278443903356
0.2927730842932392
0.01157684842754425
0.0005872141247635909
0.2941694671533547
0.2884000050424453
0.01163114350458289
0.2912791187071578
0.009812486337990922
0.2951678576304955
0.008470502387743328
-0.005230797774158913
0.3028252824403159
0.2849631036895963
0.001975977345516688
0.2905060220562348
0.004112701937143248
0.2954149684367167
0.004327182489861303
-0.03054219102928052
0.3226491939801134
0.2664017945507597
0.2703879250016561
0.2752236662147513
0.2482708930267938
0.2725373391541413
-0.1569405212743609
0.2472146999292621
-0.02737125840947063
0.2418059371882743
-0.004613916720268341
-0.00669450120514864
0.2436955323535942
0.2663425739215007
-0.1195499624231797
0.2485379981657105
-0.005939797334970631
0.246776974675608
0.0005793472743845784
-0.004146862844404409
0.2484659723175655
0.2722502650070201
-0.06764855196042674
0.2572438073580417
0.01016522780153939
0.2539397934689782
0.007758284194417431
0.001838645491172242
0.2522307262982522
0.1814459589161012
0.1914367388620506
0.2026897817678455
0.2088899451151122
0.24434419379929
-0.004552878408391581
0.2437568753327192
-0.002035195391877853
0.2420958058861048
-0.001694654114123728
-0.001876882875105235
0.2409209060757417
0.2475874008319479
-0.001236390524009756
0.2452497512722989
0.001518415098936576
0.2433099254699003
0.001203694798327715
0.0004126742508909209
0.242401859619275
0.2495976718970768
0.003840137612024286
0.2468280061194577
0.005563883064075681
0.2450671922321487
0.004714072853787721
0.002917333950816836
0.2440734472766865
0.2153088123351195
0.2219668647557098
0.2281100589197869
0.2333208013350737
0.2400111139279819
-0.0006573766657587132
0.2367158480253842
-0.001360645070981881
0.2348300284503131
-0.0006781759321301539
-0.1635056073794391
0.24510755218462
0.2408315988608203
0.0002567589858830099
0.2373573661529875
0.00025833272283321
0.2355283925115861
-0.001302977457020738
-0.1531852456703159
0.2151094266674472
0.2420898088381803
0.001724335643678854
0.2384971871809387
0.001961254429151682
0.2352725604038211
-0.001547125761338308
-0.1021030205716324
0.1742441791432119
0.2343933133922309
0.2341538971991496
0.2282926649504558
0.1159843326362022
0.2682398819521776
0.09358248655445456
0.2720756923299638
0.1354333720665131
0.2762780093916322
0.08632531792606279
0.05718510914656116
0.27865876796698
0.2448865408579602
0.05754549180187085
0.2676008641178228
0.1079243172422034
0.2769446603429407
0.07213137373479428
0.04555090808157647
0.2815146186566468
0.1990551518833464
0.02676767323091445
0.2415780620733725
0.05928206413223125
0.2695460500075728
0.04107389762708902
0.02867709731716861
0.2806573095413316
0.1386948159280446
0.1935884464713168
0.231483219655298
0.2547982864481923
0.2778799532728104
0.01873574547215195
0.2815962697510808
0.004470642055905416
0.2879455430642718
-0.004667426897104199
0.0007484708224440029
0.2970631047592153
0.2813889843970633
0.01538331904291845
0.2841897111498251
0.003974647470624482
0.2892132330951176
-0.003376975280229177
-0.001013404088870296
0.2987908834579086
0.2818611956575113
0.01129102618592381
0.2858623530376018
0.003223128059130054
0.2914013257947462
-0.001449230235988863
-0.000258528584666351
0.3005371628009578
0.2626172879047132
0.2689269344409463
0.2748090029643647
0.2849608128591185
0.3086071611859841
0.02437975612127063
0.3257986817140652
0.05891951384056582
0.3593965775264712
0.1548483054357512
0.3047040221316371
0.4269023038827154
0.3123634675285538
0.01607566231693847
0.3287943851703892
0.04453837618412304
0.3584716005987231
0.1266217686288813
0.2000736627580498
0.4634240283807306
0.3128889379138126
0.01088868314533453
0.3300903193220884
0.03057758344035388
0.3686967463833341
0.09007068018571829
0.04762734753925046
0.5246873092382042
0.3030553519785241
0.3375301412277136
0.4304508645870851
0.4824816731748954
0.219754840498817
-1.220807250558012
0.02320878766453968
-0.2507563889556804
0.003189236994254795
-0.0319086989193153
-0.02703136439716231
0.0002102702961665048
0.1539483619989926
-0.9070805553799209
0.01236076191986096
-0.1069127240142562
0.002533416658005114
-0.01611070692713252
-0.01504991614908888
-0.002358378495803618
0.07665518086824435
-0.4565349322231096
0.004581854527314979
-0.03287063034611
-0.001745911971839743
-0.004581872163615344
-0.007222426992575789
-0.002338120952405775
0.02809975619050791
-0.00218347775854563
-0.001071770200817139
-0.00147948003939403
0.001749606634956899
-0.01146316930866095
0.001340859829123109
-0.003342281933077978
-0.000527495845367501
0.00288201122905455
0.006780135016381958
0.004246091685376475
-0.002258412936002596
-0.007965196569990451
-0.003154573316775966
-0.0009130519958890082
-0.003537946267195519
0.002177062436974651
0.004957525350303624
-0.004546109072628032
-0.003033759505368064
-0.003856763945467669
-0.004267397197345599
-0.0001277403290003004
-0.005699224179822226
0.001523540077050953
0.003930100340028227
-0.008533295861930783
-0.002091369720462999
-0.005889272645738654
-0.008575645930202496
-0.008709436490822873
0.04811470385192915
0.03491335083225873
0.09254655146861843
0.06919353350532755
0.1345675304345965
0.09028929485686978
0.1018485039437364
0.1686432637900009
0.02217382595699438
0.01058085535563098
0.06554419064585668
0.03571871571103188
0.1104401820958402
0.06090297893575992
0.07923464609829628
0.1546474302776503
0.004227106291929204
-0.0002026143187936619
0.03942893816100523
0.009472057741903142
0.08510763698491329
0.03078225419874828
0.05176476414422648
0.1336185612390093
-0.008880048784801742
0.006941427364668962
0.05009754855077533
0.1162270925128358
0.13487863344232
-0.1549974547741307
0.2025399238342622
0.1040369939772449
-0.1064630599253638
0.1505437312142654
0.08137075125619397
-0.07450708201605426
0.09076718069360765
-0.06828066107098874
0.05384056033393594
0.09349969506239827
0.1186446426436087
-0.1096690827359022
0.09100124330292809
-0.06734261274480001
0.05481838038137851
-0.05391154825355545
-0.03483010128771828
0.01614129988291928
0.09659622642240623
-0.06555881764151171
0.05464624650856907
-0.03272609797623349
0.01174300359231566
-0.0241532099918688
-0.01030519854252018
-0.01116352848885198
0.05294119923990705
0.003486111925599597
-0.02147855425605358
-0.02855789526285008
-0.02261919263406241
0.001683651827505801
-0.01408660335079059
-0.002516342389735859
-0.00735137460303522
-0.004740966000900933
-0.006212795426373039
-2.626371342628886e-14
-0.01129462580387347
0.00940201086605154
-0.008235699215108996
-0.0006862036145803361
-0.003899321175916352
-0.00704029007413568
-0.009294768970731601
4.964778588245622e-14
0.008513839477666447
0.02593755184062335
0.00431765318447546
0.00979041645464628
0.001639426369025566
-0.0003481622697911642
-0.003315331809582732
1.080663336594512e-13
0.0339372355433001
0.01853061822733375
0.008463888662722067
3.435099427129273e-13
-0.006212795426392128
0.007351374602987015
-0.009294768970737511
0.003899321175976193
-0.003315331809608333
-0.001639426368770118
-0.008463888661773063
0.01413833324554907
-0.004740966000910053
0.01408660335077686
-0.007040290074143208
0.008235699215112319
-0.0003481622697951749
-0.004317653184127059
-0.01853061822643182
0.01671169328463442
-0.002516342389767074
0.02261919263403067
-0.0006862036145966668
0.01129462580390754
0.009790416454606536
-0.008513839477327884
-0.03393723554238136
0.02948499575691118
0.001683651827479787
0.02855789526286355
0.009402010866018518
0.01116352848892792
0.02593755184054196
-0.0161412998825401
-0.05384056033333527
0.04860445245209785
-0.0813707512558548
-0.06828066107084942
0.09349969506249166
-0.1040369939768449
-0.07450708201600449
0.09076718069364155
-0.1348786334418728
-0.1064630599252934
0.1505437312141528
-0.1549974547739475
-0.1686432637897443
0.2025399238341076
-0.0548183803809932
-0.03483010128760681
-0.091001243302635
-0.05391154825353081
-0.1186446426433283
-0.06734261274468376
-0.1096690827357887
-0.1546474302773734
-0.01174300359217945
-0.01030519854248598
-0.05464624650837173
-0.02415320999182614
-0.09659622642223988
-0.03272609797620341
-0.06555881764142979
-0.1336185612387837
0.02147855425615684
-0.003486111925530229
-0.05294119923972769
-0.1162270925125802
-0.05009754855051476
-0.05176476414413098
-0.006941427364345214
-0.03078225419872271
0.008880048784687223
-0.009472057741361284
0.0002026143188735979
0.008709436490610966
-0.08510763698481047
-0.0792346460980361
-0.03942893816022391
-0.06090297893635052
-0.00422710629156723
-0.03571871570987034
-0.01058085535492329
0.008533295861705013
-0.1104401820959556
-0.1018485039430497
-0.06554419064500644
-0.09028929485861632
-0.02217382595609567
-0.06919353350391756
-0.03491335083039024
0.004546109072441133
-0.1345675304344761
-0.09254655146794853
-0.04811470385087357
-0.004246091685036743
0.0005274958449486937
0.006780135015706845
-0.001340859828978165
0.002882011229194265
-0.001749606634682399
-0.003342281932621538
-0.01146316930860541
-0.0002102702960435909
0.003537946266903907
0.004957525349886721
0.003154573316863333
0.002177062436929042
0.00225841293628213
-0.0009130519954956492
-0.007965196569890483
0.00235837849604436
0.005699224179587896
0.003930100339878458
0.004267397197339812
0.001523540077005302
0.003033759505736233
-0.0001277403288295273
-0.003856763945397065
0.002338120952694528
0.00857564592994051
0.005889272645668991
0.00209136972073957
0.00147948003961001
-0.003189236994374592
-0.02703136439737996
-0.02320878766368292
-0.03190869891876222
-0.2197548404970861
-0.2507563889542254
-1.220807250560114
-0.4269023038818411
-0.002533416657998825
-0.01504991614912403
-0.01236076191950004
-0.01611070692683044
-0.1539483619978971
-0.1069127240134777
-0.9070805553812784
-0.4634240283803868
0.00174591197184755
-0.007222426992498011
-0.004581854527127966
-0.004581872163474072
-0.07665518086753823
-0.03287063034580268
-0.4565349322238713
-0.5246873092383779
0.00107177020095028
0.00218347775859403
-0.02809975619027064
-0.4824816731755306
-0.3593965775254323
0.3047040221310418
-0.3257986817132438
0.1548483054355301
-0.3086071611858034
0.0589195138411085
0.02437975612405197
-0.2970631047586642
-0.3584716005984631
0.2000736627570969
-0.3287943851702314
0.126621768626899
-0.3123634675288072
0.04453837618495282
0.01607566231990853
-0.2987908834579852
-0.3686967463840718
0.04762734753810238
-0.3300903193223674
0.09007068018369246
-0.3128889379143029
0.03057758344182449
0.01088868314723035
-0.3005371628011756
-0.4304508645888792
-0.3375301412310595
-0.303055351981173
-0.2849608128608788
-0.2879455430653897
0.0007484708291093378
-0.281596269753089
-0.004667426899671145
-0.2778799532736725
0.00447064205804093
0.01873574548144408
-0.2786587679650433
-0.289213233096302
-0.001013404083073599
-0.2841897111524958
-0.003376975281957906
-0.2813889843991058
0.003974647472637871
0.01538331905112422
-0.2815146186556156
-0.2914013257960922
-0.0002585285810116078
-0.2858623530404577
-0.001449230237182797
-0.2818611956599145
0.00322312806084124
0.01129102619290867
-0.280657309540955
-0.2748090029659935
-0.2689269344454206
-0.2626172879078932
-0.2547982864427665
-0.2762780093894868
0.05718510914548858
-0.2720756923318479
0.08632531792788312
-0.2682398819536503
0.1354333720823646
0.09358248654997425
-0.2451075521859417
-0.2769446603404644
0.04555090808146789
-0.2676008641195264
0.07213137373804202
-0.2448865408545161
0.1079243172536946
0.05754549179800073
-0.2151094266676233
-0.2695460500048478
0.02867709731616519
-0.2415780620727324
0.04107389762856128
-0.1990551518778987
0.059282064138792
0.0267676732246428
-0.1742441791405568
-0.2314832196500268
-0.1935884464699613
-0.1386948159208426
-0.1159843326376581
-0.234830028450086
-0.1635056073784575
-0.2367158480245584
-0.0006781759378079455
-0.2400111139288589
-0.001360645072039313
-0.0006573766608158338
-0.2409209060770792
-0.2355283925111855
-0.1531852456730511
-0.2373573661532644
-0.001302977467266597
-0.2408315988605609
0.0002583327240832101
0.000256758989867989
-0.2424018596209473
-0.2352725604027259
-0.1021030205717949
-0.2384971871818488
-0.001547125768669888
-0.2420898088373123
0.001961254432562121
0.001724335645142461
-0.2440734472775531
-0.2282926649496553
-0.2341538972018175
-0.2343933133896164
-0.2333208013366617
-0.2420958058867909
-0.001876882872703545
-0.2437568753329274
-0.001694654111403904
-0.244344193799645
-0.002035195392549927
-0.004552878407784289
-0.2436955323531371
-0.2433099254706629
0.0004126742511780801
-0.2452497512725884
0.001203694800378075
-0.247587400832209
0.001518415098133941
-0.001236390523908504
-0.2484659723171408
-0.2450671922323386
0.002917333949597478
-0.2468280061195168
0.00471407285518799
-0.2495976718970832
0.005563883063643582
0.003840137611900329
-0.2522307262979848