/*--------------------------------*- C++ -*----------------------------------*\
  =========                 |
  \\      /  F ield         | OpenFOAM: The Open Source CFD Toolbox
   \\    /   O peration     | Website:  https://openfoam.org
    \\  /    A nd           | Version:  11
     \\/     M anipulation  |
\*---------------------------------------------------------------------------*/
FoamFile
{
    format      ascii;
    class       volVectorField;
    location    "4.4";
    object      U;
}
// * * * * * * * * * * * * * * * * * * * * * * * * * * * * * * * * * * * * * //

dimensions      [0 1 -1 0 0 0 0];

internalField   nonuniform List<vector> 
4455
(
(99.99091 0.50235016 0)
(99.960794 1.3987674 -1.7346594e-18)
(99.681953 2.4198475 5.9625152e-18)
(99.459085 3.3285093 2.7159896e-20)
(98.949135 4.2984441 5.5946105e-18)
(98.493683 5.2483315 -2.1226812e-17)
(97.614309 6.2675635 9.4724928e-18)
(96.51739 7.258263 0)
(94.552296 9.1768307 -5.8306614e-17)
(100.01677 0.5616518 -1.1095931e-17)
(100.01831 1.4958879 1.0850552e-17)
(99.712392 2.5835952 -1.3401573e-17)
(99.521655 3.5186855 2.2435975e-17)
(99.063731 4.5707101 -4.3223723e-17)
(98.560849 5.4590681 4.7288665e-17)
(97.655304 6.4697257 -4.5513655e-18)
(96.472605 7.4536283 6.6397653e-18)
(94.284783 8.9004286 2.5294421e-16)
(100.08515 0.57713819 -1.1354601e-17)
(100.03538 1.5876151 1.4472253e-17)
(99.775646 2.7035357 1.3132927e-17)
(99.573222 3.714644 -1.3106275e-17)
(99.138093 4.8131153 5.7213814e-17)
(98.655132 5.7556225 -3.2524105e-17)
(97.746368 6.8351357 4.1666115e-18)
(96.47798 7.834892 -9.3163119e-17)
(94.132718 9.1245036 -1.7936097e-16)
(100.14123 0.59283461 2.8753737e-19)
(100.06931 1.6506693 -1.8745125e-18)
(99.826286 2.8182299 3.058293e-17)
(99.638044 3.854986 4.2258338e-18)
(99.240829 5.0657108 -2.9460819e-19)
(98.837652 6.0576223 -6.1693775e-18)
(97.845832 7.2933154 6.8724249e-17)
(96.491574 8.4074813 1.8588776e-16)
(94.000852 9.7606119 1.4924635e-16)
(100.18846 0.59955259 2.1965853e-17)
(100.09569 1.6817776 -2.4733121e-17)
(99.889261 2.8948023 3.1133871e-17)
(99.733201 3.990924 3.7093353e-20)
(99.380231 5.3066156 -3.8789023e-17)
(98.943319 6.222767 -1.190804e-17)
(98.092883 7.6187074 -5.4196109e-17)
(96.533824 8.7885445 -8.7128004e-17)
(93.792214 10.194218 -4.3974193e-16)
(100.21667 0.58886021 0)
(100.14279 1.6971508 0)
(99.933344 2.9453162 -5.4676465e-17)
(99.841641 4.0842129 -6.2667988e-17)
(99.55417 5.5048467 0)
(99.146643 6.5618654 -8.5071403e-17)
(98.204912 8.0178587 -7.2669058e-18)
(96.616212 9.3267716 -5.2568357e-18)
(93.618763 10.709093 5.420992e-16)
(100.24652 0.58118051 0)
(100.16665 1.6690994 -1.4573869e-18)
(100.01739 2.9736265 1.6403561e-18)
(99.921437 4.1395142 6.1251726e-17)
(99.708688 5.6138865 -4.5251207e-18)
(99.339225 6.641336 1.8052383e-16)
(98.52872 8.2983552 0)
(96.717789 9.8481067 0)
(93.416514 11.09926 2.4745646e-16)
(100.27023 0.54970581 3.9850084e-17)
(100.19278 1.6359413 0)
(100.07885 2.975659 0)
(100.08933 4.2256778 0)
(99.898012 5.7997234 0)
(99.517759 6.931738 -8.977828e-17)
(98.689367 8.5968291 -9.614679e-17)
(96.925619 10.366229 1.3920813e-16)
(93.330107 11.756088 3.9785927e-19)
(100.28122 0.52586438 -3.923605e-17)
(100.22866 1.5540731 -1.377957e-18)
(100.12489 2.9138303 -1.5788403e-18)
(100.16269 4.1666684 3.5524801e-18)
(100.09932 5.8008284 1.3750662e-16)
(99.768123 6.9676631 1.5582829e-16)
(99.029002 8.8076813 3.0474668e-16)
(97.119483 10.9465 -1.3664332e-16)
(93.149048 12.147197 -4.2362793e-16)
(100.28896 0.48497464 0)
(100.28558 0.45411838 7.116149e-17)
(100.27937 0.39971436 -7.059535e-17)
(100.25496 0.35621877 6.6824104e-17)
(100.23676 0.30204661 -6.5324587e-17)
(100.20337 0.24232125 1.2935167e-16)
(100.16034 0.1971635 -1.2557281e-16)
(100.12839 0.1236806 0)
(100.04468 0.057566417 0)
(100.25605 1.510773 0)
(100.29048 1.4113884 1.243115e-18)
(100.31721 1.3361778 0)
(100.34422 1.2005261 3.5064526e-18)
(100.36255 1.1021362 7.0884897e-17)
(100.38385 0.95663571 -2.1102367e-16)
(100.38541 0.81687493 1.363792e-16)
(100.41598 0.71414733 -2.0686493e-18)
(100.34613 0.44897765 1.3007391e-16)
(100.21759 2.9051381 9.1747178e-17)
(100.28038 2.8439191 -1.8010995e-16)
(100.3691 2.7617825 1.7067736e-16)
(100.4458 2.6536931 -5.8831956e-18)
(100.48655 2.4948876 -7.9697702e-17)
(100.60471 2.3806633 -2.405054e-18)
(100.59514 2.1538823 0)
(100.76058 2.0203415 4.4812509e-18)
(100.71779 1.6229627 -2.1660781e-18)
(100.30219 4.2009616 9.6274528e-17)
(100.46012 4.2195812 -1.9490729e-16)
(100.55745 4.1451786 1.8395993e-16)
(100.76476 4.110708 -8.8818809e-17)
(100.81999 3.93705 -5.5063928e-18)
(101.04827 3.8539007 2.6280355e-18)
(101.06747 3.6238806 0)
(101.31946 3.4852719 -2.4433923e-18)
(101.27414 3.05188 1.4620101e-16)
(100.25864 5.903799 -1.1045721e-16)
(100.55351 6.0311122 0)
(100.70372 6.0219336 -9.9593874e-17)
(101.00456 6.0840942 1.0270485e-16)
(101.14442 5.9853272 -9.1278444e-17)
(101.45096 5.9844786 9.433434e-17)
(101.57545 5.8314393 0)
(101.94119 5.7768758 0)
(101.97086 5.4533232 5.1875803e-18)
(99.932926 7.1486008 -1.3594203e-16)
(100.30789 7.4061701 -1.2767039e-16)
(100.5032 7.4743603 1.227182e-16)
(100.89394 7.6377856 1.1555162e-16)
(101.10368 7.6007308 -1.1139451e-16)
(101.49085 7.6985148 0)
(101.69511 7.5477052 2.0109062e-16)
(102.11552 7.6030516 -2.0339881e-18)
(102.24903 7.2812194 -3.7078591e-16)
(99.255542 9.0091155 -1.6102366e-16)
(99.699159 9.503993 0)
(100.06217 9.5887272 0)
(100.49936 10.059101 4.2442357e-18)
(100.89281 10.073235 0)
(101.35241 10.515951 0)
(101.74078 10.434161 0)
(102.26854 10.82474 0)
(102.58738 10.564586 0)
(97.413877 11.414152 6.4134247e-18)
(97.745049 12.615189 0)
(98.122003 12.947136 5.5302209e-18)
(98.601742 13.503853 -1.0048194e-17)
(99.126016 13.345795 -1.4783725e-16)
(99.713566 13.639085 -1.369912e-16)
(100.27547 13.395214 2.6627556e-16)
(100.91739 13.675966 2.5156634e-16)
(101.49792 13.38585 -2.3809674e-16)
(93.486573 12.892271 7.8100274e-16)
(94.825354 13.102792 -4.9165546e-16)
(97.019634 13.217701 4.2076429e-16)
(98.86172 14.493151 -4.1056342e-16)
(100.29804 15.099012 -5.510115e-16)
(101.35638 16.580082 1.0150557e-15)
(102.29555 17.122425 -6.3656745e-16)
(103.0897 18.569543 -2.91435e-16)
(103.6274 18.758312 2.7437863e-16)
(100.08716 0.099779401 -1.7117662e-19)
(100.14068 0.13406828 1.7512102e-16)
(100.22934 0.18158412 -2.726552e-19)
(100.35003 0.23585659 -1.7619499e-16)
(100.49765 0.29288775 1.7151159e-19)
(100.67384 0.35143867 1.7618429e-16)
(100.87903 0.4116205 -1.7703984e-16)
(101.11427 0.47312149 -1.7124787e-19)
(101.40306 0.55474038 -8.8146762e-17)
(100.40573 0.56581227 -1.8669787e-16)
(100.57997 0.66094156 1.8747755e-16)
(100.70982 0.73662238 -1.8754533e-16)
(100.94715 0.94953462 0)
(101.19552 0.95427184 1.8735831e-16)
(101.44232 1.2207767 -6.041844e-19)
(101.75468 1.1733847 -5.2166846e-19)
(102.0836 1.4479457 -1.869436e-16)
(102.39614 1.3816287 9.3093831e-17)
(100.9711 1.7464646 1.9876011e-16)
(101.08567 2.081119 -1.9950897e-16)
(101.41477 2.1434437 -1.9955038e-16)
(101.55964 2.4884355 2.0003239e-16)
(101.91387 2.5302266 -2.0010296e-16)
(102.09397 2.8939601 1.9940952e-16)
(102.49518 2.9143376 -1.9950192e-16)
(102.73182 3.3128351 9.4693627e-19)
(103.18393 3.2947622 1.9877034e-16)
(101.59296 3.1944955 -2.1372042e-16)
(101.73328 3.5962822 -8.3555379e-19)
(102.10613 3.6793213 8.3670628e-19)
(102.28104 4.0945879 0)
(102.68116 4.1483698 4.9504e-22)
(102.88501 4.5629291 -2.1179061e-16)
(103.32491 4.5886314 2.1527815e-16)
(103.57364 5.0237646 8.2800063e-19)
(104.05272 5.0084058 8.2508678e-19)
(102.36281 5.6276923 -9.0134877e-19)
(102.53528 6.0791065 -2.3014572e-16)
(102.91656 6.1766414 5.0190379e-19)
(103.07552 6.5857821 2.3105959e-16)
(103.47441 6.6495433 2.3007475e-16)
(103.65914 7.0586757 -2.3124179e-16)
(104.09231 7.0969676 -8.9528395e-19)
(104.32649 7.5322118 -8.9274307e-19)
(104.79999 7.5290205 -8.9020552e-19)
(102.66832 7.4536026 2.5278568e-16)
(102.84995 7.9430543 0)
(103.25945 8.0503428 0)
(103.42691 8.4920795 2.4846352e-16)
(103.85264 8.5746264 -2.5179018e-16)
(104.04148 8.9902855 -2.4897083e-16)
(104.51043 9.0592871 4.9648547e-16)
(104.7263 9.4515404 -2.3781573e-18)
(105.22632 9.5072292 -4.9263672e-16)
(103.05557 10.942763 -1.0787428e-18)
(103.30448 11.347056 0)
(103.70123 11.598264 1.0660291e-18)
(103.94318 11.871876 2.7343667e-16)
(104.33615 12.022776 -2.7504402e-16)
(104.60981 12.243191 2.7125096e-16)
(105.03915 12.351452 -2.7182981e-16)
(105.36248 12.552555 -1.0341781e-18)
(105.80177 12.604369 2.6624665e-16)
(102.10882 13.692186 -2.9963469e-16)
(102.55058 13.850515 3.0356081e-16)
(103.15693 14.126408 -2.9831694e-16)
(103.70478 14.302074 2.9680519e-16)
(104.30015 14.443672 -2.8902009e-16)
(104.82518 14.579242 2.9423692e-18)
(105.33706 14.543115 2.9005469e-16)
(105.83142 14.596975 2.2292988e-18)
(106.33113 14.438037 1.4088526e-16)
(104.37008 19.58993 0)
(104.91114 19.709985 -3.2324299e-16)
(105.58532 20.267966 6.5770325e-18)
(106.01226 20.077319 7.4359313e-18)
(106.65219 20.309246 6.2635652e-16)
(107.22004 19.851553 -3.1111515e-16)
(107.94431 19.645274 -3.0202021e-16)
(108.66973 18.690497 3.0333379e-16)
(109.36004 17.580301 1.4902863e-16)
(109.95411 16.082409 -1.7389848e-16)
(109.86805 14.716238 0)
(110.11465 13.741674 1.7020063e-16)
(109.62083 12.84013 -1.7020287e-16)
(109.25184 12.28946 0)
(108.30599 11.274593 0)
(107.63532 10.904278 0)
(106.56807 9.8916824 -1.811869e-16)
(105.79246 9.7838696 1.8118049e-16)
(106.71183 14.415922 -1.6047072e-16)
(107.0584 14.296393 0)
(107.374 14.17321 0)
(107.63582 13.975613 0)
(107.79253 13.745096 0)
(107.90565 13.601911 0)
(107.84472 13.435676 0)
(107.76752 13.309132 1.526259e-16)
(107.53614 13.216529 -3.0545643e-16)
(106.13292 12.770258 -3.0552029e-18)
(106.47996 12.87262 -2.8971705e-16)
(106.83257 12.984213 0)
(107.1091 13.065162 -1.4044114e-16)
(107.44702 13.131757 1.4043375e-16)
(107.62079 13.179977 0)
(107.87797 13.219458 0)
(107.9998 13.244548 0)
(108.15815 13.300395 0)
(105.46516 9.8558742 2.6376076e-16)
(105.96278 9.9898397 0)
(106.21075 10.30284 1.2789389e-16)
(106.708 10.412683 -2.5443471e-16)
(106.95587 10.714458 1.2654097e-16)
(107.43323 10.804438 0)
(107.64427 11.095923 0)
(108.09321 11.174328 0)
(108.26047 11.481958 1.2015037e-16)
(105.05273 7.9754369 0)
(105.56081 8.021185 2.3484329e-16)
(105.83373 8.4554795 -3.5108219e-16)
(106.3651 8.4847183 1.1623895e-16)
(106.64394 8.9046918 1.1379145e-16)
(107.18266 8.9123916 -1.2533773e-18)
(107.45866 9.3240413 -2.2380447e-16)
(107.99956 9.319759 2.212413e-16)
(108.27388 9.7387086 -1.0997061e-16)
(104.32597 5.4628833 0)
(104.83858 5.4501864 1.0777572e-16)
(105.15669 5.9170212 -1.0777571e-16)
(105.69883 5.8777511 0)
(106.04199 6.348374 -2.0902079e-16)
(106.60965 6.2818161 2.0902643e-16)
(106.97967 6.7542194 1.0210294e-16)
(107.56855 6.6680272 -2.0293444e-16)
(107.9579 7.1452619 1.0082911e-16)
(103.45202 3.714584 0)
(103.94989 3.6908249 0)
(104.26399 4.1397158 0)
(104.80363 4.0896089 -9.7987656e-17)
(105.14747 4.5479092 1.9500118e-16)
(105.71005 4.4744749 -1.9300655e-16)
(106.08536 4.9432503 9.5991274e-17)
(106.68781 4.851124 -9.3789678e-17)
(107.10104 5.3454444 1.8639681e-16)
(102.82394 1.6375029 -1.8811926e-16)
(103.18248 1.5862988 7.6601292e-19)
(103.66433 1.8852706 9.294741e-17)
(104.08259 1.7844757 -9.1257111e-17)
(104.60652 2.1096371 9.12571e-17)
(105.06363 1.9693249 0)
(105.6304 2.3003321 8.8332944e-17)
(106.13923 2.1243936 -1.755727e-16)
(106.72777 2.4903301 8.7243676e-17)
(101.59422 0.62927387 5.6767665e-19)
(101.91067 0.70815435 8.8798735e-17)
(102.37559 0.87101716 8.7531892e-17)
(102.68379 0.92958635 -8.75319e-17)
(103.17576 1.0561255 0)
(103.53293 1.0934791 0)
(104.08378 1.2271613 -8.4542995e-17)
(104.51951 1.2663863 1.6816401e-16)
(105.15148 1.4014601 -8.3620983e-17)
(105.66052 1.4524809 0)
(106.33513 1.5836717 -8.0440782e-17)
(106.91447 1.6235985 1.1997799e-18)
(107.65003 1.7523443 1.2742116e-18)
(108.28407 1.800351 1.3528515e-18)
(109.08219 1.9234663 7.6613934e-17)
(109.80088 1.9539218 7.3666478e-17)
(110.62721 2.0936005 -7.366648e-17)
(111.43202 2.1263653 0)
(107.30384 2.2675175 0)
(107.92779 2.664579 0)
(108.54616 2.4209156 -8.2286218e-17)
(109.19774 2.8484054 1.4006325e-18)
(109.90121 2.5663105 1.4548166e-18)
(110.53606 3.0462315 7.9413996e-17)
(111.30898 2.7258077 7.6282136e-17)
(111.99301 3.2419995 -7.6296404e-17)
(112.80284 2.9090782 0)
(107.74272 5.2340521 -9.2605342e-17)
(108.19003 5.7507713 0)
(108.87212 5.6207057 0)
(109.35227 6.1611243 -8.7270901e-17)
(110.07336 6.0160471 1.730589e-16)
(110.58424 6.5810373 -1.5531955e-18)
(111.34819 6.4231317 -1.624465e-18)
(111.89532 7.0219611 -8.2607959e-17)
(112.70059 6.8490552 0)
(108.5697 7.0463028 -9.8151112e-17)
(108.97674 7.5348701 9.8150724e-17)
(109.61395 7.4284987 0)
(110.03316 7.9322432 0)
(110.69926 7.8248546 9.2243426e-17)
(111.13029 8.3535086 -9.2244057e-17)
(111.83241 8.2524109 8.8984678e-17)
(112.29237 8.8071699 -4.5357642e-17)
(112.99925 8.7686324 -4.3631745e-17)
(108.82323 9.7364949 -1.0732327e-16)
(109.09195 10.173416 1.073185e-16)
(109.65232 10.183379 0)
(109.91209 10.654665 0)
(110.48011 10.684442 0)
(110.75983 11.205063 0)
(111.27888 11.267223 0)
(111.67055 11.835527 0)
(112.1186 11.978595 0)
(108.7004 11.569807 -1.2015252e-16)
(108.83988 11.900196 1.1770629e-16)
(109.26879 12.012883 -1.1771429e-16)
(109.37454 12.380881 1.1530321e-16)
(109.81022 12.53676 -1.1529831e-16)
(109.86874 12.963437 0)
(110.3294 13.198556 0)
(110.34374 13.714931 0)
(110.85444 14.029191 0)
(108.23634 13.344356 0)
(108.29916 13.457003 -1.3369541e-16)
(108.3519 13.583046 1.3353181e-16)
(108.25787 13.767486 0)
(108.32045 14.019578 1.3212029e-16)
(108.10835 14.333238 -1.3212026e-16)
(108.18169 14.680338 0)
(107.90548 15.175182 6.5468214e-17)
(108.00497 15.634873 -1.3072522e-16)
(107.35173 13.161187 1.5282711e-16)
(106.97078 13.180859 1.537882e-16)
(106.70266 13.243686 -1.5377213e-16)
(106.13985 13.405383 1.5537943e-16)
(105.81368 13.616402 -3.1181359e-16)
(105.08686 13.962533 3.1392327e-16)
(104.7207 14.317237 -3.1627835e-16)
(103.8525 14.87946 1.5874405e-16)
(103.46649 15.382307 0)
(104.57751 9.0125302 -1.8760486e-16)
(103.75838 9.0492895 1.8757093e-16)
(102.45183 8.3845563 0)
(101.55686 8.6498682 0)
(100.12804 8.0959873 0)
(99.192332 8.6739035 0)
(97.546862 8.3619685 0)
(96.623889 9.1914123 -1.064341e-16)
(94.803041 9.0998164 1.0643233e-16)
(93.914738 10.214635 1.1042005e-16)
(102.48834 16.204484 0)
(107.65598 16.322584 6.5255183e-17)
(110.83945 14.670011 0)
(112.57957 12.605315 0)
(113.5631 9.2738904 0)
(113.32057 7.4826951 3.8628877e-17)
(113.52303 3.4547216 3.5509312e-17)
(112.31966 2.2497299 3.4284604e-17)
(91.819532 10.425135 -1.1041746e-16)
(102.11043 16.886809 0)
(107.8485 16.934637 0)
(111.44257 15.065697 5.3144043e-17)
(113.10991 12.784876 0)
(114.247 9.3731799 -4.0802826e-17)
(114.1147 7.3199044 -7.6277372e-17)
(114.38429 3.1395638 -7.0058473e-17)
(113.19508 2.2913114 -6.7622518e-17)
(91.022555 11.991603 0)
(101.03685 18.011445 0)
(107.436 17.865884 6.4370174e-17)
(111.41714 15.866293 -5.3147975e-17)
(113.57973 13.540318 0)
(114.89443 9.8664148 4.080282e-17)
(114.87113 7.9334665 3.7646152e-17)
(115.17322 3.6213199 3.4545493e-17)
(114.13858 2.4017566 3.3337905e-17)
(88.680704 12.695765 1.1665328e-16)
(100.72312 18.910192 0)
(107.74208 18.604596 -1.2830903e-16)
(112.14864 16.33921 0)
(114.17781 13.749209 0)
(115.67581 10.006272 -3.8661235e-17)
(115.68214 7.8589166 -3.553672e-17)
(116.06041 3.4716557 0)
(115.08539 2.4439782 -3.1288099e-17)
(87.856702 14.807258 -1.1665405e-16)
(99.593862 20.394945 -8.3456125e-17)
(107.37702 19.860298 6.3933914e-17)
(112.1364 17.331597 0)
(114.78841 14.60834 0)
(116.32274 10.545582 3.8661224e-17)
(116.45837 8.3937732 3.5536551e-17)
(116.9103 3.8265381 0)
(116.09512 2.5597894 3.1288095e-17)
(85.439207 16.153953 0)
(99.415013 21.533411 8.3452465e-17)
(107.77958 20.701067 -6.2698506e-17)
(113.0304 17.860468 0)
(115.42727 14.86624 0)
(117.26976 10.757997 -3.6247493e-17)
(117.44368 8.4151322 -3.3195717e-17)
(117.86559 3.7653101 0)
(117.11074 2.5975213 -2.9021938e-17)
(84.635845 19.169512 0)
(98.298499 23.459001 0)
(107.56048 22.313357 6.2698435e-17)
(113.07986 19.069471 -2.4119891e-17)
(116.17238 15.835909 -2.0219661e-17)
(117.96177 11.264278 5.3709727e-17)
(118.21309 8.8380596 4.9161333e-17)
(118.75838 4.0912814 0)
(118.16855 2.6843301 4.2925748e-17)
(82.429002 21.240961 0)
(98.370125 24.841044 -4.1690369e-17)
(108.09933 23.254449 0)
(114.15158 19.612736 2.410488e-17)
(116.94187 16.095398 2.0215814e-17)
(119.01157 11.595395 -7.0754766e-19)
(119.27228 9.0034439 -3.1260868e-17)
(119.76514 4.1187824 0)
(119.26177 2.7208251 -1.3903812e-17)
(81.837279 25.456856 -6.1432036e-17)
(97.364509 27.387398 4.1679669e-17)
(108.12427 25.337664 0)
(114.39903 21.222157 0)
(117.85016 17.222171 0)
(119.85168 12.045987 -3.2759313e-17)
(120.22097 9.2987112 7.0215927e-19)
(120.73866 4.3251305 0)
(120.34613 2.7964392 0)
(121.77666 2.8018469 0)
(121.77977 4.4319046 0)
(121.28827 9.4276457 -1.3565016e-19)
(120.99139 12.393013 1.6776139e-17)
(118.74325 17.391105 0)
(115.64573 21.466639 -2.9505589e-18)
(108.96112 26.160787 -6.8695785e-19)
(98.076999 28.807056 -3.4028992e-17)
(80.577211 28.436065 1.1383678e-16)
(122.96851 2.7589366 -5.6916651e-18)
(122.79326 4.4636704 -7.7710222e-19)
(122.37533 9.5815907 7.3509298e-18)
(121.98943 12.548095 -3.9863074e-20)
(120.03786 18.22675 -7.3506209e-18)
(116.45357 23.004062 1.0186944e-17)
(109.77875 28.289567 -3.8881477e-18)
(98.135231 31.920321 4.3555799e-17)
(81.414134 33.856981 -5.7594389e-17)
(124.14684 2.7072861 1.111502e-17)
(123.9168 4.4585118 0)
(123.64432 9.6148207 1.2848767e-17)
(123.3145 12.874525 -6.7993325e-18)
(121.16088 18.320309 7.4305006e-18)
(118.08138 23.013449 -1.8871071e-17)
(111.33814 28.881016 -1.6695386e-17)
(100.50126 32.907333 9.6051813e-18)
(84.34526 35.646875 1.8445242e-18)
(125.40662 2.6502033 -5.4284118e-18)
(124.98099 4.4394002 -6.9678443e-19)
(124.71266 9.6406165 -5.5384626e-18)
(124.45788 12.913281 7.7554112e-18)
(122.76289 19.042718 2.8031271e-18)
(119.35159 24.672885 9.875391e-18)
(112.91953 31.159308 1.3161914e-17)
(101.36075 36.021566 5.2025459e-18)
(85.660282 40.226139 -5.9588832e-18)
(126.6704 2.5802111 1.1625185e-18)
(126.18133 4.4156933 -1.2368569e-18)
(126.14294 9.6083251 -7.1215024e-19)
(125.89199 13.183016 2.2547893e-18)
(124.04444 19.025966 -2.8396138e-18)
(121.24604 24.359063 -3.1903241e-18)
(114.836 31.440956 -3.442984e-18)
(104.22166 36.656849 3.8871107e-18)
(88.439826 41.563157 -7.5082133e-18)
(127.90991 2.4904489 -1.1754031e-18)
(127.29279 4.3252047 1.2517244e-18)
(127.2922 9.5437046 -6.5768424e-19)
(127.29926 12.970487 -4.6779646e-20)
(125.96797 19.653756 -8.1171372e-19)
(122.92436 25.997692 2.1660706e-18)
(116.85813 33.636211 -3.2468777e-18)
(105.45523 39.760023 3.6747034e-18)
(89.609356 45.534353 0)
(129.12198 2.3748671 -9.687385e-19)
(128.52187 4.2556927 -5.5271322e-19)
(128.77096 9.3557843 -5.3756364e-19)
(128.72009 13.184129 -6.7310581e-19)
(127.38328 19.325818 -6.8748045e-19)
(124.89092 25.368569 2.0970821e-18)
(118.90256 33.671269 -5.3713282e-18)
(108.44406 40.079355 8.0271589e-18)
(92.834244 46.459358 -5.3118178e-18)
(130.29895 2.2303645 2.7154883e-18)
(129.62883 4.0757394 1.874734e-18)
(129.87014 9.1618735 2.6407972e-18)
(130.30001 12.793962 2.7581114e-18)
(129.43984 19.727398 2.1627553e-18)
(126.94657 26.802837 -7.9200866e-19)
(121.34669 35.705488 -2.7757868e-18)
(110.13852 43.161264 -1.1854077e-18)
(94.050408 50.142068 -6.1595996e-18)
(131.42636 2.057243 -4.8177276e-18)
(130.88037 3.9214244 -1.8981011e-18)
(131.49888 8.7767632 -6.0932222e-18)
(131.68791 12.789703 -1.6871693e-18)
(130.97462 19.170911 3.6300369e-18)
(129.04543 25.884687 2.3198688e-18)
(123.60202 35.377078 -1.1830993e-17)
(113.3597 43.108905 2.8431429e-18)
(97.564478 50.572683 1.149773e-17)
(99.16202 54.055429 -1.0429286e-17)
(115.56696 46.15347 3.7327108e-18)
(126.50851 37.237118 1.5378295e-17)
(131.41664 27.012317 -1.9375394e-18)
(133.19227 19.357569 1.2519943e-19)
(133.39551 12.129641 2.2541221e-18)
(132.45787 8.4078049 4.0185397e-18)
(131.84498 3.649797 -1.9563813e-19)
(132.4892 1.8553116 5.927604e-18)
(102.70709 54.140657 3.6851269e-17)
(119.04301 45.70452 2.0864178e-18)
(128.89505 36.482859 -1.7566858e-17)
(133.61708 25.879276 -4.4294609e-19)
(134.72889 18.415542 -3.1085101e-18)
(134.66027 11.815708 -2.8144538e-18)
(134.06065 7.9026551 -5.4066139e-18)
(133.0766 3.3568595 0)
(133.4664 1.6237297 -2.6817807e-18)
(104.69101 57.537754 -4.6784093e-17)
(121.80186 48.718096 1.9207538e-17)
(132.35833 37.98909 8.2171262e-18)
(136.27016 26.449493 -3.0986828e-19)
(137.06141 18.26151 3.4446818e-18)
(136.42239 10.98195 -3.2220348e-20)
(134.91879 7.2340945 1.6803423e-18)
(133.91983 3.0042063 3.7736945e-18)
(134.33812 1.3654861 3.6943187e-18)
(108.47788 57.389918 -7.9274994e-18)
(125.47953 47.803214 -1.0663626e-18)
(134.78947 36.734216 -9.8295738e-19)
(138.48358 24.919929 0)
(138.52942 16.910253 -3.514717e-18)
(137.5821 10.309579 0)
(136.41146 6.5789131 3.8463423e-18)
(134.96599 2.5687168 -7.0865759e-18)
(135.08303 1.0841729 -8.005003e-19)
(110.86325 60.906606 -2.3957217e-18)
(128.88378 50.673759 -9.072145e-18)
(138.76896 37.759439 5.0013978e-19)
(141.32092 24.895665 0)
(140.8718 16.298859 1.3434887e-19)
(139.23509 9.313139 9.7536779e-19)
(137.06908 5.6901242 1.2610733e-19)
(135.63293 2.1079013 5.637835e-18)
(135.68051 0.78008049 -2.9743248e-18)
(114.67486 60.322128 -2.4609671e-17)
(132.80292 49.159063 1.9590923e-19)
(141.13722 35.8944 -3.5583625e-19)
(143.48033 22.966635 3.4477378e-19)
(142.13646 14.612855 1.8787954e-18)
(140.16809 8.197515 -8.8381707e-19)
(138.36603 4.8347258 5.6610165e-20)
(136.46519 1.5584711 -2.4250686e-18)
(136.1154 0.45506791 0)
(117.76445 63.732868 1.7028347e-17)
(136.81866 51.723544 -1.9140828e-19)
(145.64514 36.175455 -2.3673398e-19)
(146.34649 22.28784 7.5313154e-19)
(144.35716 13.606163 -1.9842932e-18)
(141.65444 6.988397 -3.764273e-19)
(138.79125 3.7390437 5.9859269e-20)
(136.83069 0.96101678 -5.484964e-20)
(136.38514 0.28983062 0)
(121.91011 62.444364 0)
(141.26617 49.632662 1.4842528e-18)
(147.77275 33.634293 -1.2654925e-18)
(148.25778 19.871794 1.9142272e-17)
(145.34379 11.514654 3.8894642e-19)
(142.24762 5.5177206 -5.2951468e-18)
(139.69717 2.7428927 1.4012099e-18)
(137.39172 0.34986221 6.5347458e-19)
(136.4078 -0.14730163 1.1847802e-18)
(126.06241 65.850517 1.7891417e-18)
(145.61592 51.448317 -4.556359e-17)
(152.5151 33.024089 1.9559827e-18)
(150.97174 18.537434 -1.9992276e-17)
(147.24904 10.063542 3.2392326e-19)
(143.45564 4.1540181 5.1748924e-18)
(139.87799 1.4442304 -1.5307079e-18)
(137.36077 -0.33098292 -6.3086546e-19)
(136.48193 -0.31793817 -6.4109084e-19)
(135.91578 -0.6679753 -5.7669519e-19)
(137.58099 -1.1061794 -1.1334346e-18)
(140.27248 0.37403945 0)
(143.6516 2.373439 7.146487e-19)
(147.848 7.576837 -1.790658e-17)
(152.53169 15.464945 -2.8546355e-17)
(154.54237 29.454537 0)
(150.97314 48.430797 -1.5963672e-17)
(131.1737 63.563053 -1.4777507e-18)
(135.50931 -1.0231001 0)
(137.06487 -1.8451857 1.1583099e-18)
(140.12883 -1.1411691 0)
(144.41445 0.66150942 8.5620922e-19)
(149.3216 5.5089989 3.6482798e-17)
(154.95733 13.037572 3.1666898e-17)
(159.53971 27.229284 -5.5210706e-17)
(156.36882 48.76274 5.6101331e-17)
(138.30349 67.47243 -4.1925934e-17)
(134.60774 -1.1172877 0)
(136.90385 -2.7036949 0)
(139.88475 -2.139218 5.5352538e-18)
(144.01251 -1.2914939 0)
(149.27373 2.6603763 -2.0379763e-17)
(155.71172 9.2644514 3.7668716e-17)
(161.09998 22.230776 5.0074511e-17)
(162.56626 44.034994 4.7573783e-18)
(144.44316 63.584484 -2.5894272e-17)
(133.6682 -1.3405004 0)
(135.93542 -3.4089008 0)
(139.33893 -3.7102799 -5.6501572e-18)
(144.24332 -3.0077266 -1.176775e-17)
(149.99822 0.52770449 -2.3257264e-17)
(157.31322 6.4183295 -4.0820248e-17)
(165.04341 18.776816 0)
(167.84638 42.384537 -1.1442365e-16)
(154.22543 66.202751 7.7846826e-17)
(132.22374 -1.4941813 -5.9195089e-21)
(135.28336 -4.2956082 6.4101527e-21)
(138.41509 -4.5271284 0)
(143.20183 -4.9538893 -1.3529898e-19)
(149.241 -2.4155608 5.1739414e-17)
(156.92817 2.4351642 -2.239848e-18)
(165.50273 12.574403 -7.4674977e-17)
(173.43796 35.793372 1.262437e-16)
(160.99477 60.298206 -1.6797345e-16)
(130.77232 -1.6965989 -4.5283735e-21)
(134.02615 -4.9227332 4.9111508e-21)
(137.50335 -5.9631964 0)
(142.95835 -6.5626157 1.4740537e-17)
(149.21216 -4.3542841 -2.9224927e-17)
(157.54952 -0.34498428 2.3467639e-18)
(167.716 8.3506266 7.7227329e-17)
(177.3716 31.897314 0)
(174.37963 60.092668 1.6837853e-16)
(128.92931 -1.6800998 1.9409872e-20)
(132.88424 -5.7704448 -4.3168955e-19)
(135.90963 -6.5926536 2.6430734e-19)
(141.31818 -8.4047884 -1.2079811e-17)
(147.87145 -7.2415253 -2.7473877e-17)
(156.06126 -4.075549 0)
(166.55965 2.048044 0)
(180.42047 22.840006 1.6146491e-16)
(181.36225 51.904154 0)
(127.04916 -1.8238229 0)
(131.3408 -6.3266578 4.190816e-19)
(134.75562 -7.7944771 0)
(140.66187 -9.8156202 1.4419673e-17)
(147.17017 -8.7782661 2.5597538e-17)
(155.92248 -6.338485 -4.7080926e-17)
(166.62576 -1.6259608 0)
(181.40192 16.694854 -1.8161233e-16)
(196.0731 49.139966 3.7442731e-16)
(124.8661 -1.7427642 0)
(129.82949 -7.0917035 0)
(132.58458 -8.1687872 2.0373674e-19)
(138.4103 -11.650244 8.8315329e-19)
(145.34039 -11.822332 -1.2451288e-18)
(153.50757 -9.9754631 4.8595815e-17)
(163.4779 -8.2117498 0)
(180.04754 1.9194225 0)
(199.07135 33.804568 -3.7623907e-16)
(121.8511 -2.0060061 -1.6287777e-19)
(128.18675 -7.6179349 1.4427489e-19)
(131.35249 -9.1470653 4.713862e-19)
(137.66017 -12.526901 0)
(144.41543 -12.730677 0)
(154.26187 -10.756737 3.189586e-18)
(163.84623 -8.1189516 6.6408417e-17)
(180.2958 4.8374088 -3.162407e-18)
(211.25897 37.113921 0)
(119.79414 -2.098725 -1.9695897e-19)
(126.63808 -8.4738701 1.4259826e-19)
(129.17374 -9.5183544 -3.4334016e-19)
(135.92261 -14.087848 0)
(144.24205 -14.124527 0)
(154.25469 -12.638472 -3.2486158e-18)
(165.36536 -9.3940612 -2.0741279e-16)
(186.51314 7.6975459 3.4169288e-18)
(208.63087 34.780797 -7.6273269e-16)
(117.5561 -2.049844 0)
(124.95623 -8.8596331 1.0465805e-17)
(128.28104 -10.582934 0)
(135.52586 -15.573082 -8.9231714e-19)
(143.39826 -16.361635 9.7420293e-19)
(156.54324 -14.504244 3.5232564e-18)
(169.23015 -10.331692 2.9730068e-16)
(189.6037 5.2400732 -3.9524111e-18)
(196.8567 35.585686 7.2478292e-16)
(115.26777 -1.9417236 2.646483e-17)
(123.25972 -9.6576135 -9.8398288e-18)
(126.20777 -11.254543 7.339757e-18)
(133.87197 -17.24189 -1.4385545e-17)
(144.11278 -18.184144 4.7976606e-17)
(156.60025 -16.846818 -9.7534875e-17)
(170.55297 -14.543223 -1.6029889e-16)
(193.19673 3.5826499 -3.9729629e-16)
(178.19307 44.401751 0)
(113.00937 -1.7863992 -5.5663575e-17)
(121.34998 -10.093097 1.5281562e-17)
(125.28623 -12.296669 -7.1000481e-18)
(133.41327 -18.972041 1.3143566e-18)
(143.30703 -20.569717 -4.6281263e-17)
(158.91998 -20.009793 -5.0023909e-18)
(173.28356 -16.006594 0)
(192.6224 0.35772417 3.7718735e-16)
(146.60439 60.892305 0)
(110.83384 -1.5736288 6.0967053e-17)
(119.35331 -10.727622 -1.4446317e-17)
(122.91436 -12.915294 1.1655386e-17)
(131.16676 -20.548039 1.2146091e-17)
(143.0001 -22.913868 2.1630172e-18)
(158.6163 -22.335727 9.5746645e-17)
(174.70399 -17.933591 -1.7878748e-16)
(189.76572 -0.832474 -4.6396636e-16)
(115.61194 76.667596 5.6281591e-16)
(108.77117 -1.277471 -3.1988885e-17)
(117.25613 -11.031609 6.6654354e-19)
(121.76956 -13.753582 -1.1562018e-17)
(130.42819 -22.095333 -7.747308e-19)
(142.4841 -25.128273 8.3594631e-19)
(160.82157 -25.457544 1.0666351e-16)
(173.59743 -21.974383 3.6687324e-16)
(186.11691 -0.11684793 4.3750402e-16)
(93.994618 83.122077 -5.3338806e-16)
(106.81295 -0.85052119 -4.3651363e-19)
(114.95723 -11.449561 4.6815349e-19)
(119.22269 -14.309652 1.6187693e-17)
(127.70865 -23.591517 -5.2749841e-18)
(140.99979 -27.76492 4.1860574e-17)
(159.35856 -28.181322 -2.107271e-16)
(173.24943 -23.845235 -3.8263807e-16)
(177.53823 -3.3975569 -4.8144835e-16)
(18.280764 31.478772 5.8088432e-16)
(105.24534 -0.40412414 4.032937e-17)
(112.7808 -11.607599 -3.1479728e-19)
(118.01981 -14.936717 3.0282301e-18)
(126.78357 -24.809784 5.1161922e-18)
(141.02116 -29.716126 -3.8304912e-17)
(161.21071 -31.323279 1.0637259e-16)
(170.70843 -28.538233 1.9242844e-16)
(160.2186 -5.8349419 4.617381e-16)
(-17.152877 2.429874 -5.522199e-16)
(-24.800459 14.683082 -9.1956545e-16)
(146.17768 -4.9019643 -5.5986979e-18)
(167.29991 -30.585846 3.4656528e-18)
(159.26243 -33.681535 -2.9557565e-18)
(138.42607 -32.628731 0)
(123.77281 -26.130231 -1.6849475e-19)
(115.47963 -15.396128 -4.1294461e-17)
(110.34006 -11.595425 -3.0910188e-17)
(103.66979 0.20116926 -8.3663632e-17)
(-30.593357 12.290303 8.9297772e-16)
(137.42957 -8.0000572 0)
(165.61723 -35.862145 0)
(159.4682 -36.87908 2.6643286e-16)
(137.7996 -34.61105 0)
(122.3376 -26.866647 7.5960944e-18)
(114.18923 -15.641398 7.2267529e-17)
(108.08962 -11.700772 2.9402846e-17)
(102.31412 0.85985321 -4.9535281e-17)
(-39.994539 13.338609 6.4706036e-18)
(127.36865 -7.2137172 -5.2148766e-18)
(161.56538 -36.629988 0)
(157.07926 -38.997717 -2.6058507e-16)
(135.15263 -36.618008 0)
(119.06565 -27.750623 -7.6774578e-18)
(111.63016 -15.857363 -4.8399059e-17)
(105.56419 -11.356987 -7.895964e-19)
(101.27276 1.5744743 9.1839626e-17)
(-42.154872 15.155946 1.631741e-15)
(119.65828 -10.143457 -1.2478167e-15)
(159.08969 -41.4072 6.2798231e-18)
(156.32452 -41.581015 0)
(133.87968 -38.392952 -6.8133797e-17)
(117.42956 -28.078344 0)
(110.33053 -15.842903 5.4344944e-19)
(103.50204 -11.183317 -8.5274401e-19)
(100.48789 2.3325217 3.2741475e-19)
(-49.222231 17.160543 -1.5683735e-15)
(110.06949 -8.237522 -3.9226307e-18)
(154.90126 -41.92877 5.4943844e-16)
(153.51876 -43.8918 -2.8022521e-18)
(131.06802 -40.134575 6.8406856e-18)
(113.94154 -28.637484 0)
(107.71986 -15.787113 6.4846363e-17)
(100.99878 -10.358315 0)
(99.931234 2.8631704 0)
(-53.773344 15.977436 5.6996161e-18)
(102.8396 -11.344437 1.1583445e-15)
(152.20711 -46.563459 -1.0568158e-15)
(152.44568 -46.152025 2.3682458e-16)
(129.07675 -42.084295 5.8935227e-17)
(112.25048 -28.679472 -3.7173107e-17)
(106.39203 -15.560376 -6.2879941e-17)
(99.036319 -10.120997 -9.7505647e-19)
(99.627447 3.8699159 1.1095538e-16)
(-58.007533 19.311197 5.4749563e-18)
(93.800985 -8.7305967 -1.1244152e-15)