/*--------------------------------*- C++ -*----------------------------------*\
  =========                 |
  \\      /  F ield         | OpenFOAM: The Open Source CFD Toolbox
   \\    /   O peration     | Website:  https://openfoam.org
    \\  /    A nd           | Version:  11
     \\/     M anipulation  |
\*---------------------------------------------------------------------------*/
FoamFile
{
    format      ascii;
    class       volScalarField;
    location    "0.215";
    object      T;
}
// * * * * * * * * * * * * * * * * * * * * * * * * * * * * * * * * * * * * * //

dimensions      [0 0 0 1 0 0 0];

internalField   nonuniform List<scalar> 
880
(
500
500.0000000253419
500.0015153586003
500.7028063659666
500.0000000000001
500.0000000104243
500.0031114131277
501.3402461719761
500.0000000001469
500.0000001594694
500.0084135299383
502.4964918529627
500.0000000000115
500.0000000223628
500.0244439372993
504.4004984061726
499.9999999970857
500.000000002413
499.9999995778347
500.0000223902375
500.0000007139269
500.0000106428747
500.0003374868048
500.000553998772
500.0730674939996
500.1429086559167
500.3134133198506
500.1571598702263
509.1015892224288
514.5369432966518
519.1312414721909
521.3502506353431
500.0001228282094
500.0005578191156
500.0019534218511
500.0058524564289
500.005550618674
500.0165986610568
500.0397048681199
500.0668830494398
500.9461253907795
501.6826348899111
502.4646971135749
503.3537102381198
523.7987441479919
526.7288007951526
528.5250149047775
528.7346273978211
520.8172051617917
517.1135042233765
515.9667046498743
514.9490117132655
506.3149244133874
507.5622792237854
508.5209379038882
508.6922118538483
500.2555097886146
500.4922950394362
500.7533492167644
500.9825275484457
500.0212454803876
500.0564949993546
500.116192755692
500.1855906039258
500.2287495095713
500.2416020724837
500.2189133016607
500.1767385057448
501.1619897013293
501.3220286276627
501.3723966833355
501.2634595864396
508.5135496079226
508.1348964319437
507.5924201963529
506.7838334248742
513.8837535115737
512.5950619909211
511.4121295539384
510.7747102312933
510.136824650355
506.0712923102581
501.1087311512086
500.1264121149388
508.7272175013855
505.1251408320329
500.9154318636696
500.0809102958115
516.4029240870782
504.3588173639395
500.6079398906042
500.0319807395556
553.028603243449
505.6739730105966
500.3923250906753
500.0082648378449
500.0039331651063
500.2428629915196
510.0295116926606
595.9841786557531
500.0154966658602
500.3397565862034
515.1736082490862
603.6615883938474
500.0460062312424
500.7362831538719
523.7955485575428
612.4395690930935
500.1233936263847
501.6405299929426
534.4805428754746
617.6427414768003
622.0702698180587
547.3494768111919
503.3331503245386
500.274678128612
625.2622891678395
561.0156792162144
506.2841224487524
500.5697972230745
627.5332598550946
574.2172362086098
510.7240546234581
501.0472863620169
626.9733522471033
582.3791052580829
516.7624980194106
501.8480967698832
503.0565162664108
523.1633560523434
585.4464159958994
619.3191333122547
503.8177750635083
522.0116301076056
571.0903386442144
602.6486931004304
503.9855385476662
516.9847790708689
554.5040037015427
580.1500866677346
502.55825687418
510.6162466926597
534.920180482158
548.9613787065215
502.7927664327962
510.2231404109191
520.4437683723565
516.3390331242165
502.1726077126792
505.9252008806093
507.3629274020809
477.0891653694319
501.1918875818164
504.0376534308217
506.9695587212272
473.7170881814778
500.5472323517302
503.2637171142131
510.3452153520433
511.2969443294168
550.8643536154603
509.7904221527156
501.7326911530483
500.0642334497171
546.0248771675364
509.7699595167588
500.5296309013726
499.9039951398788
538.9012408520915
508.4321332993416
499.6241381144469
499.8454796953984
525.9156961769313
503.3679107824397
498.7294391311195
499.8010981595207
507.1866165745521
497.415450471004
498.4766331336037
499.8875556707007
485.8533910306585
494.3347998637229
498.9297004814282
499.9657845752454
470.2359761970438
493.0345005853662
499.314565747583
499.9872173363611
468.4737244447067
493.8825730750437
499.7330886965588
499.9950912922544
474.7329201403152
494.9155471653101
499.1499476521496
499.9593034602034
474.3167970429976
494.0820387261852
499.1980125058259
499.9675398183111
471.990685779836
492.9200630407714
499.2201371060498
499.9745740956424
468.8446758646335
491.6532183816561
499.1934545380601
499.9780112151666
468.473724444621
493.8825730750796
499.7330886969111
499.9950912920733
470.2359761971761
493.0345005853599
499.3145657474927
499.9872173361605
485.8533910305642
494.3347998636161
498.9297004811689
499.9657845750266
507.1866165743547
497.415450470719
498.4766331334743
499.8875556706533
500.0642334497981
501.7326911531933
509.7904221529811
550.8643536153312
499.9039951398531
500.5296309014786
509.7699595167425
546.0248771673677
499.8454796955046
499.6241381145825
508.432133298996
538.9012408516902
499.8010981595736
498.7294391313195
503.3679107820805
525.9156961766757
511.2969443297438
510.3452153523248
503.2637171141375
500.5472323518385
473.7170881813964
506.9695587212391
504.037653430778
501.1918875818039
477.0891653691585
507.3629274021224
505.9252008806721
502.1726077126377
516.3390331242928
520.4437683722606
510.2231404106083
502.7927664325703
503.056516266238
523.1633560528321
585.4464159965945
619.3191333124839
503.8177750633674
522.0116301075982
571.0903386444628
602.6486931006691
503.9855385476585
516.9847790711343
554.5040037015456
580.1500866678722
502.5582568741247
510.6162466923167
534.9201804821723
548.9613787066321
626.973352247192
582.379105258649
516.7624980197766
501.8480967703645
627.5332598552886
574.2172362090595
510.7240546243693
501.0472863618228
625.2622891679841
561.0156792163567
506.2841224481869
500.5697972232559
622.0702698183319
547.3494768110335
503.3331503245444
500.2746781285034
500.0039331651151
500.2428629915109
510.029511692618
595.9841786557049
500.0154966661367
500.3397565866821
515.1736082491966
603.6615883938822
500.0460062316198
500.7362831537758
523.7955485573003
612.4395690928934
500.1233936263728
501.6405299934247
534.4805428759305
617.6427414769761
500.0082648378166
500.0319807394514
500.0809102959994
500.126412114928
500.3923250903495
500.6079398904481
500.9154318635888
501.1087311511078
505.6739730104845
504.3588173639922
505.1251408318814
506.07129231011
553.0286032433341
516.4029240871087
508.7272175014307
510.1368246503984
500.1767385058396
501.2634595866446
506.7838334250337
510.7747102313991
500.2189133016713
501.3723966836747
507.5924201964667
511.4121295539748
500.2416020726639
501.3220286279924
508.1348964319006
512.5950619906573
500.2287495096488
501.1619897010007
508.5135496081961
513.8837535115197
500.021245480555
500.2555097884363
506.3149244134717
520.8172051618174
500.0564949997969
500.4922950386942
507.5622792241524
517.1135042231761
500.1161927564673
500.7533492152198
508.520937904131
515.9667046495574
500.1855906042138
500.9825275474019
508.692211854228
514.949011712998
528.7346273978104
503.3537102380949
500.0668830512884
500.005852459167
528.5250149048134
502.4646971130272
500.0397048668115
500.0019534184462
526.7288007953123
501.6826348904007
500.0165986616166
500.0005578166218
523.7987441480204
500.9461253908567
500.0055506189697
500.0001228292491
521.3502506353451
500.1571598703678
500.0005539986078
500.0000223902854
519.1312414722439
500.3134133199283
500.0003374868161
499.9999995778651
514.536943296701
500.1429086558837
500.0000106427584
500.0000000023835
509.1015892224129
500.0730674939179
500.0000007138828
499.999999997167
500.0000000000001
500.0000000253527
500.0015153586185
500.7028063654818
499.9999999999995
500.0000000103406
500.0031114131143
501.3402461719469
500.0000000002821
500.0000001594572
500.0084135299118
502.4964918528882
499.9999999999299
500.0000000222116
500.0244439372548
504.400498406081
501.4923631513684
502.7633319546165
505.1341948471255
511.7672742277504
502.7633319547065
504.4725136738093
509.2074650757815
520.0579800603103
505.1341948471812
509.2074650757792
518.1826896766779
533.0716330202104
511.7672742277693
520.0579800603526
533.0716330203377
550.7878377518405
569.9891295862042
555.3577935324738
547.1000575745385
533.7470308543678
567.165823344308
562.7026507505353
560.9986101907101
554.201778458535
567.7337379495534
566.178930765241
564.8734412234413
562.0275416718731
566.1305404451657
565.4844826130652
565.0112946814087
563.539258437596
561.4779087767113
560.9849083704333
558.9314501026407
554.5854827957702
562.4917313135721
560.8322043592731
558.4962055728395
554.4509528768297
562.7390172692154
560.754546502242
558.2837133242966
554.5695334513065
563.2500679080171
560.8339252816533
558.2712355034961
549.5716135597252
515.3280707106115
497.0869383854399
496.6552031620542
497.9975709210091
503.8873911875986
492.9547203306388
496.5684977936062
498.5373478216075
491.9303726979969
492.8230657612978
497.6109952117345
499.9752917810717
470.0214295015042
487.674250561584
495.8792310665536
498.510844764255
499.1901462970912
500.2773657864322
501.271828499015
502.2596996261332
499.7377649348834
501.1169148219811
502.2332966780721
503.3206268934091
501.0009669332452
502.2243572574091
502.9715884392371
504.2662827941072
499.9056671448503
501.5855632704061
503.47843234615
504.6420363996301
503.1183710516536
507.8095686702824
558.6161646177961
620.9116458149141
504.1569819853353
512.0675153415926
573.2022143477059
625.4349193787473
505.0938556306836
515.8437574613349
584.4904954104815
624.6549008183418
505.3727588048449
517.8931573583146
593.1929283774812
628.5028388483005
671.0632932085449
661.468034784427
658.0059699951887
655.2400825586938
679.6741465678161
668.1391220276155
661.6960142178406
657.3789471321203
685.6787638026806
675.0288787127658
665.7081104757784
658.8134280860918
685.0640970533583
679.0763318217511
668.9420472440391
660.2252224162271
657.870742590392
658.0442525087876
656.055504420327
651.466197980362
659.4235408724717
659.8625806600612
657.8149575177848
652.2931563257366
659.9380760379028
660.1674267889491
658.9197555427726
653.830355760745
661.0612661732038
661.9107837680374
658.884912101781
652.9942051922684
636.748626280039
618.529133108003
597.7746387725462
573.4791071288314
637.5143351335073
618.1395176114945
597.0417729482301
599.7037118022522
639.2606983273279
620.8883995258498
606.7602061013957
627.2445272038822
639.2841000001084
626.3756932073804
622.6364003523645
612.2915005602604
532.94096590112
456.5997205115791
338.2950989062461
327.5865137447597
517.0953522611294
414.7278471489327
281.3035721725267
259.2426535985708
475.9021590010384
354.931965659753
253.6861110229356
241.0317079589809
376.2903809803865
279.7114844727511
243.8903522839864
236.9255019485626
380.5338021994603
422.7500084275666
452.134671639075
466.0992225365612
315.0261581979119
374.7439047259556
417.2457321964879
445.3157824371394
287.122273486282
344.6521875861645
390.7580394146029
430.0451027216939
284.0810797461005
343.6072864334086
395.709044580818
434.6890593505657
505.0888215003411
478.4546718360893
448.9502592753525
433.9225890798585
484.3895556650166
480.2177169413602
459.340496674832
445.6228873145871
458.2378602914116
474.7694908141335
468.4066495652797
469.4586730706973
438.9416057026349
464.1454673524308
472.6940967873838
495.8626825488739
417.3978392055594
422.8753189011933
435.5809608042921
432.1701807693226
411.7629369419999
416.7379021869621
431.4181097444242
424.5709774224342
417.7816798564106
417.9339925343531
429.0866963807873
415.2090558525201
398.597780990521
401.7549928189971
408.5729654024767
395.4539027959592
380.709007222566
374.7644462484741
375.3537062940756
377.3662086388343
396.6950823185333
385.78385212489
383.571856017281
384.8493695920712
412.2035306136419
401.4147737515928
395.3325869455618
393.6195694608205
425.1848547275149
414.913653922248
405.6739706598883
400.0914804660709
377.3662086388374
384.8493695920761
393.6195694608345
400.0914804660784
375.3537062940627
383.5718560172747
395.3325869455649
405.6739706599041
374.7644462484398
385.783852124843
401.4147737515598
414.9136539222798
380.7090072225038
396.6950823184545
412.20353061357
425.1848547275196
432.1701807692726
435.5809608042092
422.8753189011292
417.3978392055078
424.5709774223679
431.4181097443823
416.7379021869656
411.7629369419969
415.2090558524644
429.086696380773
417.9339925343486
417.7816798563867
395.4539027959
408.5729654024533
401.7549928190242
398.5977809904501
495.8626825487588
472.6940967871519
464.1454673521688
438.941605702664
469.4586730706304
468.4066495651259
474.769490813855
458.2378602912414
445.622887314545
459.3404966747825
480.2177169411135
484.3895556646361
433.9225890798044
448.9502592753722
478.4546718358993
505.0888214998146
466.0992225369685
452.1346716396185
422.7500084281704
380.5338021996205
445.3157824375357
417.2457321971951
374.7439047267349
315.026158198191
430.0451027220373
390.7580394152618
344.6521875868801
287.1222734865493
434.6890593507881
395.7090445814349
343.607286434225
284.081079746478
327.5865137446623
338.2950989051413
456.5997205113928
532.9409659011523
259.2426535983654
281.3035721718797
414.7278471487878
517.0953522610629
241.0317079588339
253.68611102253
354.931965659921
475.9021590011855
236.925501948419
243.8903522836385
279.7114844728591
376.2903809806935
573.4791071289308
597.7746387726994
618.5291331081346
636.7486262800942
599.703711802356
597.0417729483579
618.1395176116163
637.5143351335885
627.2445272039638
606.7602061015133
620.8883995259214
639.2606983273708
612.2915005604367
622.6364003524859
626.3756932074798
639.2841000001763
651.4661979803921
656.0555044203251
658.0442525086517
657.8707425905206
652.2931563257923
657.8149575177572
659.8625806599484
659.4235408725621
653.8303557608127
658.9197555427518
660.167426788934
659.9380760379513
652.9942051923206
658.8849121017179
661.910783768045
661.0612661731648
655.2400825585989
658.0059699951929
661.4680347842337
671.0632932084311
657.3789471319113
661.696014217785
668.1391220273483
679.6741465676765
658.8134280857046
665.7081104756791
675.0288787124366
685.6787638024847
660.2252224157365
668.9420472439219
679.0763318213961
685.0640970531485
620.9116458147754
558.6161646176889
507.8095686703298
503.1183710517636
625.4349193785999
573.2022143475767
512.0675153416036
504.1569819854543
624.654900818184
584.4904954103488
515.843757461319
505.0938556308056
628.5028388481308
593.1929283773724
517.8931573582896
505.3727588049675
502.2596996263325
501.2718284990139
500.2773657861591
499.1901462970438
503.3206268936514
502.2332966779815
501.1169148216711
499.7377649348163
504.2662827943855
502.97158843918
502.2243572570696
501.0009669331636
504.6420363999158
503.4784323460727
501.5855632700635
499.9056671447617
497.9975709207461
496.6552031616477
497.0869383854381
515.3280707106878
498.5373478212587
496.5684977933536
492.9547203306348
503.8873911876937
499.9752917806809
497.6109952115444
492.8230657613431
491.9303726981058
498.5108447638358
495.8792310663621
487.6742505615989
470.0214295015901
554.5854827958136
558.9314501029563
560.9849083705496
561.4779087766971
554.4509528769343
558.4962055730483
560.8322043593766
562.491731313546
554.569533451419
558.2837133244716
560.7545465022763
562.7390172691794
549.5716135599231
558.2712355036512
560.8339252816924
563.2500679079909
563.5392584374521
562.0275416718836
554.2017784586242
533.7470308544705
565.0112946812856
564.8734412234768
560.9986101907328
547.1000575745422
565.4844826129975
566.1789307652215
562.7026507504764
555.3577935323941
566.1305404451318
567.7337379495162
567.1658233442122
569.9891295860975
466.5510117376353
493.3177672482163
499.520784563763
499.9915191021872
458.0451718474467
491.3061334763731
499.2958432667612
499.9854791854668
458.1684839039451
490.4348239331949
499.1954084947545
499.9822704849807
461.2948626748641
490.5115603149498
499.1783036465192
499.9803718167663
499.9593034601832
499.1499476521627
494.9155471652962
474.7329201402503
499.9675398182701
499.1980125057306
494.0820387261478
474.3167970429814
499.97457409576
499.2201371060732
492.9200630406802
471.9906857799403
499.9780112152474
499.1934545380919
491.6532183815375
468.8446758647244
499.980371816665
499.9822704849129
499.9854791855589
499.9915191022451
499.1783036464415
499.1954084946215
499.2958432665032
499.5207845637934
490.5115603149223
490.4348239332642
491.3061334765593
493.3177672483684
461.2948626747699
458.1684839038151
458.045171847322
466.5510117375332
)
;

boundaryField
{
    back
    {
        type            empty;
    }
    inlet
    {
        type            zeroGradient;
    }
    front
    {
        type            empty;
    }
    top
    {
        type            zeroGradient;
    }
    outlet
    {
        type            fixedValue;
        value           uniform 500;
    }
    bottom
    {
        type            zeroGradient;
    }
    wall
    {
        type            zeroGradient;
    }
}


// ************************************************************************* //
