/*--------------------------------*- C++ -*----------------------------------*\
  =========                 |
  \\      /  F ield         | OpenFOAM: The Open Source CFD Toolbox
   \\    /   O peration     | Website:  https://openfoam.org
    \\  /    A nd           | Version:  11
     \\/     M anipulation  |
\*---------------------------------------------------------------------------*/
FoamFile
{
    format      ascii;
    class       surfaceScalarField;
    location    "8.3";
    object      phi;
}
// * * * * * * * * * * * * * * * * * * * * * * * * * * * * * * * * * * * * * //

dimensions      [0 3 -1 0 0 0 0];

internalField   nonuniform List<scalar> 
10792
(
0.070900653
-0.042957354
-0.071412619
0.043469319
0.070254161
-0.040848292
0.041494784
0.069505838
-0.038699778
0.0394481
0.068682174
-0.036383242
0.037206905
0.067938711
-0.034239637
0.034983099
0.067093367
-0.031949226
0.03279457
0.066256306
-0.029579273
0.030416333
0.065401581
-0.027163417
0.028018141
0.06456859
-0.024669325
0.025502315
0.063822764
-0.02231571
0.023061536
0.0629917
-0.019548473
0.020379537
0.062393467
-0.017245487
0.017843719
0.061697107
-0.014415159
0.015111518
0.061219916
-0.012034397
0.012511587
0.060745284
-0.0091704914
0.0096451234
0.060297116
-0.0066757688
0.0071239363
0.060076145
-0.0037737576
0.003994727
0.05986773
-0.0012480291
0.0014564432
0.001628841
0.060078913
-0.0018400245
0.07504618
-0.042321864
-0.07568167
0.074317311
-0.040119424
0.073506285
-0.037888752
0.072791909
-0.035668867
0.072042549
-0.033490277
0.071201834
-0.031108511
0.070380272
-0.028757712
0.069536842
-0.026319987
0.068782507
-0.023914991
0.067884012
-0.021417216
0.06721569
-0.018880152
0.066541478
-0.016571274
0.065878849
-0.013752531
0.065418796
-0.011574345
0.064875779
-0.0086274754
0.06456975
-0.0063697401
0.064375026
-0.003579035
0.0642642
-0.0011372036
0.0016689302
0.06422411
0.079665204
-0.041732984
-0.080254084
0.079017073
-0.039471294
0.078375731
-0.037247409
0.077729827
-0.035022964
0.076874237
-0.032634687
0.076006837
-0.030241111
0.07514498
-0.027895855
0.074315076
-0.025490083
0.073418188
-0.023018103
0.072589401
-0.020588429
0.071941688
-0.018232439
0.071148815
-0.015778402
0.070615855
-0.013219571
0.0700115
-0.01096999
0.069582766
-0.0081987416
0.069288945
-0.0060759203
0.068991171
-0.0032812613
0.068884078
-0.0010301106
0.0017484421
0.068804565
0.08439557
-0.04102122
-0.085107335
0.083766722
-0.038842446
0.083059398
-0.036540086
0.082171902
-0.034135468
0.081268957
-0.031731742
0.080466244
-0.029438399
0.07963191
-0.027061521
0.078774084
-0.024632257
0.077999085
-0.022243105
0.077306766
-0.019896111
0.076551574
-0.017477247
0.075902378
-0.015129206
0.075354508
-0.012671703
0.074776572
-0.010392054
0.074450525
-0.0078726958
0.07404173
-0.0056671252
0.073852894
-0.0030924259
0.073677684
-0.00085490126
0.001743181
0.073682944
0.08989429
-0.040403365
-0.090512145
0.089161109
-0.038109265
0.088311982
-0.035690959
0.087537798
-0.033361284
0.086753664
-0.030947609
0.085981978
-0.028666713
0.085098831
-0.026178374
0.084308798
-0.023842225
0.083549342
-0.021483648
0.082753465
-0.019100234
0.082034956
-0.016758739
0.08135915
-0.0144534
0.080755659
-0.012068212
0.080151086
-0.009787482
0.079682522
-0.0074041318
0.079281476
-0.0052660802
0.079040969
-0.002851919
0.07889167
-0.00070560348
0.0017617374
0.078873114
0.095245115
-0.039544748
-0.096103732
0.094490653
-0.037354804
0.093693974
-0.034894279
0.092939216
-0.032606526
0.092126895
-0.030135287
0.09125045
-0.027790269
0.090420484
-0.025348408
0.089653897
-0.023075638
0.088758621
-0.020588372
0.088002682
-0.018344294
0.087251113
-0.016007171
0.08656182
-0.013764107
0.085947232
-0.011453624
0.085355879
-0.00919613
0.084958382
-0.0070066357
0.084585655
-0.0048933538
0.084406515
-0.0026727795
0.084284843
-0.00058393202
0.0017085739
0.084338006
0.10143352
-0.038901254
-0.10207702
0.10070784
-0.036629121
0.099908161
-0.0340946
0.099069909
-0.031768274
0.098229767
-0.029295145
0.09749278
-0.027053281
0.096701384
-0.024557013
0.095844035
-0.022218289
0.095001179
-0.019745517
0.094222911
-0.017566026
0.093407182
-0.015191443
0.092736785
-0.013093711
0.092079853
-0.010796692
0.091545366
-0.008661643
0.091103304
-0.0065645745
0.090758141
-0.0045481915
0.090599863
-0.0025145012
0.090433573
-0.00041764236
0.0016422098
0.090499936
0.10780083
-0.038114415
-0.10858767
0.10689024
-0.035718525
0.10603344
-0.033237804
0.10521704
-0.030951876
0.10438059
-0.028458691
0.10350195
-0.026174646
0.10261282
-0.023667879
0.10173647
-0.021341939
0.10090737
-0.018916422
0.10008658
-0.016745235
0.099333392
-0.014438253
0.098703323
-0.012463643
0.098088236
-0.010181606
0.09762298
-0.0081963873
0.097143672
-0.0060852674
0.096832126
-0.004236646
0.096570005
-0.0022523812
0.096504733
-0.00035236989
0.0016110782
0.096535864
0.11483925
-0.037277169
-0.1156765
0.1139611
-0.03484037
0.11320139
-0.032478101
0.11231496
-0.030065444
0.11146185
-0.027605583
0.11055847
-0.025271268
0.10965492
-0.022764328
0.10879171
-0.020478721
0.10795236
-0.018077081
0.10718686
-0.015979726
0.10647333
-0.013724732
0.10576957
-0.011759876
0.10510426
-0.0095162991
0.10455513
-0.0076472601
0.10405837
-0.0055885097
0.10373896
-0.003917234
0.10352699
-0.002040416
0.10353701
-0.00036238468
0.0015800504
0.10356804
0.12247847
-0.03622197
-0.12353367
0.12136618
-0.03372808
0.12035465
-0.03146657
0.11926482
-0.028975609
0.11832996
-0.026670726
0.11734656
-0.024287866
0.11649183
-0.021909603
0.11565338
-0.019640273
0.11488037
-0.017304065
0.11408526
-0.015184621
0.11335093
-0.012990399
0.11264637
-0.011055316
0.11205596
-0.0089258869
0.11155695
-0.0071482551
0.11112288
-0.0051544367
0.11080957
-0.0036039259
0.1105501
-0.0017809466
0.11051716
-0.00032944946
0.0015454845
0.11055173
0.13040419
-0.035113026
-0.13151314
0.12940621
-0.032730102
0.12843466
-0.030495019
0.12746023
-0.028001172
0.12656056
-0.025771061
0.12558579
-0.023313093
0.12470844
-0.021032253
0.12377243
-0.018704262
0.1229055
-0.016437139
0.12204352
-0.01432264
0.12131447
-0.012261353
0.12061164
-0.01035248
0.12006978
-0.0083840316
0.11956346
-0.0066419326
0.11919673
-0.0047877113
0.11884004
-0.0032472314
0.11865718
-0.0015980897
0.11853801
-0.0002102765
0.0014454253
0.11863806
0.13901678
-0.033747755
-0.14038205
0.13794492
-0.031658236
0.13671144
-0.029261546
0.13568801
-0.026977742
0.13468148
-0.024764527
0.13373501
-0.022366627
0.13283688
-0.020134124
0.13190481
-0.017772191
0.13103598
-0.015568307
0.13013409
-0.013420755
0.12935694
-0.0114842
0.12857032
-0.009565865
0.12797687
-0.007790576
0.12744943
-0.0061144999
0.12709315
-0.0044314238
0.12679877
-0.002952854
0.12666559
-0.0014649122
0.12657157
-0.00011625964
0.0012386989
0.1267783
0.14863651
-0.032519428
-0.14986484
0.14751674
-0.030538466
0.14621468
-0.027959483
0.14506904
-0.025832104
0.14380956
-0.023505043
0.14276826
-0.021325335
0.14176966
-0.019135517
0.14092481
-0.016927345
0.14010679
-0.014750283
0.13933422
-0.012648193
0.13858715
-0.010737122
0.13783197
-0.0088106923
0.13726316
-0.0072217603
0.1366829
-0.0055342475
0.13627447
-0.0040229863
0.13594192
-0.002620311
0.13576278
-0.0012857704
0.13566897
-2.2450879e-05
0.0010718369
0.13583583
0.15846349
-0.031120842
-0.15986208
0.15708652
-0.029161499
0.15594202
-0.026814977
0.15491564
-0.024805726
0.15376125
-0.022350659
0.15267631
-0.020240397
0.15152231
-0.017981511
0.15057097
-0.015976002
0.14965415
-0.01383347
0.14886015
-0.011854189
0.14804732
-0.0099242957
0.14730623
-0.0080695971
0.14664172
-0.0065572575
0.14608594
-0.0049784627
0.14565749
-0.0035945358
0.14535948
-0.0023223092
0.14520363
-0.0011299155
0.14515846
2.2716155e-05
0.00088841512
0.14534188
0.16984148
-0.029678033
-0.17128429
0.16807355
-0.027393568
0.16663097
-0.025372395
0.16523349
-0.023408249
0.16406205
-0.021179217
0.16296545
-0.019143798
0.16187315
-0.016889207
0.16084895
-0.014951807
0.15983677
-0.012821291
0.15896216
-0.010979576
0.15813339
-0.0090955272
0.15745431
-0.0073905223
0.15678614
-0.0058890818
0.15624255
-0.0044348711
0.15578084
-0.003132829
0.15546933
-0.002010801
0.15525218
-0.00091276515
0.15527559
-6.9705952e-07
0.00074053395
0.15542347
0.18129031
-0.028336983
-0.18263137
0.17983021
-0.025933466
0.17849713
-0.02403931
0.17687984
-0.021790957
0.1755561
-0.019855481
0.17420802
-0.017795719
0.17309034
-0.015771532
0.17196328
-0.013824741
0.17100731
-0.011865321
0.170143
-0.010115273
0.16932622
-0.0082787474
0.16864335
-0.0067076455
0.16801015
-0.0052558812
0.16752627
-0.0039509961
0.1671171
-0.0027236598
0.16683695
-0.001730648
0.16665597
-0.00073178441
0.16661477
4.0500344e-05
0.00065657124
0.16669873
0.19358669
-0.026504848
-0.19541882
0.19200701
-0.024353783
0.19052374
-0.022556046
0.18904738
-0.020314591
0.18769496
-0.018503065
0.18624216
-0.016342914
0.18505657
-0.014585946
0.18381198
-0.012580149
0.18283303
-0.010886369
0.18176273
-0.0090449735
0.18091365
-0.0074296698
0.18011668
-0.0059106779
0.17945755
-0.0045967472
0.17893127
-0.0034247195
0.17851497
-0.0023073618
0.17821752
-0.0014332006
0.1780439
-0.0005581606
0.17804459
3.9811923e-05
0.00058973225
0.17811142
0.20698846
-0.024667016
-0.20882629
0.20536329
-0.022728607
0.20366432
-0.020857077
0.20218886
-0.018839133
0.20074063
-0.017054842
0.19938322
-0.0149855
0.19810453
-0.013307259
0.19689899
-0.011374608
0.19586373
-0.0098511117
0.19484479
-0.0080260316
0.19405723
-0.0066421042
0.19324808
-0.005101535
0.19264331
-0.0039919748
0.19208552
-0.0028669253
0.19172348
-0.0019453313
0.19139791
-0.001107628
0.19128438
-0.00044463329
0.19124921
7.498112e-05
0.00047298433
0.19136596
0.22085542
-0.022836334
-0.2226861
0.21917971
-0.021052896
0.21753345
-0.019210819
0.21604897
-0.017354653
0.21452814
-0.015534015
0.21316693
-0.013624287
0.21181205
-0.011952375
0.21065594
-0.0102185
0.20946915
-0.0086643204
0.20848082
-0.0070377002
0.20752428
-0.0056855705
0.20667605
-0.004253308
0.2059852
-0.0033011206
0.2053773
-0.0022590263
0.20498787
-0.0015558974
0.20464402
-0.00076378582
0.20449515
-0.00029575677
0.2044277
0.00014242467
0.00037242429
0.20452826
0.23657119
-0.020796207
-0.23861132
0.23460778
-0.019089479
0.2327923
-0.017395346
0.23111129
-0.015673643
0.22953013
-0.013952854
0.22809653
-0.012190686
0.22676241
-0.01061825
0.22558346
-0.0090395507
0.22445511
-0.0075359716
0.22351922
-0.0061018145
0.2225891
-0.0047554501
0.22185938
-0.0035235913
0.22113206
-0.0025737923
0.22058595
-0.0017129166
0.22016831
-0.0011382604
0.21993335
-0.00052882748
0.21979927
-0.000161675
0.21972527
0.00021641878
0.00035726336
0.21974043
0.25265724
-0.018971614
-0.25448183
0.25082739
-0.017259627
0.24901554
-0.0155835
0.24726669
-0.013924788
0.24561138
-0.012297548
0.24405716
-0.010636468
0.2426112
-0.0091722862
0.2412904
-0.0077187547
0.24011691
-0.0063624808
0.2390762
-0.0050611075
0.23815602
-0.003835261
0.23739108
-0.0027586531
0.23665228
-0.0018349951
0.23608986
-0.0011504971
0.23561523
-0.00066362799
0.23538092
-0.00029452425
0.23525556
-3.6309502e-05
0.2353549
0.00011707583
0.00027740763
0.23543475
0.26996004
-0.016696883
-0.27223477
0.26796285
-0.015262429
0.26609892
-0.013719574
0.26438647
-0.012212334
0.26274777
-0.010658847
0.26124425
-0.0091329575
0.25985476
-0.0077827887
0.25856628
-0.0064302795
0.25745418
-0.0052503823
0.25645017
-0.0040571003
0.25562331
-0.003008397
0.25492145
-0.0020567918
0.25430832
-0.0012218651
0.25373725
-0.00057942455
0.25327707
-0.00020345217
0.25292934
5.3202608e-05
0.2527365
0.00015653652
0.25268237
0.00017120602
0.0001991855
0.25276059
0.28891397
-0.01426929
-0.29134157
0.28664249
-0.012990942
0.28456824
-0.011645328
0.28266024
-0.010304336
0.28095191
-0.0089505189
0.27940417
-0.0075852168
0.27797016
-0.006348771
0.27667259
-0.005132718
0.2755203
-0.0040980857
0.27459228
-0.0031290849
0.27376433
-0.0021804496
0.27311315
-0.0014056093
0.27259844
-0.00070715572
0.27220935
-0.00019033457
0.27190659
9.9312278e-05
0.27163244
0.00032735207
0.27150936
0.00027961684
0.27143239
0.00024817055
0.00010976206
0.27152181
0.30922037
-0.011660787
-0.31182888
0.30683038
-0.010600946
0.30461851
-0.009433462
0.30261891
-0.0083047344
0.30079031
-0.0071219164
0.29920782
-0.0060027276
0.29779071
-0.0049316635
0.29653697
-0.0038789759
0.29545288
-0.0030139933
0.29446723
-0.0021434408
0.29371589
-0.001429113
0.29309044
-0.00078015167
0.29260835
-0.00022507063
0.29224144
0.00017657892
0.29193231
0.00040843571
0.29176284
0.00049682155
0.2915926
0.00044985633
0.29153011
0.00031066957
0.00010528598
0.29153458
0.33174301
-0.0083326597
-0.33507114
0.32875652
-0.0076144564
0.32610025
-0.0067771852
0.32377308
-0.0059775671
0.32172241
-0.0050712475
0.31996499
-0.0042453036
0.31847766
-0.0034443309
0.3172559
-0.0026572182
0.31626729
-0.0020253869
0.31545462
-0.0013307662
0.31486114
-0.00083563348
0.31444268
-0.00036169507
0.31424707
-2.9460779e-05
0.31413726
0.00028639085
0.3140512
0.00049449314
0.31400869
0.00053932899
0.31394387
0.00051468102
0.31392207
0.00033246687
0.00010798126
0.31391937
0.35642555
-0.0044590065
-0.36029921
0.35290183
-0.0040907312
0.34982216
-0.0036975201
0.3470897
-0.0032451043
0.34477479
-0.0027563363
0.34282119
-0.0022917047
0.34120542
-0.0018285564
0.33995284
-0.0014046437
0.33894855
-0.0010210949
0.33826918
-0.00065140171
0.33779533
-0.00036177875
0.33752415
-9.0521925e-05
0.3373934
0.00010129791
0.33743124
0.00024854659
0.33756196
0.00036377503
0.33764256
0.00045872256
0.33775364
0.00040360799
0.33777246
0.00031364551
0.00013828769
0.33774215
0.38405241
-0.38851141
0.37996168
0.37626416
0.37301905
0.37026272
0.36797101
0.36614245
0.36473781
0.36371671
0.36306531
0.36270353
0.36261301
0.36271431
0.36296286
0.36332663
0.36378535
0.36418896
0.36450261
0.36464089
0.060012543
0.0044159165
-0.0043495476
0.060320353
0.0072732191
-0.0075810292
0.060762027
0.0099041682
-0.010345843
0.061482196
0.012859567
-0.013579736
0.062368906
0.01545844
-0.01634515
0.063545509
0.018490071
-0.019666675
0.064919851
0.021109866
-0.022484209
0.066492501
0.02418542
-0.02575807
0.068322307
0.026998896
-0.028828703
0.070239091
0.029920758
-0.031837542
0.07247821
0.032654221
-0.034893341
0.074919565
0.035474186
-0.037915541
0.077607899
0.038189117
-0.040877452
0.080535708
0.041179317
-0.044107126
0.083765739
0.043722102
-0.046952133
0.087308482
0.046604027
-0.05014677
0.091398302
0.049133819
-0.053223639
0.095832634
0.051688632
-0.056122964
0.054174333
0.10101817
-0.059359865
0.064228501
0.0044115248
0.064593199
0.0069085198
0.065132268
0.0093650989
0.066035436
0.011956399
0.067090358
0.014403518
0.068460176
0.017120253
0.069961057
0.019608984
0.07180829
0.022338188
0.073796928
0.025010258
0.076009862
0.027707822
0.07839098
0.030273102
0.08107802
0.032787146
0.083922283
0.035344855
0.087040707
0.038060893
0.090578673
0.040184136
0.094254438
0.042928263
0.098653193
0.044735064
0.10325299
0.047088836
0.048676599
0.10875072
0.068908293
0.0043077965
0.069122688
0.0066941253
0.069804557
0.0086832299
0.070619828
0.011141128
0.071803052
0.013220293
0.073138747
0.015784559
0.074814085
0.017933646
0.076650394
0.02050188
0.078814532
0.022846119
0.081185675
0.025336679
0.083867752
0.027591024
0.086740773
0.029914125
0.089915129
0.032170499
0.093446992
0.03452903
0.097330036
0.036301092
0.10147319
0.03878511
0.10612917
0.04007908
0.11107123
0.042146782
0.043078765
0.11666906
0.07377228
0.0042184596
0.0741165
0.0063499049
0.074849004
0.0079507258
0.07574922
0.010240912
0.077095094
0.011874419
0.078520467
0.014359185
0.08039494
0.016059173
0.082300947
0.018595873
0.084737613
0.020409453
0.087181181
0.02289311
0.090105338
0.024666866
0.093014813
0.027004649
0.096471467
0.028713845
0.1000919
0.030908596
0.10416153
0.032231461
0.10854644
0.034400201
0.11332412
0.035301401
0.11840749
0.037063412
0.037563511
0.12392275
0.078942311
0.0041492624
0.079408126
0.0058840896
0.080116151
0.0072427017
0.081198889
0.0091581742
0.082471241
0.010602067
0.084069179
0.012761247
0.08588296
0.014245392
0.087940852
0.016537981
0.090366567
0.017983736
0.092976096
0.02028358
0.095892882
0.021750079
0.09912677
0.023770761
0.10259952
0.025241098
0.10642926
0.02707885
0.11046114
0.028199582
0.11490772
0.02995362
0.11954331
0.03066582
0.12441485
0.032191871
0.032131411
0.12984695
0.084468607
0.0040186613
0.084998843
0.005353853
0.085779715
0.0064618291
0.086952779
0.0079851105
0.088273612
0.0092812334
0.090070282
0.010964577
0.091916906
0.012398768
0.094292459
0.014162428
0.096741798
0.015534398
0.099558915
0.017466461
0.10256088
0.018748113
0.10584657
0.020485073
0.10929802
0.021789643
0.11309714
0.023279732
0.11688897
0.024407748
0.1211338
0.025708794
0.12527849
0.026521129
0.12983874
0.027631626
0.027740851
0.1342293
0.090559775
0.003958823
0.091153474
0.0047601536
0.091922511
0.0056927924
0.093180822
0.0067268002
0.09459444
0.0078676149
0.096472029
0.009086989
0.098410677
0.010460119
0.10088734
0.011685765
0.10327477
0.013146965
0.10626112
0.014480114
0.10918237
0.015826859
0.11253366
0.017133788
0.11586234
0.01846096
0.1194339
0.019708168
0.12299647
0.020845183
0.126662
0.022043261
0.13028239
0.022900742
0.13394252
0.0239715
0.024767212
0.13691615
0.096737132
0.0037575539
0.097414885
0.0040824005
0.098248804
0.004858873
0.099619956
0.0053556472
0.1010589
0.006428668
0.10302125
0.00712464
0.10504396
0.0084374074
0.10757698
0.0091527473
0.11006527
0.01065867
0.11307127
0.011474119
0.11586706
0.013031066
0.11914584
0.01385501
0.1221288
0.015477993
0.1255456
0.016291371
0.12841414
0.017976641
0.13163073
0.018826675
0.13426792
0.020263549
0.13671848
0.021520941
0.02293744
0.13854825
0.10393172
0.0033938706
0.1044212
0.0035929154
0.10537489
0.0039051862
0.1066571
0.0040734438
0.10819154
0.0048942254
0.11019886
0.0051173143
0.11234518
0.0062910948
0.11487129
0.006626631
0.11737926
0.0081506981
0.12024437
0.0086090106
0.12287385
0.010401584
0.12581478
0.010914081
0.12834183
0.012950942
0.13117312
0.013460086
0.13318455
0.01596521
0.13548331
0.016527914
0.13653821
0.019208652
0.13781005
0.020249102
0.022916001
0.13783148
0.11103866
0.0029069381
0.11157322
0.0030583581
0.11282451
0.0026538971
0.11400979
0.0028881541
0.1158051
0.0030989168
0.11766191
0.0032605034
0.11992026
0.004032746
0.12225782
0.0042890701
0.12476588
0.0056426351
0.12731574
0.0060591485
0.1298071
0.0079102257
0.13233275
0.0083884271
0.13442411
0.010859587
0.13636425
0.011519943
0.13760451
0.014724954
0.13866353
0.01546889
0.13833699
0.019535198
0.13789112
0.020694973
0.025238851
0.13556826
0.11899722
0.002547785
0.11961471
0.0024408662
0.12080295
0.0014656612
0.12194407
0.0017470304
0.12387559
0.0011673911
0.12554279
0.0015933088
0.12793085
0.0016446838
0.12992286
0.0022970556
0.13227775
0.0032877489
0.13430892
0.0040279774
0.13652663
0.0056925143
0.13819685
0.0067182083
0.13962079
0.0094356404
0.14034346
0.010797273
0.14062419
0.014444227
0.14008249
0.01601059
0.13861745
0.021000243
0.13630071
0.023011713
0.029447705
0.13209185
0.12708048
0.0022456086
0.1279358
0.0015855421
0.12897065
0.0004308051
0.1303636
0.00035408303
0.13214869
-0.00061769552
0.13383816
-9.616789e-05
0.13615692
-0.00067407524
0.13792603
0.0005279426
0.14019782
0.0010159608
0.14179567
0.0024301259
0.14351366
0.0039745153
0.14438561
0.0058462628
0.14509259
0.0087286603
0.1446704
0.01121946
0.14368948
0.015425148
0.1413682
0.018331876
0.13850202
0.023866423
0.13443971
0.027074024
0.034473801
0.12941361
0.13612448
0.0019569577
0.13699888
0.00071114409
0.13789355
-0.00046386348
0.1394881
-0.001240469
0.14099005
-0.0021196437
0.14278269
-0.001888814
0.14461665
-0.0025080347
0.14620211
-0.0010575104
0.14800974
-0.00079168039
0.1488842
0.0015556692
0.14994869
0.0029100303
0.14986907
0.0059258782
0.14958025
0.0090174804
0.14803746
0.012762252
0.1460775
0.017385108
0.14271924
0.021690136
0.13880401
0.027781651
0.13379594
0.032082096
0.040085443
0.1281843
0.14566448
0.0016343598
0.14651811
-0.00014248707
0.14749019
-0.0014359424
0.14904445
-0.0027947314
0.15031813
-0.0033933228
0.15210854
-0.0036792271
0.15344918
-0.0038486743
0.15498969
-0.0025980259
0.15615405
-0.0019560415
0.15672576
0.00098396452
0.15693491
0.0027008796
0.15564038
0.0072204031
0.15437872
0.010279138
0.15168534
0.015455641
0.14887298
0.020197461
0.1445252
0.026037921
0.14017503
0.03213182
0.13440211
0.03785502
0.046115517
0.12837203
0.15584617
0.0012116641
0.1566287
-0.00092501892
0.15760012
-0.0024073589
0.15898019
-0.0041748007
0.16018583
-0.0045989639
0.16179052
-0.0052839162
0.16271393
-0.0047720896
0.16396569
-0.0038497846
0.16431171
-0.0023020662
0.16446179
0.00083388577
0.16349992
0.0036627489
0.16187479
0.0088455406
0.15985829
0.012295639
0.15629904
0.019014886
0.15266717
0.023829328
0.14747943
0.031225666
0.14274124
0.036870013
0.13642697
0.044169282
0.051938859
0.13060363
0.16716868
0.00074171262
0.16783507
-0.0015914083
0.16884233
-0.0034146186
0.17001616
-0.005348628
0.17115641
-0.0057392199
0.17239261
-0.0065201163
0.17298633
-0.0053658112
0.17363099
-0.0044944426
0.1730652
-0.0017362781
0.17242957
0.0014695198
0.17054806
0.0055442587
0.16871537
0.010678226
0.16554278
0.015468238
0.16171409
0.02284357
0.15759945
0.027943966
0.15257381
0.036251309
0.14829739
0.041146434
0.14298188
0.049484794
0.055062826
0.13985791
0.17862527
0.00022786735
0.17928712
-0.0022532589
0.18023518
-0.004362681
0.18109212
-0.0062055691
0.18214798
-0.0067950782
0.18298274
-0.0073548717
0.18335783
-0.0057409012
0.18337394
-0.0045105473
0.18238453
-0.00074687672
0.18131598
0.0025380751
0.17893033
0.007929913
0.17646806
0.013140498
0.17240552
0.019530778
0.16890041
0.026348679
0.16473237
0.032112006
0.16123565
0.039748029
0.15864835
0.043733731
0.15716772
0.050965426
0.051740415
0.16049013
0.19182233
-0.00022849996
0.19247965
-0.0029105776
0.19320905
-0.0050920816
0.19369336
-0.006689886
0.19435846
-0.0074601695
0.19454714
-0.0075435595
0.19451434
-0.0057080919
0.1937912
-0.0037874138
0.19248022
0.00056410724
0.19080468
0.0042136138
0.18809284
0.010641753
0.18532387
0.015909475
0.18169429
0.023160357
0.17928972
0.028753252
0.17661609
0.034785639
0.17648864
0.039875478
0.17770137
0.042521003
0.18301592
0.045650877
0.041853161
0.19290317
0.20490246
-0.00060269534
0.20544577
-0.0034538874
0.20609307
-0.0057393807
0.20669522
-0.0072920368
0.20711975
-0.0078847025
0.2068028
-0.007226603
0.20643061
-0.0053358996
0.20522209
-0.0025788973
0.2038377
0.0019484983
0.20153131
0.0065200066
0.19877653
0.013396535
0.19616728
0.018518728
0.19391021
0.025417428
0.19318025
0.029483207
0.19346675
0.034499144
0.1973174
0.036024826
0.20305251
0.036785895
0.21343034
0.035273047
0.030403876
0.22487963
0.21996707
-0.00082933798
0.22037443
-0.0038612418
0.22077449
-0.006139445
0.22107186
-0.0075894049
0.22106152
-0.0078743573
0.22062197
-0.0067870479
0.21986576
-0.0045796957
0.2182411
-0.00095423032
0.21664506
0.0035445364
0.21406703
0.0090980397
0.21227456
0.01518901
0.2107772
0.020016088
0.21083987
0.025354757
0.21253497
0.027788105
0.21650429
0.030529825
0.22344727
0.029081844
0.23184049
0.028392681
0.24272048
0.024393053
0.021926934
0.25119742
0.23569858
-0.0010931682
0.23591775
-0.004080402
0.23605944
-0.0062811333
0.23599097
-0.0075209383
0.23552381
-0.0074071939
0.23470218
-0.0059654139
0.23343151
-0.0033090267
0.23189253
0.00058474698
0.2300383
0.0053987759
0.2280373
0.011099034
0.22751753
0.015708784
0.22752258
0.020011035
0.23010501
0.022772328
0.23412221
0.023770913
0.24060273
0.024049305
0.2482848
0.021399772
0.2565516
0.020125879
0.26421572
0.016728934
0.018254034
0.26788863
0.25303502
-0.0013676054
0.25300663
-0.0040520076
0.25298652
-0.0062610258
0.25263935
-0.0071737574
0.2520869
-0.0068547512
0.25124778
-0.005126287
0.25002109
-0.0020823316
0.2485624
0.0020434315
0.2470018
0.0069593859
0.24656402
0.011536815
0.24732618
0.014946618
0.24954118
0.017796036
0.2538712
0.018442308
0.25897862
0.018663495
0.26585387
0.017174054
0.27222284
0.015030807
0.27777939
0.014569331
0.28044525
0.014063069
0.01932585
0.27937344
0.27148463
-0.0013304194
0.27126435
-0.003831725
0.27082192
-0.0058185924
0.26994869
-0.006300535
0.26874247
-0.0056485268
0.2672501
-0.0036339125
0.26598368
-0.00081591156
0.26486657
0.0031605414
0.2644579
0.0073680636
0.26540882
0.0105859
0.26747214
0.012883294
0.2714787
0.013789475
0.27625585
0.013665168
0.28181651
0.013102833
0.2875188
0.011471761
0.29101236
0.011537253
0.29279372
0.012787964
0.29132985
0.015526944
0.022675646
0.28798005
0.29154369
-0.001339529
0.29139443
-0.0036824592
0.2908337
-0.0052578674
0.29016774
-0.0056345702
0.28927154
-0.00475233
0.28821907
-0.0025814347
0.28718476
0.00021840172
0.28678402
0.0035612773
0.28750987
0.0066422179
0.289429
0.0086667705
0.29249453
0.0098177649
0.29628837
0.0099956367
0.30030919
0.0096443484
0.30475921
0.00865282
0.30738546
0.0088455078
0.30795035
0.010972367
0.30724862
0.013489692
0.30485803
0.017917528
0.023354078
0.3041796
0.31358844
-0.0010085938
0.31272647
-0.0028204902
0.31142449
-0.0039558814
0.30969165
-0.0039017329
0.30787737
-0.0029380457
0.3066773
-0.0013813644
0.30618946
0.00070624522
0.30666295
0.0030877904
0.30837429
0.0049308827
0.31114153
0.0058995233
0.31476777
0.0061915276
0.31882503
0.0059383764
0.32277255
0.0056968379
0.32563906
0.0057863035
0.32671096
0.0077736141
0.32775248
0.009930846
0.32839412
0.012848054
0.33059121
0.01572043
0.017451004
0.33649429
0.33750636
-0.00077279835
0.33657863
-0.0018927641
0.33532791
-0.0027051534
0.33413749
-0.0027113131
0.33321824
-0.0020187917
0.33286193
-0.0010250527
0.33327916
0.00028901512
0.33485183
0.0015151207
0.33714936
0.0026333533
0.33990053
0.003148359
0.34259737
0.0034946892
0.34499123
0.003544522
0.34648733
0.004200737
0.3474427
0.0048309282
0.34893625
0.006280064
0.35186637
0.0070007306
0.35605083
0.0086635975
0.36347347
0.0082977837
0.0078053054
0.37311917
0.3638681
0.36197533
0.35927018
0.35655887
0.35454008
0.35351502
0.35380404
0.35531916
0.35795252
0.36110088
0.36459557
0.36814009
0.37234083
0.37717175
0.38345182
0.39045255
0.39911615
0.40741393
0.41521924
0.099692886
0.063427714
-0.062102434
0.098897018
0.065898911
-0.065103042
0.098108179
0.068982496
-0.068193657
0.097903304
0.070898779
-0.070693904
0.097772684
0.074020334
-0.073889714
0.098403401
0.076242555
-0.076873272
0.099182266
0.07901618
-0.079795045
0.10095606
0.080651163
-0.082424953
0.10297453
0.083826392
-0.085844869
0.10556722
0.085340546
-0.087933229
0.10900902
0.086362324
-0.089804131
0.11130137
0.08800213
-0.09029448
0.11367565
0.087370751
-0.089745025
0.11525588
0.086173148
-0.087753375
0.1159469
0.083082142
-0.083773165
0.11465158
0.078424321
-0.077129003
0.11111702
0.070874851
-0.067340287
0.1034529
0.06235393
-0.054689817
0.051805743
0.092069929
-0.040422769
0.10748012
0.064698319
0.10666
0.066719028
0.10613793
0.069504566
0.10611728
0.070919429
0.1065721
0.073565512
0.10735882
0.075455841
0.10857844
0.077796554
0.11047628
0.078753326
0.11307813
0.081224538
0.11597418
0.082444496
0.1194267
0.082909804
0.12339449
0.08403434
0.12697418
0.08379107
0.1299858
0.083161524
0.13220934
0.0808586
0.13232675
0.078306914
0.13039502
0.072806583
0.12553132
0.067217631
0.060221029
0.11711603
0.11530162
0.066065757
0.11422812
0.067792533
0.11347117
0.070261514
0.11308893
0.071301672
0.1134902
0.073164241
0.11405261
0.074893427
0.1154976
0.076351567
0.11727665
0.076974272
0.11990898
0.078592216
0.12292018
0.07943329
0.12579126
0.080038729
0.13004064
0.079784957
0.13359047
0.080241244
0.13731675
0.079435242
0.13994102
0.078234325
0.14161047
0.07663747
0.14058518
0.073831866
0.13777712
0.070025698
0.066127976
0.13187017
0.12252306
0.067465438
0.12115232
0.069163278
0.12023206
0.071181774
0.11962382
0.071909915
0.11940474
0.073383316
0.11963268
0.074665484
0.12081643
0.07516782
0.12235339
0.075437318
0.1245834
0.076362205
0.12714497
0.076871718
0.12982451
0.077359189
0.13371292
0.075896551
0.13718658
0.076767579
0.14004309
0.076578734
0.14246838
0.075809033
0.14467458
0.074431265
0.14553084
0.072975613
0.14428522
0.071271314
0.070187686
0.14022551
0.12784247
0.06946991
0.1261697
0.070836054
0.12509141
0.072260065
0.12426868
0.072732641
0.12391632
0.073735676
0.12386937
0.074712435
0.12467138
0.074365814
0.12563274
0.074475957
0.12696815
0.075026796
0.12916653
0.074673337
0.13223671
0.074289009
0.13514867
0.072984592
0.13782439
0.074091858
0.14072413
0.073678996
0.14386034
0.072672826
0.14639628
0.071895321
0.14772809
0.071643807
0.14714175
0.071857654
0.072646236
0.1446832
0.13191512
0.071784087
0.12969065
0.073060519
0.12819538
0.073755337
0.12684332
0.0740847
0.12583837
0.07474063
0.12573989
0.074810914
0.12599393
0.074111777
0.12630362
0.074166262
0.12781208
0.073518338
0.12999061
0.072494804
0.13230737
0.071972256
0.13464048
0.07065148
0.13818405
0.070548288
0.1423159
0.069547149
0.14572943
0.069259287
0.14827075
0.069354008
0.14964784
0.070266718
0.15088022
0.070625265
0.07241281
0.15111365
0.13402199
0.07467825
0.13149305
0.075589461
0.12954138
0.075707009
0.1274087
0.076217382
0.12623323
0.075916098
0.12536037
0.075683768
0.12475708
0.07471507
0.1252208
0.073702541
0.12616303
0.072576106
0.12738463
0.071273213
0.13024875
0.069108131
0.13372855
0.067171682
0.13754888
0.066727959
0.14150397
0.065592054
0.14598855
0.064774715
0.15173428
0.063608277
0.15785007
0.064150929
0.1637836
0.064691731
0.068556063
0.16764035
0.13464437
0.078582133
0.13147691
0.078756922
0.12820962
0.078974301
0.1258647
0.078562305
0.12361743
0.078163368
0.12197146
0.077329729
0.12104349
0.075643049
0.12046793
0.074278095
0.12109238
0.071951656
0.12350452
0.068861078
0.12637224
0.066240406
0.12911649
0.064427438
0.13465139
0.061193051
0.14336483
0.056878619
0.15401009
0.054129457
0.1648281
0.05279026
0.17509941
0.053879624
0.1836844
0.05610674
0.06175179
0.19048867
0.13322151
0.083192112
0.12886928
0.083109152
0.12467315
0.08317043
0.1210437
0.082191749
0.11742976
0.081777312
0.11498581
0.079773679
0.11233005
0.078298805
0.11138607
0.07522208
0.11181359
0.071524138
0.11209606
0.068578605
0.11296496
0.065371507
0.1179096
0.059482798
0.12772192
0.05138073
0.13843153
0.046169016
0.14802767
0.04453331
0.15685429
0.043963643
0.1662655
0.044468416
0.17523311
0.047139129
0.052167651
0.18481725
0.12970367
0.08905671
0.12384131
0.088971513
0.11847041
0.088541329
0.11285199
0.087810165