/*--------------------------------*- C++ -*----------------------------------*\
  =========                 |
  \\      /  F ield         | OpenFOAM: The Open Source CFD Toolbox
   \\    /   O peration     | Website:  https://openfoam.org
    \\  /    A nd           | Version:  11
     \\/     M anipulation  |
\*---------------------------------------------------------------------------*/
FoamFile
{
    format      ascii;
    class       volScalarField;
    location    "0.0425";
    object      Ma;
}
// * * * * * * * * * * * * * * * * * * * * * * * * * * * * * * * * * * * * * //

dimensions      [0 0 0 0 0 0 0];

internalField   nonuniform List<scalar> 
880
(
1.11801663592382
1.11801663592382
1.1180166359115
1.118016622006225
1.11801663592382
1.11801663592382
1.118016635463866
1.118017100077374
1.11801663592382
1.11801663592382
1.118016630073232
1.118011020089167
1.118016635923821
1.11801663592382
1.118016511596796
1.117618301175598
1.11801663592382
1.11801663592382
1.118016635923821
1.118016635914566
1.11801663592382
1.118016635923794
1.118016635936615
1.118016635401085
1.118014750130931
1.118011367396005
1.118011225319782
1.118006735896468
1.114588629807377
1.108402944957177
1.105583200403487
1.105993371164944
1.118016635169243
1.118016634692308
1.118016634564548
1.118016635026414
1.118016611941593
1.118016610789287
1.118016610135936
1.118016597866812
1.117987272268105
1.117984014530297
1.117983285262417
1.117970909261603
1.105718719513247
1.105744129816512
1.105594685155473
1.103929510213429
1.114174884827847
1.120720813884212
1.120946472627864
1.118993825021146
1.117982809236913
1.118008618831418
1.118025283516906
1.118021141693263
1.11801659382481
1.118016621405596
1.118016642685307
1.118016640178848
1.118016632421457
1.118016632907592
1.118016634419323
1.118016635620541
1.118016635907463
1.118016635923842
1.118016635923821
1.11801663592382
1.118016636330949
1.11801663592972
1.118016635923991
1.118016635923834
1.118017083907095
1.118016643102834
1.118016635942134
1.118016635921682
1.118115954477541
1.118018730693438
1.118016642051527
1.118016635374005
1.118016635528438
1.118016635923169
1.11801663592382
1.11801663592382
1.118016630059007
1.118016636067332
1.118016635927788
1.118016635923821
1.118001380147834
1.118016583166198
1.118016635913965
1.118016635908563
1.116162599002254
1.11803610066095
1.11801719269407
1.118016636457206
1.118016635083119
1.118016492363202
1.117885893494459
1.057761315499002
1.118016631294857
1.118016406835402
1.117731204030141
1.033984592983649
1.118016628368364
1.118016331678192
1.117653948206
1.028966140344075
1.11801662615124
1.118016255373876
1.11759391408658
1.026211179110629
1.021843926813148
1.117521898390399
1.118016154784833
1.118016623351164
1.017737680762867
1.117435911979958
1.118016026978872
1.118016619227937
1.011880217033088
1.117316994999778
1.118015829527574
1.118016614637462
1.007394084322726
1.117194630084809
1.118015624971814
1.118016604107891
1.118016606383048
1.118015645850172
1.117114161511456
1.000267530593645
1.118016599075525
1.118015382083086
1.116996618843247
0.9998047395645686
1.118016591331831
1.118015258208078
1.117022395096049
1.015731994641554
1.11801660896989
1.118016062810525
1.117625363694051
1.070095738790326
1.118016690908146
1.118017691048131
1.118641782854931
1.132523447131576
1.118016635655281
1.118014589990779
1.117298032412486
1.090204024859618
1.118016630968926
1.118010123467801
1.115807303432017
1.024565322902149
1.118016630038861
1.11800627431589
1.114027701182293
0.9729246051451617
0.9892653432925614
1.115817259596661
1.118012408669715
1.118016633034671
1.006760873475937
1.116036643567889
1.118012582040574
1.118016633019845
1.02140269195566
1.116718835468573
1.118014551655872
1.118016634759532
1.005836018169405
1.116268808145243
1.118013588504695
1.118016633726521
1.066165449845597
1.117496384151507
1.118015867951695
1.118016635485654
1.106527724169036
1.117961680946749
1.118016580665685
1.118016635893792
1.118242467988302
1.118019627819908
1.118016643303762
1.118016635933495
1.119581278120074
1.118026901510449
1.118016661076585
1.118016635947284
1.104923491232026
1.117870580869218
1.118016098555983
1.118016634907087
1.104971583845893
1.117870860475951
1.118016099347079
1.118016634907513
1.105162625730253
1.117871963003887
1.118016101912199
1.11801663490778
1.104930871361353
1.117873555106271
1.118016109997337
1.118016634916489
1.119581278119986
1.118026901511099
1.118016661077381
1.118016635947921
1.118242467988156
1.118019627820971
1.118016643304779
1.118016635933589
1.106527724169725
1.117961680947514
1.118016580665747
1.118016635893986
1.066165449844661
1.11749638415227
1.118015867951395
1.11801663548561
1.118016633034081
1.118012408669514
1.115817259596677
0.9892653432920295
1.118016633020022
1.118012582040345
1.116036643565808
1.006760873474351
1.118016634759375
1.118014551656157
1.116718835469485
1.021402691956377
1.118016633726395
1.118013588503971
1.116268808145251
1.005836018169296
0.9729246051432923
1.114027701182377
1.118006274316339
1.118016630038752
1.024565322901076
1.115807303431868
1.118010123467354
1.118016630969101
1.090204024859141
1.117298032412273
1.118014589991102
1.118016635654723
1.132523447131508
1.118641782855558
1.118017691048874
1.118016690907594
1.118016606383182
1.11801564584938
1.117114161510532
1.000267530593933
1.118016599075284
1.118015382083615
1.116996618842706
0.9998047395636154
1.118016591332393
1.118015258207777
1.117022395096017
1.015731994641707
1.118016608969767
1.11801606281075
1.117625363694099
1.070095738790382
1.007394084322419
1.117194630085719
1.11801562497152
1.118016604106825
1.011880217032799
1.117316994999401
1.11801582952751
1.118016614637492
1.017737680762993
1.11743591198017
1.118016026978886
1.118016619227889
1.021843926812884
1.11752189838924
1.118016154784472
1.118016623350931
1.118016635082945
1.118016492363032
1.117885893494668
1.057761315499218
1.118016631294148
1.118016406834715
1.117731204030836
1.033984592983666
1.118016628367535
1.118016331677613
1.117653948205552
1.028966140343973
1.118016626151337
1.118016255374135
1.117593914087061
1.026211179111583
1.118016636457119
1.118016635908628
1.118016635923821
1.11801663592382
1.118017192695074
1.11801663591433
1.118016635928036
1.11801663592382
1.118036100661536
1.118016583165958
1.118016636067598
1.118016635923247
1.116162599002579
1.118001380147794
1.118016630058702
1.118016635528446
1.11801663592382
1.118016635923826
1.118016635921548
1.118016635373833
1.118016635923821
1.118016635923945
1.118016635942034
1.118016642051322
1.118016635923845
1.118016635929605
1.118016643103323
1.118018730694171
1.118016635907678
1.11801663633102
1.118017083906766
1.118115954477592
1.118016632421222
1.11801659382553
1.117982809236829
1.114174884827351
1.11801663290816
1.118016621405264
1.118008618831095
1.120720813883919
1.118016634419104
1.118016642685739
1.118025283517255
1.120946472628258
1.118016635620645
1.118016640179009
1.118021141693025
1.118993825021945
1.103929510213742
1.117970909261862
1.118016597867196
1.11801663502613
1.105594685155889
1.117983285261715
1.118016610136789
1.118016634564534
1.105744129816052
1.11798401452946
1.118016610790308
1.118016634692831
1.105718719514022
1.117987272269097
1.118016611941969
1.118016635168449
1.105993371165223
1.118006735895711
1.118016635401027
1.118016635914345
1.105583200403743
1.118011225320187
1.118016635937239
1.11801663592382
1.108402944957565
1.118011367396193
1.118016635923793
1.11801663592382
1.114588629807877
1.118014750131304
1.11801663592382
1.11801663592382
1.118016635923821
1.11801663592382
1.118016635911247
1.118016622006283
1.11801663592382
1.11801663592382
1.118016635463866
1.118017100077309
1.11801663592382
1.11801663592382
1.118016630073235
1.118011020088987
1.11801663592382
1.11801663592382
1.118016511597014
1.117618301176051
1.118016585238474
1.118016018648538
1.117950263943967
1.115354516129284
1.11801601864852
1.118004512826714
1.117099752273292
1.10111596404248
1.117950263943904
1.117099752273243
1.105396835384064
1.039636671408776
1.115354516128812
1.101115964042064
1.03963667140805
0.9140883298395021
0.8661205451690286
0.9175976989556917
1.006031834394191
1.064215464977528
0.9248880186573099
0.9352025366577481
0.9700842730596474
1.007511424082846
0.9637625898731766
0.9883770450566035
1.001151100801484
1.014579110281896
0.9804401118280561
1.022173866139595
1.023220848587229
1.026769547098366
1.029812155733989
1.031211035107862
1.031390347226772
1.026592510498902
1.029967118595644
1.032086913163943
1.032740145010624
1.037020201400387
1.033041704724685
1.035703831598628
1.036825955021112
1.073991001082884
0.982733534300934
0.9838002573206375
0.9855761549728352
1.133745744255189
1.14888301920424
1.16786075956936
1.142271511849589
1.124035611336466
1.230512489618147
1.21149901367853
1.159095930258899
1.129997335773923
1.34316867900013
1.244905811312218
1.174621883786733
1.136464076458867
1.109800384484466
1.06573553383207
1.08817006629669
1.107923223258932
1.118703369867429
1.118037771942309
1.118016740165484
1.118016629009886
1.119493663528747
1.118063091093865
1.11801685565287
1.118016621033336
1.120507280804732
1.118098832492218
1.1180170419477
1.118016618945006
1.116838226307998
1.117983535110408
1.118016301826835
1.118016613674554
1.118016629465802
1.118016648549483
1.117736153437543
1.027892641491305
1.118016627720314
1.11801663845951
1.117497409888441
0.9508067290947461
1.118016628803699
1.118016635462937
1.116818410165922
0.8773603201983965
1.118016632878981
1.118016635663946
1.113799555411827
0.7255395980417338
0.7234490096647277
0.7916473360141544
0.8173986772929526
0.8262199883171922
0.6299964881260868
0.7617493799604143
0.8181908599238786
0.8344457850061621
0.5554017961446125
0.7251270989581526
0.8089497217111574
0.831277261367208
0.4655676686213744
0.6248693735937958
0.7089241376850836
0.7399727005028205
0.8267634225416916
0.8266189787286423
0.8259895066677986
0.826461284130686
0.8362980085873416
0.8366271739069104
0.8368639974515519
0.8380517547537605
0.8340921966091738
0.8343692176088413
0.8346521254822469
0.8356542193037263
0.7466427801249491
0.7469615144977585
0.7469728799886943
0.7454007227313126
0.8214493972221456
0.8262086931099673
0.8592472165220844
0.929619696267202
0.8365357894715856
0.8416120153059957
0.8779515433225417
0.960026905684374
0.8359216865766947
0.841464331885073
0.8869269493398299
1.173307602941678
0.7510885461815943
0.7609183466485325
0.8769459383898857
1.561773165824941
1.124984049334459
0.8887077009342694
0.3373025613066474
0.103847797348089
1.066063145670827
0.7629695263179659
0.2674604556081346
0.1287497619986017
1.152264915763324
0.6468667023323178
0.233543885001419
0.04625279200979422
0.9707169564560468
0.268460495677535
0.1447311391993855
0.06493502706897022
0.1260395047693102
0.1566243531632797
0.2013638540426124
0.2195002917157251
0.1137527314435263
0.1151164234534025
0.1569599488975833
0.2953213553752184
0.002444142247351755
0.07904790360420755
0.2152872867878901
0.3706971673599778
0.05150632425994185
0.08741397905482957
0.2132228297791247
0.4290996593910094
0.9042181184700014
1.051400831921863
1.132455853048163
1.166119218074324
0.6004333251959144
0.9150732841626278
1.103931285824417
1.201767428367287
0.2642764562063575
0.6455259938794315
0.9909119373038954
1.302740016419962
0.2405277529550744
0.519005813691483
0.8604161930516707
1.584550238427298
1.138533260618429
1.11513441073401
0.9500257763166121
0.7446959672295439
1.427547553355983
1.502891756815351
1.075223877976898
0.8319100827109616
1.716633953528653
2.130435500341375
1.094313098669643
0.7950544901501436
1.457952458782628
1.584663789189468
0.6292664987874032
0.4159136789068654
0.4352111777141528
0.4692419474883269
0.4550606067510929
0.2068674265939219
0.7269611369268006
0.6434253721282748
0.4764226110841782
0.1722203293499917
0.6455446461966211
0.4660059116479349
0.2411035026730765
0.08503267061662428
0.5754050801315713
0.4894248790786885
0.4413489028650848
0.4297973027020943
0.2068674265942622
0.1722203293500597
0.08503267061663584
0.4297973027017203
0.4550606067514254
0.4764226110843742
0.2411035026730871
0.4413489028649674
0.4692419474883087
0.6434253721281993
0.4660059116478503
0.4894248790787331
0.4352111777140223
0.7269611369267842
0.6455446461965582
0.5754050801315864
0.7446959672292758
0.9500257763160208
1.115134410733484
1.138533260618296
0.8319100827107005
1.075223877976669
1.50289175681539
1.427547553356073
0.7950544901498282
1.094313098669586
2.130435500340214
1.716633953528519
0.4159136789065616
0.6292664987871621
1.584663789188702
1.457952458782449
1.584550238427075
0.8604161930515649
0.5190058136914412
0.2405277529546993
1.302740016419842
0.9909119373037664
0.6455259938793736
0.2642764562065408
1.201767428367225
1.103931285824269
0.9150732841626917
0.6004333251960299
1.166119218074274
1.132455853048097
1.051400831922298
0.9042181184695466
0.2195002917163072
0.201363854042539
0.156624353162065
0.1260395047673569
0.2953213553748646
0.1569599488975879
0.1151164234535622
0.1137527314438139
0.3706971673597562
0.2152872867882033
0.07904790360452101
0.002444142247341305
0.4290996593909509
0.2132228297795133
0.08741397905508935
0.05150632425981624
0.103847797345424
0.3373025613023571
0.888707700931148
1.124984049333932
0.1287497620001094
0.2674604556058597
0.7629695263158439
1.066063145670467
0.04625279201002719
0.2335438849999337
0.6468667023312383
1.152264915762927
0.06493502706923789
0.1447311391989805
0.2684604956776822
0.9707169564561807
0.9296196962675203
0.8592472165222704
0.8262086931097572
0.821449397222479
0.9600269056845315
0.8779515433226593
0.8416120153059787
0.8365357894717318
1.173307602941666
0.8869269493399418
0.8414643318850925
0.8359216865766652
1.561773165824668
0.8769459383900312
0.7609183466485644
0.7510885461811385
0.8264612841307289
0.8259895066675986
0.8266189787287498
0.826763422541513
0.8380517547537847
0.8368639974513487
0.8366271739068953
0.8362980085872765
0.8356542193037176
0.8346521254821199
0.8343692176089406
0.8340921966092062
0.7454007227312627
0.7469728799885855
0.7469615144980791
0.7466427801252176
0.826219988317814
0.8173986772928301
0.791647336014331
0.7234490096648261
0.8344457850066572
0.8181908599238213
0.7617493799606244
0.6299964881262459
0.8312772613674172
0.8089497217112082
0.7251270989583652
0.5554017961447981
0.7399727005026968
0.7089241376850861
0.6248693735939107
0.4655676686214343
1.027892641491313
1.117736153437582
1.118016648551122
1.118016629465901
0.9508067290946969
1.117497409888538
1.118016638460094
1.118016627720352
0.8773603201983948
1.116818410166031
1.118016635463167
1.118016628803724
0.7255395980417155
1.113799555411917
1.118016635664071
1.118016632879055
1.118016629009803
1.118016740165291
1.118037771942621
1.118703369867352
1.118016621033282
1.11801685565299
1.118063091094009
1.119493663528636
1.118016618945001
1.118017041947974
1.118098832492315
1.120507280804586
1.118016613674462
1.118016301827063
1.117983535109648
1.116838226308095
1.124035611337335
1.142271511849775
1.167860759569232
1.148883019203872
1.129997335774297
1.159095930259096
1.211499013678434
1.230512489617882
1.136464076459057
1.174621883786968
1.244905811312126
1.343168678999916
1.107923223258918
1.088170066296884
1.065735533832074
1.10980038448452
1.026592510499129
1.031390347226852
1.031211035107594
1.029812155734421
1.037020201400606
1.032740145010386
1.032086913163643
1.029967118595936
1.073991001083023
1.036825955020803
1.035703831598368
1.033041704724705
1.133745744255127
0.9855761549720933
0.9838002573200532
0.982733534300924
1.026769547098286
1.014579110282165
1.00751142408318
1.064215464977864
1.023220848587064
1.001151100801718
0.9700842730601225
1.006031834394822
1.022173866139641
0.9883770450568843
0.9352025366581593
0.9175976989566618
0.9804401118287979
0.9637625898740221
0.9248880186578491
0.8661205451698154
1.115291548572223
1.117995980365648
1.118016568443278
1.118016635810693
1.112707906929989
1.11796677800637
1.118016465355977
1.118016635606209
1.106260311763433
1.117913576965407
1.11801628674412
1.118016635275004
1.100194313272525
1.11785125565811
1.118016088714888
1.118016634943009
1.118016634906438
1.118016098555916
1.117870580869228
1.104923491231708
1.118016634907884
1.118016099346709
1.117870860475768
1.104971583845756
1.118016634907735
1.118016101912773
1.117871963003814
1.105162625731047
1.118016634916226
1.118016109997558
1.117873555105778
1.1049308713621
1.118016634943773
1.118016635274593
1.118016635605939
1.118016635811186
1.118016088715576
1.118016286744206
1.118016465355711
1.118016568442889
1.117851255658379
1.117913576965446
1.117966778005798
1.11799598036597
1.100194313272919
1.106260311763488
1.112707906929436
1.11529154857201
)
;

boundaryField
{
    back
    {
        type            empty;
    }
    inlet
    {
        type            calculated;
        value           nonuniform List<scalar> 
16
(
1.11801663592382
1.11801663592382
1.11801663592382
1.11801663592382
1.11801663592382
1.11801663592382
1.11801663592382
1.118016635921183
1.118016635921151
1.11801663592382
1.11801663592382
1.11801663592382
1.11801663592382
1.11801663592382
1.11801663592382
1.11801663592382
)
;
    }
    front
    {
        type            empty;
    }
    top
    {
        type            calculated;
        value           uniform 0;
    }
    outlet
    {
        type            calculated;
        value           nonuniform List<scalar> 
16
(
1.11801663462721
1.118016634627833
1.118016634627712
1.118016634638764
1.118016635777396
1.11801663551703
1.118016635095605
1.118016634672169
1.11801663462662
1.118016634628164
1.118016634627672
1.118016634638533
1.118016634672867
1.118016635095224
1.118016635516782
1.118016635777851
)
;
    }
    bottom
    {
        type            calculated;
        value           uniform 0;
    }
    wall
    {
        type            calculated;
        value           uniform 0;
    }
}


// ************************************************************************* //
