/*--------------------------------*- C++ -*----------------------------------*\
  =========                 |
  \\      /  F ield         | OpenFOAM: The Open Source CFD Toolbox
   \\    /   O peration     | Website:  https://openfoam.org
    \\  /    A nd           | Version:  11
     \\/     M anipulation  |
\*---------------------------------------------------------------------------*/
FoamFile
{
    format      ascii;
    class       surfaceScalarField;
    location    "0.125";
    object      phi;
}
// * * * * * * * * * * * * * * * * * * * * * * * * * * * * * * * * * * * * * //

dimensions      [0 3 -1 0 0 0 0];

internalField   nonuniform List<scalar> 
8667
(
15.883963
1.893811
3.3314441e-06
13.98455
1.8994077
6.1878739e-06
12.069415
1.9151268
8.1520654e-06
10.173185
1.8962219
7.4952559e-06
8.2505911
1.922581
1.310919e-05
6.3579072
1.8926675
1.6504907e-05
4.4461802
1.9117313
-4.3504522e-06
2.60606
1.8401183
1.938165e-06
1.8082287
-6.0364811e-05
0.79789166
15.88671
3.7848795
13.983805
3.802312
12.071815
3.8271174
10.161163
3.8068738
8.2483405
3.8354034
6.34229
3.798718
4.4480599
3.8059613
2.6056645
3.6825138
3.6379257
0.77596751
15.885556
5.6771018
13.984283
5.7035845
12.071136
5.7402644
10.159245
5.718765
8.2402436
5.7544048
6.335814
5.7031476
4.4381615
5.7036138
2.5954287
5.5252466
5.4770134
0.75634097
15.885602
7.5692775
13.984547
7.6046402
12.072381
7.6524304
10.159667
7.6314789
8.2359083
7.6781632
6.3284287
7.6106272
4.4224336
7.6096089
2.5789692
7.3687109
7.3210993
0.73488327
15.886372
9.4606816
13.984738
9.5062745
12.075476
9.5616916
10.158706
9.5482492
8.2332715
9.6035979
6.3215622
9.5223364
4.4115118
9.5196594
2.5622507
9.217972
9.1625955
0.72075458
15.887334
11.351125
13.986766
11.406843
12.078349
11.470109
10.161159
11.465439
8.2348176
11.52994
6.3152317
11.441922
4.3989047
11.435986
2.5423602
11.074516
10.999915
0.70504054
15.887183
13.24172
13.990307
13.303719
12.084432
13.375984
10.16394
13.385932
8.2354499
13.458429
6.311852
13.36552
4.3876667
13.360172
2.520539
12.941644
12.841916
0.67853814
15.889147
15.130351
13.993624
15.199242
12.089931
15.279676
10.171261
15.304602
8.2390377
15.390652
6.3081421
15.296416
4.3744153
15.293898
2.4976115
14.818448
14.6816
0.65792783
15.890367
17.017762
13.998514
17.091095
12.095153
17.183037
10.175751
17.224004
8.2435362
17.322867
6.3084388
17.231513
4.3651908
17.237146
2.4713603
16.712279
16.532042
0.62091772
18.842369
15.953171
20.66485
15.955297
22.485859
15.956775
24.305331
15.958308
26.121684
15.961407
27.934389
15.965075
29.740622
15.971547
31.538609
15.979793
15.97923
33.337159
18.92198
14.122286
20.747969
14.129308
22.567849
14.136895
24.383365
14.142792
26.196642
14.14813
28.01091
14.150807
29.834585
14.147872
31.660056
14.154323
14.154721
33.484565
19.025139
12.280185
20.868694
12.285753
22.71117
12.294419
24.55284
12.301121
26.39175
12.30922
28.220632
12.321924
30.038508
12.329996
31.84985
12.342981
12.348738
33.655833
19.090367
10.413821
20.954779
10.421342
22.819027
10.43017
24.677367
10.442782
26.534495
10.452092
28.388902
10.467518
30.243673
10.475225
32.095622
10.491031
10.500479
33.943882
19.208014
8.5286743
21.094202
8.5351539
22.983442
8.5409301
24.874586
8.5516383
26.767089
8.5595887
28.664406
8.5702009
30.559444
8.5801873
32.455475
8.5949998
8.6139516
34.342003
19.128342
6.631846
21.036124
6.627371
22.94885
6.6282046
24.874513
6.6259751
26.799513
6.6345885
28.732563
6.6371511
30.657831
6.6549196
32.594108
6.6587228
6.6877283
34.520331
19.144158
4.7248341
21.075063
4.6964664
23.015242
4.688026
24.988635
4.6525819
26.973221
4.6500026
28.9838
4.6265721
30.997838
4.6408818
33.027334
4.6292262
4.650583
35.06448
18.596651
2.8404619
20.544944
2.7481726
22.536454
2.6965169
24.573299
2.615736
26.627237
2.5960645
28.709743
2.5440666
30.798165
2.5524597
32.904865
2.5225258
2.5442884
35.01116
18.444263
0.92824094
20.545988
0.64644758
22.810887
0.43161762
25.145588
0.281035
27.49978
0.24187253
29.846502
0.19734481
32.222939
0.17602311
34.584716
0.16074843
36.968103
0.1609013
33.225714
0.11144451
33.117592
0.10812211
33.011558
0.1060337
32.908619
0.10293925
32.806226
0.10239352
32.706085
0.10014091
32.607573
0.09851184
32.506923
0.10064996
0.10484103
32.402082
33.401174
0.19483569
33.322518
0.18677807
33.247545
0.18100611
33.179517
0.17096759
33.11543
0.16648039
33.056813
0.15875747
33.007949
0.14737596
32.965779
0.14282041
0.14078948
32.92983
33.577083
0.27358573
33.501092
0.26276851
33.42476
0.25733894
33.353553
0.24217411
33.283072
0.2369611
33.216417
0.22541292
33.145
0.21879321
33.084301
0.2035192
0.2038819
33.021208
33.889298
0.32816959
33.842055
0.31001081
33.795983
0.30341168
33.752148
0.28600845
33.710103
0.27900686
33.676853
0.25866215
33.640869
0.25477757
33.613468
0.23091998
0.23044786
33.586902
34.284466
0.38570616
34.230645
0.36383204
34.179481
0.35457556
34.131318
0.33417105
34.08368
0.32664558
34.040862
0.30148023
34.002016
0.29362292
33.96486
0.26807643
0.26164892
33.933659
34.485787
0.42024976
34.458055
0.39156407
34.43791
0.37472101
34.422863
0.34921808
34.411185
0.33832391
34.401344
0.31132085
34.395664
0.29930284
34.389491
0.27424968
0.26294449
34.388195
35.058001
0.42672803
35.051801
0.3977646
35.046477
0.38004512
35.039572
0.35612296
35.034705
0.34319073
35.025976
0.32004964
35.015586
0.30969296
34.999802
0.29003337
0.28406786
34.978679
35.108412
0.32947575
35.199485
0.30669203
35.297684
0.28184571
35.387784
0.26602296
35.473982
0.25699356
35.54044
0.25359093
35.594933
0.25519974
35.613331
0.27163595
0.29780181
35.599597
37.15741
0.14016955
37.314524
0.14957741
37.425027
0.17134297
37.499435
0.19161445
37.524742
0.23168746
37.481609
0.29672332
37.380049
0.35675972
37.193857
0.45782831
36.973735
0.51792378
36.819754
0.68961259
-0.53563211
36.525272
0.65633046
-0.36184773
36.152859
0.62768296
-0.25526982
35.764006
0.60564758
-0.2167951
35.357809
0.58898668
-0.18278936
34.952639
0.56851392
-0.16334459
34.532312
0.5556643
-0.13533646
34.128045
0.54081087
-0.13654428
0.53654196
33.715394
-0.12389119
35.680744
0.60846503
35.717045
0.62002988
35.713388
0.63133965
35.679532
0.63950416
35.61936
0.64915801
35.533535
0.65433983
35.428286
0.66091285
35.304672
0.66442494
0.67628963
35.164924
35.068074
0.51907026
35.145471
0.5426323
35.206943
0.56986801
35.253408
0.59303868
35.285602
0.61696397
35.302218
0.63772479
35.305701
0.65742966
35.289745
0.68038043
0.70231933
35.263716
34.51354
0.39372568
34.643246
0.41292639
34.768386
0.44472781
34.892257
0.46916789
35.011004
0.49821635
35.124896
0.52383281
35.230533
0.5517932
35.323714
0.58719874
0.61546306
35.410571
34.030506
0.29687848
34.134849
0.30858344
34.237978
0.34159898
34.353769
0.35337633
34.470167
0.38181847
34.594522
0.39947772
34.710181
0.43613388
34.832501
0.46487929
0.50418793
34.943776
33.698244
0.18553621
33.815442
0.19138602
33.947421
0.20962026
34.08674
0.21405712
34.237508
0.23105073
34.397687
0.23929846
34.573206
0.26061478
34.763539
0.27454628
0.31299139
34.954736
33.092226
0.11451892
33.164033
0.119579
33.24629
0.12736339
33.324759
0.13558741
33.416495
0.13931547
33.516946
0.13884686
33.632738
0.14482263
33.7399
0.16738469
0.21523082
33.83766
33.022837
0.021512612
33.123236
0.0191793
33.231487
0.019112616
33.352404
0.014670351
33.500582
-0.0088620858
33.704935
-0.06550675
33.967407
-0.11764882
34.275614
-0.14082248
-0.12420938
34.615054
32.423594
32.442774
32.461886
32.476557
32.467695
32.402188
32.284539
32.143717
32.019507
31.949041
0.070465808
31.996502
-0.047460615
32.205316
-0.20881365
32.544033
-0.33871699
32.96574
-0.42170732
33.43124
-0.46550034
33.902583
-0.47134248
34.364704
-0.46212119
-0.43633624
34.80104
34.960794
-0.27527406
35.261228
-0.34789406
35.470145
-0.41773113
35.605252
-0.47382348
35.697419
-0.51387493
35.757911
-0.52599197
35.810805
-0.52423674
35.8576
-0.50891664
-0.49517021
35.916434
33.911572
-0.34918586
33.969903
-0.40622448
34.0197
-0.46752879
34.074783
-0.52890632
34.15377
-0.59286194
34.26538
-0.63760159
34.421119
-0.67997632
34.617663
-0.70546022
-0.73233021
34.854823
35.152665
-0.54711515
35.335209
-0.58876904
35.510329
-0.64264808
35.668638
-0.68721536
35.81719
-0.74141473
35.956578
-0.77698903
36.095234
-0.81863279
36.231302
-0.84152799
-0.8736731
36.372645
35.054733
-0.65807229
35.15186
-0.68589618
35.240377
-0.73116479
35.311409
-0.75824755
35.370538
-0.80054321
35.420341
-0.82679269
35.470355
-0.86864596
35.530158
-0.90133118
-0.94367926
35.600164
35.478317
-0.72581895
35.541639
-0.74921783
35.586171
-0.77569646
35.628303
-0.80037999
35.653379
-0.82561921
35.679781
-0.85319484
35.690404
-0.87926823
35.712232
-0.92316012
-0.95095974
35.719513
35.218916
-0.68101986
35.168269
-0.69857064
35.097616
-0.70504317
35.026993
-0.72975715
34.941751
-0.74037721
34.862521
-0.77396462
34.771914
-0.78866134
34.684141
-0.83538683
-0.85867912
34.59186
35.010243
-0.52633885
34.837684
-0.52601175
34.654342
-0.52170113
34.457824
-0.53323855
34.258241
-0.54079487
34.044782
-0.56050528
33.831661
-0.57553995
33.59537
-0.59909651
-0.62121576
33.357907
33.318198
-0.12914214
32.904771
-0.11258546
32.512522
-0.12945233
32.109895
-0.13061095
31.726537
-0.15743721
31.30798
-0.141948
30.898807
-0.16636744
30.458428
-0.15871734
30.046409
-0.20919634
0.66146841
29.607412
-0.22247148
0.91583655
33.103539
1.0086271
34.499069
0.98363831
35.744502
0.88819687
35.695605
0.74592711
36.514915
0.48124878
35.119501
0.41401127
35.983672
35.215051
0.70381355
29.180081
-0.2764823
0.95193638
32.855416
1.0389771
34.412029
1.0261212
35.757358
0.92645764
35.795269
0.77900775
36.662365
0.48232412
35.416185
0.3878099
36.078186
35.602861
0.76769282
28.678352
-0.2659645
1.0198966
32.603212
1.1029278
34.328997
1.0673539
35.792932
0.94304476
35.919578
0.79470931
36.8107
0.49081202
35.720082
0.37905906
36.189939
35.98192
0.82411264
28.199831
-0.34559094
1.0661928
32.361132
1.1381373
34.257053
1.1096979
35.821371
0.98888523
36.040391
0.83624704
36.963338
0.50807554
36.048254
0.36426792
36.333747
36.346188
0.89558286
27.676398
-0.37215038
1.1460059
32.110709
1.211644
34.191415
1.1539134
35.879102
1.0133027
36.181002
0.85244788
37.124193
0.52895266
36.371749
0.36845756
36.494242
36.714646
0.96590157
27.236025
-0.52552869
1.2041426
31.872468
1.2615513
34.134006
1.20909
35.931563
1.0667918
36.3233
0.90017171
37.290813
0.56114713
36.710774
0.36273012
36.692659
37.077376
1.0588473
26.79639
-0.61921184
1.3065598
31.624756
1.3509168
34.089649
1.259004
36.023476
1.1076012
36.474703
0.92089124
37.477523
0.5833544
37.04831
0.37238734
36.903626
37.449763
1.1352773
26.467537
-0.80642449
1.3740074
31.386025
1.4078723
34.055784
1.3184039
36.112944
1.1655665
36.62754
0.97015811
37.672932
0.63000696
37.388462
0.37762278
37.15601
37.827386
1.2834033
26.040348
-0.85621428
1.5062075
31.163221
1.5257715
34.03622
1.3939968
36.244719
1.2218927
36.799644
0.99892315
37.895901
0.66425192
37.723133
0.39746108
37.422801
38.224847
-0.031733608
38.256581
0.068840953
37.322226
0.084527906
37.707446
0.24173117
37.738698
0.37616692
36.665208
0.53388841
36.086997
0.68008267
33.890026
0.85782312
30.985481
26.299287
0.5988837
-0.030945488
38.287526
0.055268699
37.236012
0.083288376
37.679426
0.21087189
37.611114
0.3068844
36.569196
0.43978687
35.954095
0.53658197
33.793231
0.64638799
30.875675
26.451424
0.49425141
-0.03585067
38.323377
0.024885922
37.175276
0.046399523
37.657912
0.19030515
37.467209
0.29191245
36.467588
0.41882884
35.827178
0.52285913
33.6892
0.63647537
30.762059
26.528813
0.55908644
-0.034068694
38.357446
0.022192874
37.119014
0.045391285
37.634714
0.14517439
37.367426
0.21356541
36.399197
0.32421705
35.716527
0.39256421
33.620853
0.46045427
30.694168
26.611218
0.37804965
-0.034985947
38.392432
0.00096835213
37.08306
0.030079583
37.605603
0.15021845
37.247287
0.21216512
36.337251
0.31667764
35.612014
0.40286135
33.53467
0.47278274
30.624247
26.690181
0.39381905
-0.03030581
38.422737
-0.0010676484
37.053822
0.014755628
37.58978
0.099278579
37.162764
0.13971466
36.296815
0.22442738
35.527302
0.27452785
33.484569
0.32033249
30.578442
26.671125
0.33938871
-0.029223466
38.451961
-0.0033216845
37.02792
0.030030695
37.556427
0.12257956
37.070215
0.16153506
36.257859
0.24199809
35.446839
0.30453322
33.422034
0.35741208
30.525564
26.719035
0.30950203
-0.017592094
38.469553
-0.0022753013
37.012603
0.016938739
37.537213
0.089123884
36.99803
0.10319205
36.243791
0.14808623
35.401944
0.17884588
33.391274
0.22879301
30.475616
26.602731
0.34509664
-0.010667174
38.48022
0.010296413
36.991639
0.047090491
37.500419
0.12218464
36.922936
0.14928151
36.216694
0.19937907
35.351847
0.23510492
33.355548
0.28612184
30.4246
26.604903
0.28395029
-0.1648844
26.435782
0.33400561
-0.117091
30.376806
-0.11765793
33.356115
-0.10575088
35.33994
-0.1072298
36.218173
-0.053641652
36.869347
-0.022712182
37.46949
-0.0079843753
36.976912
38.472236
-0.23291525
26.403173
0.26552427
-0.19474115
30.338632
-0.19423762
33.355612
-0.17768339
35.323386
-0.15977424
36.200264
-0.097127255
36.8067
-0.048205158
37.420568
-0.024113883
36.95282
38.448122
-0.11873533
26.196667
0.32524063
-0.096221674
30.316118
-0.13948192
33.398872
-0.15479051
35.338694
-0.15794555
36.203419
-0.11852407
36.767279
-0.07517267
37.377216
-0.049473155
36.927121
38.398649
-0.20313305
26.148283
0.25151736
-0.20265531
30.315641
-0.24100666
33.437223
-0.24895181
35.346639
-0.23977599
36.194243
-0.18788346
36.715386
-0.11833268
37.307665
-0.073112708
36.881901
38.325536
-0.10169745
25.937539
0.31244178
-0.12682353
30.340767
-0.21329882
33.523699
-0.25469367
35.388034
-0.25968765
36.199237
-0.22039496
36.676094
-0.15316739
37.240438
-0.10467562
36.833409
38.22086
-0.20972162
25.895233
0.25202742
-0.26528139
30.396326
-0.35247355
33.610891
-0.37801133
35.413572
-0.36541135
36.186637
-0.31527692
36.625959
-0.21902073
37.144182
-0.1356168
36.750005
38.085244
-0.13190539
25.708785
0.31835372
-0.22279036
30.487211
-0.35545919
33.74356
-0.41280882
35.470922
-0.41301637
36.186845
-0.36341039
36.576353
-0.2606616
37.041433
-0.17134162
36.660685
37.913902
-0.2686536
25.717944
0.25949447
-0.394241
30.612799
-0.52506301
33.874382
-0.56595228
35.511811
-0.54408994
36.164982
-0.47591642
36.50818
-0.34247193
36.907988
-0.21155862
36.529772
37.702343
-0.21729029
25.604148
0.33108636
-0.39306335
30.788572
-0.56634994
34.047668
-0.6269865
35.572447
-0.60956471
36.147561
-0.53931123
36.437926
-0.39249647
36.761174
-0.24993625
36.387212
37.452407
0.42496666
37.02744
0.73998137
36.072197
1.0369981
36.464157
1.2292058
36.245719
1.3544163
36.02235
1.3519876
35.574876
1.1485915
34.251064
0.78537357
31.15179
25.968046
0.42147567
0.46692544
36.560515
0.80360877
35.735514
1.1256322
36.142133
1.3453588
36.025992
1.4886529
35.879056
1.4894033
35.574126
1.2519511
34.488517
0.79400188
31.609739
26.193268
0.5687795
0.51779243
36.042723
0.91093235
35.342374
1.2782311
35.774835
1.5388908
35.765332
1.7308211
35.687126
1.7842162
35.520731
1.6012449
34.671488
1.1344668
32.076517
26.859663
0.46807191
0.54404552
35.498677
0.97618448
34.910235
1.370507
35.380512
1.6623252
35.473514
1.8873856
35.462065
1.9650152
35.443101
1.7805085
34.855995
1.2381634
32.618862
27.409827
0.68799918
0.60298523
34.895692
1.0800808
34.433139
1.5225432
34.93805
1.856883
35.139174
2.1333563
35.185592
2.2708722
35.305585
2.1924625
34.934404
1.6899737
33.121351
28.533558
0.5662428
0.62904959
34.266642
1.1399709
33.922218
1.6108677
34.467153
1.979917
34.770125
2.293166
34.872343
2.4638686
35.134883
2.4279244
34.970349
1.9804197
33.568856
29.697951
0.81602665
0.68612901
33.580513
1.2394611
33.368886
1.7554304
33.951184
2.1641707
34.361385
2.5291933
34.50732
2.7861647
34.877911
2.8660703
34.890443
2.5600563
33.87487
31.329372
0.92863552
0.70652967
32.873984
1.2886894
32.786726
1.8330331
33.40684
2.2774625
33.916955
2.6778746
34.106908
2.9676663
34.58812
3.0895374
34.768572
2.9677722
33.996635
32.700753
1.5963911
0.75648272
32.117501
1.3868248
32.156384
1.9717981
32.821867
2.4686855
33.420068
2.9357687
33.639825
3.3279261
34.195962
3.5857431
34.510755
3.731504
33.850874
33.564421
2.8678357
-0.83859496
32.956096
-1.8496924
33.167481
-2.9880988
33.960273
-4.247205
34.679174
-5.6033469
34.995967
-7.1432609
35.735876
-8.7720219
36.139516
-10.323
35.401852
34.264293
-11.022872
-0.79780411
33.7539
-1.7763241
34.146001
-2.9112535
35.095202
-4.1829964
35.950917
-5.6179667
36.430937
-7.2261746
37.344084
-8.9905937
37.903935
-10.337592
36.74885
33.114202
-9.1875011
-0.77216219
34.526062
-1.7345708
35.10841
-2.8633235
36.223955
-4.1308649
37.218458
-5.6018862
37.901959
-7.2695931
39.011791
-9.0549805
39.689322
-9.9422323
37.636102
27.091482
-3.919512
-0.7276654
35.253728
-1.6509532
36.031698
-2.7633724
37.336374
-4.0387201
38.493806
-5.5889419
39.45218
-7.3240485
40.746898
-9.0138917
41.379165
-9.6090729
38.231283
18.395961
-0.91355211
-0.70282712
35.956555
-1.6073159
36.936187
-2.7084677
38.437526
-3.9705431
39.755881
-5.5423526
41.02399
-7.3277368
42.532282
-8.9812566
43.032685
-8.9126816
38.162708
9.8974947
-0.41421532
-0.65519069
36.611745
-1.5147099
37.795706
-2.5995131
39.522329
-3.8730623
41.029431
-5.5068439
42.657771
-7.3313317
44.35677
-8.9190947
44.620448
-8.1339562
37.37757
1.969014
-0.2054755
-0.62718839
37.238934
-1.4659455
38.634463
-2.5313575
40.587741
-3.7846237
42.282697
-5.4295945
44.302742
-7.2697234
46.196899
-8.6185993
45.969324
-5.2827081
34.041679
-3.956255
0.64256094
-0.59496259
37.833896
-1.3881008
39.427601
-2.428597
41.628238
-3.6742786
43.528378
-5.3614566
45.98992
-7.1373866
47.972829
-8.1198515
46.951789
-4.0994883
30.021315
-8.6657679
0.6100246
-0.5660915
38.399988
-1.3370477
40.198557
-2.3526718
42.643862
-3.5812102
44.756917
-5.2748698
47.68358
-6.9321237
49.630083
-7.4138699
47.433535
-3.3565863
25.964032
-12.912957
0.89060234
1.5484017
-15.169953
0.70859452
3.8003164
23.712117
3.4612296
47.772622
2.4499483
50.641364
1.447566
48.685962
0.80030665
45.404176
0.33434971
43.109819
0.09838057
40.434527
38.498368
1.3622904
-17.345174
0.81293053
3.5809391
21.493468
3.3080155
48.045546
2.3178456
51.631534
1.3460223
49.657785
0.74118305
46.009015
0.29848991
43.552512
0.081292322
40.651724
38.579661
1.0995804
-19.424347
0.97959295
3.3827393
19.21031
3.2117743
48.216511
2.2342026
52.609106
1.260757
50.631231
0.65685313
46.612919
0.24711869
43.962246
0.071991581
40.826851
38.651652
0.92727452
-21.423833
1.0722112
3.1478704
16.989714
3.0400322
48.324349
2.099625
53.549513
1.1654896
51.565366
0.60770211
47.170707
0.22746141
44.342487
0.064122913
40.99019
38.715775
0.71216143
-23.303705
1.1677104
2.9584615
14.743414
2.9450974
48.337713
2.013697
54.480913
1.0885341
52.490529
0.53641284
47.722828
0.17467894
44.704221
0.047647088
41.117222
38.763422
0.56287579
-25.070036
1.2034553
2.7194939
12.586795
2.7676313
48.289575
1.8835236
55.365021
0.99988165
53.374171
0.48755833
48.235151
0.16535324
45.026426
0.047928656
41.234646
38.811351
0.34466432
-26.618973
1.2042727
2.5124217
10.419038
2.6707963
48.131201
1.7904196
56.245398
0.92369694
54.240893
0.42273859
48.73611
0.13500325
45.314161
0.046843641
41.322806
38.858195
0.2279592
-27.985398
1.1384664
2.2549447
8.3920526
2.4926526
47.893493
1.6616918
57.076358
0.84517834
55.057407
0.39002507
49.191263
0.11779064
45.586396
0.037470406
41.403126
38.895665
0.035340549
-27.655443
-0.3652959
1.9742589
6.4531342
2.367566
47.500186
1.5627225
57.881202
0.77951293
55.840617
0.34210732
49.628669
0.092762811
45.83574
0.042531446
41.453357
38.938196
1.7326513
-28.243372
-1.1447219
-0.75989945
8.9456849
-2.900794
49.64108
-3.8733108
58.853719
-3.7805579
55.747864
-2.9485241
48.796635
-2.049994
44.93721
-0.97615455
40.379518
37.962042
1.3887049
-28.295123
-1.3369539
-1.4861371
11.820527
-3.6503317
51.805275
-4.4480413
59.651428
-4.0018008
55.301623
-3.0006176
47.795452
-2.0625028
43.999095
-0.88530209
39.202317
37.07674
1.0463801
-27.519493
-1.82201
-2.0428041
14.909711
-4.0843443
53.846815
-4.549655
60.116739
-3.9537431
54.705711
-2.8480972
46.689806
-1.976364
43.127362
-0.78090742
38.006861
36.295832
0.70058914
-25.761625
-2.4584571
-2.46009
18.07039
-4.5442158
55.930941
-4.8497327
60.422256
-3.9496778
53.805656
-2.7771359
45.517264
-1.8781548
42.228381
-0.51928622
36.647992
35.776546
0.28874986
-23.111811
-2.9385646
-2.9109627
21.270103
-4.7996274
57.819606
-4.6971937
60.319822
-3.6758362
52.784299
-2.4903241
44.331752
-1.6024918
41.340549
-0.39144687
35.436947
35.385099
-0.11616643
-19.888878
-3.1067661
-3.1290216
24.282958
-5.1023414
59.792926
-4.831627
60.049108
-3.5820732
51.534745
-2.2940451
43.043723
-1.3334597
40.379963
-0.15930139
34.262789
35.225798
-0.61024707
-16.271364
-3.0072673
-3.5232118
27.195923
-5.2541988
61.523913
-4.5080849
59.302994
-3.178884
50.205544
-1.9900074
41.854847
-1.0394439
39.4294
-0.13963113
33.362976
35.086167
-1.0411571
-13.079485
-2.1507218
-3.5759725
29.730738
-5.4460129
63.393953
-4.5270194
58.384
-3.0645692
48.743094
-1.7672344
40.557512
-0.64654032
38.308705
0.09020601
32.62623
35.176373
-1.5365873
-0.62716977
-10.915728
-4.117346
32.311497
-5.5956311
64.872238
-3.9641268
56.752496
-2.4601087
47.239076
-1.2975884
39.394992
-0.26551843
37.276635
-0.093785211
32.454497
35.082588
-1.735038
1.224173
0.51171944
-0.00085453533
-1.5176377
-0.21615842
-0.001241848
1.464458
-2.9821081
1.2356706e-05
4.9462903
-3.483402
0.0015696605
8.2331745
-3.2870838
0.00019959392
10.871156
-2.6383832
0.00040144889
13.270363
-2.3992908
8.4310321e-05
15.396148
-2.1258822
9.7266495e-05
-2.1199101
0.00021067467
-1.7338935
2.4459247
0.51214166
-1.5122938
-0.43775812
1.4761843
-5.9705861
4.9756597
-6.9828774
8.2667994
-6.5782235
10.895187
-5.2667707
13.287125
-4.791229
15.409153
-4.2479102
-4.2377118
-1.7415661
3.6786038
0.50888704
-1.5186264
-0.66069784
1.4914697
-8.9806822
5.0257186
-10.517126
8.3280009
-9.8805057
10.941429
-7.8801987
13.317998
-7.167798
15.433456
-6.3633689
-6.3534844
-1.763278
4.9372317
0.50464987
-1.5430348
-0.88094105
1.5156276
-12.039345
5.0968537
-14.098352
8.4129598
-13.196612
11.005475
-10.472714
13.361367
-9.5236905
15.468977
-8.4709782
-8.4669573
-1.8027905
6.2393396
0.50068259
-1.5693915
-1.1143401
1.5732188
-15.181955
5.2021372
-17.727271
8.5238887
-16.518363
11.083666
-13.032491
13.41866
-11.858685
15.517405
-10.569723
-10.575164
-1.8375745
7.5811033
0.49581077
-1.5582336
-1.393681
1.7089008
-18.449089
5.3555963
-21.373966
8.6588608
-19.821628
11.176917
-15.550547
13.496801
-14.178568
15.579212
-12.652134
-12.667863
-1.8741913
8.9444708
0.51082371
-1.4644187
-1.8034535
1.970441
-21.883949
5.5745435
-24.978069
8.810062
-23.057146
11.289989
-18.030474
13.604323
-16.492902
15.649009
-14.696821
-14.72482
-1.8783471
10.307934
0.51488402
-1.2731271
-2.4086736
2.3714968
-25.528573
5.8698688
-28.476441
8.9779587
-26.165236
11.416038
-20.468554
13.722776
-18.79964
15.707542
-16.681586
-16.737887
-1.8381457
0.53349906
11.61258
-0.9544662
-3.2923531
2.8944705
-29.37751
6.2248582
-31.806828
9.1652052
-29.105583
11.532758
-22.836107
13.817733
-21.084615
15.751715
-18.615569
-18.726625
-1.5367614
13.077611
-0.62729798
-10.913552
-4.1174155
-29.731601
32.312255
-5.5952747
-63.39345
64.871308
-3.9637944
-58.382634
56.751154
-2.4601199
-48.742788
47.239114
-1.297677
-40.557784
39.395341
-0.26546629
-38.308739
37.276529
-0.093809778
-32.625919
32.454262
-35.176752
35.082942
-1.0412413
16.269698
-2.1508456
-3.5760387
-27.196803
-5.4456688
-61.52382
-4.5265946
-59.301709
-3.0644271
-50.204956
-1.7673234
-41.854888
-0.64650246
-39.42956
0.090211894
-33.362633
-35.08654
-0.6103988
19.887338
-3.0072413
-3.5232758
-24.283926
-5.2539311
-59.793165
-4.5076498
-60.04799
-3.1786561
-51.53395
-1.9899805
-43.043563
-1.0393436
-40.380197
-0.13961101
-34.262366
-35.226151
-0.11645734
23.110445
-3.1066501
-3.1290848
-21.271299
-5.1021072
-57.820142
-4.8313214
-60.318776
-3.5818987
-52.783372
-2.2940217
-44.33144
-1.3333871
-41.340832
-0.15927471
-35.436478
-35.385426
0.28863607
25.760048
-2.9382386
-2.9111627
-18.0715
-4.7995987
-55.931706
-4.6968907
-60.421484
-3.6755365
-53.804727
-2.4902266
-45.51675
-1.6024658
-42.228593
-0.39142226
-36.647522
-35.776848
0.70017583
27.518216
-2.4583439
-2.460366
-14.910958
-4.5444448
-53.847628
-4.8495268
-60.116402
-3.9493195
-54.704934
-2.7769771
-46.689092
-1.8780939
-43.127476
-0.51927117
-38.006345
-36.296119
1.046338
28.295396
-1.8235183
-2.043094
-11.821526
-4.0846515
-51.80607
-4.5496514
-59.651402
-3.953575
-55.30101
-2.8479812
-47.794686
-1.9762883
-43.999169
-0.78087424
-39.201759
-37.076993
1.3884069
28.244383
-1.337395
-1.4865674
-8.9465521
-3.6508313
-49.641806
-4.4481805
-58.854053
-4.0016123
-55.747579
-3.0004883
-48.79581
-2.0624406
-44.937217
-0.88524283
-40.378956
-37.962236
1.7327653
27.655381
-1.1437633
-0.76018702
-6.4536
-2.9010894
-47.500904
-3.8735535
-57.881589
-3.780438
-55.840694
-2.9483556
-49.627893
-2.0499119
-45.83566
-0.97606045
-41.452808
-38.938297
-0.098370974
38.498269
-38.399898
-0.33432689
40.434127
-40.198171
-0.80029238
43.109748
-42.643782
-1.4475216
45.403707
-44.756477
-2.4499907
48.686018
-47.683549
-3.4614183
50.640749
-49.629321
-3.8005386
47.773615
-47.434495
-1.5487355
23.711236
-25.963039
-15.167633
12.910597
0.7083006
-0.081315028
38.579584
-0.29850011
40.651312
-0.74117947
43.552427
-1.3460089
46.008536
-2.3178733
49.657882
-3.3081821
51.631057
-3.5811461
48.046579
-1.3626057
21.492696
-17.342973
0.81273489
-0.072015264
38.6516
-0.24710944
40.826406
-0.65683857
43.962156
-1.260718
46.612415
-2.2341979
50.631362
-3.2119255
52.608785
-3.3829207
48.217574
-1.0998793
19.209654
-19.422098
0.97924514
-0.064132131
38.715732
-0.22743747
40.989712
-0.6076681
44.342387
-1.1654602
47.170208
-2.0996388
51.565541
-3.0401728
53.549319
-3.1480202
48.325422
-0.9276666
16.989301
-21.421372
1.0716076
-0.047674625
38.763406
-0.17467694
41.116714
-0.53639476
44.704105
-1.0884865
47.722299
-2.0137167
52.490771
-2.9452534
54.480856
-2.9585648
48.338733
-0.71254284
14.743279
-23.301255
1.16734
-0.04796302
38.811369
-0.16537603
41.234127
-0.48755386
45.026283
-0.99982992
48.234575
-1.88352
53.374461
-2.7677488
55.365085
-2.7194857
48.29047
-0.5630042
12.586797
-25.067687
1.203428
-0.046877986
38.858247
-0.13503412
41.322283
-0.42276644
45.314015
-0.92362434
48.735433
-1.790327
54.241164
-2.6708558
56.245613
-2.512394
48.132008
-0.34482479
10.419228
-26.616344
1.2038317
-0.037491937
38.895739
-0.11779318
41.402584
-0.39006421
45.586286
-0.84515852
49.190528
-1.6615925
55.057598
-2.492656
57.076677
-2.2548968
47.894249
-0.2280148
8.3923454
-27.984021
1.1396615
-0.042557328
-0.092780777
-0.34215498
-0.77952008
-1.5626167
-2.3675284
-1.9741828
-0.035437356
-0.36407685
3.3573861
8.6640402
0.88917038
7.4141484
-30.019802
6.9323194
-46.952666
5.2749339
-47.971936
3.5811918
-45.989807
2.3526449
-43.52793
1.337024
-41.628162
0.56608531
-39.427233
-37.833813
4.0998376
3.9547844
0.60941813
8.1199877
-34.039952
7.1374493
-45.970127
5.3615558
-46.196042
3.6743053
-44.302556
2.428565
-42.28219
1.3880876
-40.587684
0.59495241
-38.634097
-37.238861
5.282759
-1.9700485
0.6420739
8.618584
-37.375777
7.269623
-44.621166
5.4294855
-44.355905
3.7846329
-42.657703
2.531328
-41.028885
1.4659142
-39.52227
0.6271751
-37.795358
-36.611685
8.1337127
-9.8984558
-0.20530543
8.9189225
-38.160987
7.3312372
-43.033481
5.5067354
-42.531403
3.8729856
-41.023954
2.5994883
-39.755388
1.5147013
-38.437483
0.65517442
-36.935831
-35.956511
8.9125885
-18.397557
-0.41348715
8.9810091
-38.229407
7.3275404
-41.380012
5.5421783
-40.746041
3.9704702
-39.452245
2.7084244
-38.493342
1.6072805
-37.336339
0.7028072
-36.031358
-35.253704
9.608283
-27.09317
-0.91267016
9.0135166
-37.634641
7.323888
-39.690384
5.5889289
-39.011082
4.0387178
-37.902034
2.7633529
-37.217977
1.6509287
-36.223915
0.72764808
-35.108078
-34.526056
9.9416335
-33.114845
-3.9199581
9.0546533
-36.747661
7.2693337
-37.905064
5.6016106
-37.343359
4.1307256
-36.431149
2.8632767
-35.950528
1.7345545
-35.095193
0.77215648
-34.14568
-33.753899
10.336959
-34.263954
-9.1878506
8.9901963
-35.400898
7.2258832
-36.140751
5.6178388
-35.735314
4.1828905
-34.996201
2.911196
-34.678834
1.7762872
-33.960284
0.7977923
-33.167185
-32.956107
10.322319
-33.563523
-11.02275
8.7718091
-33.850388
7.1430193
-34.511961
5.6032704
-34.195565
4.2471565
-33.640087
2.9880661
-33.419743
1.8496716
-32.82189
0.83858885
-32.156102
-32.117518
0.42498529
37.027591
-37.452577
0.74002867
36.072125
-36.387168
1.0370815
36.464479
-36.761531
1.2293936
36.245904
-36.438216
1.3546316
36.023107
-36.148345
1.3521963
35.575615
-35.57318
1.1488124
34.251969
-34.048585
0.78533655
31.154152
-30.790676
25.964962
-25.600697
0.42107198
0.46694679
36.560644
0.80366825
35.735403
1.1257236
36.142423
1.3455179
36.026109
1.4888586
35.879767
1.4896716
35.574802
1.2523315
34.489309
0.79432543
31.612158
26.190572
0.56871475
0.51781764
36.042827
0.91100709
35.342214
1.27835
35.77508
1.5390892
35.76537
1.7311022
35.687754
1.7845004
35.521404
1.6016297
34.672179
1.1349201
32.078868
26.857351
0.46814108
0.54405039
35.498776
0.97623266
34.910031
1.3706175
35.380696
1.662493
35.473495
1.8876176
35.462629
1.9653389
35.443682
1.7809325
34.856586
1.2388769
32.620923
27.408231
0.6879972
0.6030042
34.895772
1.0801306
34.432905
1.522631
34.938195
1.857044
35.139082
2.1336132
35.18606
2.2712008
35.306095
2.1928574
34.934929
1.6908573
33.122924
28.532829
0.56625883
0.629062
34.26671
1.1400001
33.921967
1.6109351
34.46726
1.9800243
34.769993
2.2933375
34.872747
2.4642585
35.135174
2.4282363
34.970951
1.9812957
33.569864
29.698194
0.8159312
0.68614526
33.580565
1.2394924
33.36862
1.7555041
33.951249
2.1643187
34.361178
2.5294188
34.507646
2.7866243
34.877968
2.8663679
34.891208
2.5609423
33.87529
31.330082
0.92905419
0.70654988
32.874015
1.2887185
32.786451
1.833095
33.406872
2.2775733
33.9167
2.6780333
34.107186
2.9680575
34.587944
3.089702
34.769563
2.9685496
33.996442
32.700932
1.5977
0.75649694
1.3868461
1.9718285
2.4687847
2.935884
3.3282628
3.5858647
3.7319189
2.8693278
-0.21719239
-25.714321
0.33081673
-0.39319339
-30.614675
-0.56652611
-33.875252
-0.62707011
-35.512636
-0.60963435
-36.165781
-0.53936625
-36.508484
-0.39255116
-36.908347
-0.24995776
-36.529761
-37.702534
-0.26840034