/*--------------------------------*- C++ -*----------------------------------*\
  =========                 |
  \\      /  F ield         | OpenFOAM: The Open Source CFD Toolbox
   \\    /   O peration     | Website:  https://openfoam.org
    \\  /    A nd           | Version:  11
     \\/     M anipulation  |
\*---------------------------------------------------------------------------*/
FoamFile
{
    format      ascii;
    class       volVectorField;
    location    "10.7";
    object      U;
}
// * * * * * * * * * * * * * * * * * * * * * * * * * * * * * * * * * * * * * //

dimensions      [0 1 -1 0 0 0 0];

internalField   nonuniform List<vector> 
4455
(
(9.9985122 0.0031445964 0)
(9.9891227 0.0038164315 -1.4623319e-19)
(9.9694009 0.010551663 5.0194377e-19)
(9.942501 0.0077414065 1.0102106e-21)
(9.8943139 0.019968404 4.7089053e-19)
(9.8453443 0.015030464 -1.7699255e-18)
(9.753212 0.040568126 7.8622949e-19)
(9.6612825 0.018044282 0)
(9.5119323 0.073716008 -4.7241176e-18)
(10.000727 0.0067270988 -9.5589203e-19)
(9.990679 0.013536726 9.3126583e-19)
(9.9683751 0.024375393 -1.1446896e-18)
(9.9406875 0.024129811 1.9051126e-18)
(9.890397 0.036023484 -3.6476507e-18)
(9.8373517 0.027598712 3.9708731e-18)
(9.7347575 0.040923663 -3.7660016e-19)
(9.6461014 0.015091083 5.4962294e-19)
(9.4685508 -0.0026254657 2.0495402e-17)
(10.001373 0.010551402 -1.0006503e-18)
(9.9922896 0.022827021 1.2637933e-18)
(9.9685936 0.039247909 1.1202479e-18)
(9.9403684 0.042138251 -1.1136773e-18)
(9.8885823 0.059175924 4.8668082e-18)
(9.8343093 0.053893442 -2.7361485e-18)
(9.733333 0.074890411 3.535366e-19)
(9.6252628 0.020560879 -7.7359153e-18)
(9.4510659 0.061536478 -1.4487536e-17)
(10.00198 0.014052847 2.4110233e-21)
(9.9937614 0.030550691 -1.4012948e-19)
(9.9696725 0.054292449 2.6595363e-18)
(9.9403142 0.058975315 3.6282079e-19)
(9.8916367 0.084781494 4.6022142e-23)
(9.8301619 0.07705786 -5.2645445e-19)
(9.7252596 0.11975862 5.8067461e-18)
(9.6066051 0.047851319 1.5465545e-17)
(9.4121375 0.1112339 1.2018593e-17)
(10.004397 0.018392164 1.9354983e-18)
(9.9945022 0.036272249 -2.1640146e-18)
(9.9722817 0.068547149 2.7535217e-18)
(9.9411021 0.075264915 1.1228209e-21)
(9.8952472 0.10991208 -3.3380448e-18)
(9.8299042 0.10001289 -1.0198364e-18)
(9.7187621 0.14383512 -4.576472e-18)
(9.5896705 0.067456486 -7.2760156e-18)
(9.3652398 0.14703579 -3.5452316e-17)
(10.005386 0.020499283 0)
(9.9967388 0.043011555 0)
(9.9751474 0.079989252 -4.7997278e-18)
(9.9441283 0.091625894 -5.5142416e-18)
(9.9008002 0.1330557 0)
(9.8329425 0.13148218 -7.385681e-18)
(9.7121394 0.18658859 -6.2432077e-19)
(9.5645644 0.1026377 -4.3273195e-19)
(9.3184029 0.19785199 4.3760222e-17)
(10.008527 0.022966409 0)
(9.9965661 0.04701944 -1.3022974e-19)
(9.9799876 0.091495655 1.4657914e-19)
(9.9479849 0.10514711 5.3896232e-18)
(9.9058974 0.15187262 -3.9575835e-19)
(9.8365057 0.15114477 1.5729926e-17)
(9.7162707 0.21379295 0)
(9.5510878 0.1303987 0)
(9.2634379 0.25770931 2.0051248e-17)
(10.010252 0.023893424 3.6657253e-18)
(9.9989159 0.050914966 0)
(9.9825395 0.099763923 0)
(9.9558996 0.1220026 0)
(9.9149122 0.17557326 0)
(9.841772 0.18367916 -7.8533194e-18)
(9.7111922 0.25662987 -8.3799631e-18)
(9.5324163 0.17190409 1.20069e-17)
(9.2141386 0.318308 1.1602271e-19)
(10.012336 0.024418528 -3.6096393e-18)
(10.000666 0.052832826 -1.2541519e-19)
(9.9866933 0.10487086 -1.4140385e-19)
(9.9596961 0.12935357 3.2068097e-19)
(9.9253739 0.18892334 1.2329294e-17)
(9.852434 0.20078937 1.3860238e-17)
(9.7230985 0.28640658 2.6703145e-17)
(9.5171683 0.20964192 -1.1793238e-17)
(9.1551947 0.39090622 -3.4548212e-17)
(10.013119 0.023863282 0)
(10.014116 0.022918741 6.7147369e-18)
(10.014043 0.021410188 -6.6602381e-18)
(10.013412 0.019071715 6.3859226e-18)
(10.013164 0.016522997 -6.24188e-18)
(10.011275 0.013126885 1.2471544e-17)
(10.009995 0.010259522 -1.2107408e-17)
(10.007719 0.0058875073 0)
(10.003583 0.0022883009 0)
(10.003696 0.055295902 0)
(10.005334 0.054759351 1.1615366e-19)
(10.008525 0.053769985 0)
(10.009983 0.05166643 3.3047215e-19)
(10.012102 0.04893534 6.7515655e-18)
(10.014803 0.044793232 -2.0171775e-17)
(10.014788 0.040072474 1.3060879e-17)
(10.01896 0.035008001 -1.9914548e-19)
(10.0156 0.023413726 1.2623233e-17)
(9.9919278 0.11229671 8.421557e-18)
(9.9972909 0.11677452 -1.6599e-17)
(10.002764 0.11895351 1.5856504e-17)
(10.009797 0.11823965 -4.9487313e-19)
(10.013585 0.11582324 -7.4870322e-18)
(10.022195 0.11256285 -2.2763481e-19)
(10.02408 0.10505613 0)
(10.033947 0.099916793 4.3070769e-19)
(10.033324 0.08200601 -2.0965797e-19)
(9.9687445 0.14294127 8.7754196e-18)
(9.9774892 0.15334371 -1.7829964e-17)
(9.985784 0.16065282 1.6972419e-17)
(9.9981335 0.16616489 -8.2256992e-18)
(10.005361 0.1668427 -5.1480343e-19)
(10.019594 0.16950575 2.4880058e-19)
(10.0262 0.16462593 0)
(10.042972 0.16354026 -2.3445047e-19)
(10.045209 0.14735719 1.4130408e-17)
(9.9328042 0.2102926 -9.9013358e-18)
(9.9501716 0.23016053 0)
(9.9575762 0.24465331 -9.1711643e-18)
(9.9775832 0.25930509 9.4570622e-18)
(9.9861559 0.26676594 -8.5470444e-18)
(10.007779 0.27670232 8.8323996e-18)
(10.017638 0.27740466 0)
(10.041251 0.28397726 0)
(10.048579 0.26944623 4.998329e-19)
(9.8585827 0.2297508 -1.2091607e-17)
(9.8762915 0.2626231 -1.1569296e-17)
(9.8855274 0.28576018 1.1121417e-17)
(9.9067225 0.31619677 1.066607e-17)
(9.9210223 0.33147974 -1.0282826e-17)
(9.9453475 0.35934134 0)
(9.9645077 0.36474432 1.9052404e-17)
(9.991216 0.39108083 -4.4729605e-20)
(10.009315 0.38082863 -3.5574435e-17)
(9.7208047 0.32366452 -1.4147576e-17)
(9.7407193 0.38240152 0)
(9.7501666 0.40870566 0)
(9.7768133 0.46210645 3.8773804e-19)
(9.7985473 0.48121427 0)
(9.8307468 0.53456665 0)
(9.8604099 0.54575948 0)
(9.8957389 0.59545839 0)
(9.9236118 0.59342348 0)
(9.505407 0.25707504 5.4154276e-19)
(9.487226 0.35435541 0)
(9.4957242 0.41500222 4.8571446e-19)
(9.4966227 0.51926814 -9.110862e-19)
(9.5340758 0.56828265 -1.380732e-17)
(9.5580692 0.66134791 -1.3104074e-17)
(9.6104613 0.69343818 2.5155708e-17)
(9.6498199 0.7766259 2.4324139e-17)
(9.705537 0.7845693 -2.3011145e-17)
(9.0878724 0.46947178 6.4736779e-17)
(9.0112231 0.6860358 -4.0129282e-17)
(9.0155146 0.81578051 3.7272953e-17)
(9.0517957 1.0369748 -3.519999e-17)
(9.1320312 1.1296814 -5.0084941e-17)
(9.2155541 1.3066571 9.4277138e-17)
(9.312626 1.3587345 -5.9562699e-17)
(9.4090678 1.4995134 -2.840524e-17)
(9.4989026 1.5089283 2.6704077e-17)
(10.005081 0.0027953965 -1.6642066e-20)
(10.008168 0.0040038272 1.709025e-17)
(10.013032 0.0059424905 -6.0763134e-21)
(10.019324 0.0081269328 -1.7216068e-17)
(10.02692 0.010392938 1.6849673e-20)
(10.036035 0.012720794 1.732093e-17)
(10.046739 0.015172278 -1.7405463e-17)
(10.05921 0.017684956 -1.6999078e-20)
(10.074628 0.021174977 -8.7549975e-18)
(10.023127 0.026574386 -1.8113019e-17)
(10.027784 0.036876048 1.8227237e-17)
(10.039831 0.038051707 -1.82323e-17)
(10.047446 0.05133298 0)
(10.06339 0.051347774 1.8390392e-17)
(10.074146 0.06718054 1.5426147e-20)
(10.093744 0.065680564 3.1106746e-20)
(10.107923 0.083836431 -1.8503805e-17)
(10.13182 0.080418222 9.3089867e-18)
(10.04585 0.088962627 1.9317723e-17)
(10.049582 0.10536831 -1.9376673e-17)
(10.0656 0.11016162 -1.950857e-17)
(10.070761 0.12821716 1.9554812e-17)
(10.089472 0.13280746 -1.9718513e-17)
(10.096739 0.15372625 1.965165e-17)
(10.119285 0.15805868 -1.9846839e-17)
(10.129182 0.18256547 -1.1729504e-20)
(10.156191 0.18603382 1.9880257e-17)
(10.064527 0.159632 -2.0643381e-17)
(10.06739 0.18413046 -8.1214123e-20)
(10.088244 0.1938572 8.1691695e-20)
(10.091232 0.21895706 0)
(10.114602 0.22859532 -1.6400247e-22)
(10.119956 0.25721575 -2.1009988e-17)
(10.147723 0.26670541 2.1358186e-17)
(10.156051 0.29962123 8.313785e-20)
(10.188852 0.30798839 8.3403558e-20)
(10.071326 0.28697773 -8.7166315e-20)
(10.07249 0.31715992 -2.2443265e-17)
(10.094241 0.33154915 -6.8700847e-20)
(10.09366 0.36035627 2.2647519e-17)
(10.118126 0.37445306 2.2804323e-17)
(10.120342 0.40739238 -2.2920505e-17)
(10.149937 0.42136296 -8.9324509e-20)
(10.155289 0.45897205 -8.9646491e-20)
(10.190279 0.47154993 -8.9968213e-20)
(10.040999 0.40772957 2.4323291e-17)
(10.039883 0.44885437 0)
(10.067444 0.4701423 0)
(10.063733 0.50880559 2.4519511e-17)
(10.094505 0.5290673 -2.4847835e-17)
(10.094671 0.57204219 -2.4915872e-17)
(10.131178 0.59158966 4.9871124e-17)
(10.135112 0.63879 -4.5017812e-20)
(10.1769 0.65605001 -5.025446e-17)
(9.9577246 0.63577524 -1.050711e-19)
(9.9618053 0.68214437 0)
(9.986093 0.71056249 1.0585775e-19)
(9.9892433 0.74947827 2.7193891e-17)
(10.01858 0.776114 -2.7358266e-17)
(10.028465 0.81373135 2.7428939e-17)
(10.06348 0.83878124 -2.7488438e-17)
(10.078152 0.87351493 -1.0764532e-19)
(10.115756 0.89485525 2.765977e-17)
(9.750837 0.85169031 -2.9563339e-17)
(9.7932074 0.90599511 2.9974286e-17)
(9.8338981 0.95329216 -3.0092341e-17)
(9.8791221 0.99711725 2.9937925e-17)
(9.9246973 1.0363774 -2.9805962e-17)
(9.9745741 1.0729 -4.5784983e-21)
(10.023455 1.1044052 3.0210977e-17)
(10.074314 1.1321458 2.3676783e-19)
(10.120132 1.1527212 1.5089003e-17)
(9.5953049 1.6162223 0)
(9.6495781 1.6445337 -3.3184833e-17)
(9.7436498 1.7253864 1.8943699e-19)
(9.7988371 1.7289292 3.1468081e-19)
(9.896293 1.7794187 6.6624983e-17)
(9.9493421 1.7442893 -3.3339594e-17)
(10.055464 1.7452897 -3.3359669e-17)
(10.120756 1.6381145 3.348547e-17)
(10.22683 1.5728405 1.6816735e-17)
(10.285479 1.3993776 -1.9657267e-17)
(10.314932 1.3112494 0)
(10.337451 1.1958303 1.9567542e-17)
(10.307982 1.1488293 -1.9561495e-17)
(10.267142 1.0387815 0)
(10.194941 1.0110566 0)
(10.122168 0.90367584 0)
(10.03701 0.89988129 -2.0065946e-17)
(9.9511409 0.80913677 2.0065997e-17)
(10.160718 1.1671432 -1.7188511e-17)
(10.193315 1.1868845 0)
(10.223071 1.1886474 0)
(10.240921 1.1933751 0)
(10.256486 1.1896007 0)
(10.259583 1.1937647 0)
(10.25481 1.1944167 0)
(10.245137 1.2037105 1.7017029e-17)
(10.221485 1.2029185 -3.4118254e-17)
(10.130714 0.92337869 -5.6998454e-20)
(10.164369 0.95025282 -3.0366032e-17)
(10.176314 0.97337047 0)
(10.20809 0.99866053 -1.5105575e-17)
(10.216076 1.0198678 1.5105571e-17)
(10.243883 1.0423358 0)
(10.245836 1.0626952 0)
(10.268612 1.0856483 0)
(10.262756 1.1078115 0)
(10.180033 0.7027036 2.7020054e-17)
(10.223285 0.72728877 0)
(10.226806 0.7723568 1.3434097e-17)
(10.27025 0.79604316 -2.684274e-17)
(10.273718 0.84084624 1.3408368e-17)
(10.317226 0.86466753 0)
(10.31954 0.90996827 0)
(10.363178 0.93542006 0)
(10.363006 0.98209006 1.3282878e-17)
(10.196139 0.51236375 0)
(10.234404 0.5278605 2.4280446e-17)
(10.241221 0.57077245 -3.6398627e-17)
(10.282242 0.58628546 1.2117916e-17)
(10.290102 0.63115057 1.2069916e-17)
(10.333957 0.64729073 -2.5416454e-20)
(10.34243 0.69462168 -2.4062362e-17)
(10.389479 0.71217912 2.4008647e-17)
(10.397941 0.76254383 -1.1990517e-17)
(10.198754 0.34474575 0)
(10.23594 0.35468653 1.1044577e-17)
(10.247989 0.39469682 -1.1044722e-17)
(10.289328 0.40421426 0)
(10.303576 0.4472571 -2.1946447e-17)
(10.349017 0.45660558 2.1946491e-17)
(10.365341 0.50297849 1.0918218e-17)
(10.41524 0.51250271 -2.1806679e-17)
(10.433455 0.56267128 1.0888379e-17)
(10.168031 0.21421284 0)
(10.199433 0.21838467 0)
(10.213858 0.25023943 0)
(10.249958 0.25387358 -1.0125685e-17)
(10.26725 0.28949944 2.022906e-17)
(10.308311 0.29258562 -2.0182843e-17)
(10.328632 0.33226775 1.0079402e-17)
(10.375173 0.33488748 -1.0026084e-17)
(10.398659 0.37912999 2.0022587e-17)
(10.148739 0.10125843 -1.8866805e-17)
(10.177373 0.09732518 1.731953e-20)
(10.197779 0.12197761 9.4083407e-18)
(10.230749 0.11656994 -9.3694409e-18)
(10.254978 0.14426058 9.3694054e-18)
(10.29258 0.13693003 0)
(10.320886 0.16768736 9.2986787e-18)
(10.364023 0.15842819 -1.8569965e-17)
(10.39686 0.19314529 9.2713147e-18)
(10.084134 0.026343618 1.2264107e-20)
(10.107449 0.026396554 8.8109094e-18)
(10.122631 0.038366055 8.7852992e-18)
(10.152911 0.037861558 -8.7853001e-18)
(10.170261 0.04909574 0)
(10.20546 0.048651196 0)
(10.226226 0.059888656 -8.7138352e-18)
(10.268291 0.060106534 1.7405029e-17)
(10.294724 0.072725378 -8.6913363e-18)
(10.343453 0.073720803 0)
(10.376787 0.086459637 -8.6098022e-18)
(10.432203 0.089056642 3.2104175e-20)
(10.472834 0.10220194 3.484506e-20)
(10.53605 0.10554059 3.7778589e-20)
(10.58445 0.12014727 8.5050741e-18)
(10.656619 0.12457957 8.4197097e-18)
(10.714616 0.1392999 -8.4197103e-18)
(10.796412 0.14591466 0)
(10.446259 0.18197123 0)
(10.483898 0.22121289 0)
(10.540182 0.20815111 -9.1400063e-18)
(10.582981 0.25253674 3.8924701e-20)
(10.646889 0.23759825 4.1652889e-20)
(10.695227 0.28782636 9.0593971e-18)
(10.767732 0.27104941 8.9670417e-18)
(10.822196 0.3281189 -8.9669915e-18)
(10.904642 0.30948368 0)
(10.451269 0.38146585 -9.9965426e-18)
(10.478038 0.43088216 0)
(10.537358 0.43315232 0)
(10.567573 0.48848866 -9.8566935e-18)
(10.634364 0.49093952 1.9672311e-17)
(10.668323 0.55311509 -4.3820793e-20)
(10.743562 0.55593495 -4.685112e-20)
(10.781791 0.62608316 -9.724866e-18)
(10.86672 0.62934925 0)
(10.48823 0.57284426 -1.0823926e-17)
(10.508079 0.62740672 1.0823866e-17)
(10.568215 0.63882927 0)
(10.589476 0.69863027 0)
(10.655643 0.71197086 1.0673353e-17)
(10.678271 0.77820478 -1.0673284e-17)
(10.751451 0.79407139 1.0585129e-17)
(10.77571 0.86828853 -5.3165584e-18)
(10.857272 0.88710435 -5.2684487e-18)
(10.448429 0.78249537 -1.1932943e-17)
(10.45617 0.83665635 1.1932823e-17)
(10.510402 0.86012503 0)
(10.516804 0.91929761 0)
(10.575411 0.94739992 0)
(10.580132 1.0133645 0)
(10.644288 1.047043 0)
(10.647391 1.122004 0)
(10.718832 1.1619079 0)
(10.406758 1.0109405 -1.3282873e-17)
(10.402687 1.0599366 1.3236185e-17)
(10.44661 1.0943101 -1.3235828e-17)
(10.437608 1.14719 1.3191935e-17)
(10.482387 1.188763 -1.3191306e-17)
(10.467858 1.2480877 0)
(10.515327 1.2979031 0)
(10.495212 1.3667683 0)
(10.548092 1.4257338 0)
(10.280312 1.1354292 0)
(10.265162 1.1606647 -1.5020965e-17)
(10.279334 1.196568 1.5017901e-17)
(10.253947 1.2271111 0)
(10.267074 1.2741108 1.5028955e-17)
(10.229791 1.3137483 -1.5029493e-17)
(10.245182 1.3742745 0)
(10.195844 1.4265088 7.5283797e-18)
(10.216605 1.5016749 -1.5061513e-17)
(10.203846 1.2242583 1.7081792e-17)
(10.157856 1.2334792 1.7163793e-17)
(10.133874 1.2647685 -1.716632e-17)
(10.068495 1.2876777 1.7273652e-17)
(10.039672 1.3292421 -3.4610554e-17)
(9.9573551 1.368657 3.4738448e-17)
(9.9250669 1.4222557 -3.4875151e-17)
(9.8272862 1.4812836 1.7472423e-17)
(9.7933444 1.5489192 0)
(9.859521 0.82884654 -2.0327888e-17)
(9.7625759 0.75287898 2.0327935e-17)
(9.6675023 0.79479414 0)
(9.5590286 0.73297103 0)
(9.4564062 0.79424817 0)
(9.3371729 0.74901021 0)
(9.2259969 0.83157579 0)
(9.0949152 0.80518064 -1.0682635e-17)
(8.973543 0.9131937 1.0682566e-17)
(8.8303858 0.91022416 1.08476e-17)
(9.6816814 1.6312029 0)
(10.156301 1.5713461 7.5340005e-18)
(10.522945 1.5073083 0)
(10.720843 1.2482517 0)
(10.88382 0.97112993 0)
(10.910023 0.70881945 4.7816227e-18)
(10.966103 0.37462627 4.4010233e-18)
(10.865165 0.16180343 4.1313858e-18)
(8.6971758 1.0520995 -1.0847505e-17)
(9.6486915 1.7151461 0)
(10.184219 1.6589104 0)
(10.584275 1.5759269 6.5118106e-18)
(10.801723 1.2946626 0)
(10.975489 0.99301518 -5.1860336e-18)
(11.006028 0.71236612 -9.5322092e-18)
(11.059818 0.35400015 -8.770418e-18)
(10.95864 0.17006654 -8.2320736e-18)
(8.5420444 1.0800393 0)
(9.5254757 1.8253692 0)
(10.117141 1.75553 7.5408415e-18)
(10.555376 1.6734656 -6.511888e-18)
(10.803694 1.3948035 0)
(11.005424 1.0887897 5.1860185e-18)
(11.05555 0.80247538 4.7506007e-18)
(11.129167 0.42844039 4.3693897e-18)
(11.03976 0.18680802 4.1006868e-18)
(8.3955781 1.2689479 1.1102281e-17)
(9.4972642 1.9279875 0)
(10.152494 1.8540544 -1.5079982e-17)
(10.628533 1.7516344 0)
(10.896421 1.4475104 0)
(11.109216 1.1134714 -5.1201686e-18)
(11.164213 0.80582068 -4.6812917e-18)
(11.235868 0.40558606 0)
(11.146389 0.19711789 -4.0312171e-18)
(8.2312449 1.3386697 -1.110218e-17)
(9.36639 2.0718292 -8.97938e-18)
(10.082604 1.9808266 7.5390369e-18)
(10.598224 1.8685996 0)
(10.900064 1.5638083 0)
(11.144115 1.2228964 5.1201641e-18)
(11.221435 0.90788594 4.6812903e-18)
(11.314494 0.49085949 0)
(11.241726 0.21523291 4.0312165e-18)
(8.0732887 1.5925053 0)
(9.3490013 2.1953526 8.9793555e-18)
(10.129046 2.0905911 -7.5242366e-18)
(10.684779 1.9530918 0)
(11.007097 1.62182 0)
(11.262204 1.2496423 -5.0428939e-18)
(11.344343 0.91020794 -4.6006545e-18)
(11.436316 0.46527482 0)
(11.363093 0.22792284 -3.9495164e-18)
(7.9104723 1.7212342 0)
(9.2169548 2.3797481 0)
(10.061835 2.2513227 7.5242324e-18)
(10.661211 2.0962285 -3.1982307e-18)
(11.015131 1.7566346 -2.8107865e-18)
(11.304052 1.3743289 7.5424974e-18)
(11.411138 1.0253464 6.8782607e-18)
(11.522762 0.56029895 0)
(11.474416 0.24666846 5.9013507e-18)
(7.7540998 2.0784988 0)
(9.2205291 2.5243796 -4.5103494e-18)
(10.124428 2.3706863 0)
(10.760471 2.1840996 3.1977276e-18)
(11.137777 1.8171586 2.81027e-18)
(11.438412 1.4018637 -2.3780051e-20)
(11.550854 1.0253952 -4.530661e-18)
(11.665667 0.53608497 0)
(11.611096 0.26187833 -1.9518346e-18)
(7.6341502 2.2698732 -5.6938371e-18)
(9.097248 2.7647406 4.5099151e-18)
(10.066338 2.5796948 0)
(10.749917 2.3646831 0)
(11.158563 1.9847989 0)
(11.492609 1.5513509 -4.9250203e-18)
(11.629391 1.1563711 2.6727718e-20)
(11.757298 0.63651789 0)
(11.737368 0.27973237 0)
(11.906987 0.29689198 0)
(11.922471 0.61870623 0)
(11.787808 1.1490252 -1.088409e-19)
(11.637993 1.5609458 2.5703095e-18)
(11.297048 2.0228915 0)
(10.870128 2.4355163 -3.9391351e-19)
(10.165108 2.685205 -2.7356362e-20)
(9.1578369 2.9130511 -3.7426608e-18)
(7.5293541 2.7443732 1.0611714e-17)
(12.068575 0.30966131 -9.3334916e-19)
(12.025139 0.70288655 -1.2669305e-19)
(11.883482 1.2673973 1.1197585e-18)
(11.719304 1.7069958 -3.5530289e-21)
(11.357389 2.1900127 -1.1784236e-18)
(10.899585 2.622869 1.5310063e-18)
(10.167185 2.9172237 -4.6708459e-19)
(9.1364994 3.2105651 4.8694647e-18)
(7.6609729 3.0578329 -5.4012671e-18)
(12.234889 0.32043508 1.8692413e-18)
(12.213995 0.68368988 0)
(12.0736 1.2637687 2.1871324e-18)
(11.886162 1.7082738 -1.1941176e-18)
(11.529683 2.21632 1.1922484e-18)
(11.068358 2.6802739 -2.9018121e-18)
(10.35405 3.0058564 -2.273756e-18)
(9.3523761 3.3320677 1.0958897e-18)
(7.9361931 3.389087 6.4833233e-20)
(12.413565 0.33113419 -9.3640225e-19)
(12.329072 0.7657057 -1.2542822e-19)
(12.182463 1.379881 -9.6314515e-19)
(11.989732 1.8686332 1.363194e-18)
(11.617489 2.3999445 5.0531171e-19)
(11.129503 2.8834636 1.5611608e-18)
(10.396717 3.2479092 1.8373358e-18)
(9.3843754 3.6181451 5.713992e-19)
(7.9913374 3.6492893 -6.541859e-19)
(12.605463 0.34227628 2.2652519e-19)
(12.546839 0.74709107 -2.4455549e-19)
(12.401033 1.3780732 -1.365864e-19)
(12.178529 1.8570836 4.445787e-19)
(11.815847 2.4117192 -5.0963124e-19)
(11.327895 2.9262715 -5.7515097e-19)
(10.61401 3.3205288 -4.7368534e-19)
(9.6182226 3.7204764 5.3485644e-19)
(8.2374088 3.9260402 -7.1877236e-19)
(12.809071 0.35381402 -2.2911585e-19)
(12.674464 0.83205733 2.4749784e-19)
(12.523704 1.4895964 -1.3564141e-19)
(12.303555 2.02807 -1.729459e-21)
(11.925313 2.604859 -1.6582479e-19)
(11.410737 3.1385249 3.9138971e-19)
(10.678657 3.5675091 -4.7513755e-19)
(9.6700415 4.0022715 5.3781441e-19)
(8.3241585 4.1356746 0)
(13.022915 0.36451959 -2.1975487e-19)
(12.920237 0.81507582 -1.2205039e-19)
(12.768802 1.4873162 -1.3065633e-19)
(12.510718 2.0028542 -1.5058143e-19)
(12.140061 2.6022784 -1.6715291e-19)
(11.625268 3.1661763 3.9954564e-19)
(10.907043 3.622033 -9.2318489e-19)
(9.9161036 4.0797882 1.1208964e-18)
(8.593704 4.3719737 -6.7107696e-19)
(13.247145 0.3743524 6.5360686e-19)
(13.059761 0.89964707 4.7147499e-19)
(12.905748 1.5923044 6.5135538e-19)
(12.657939 2.182341 7.2448875e-19)
(12.272875 2.8020064 5.0827177e-19)
(11.733316 3.3851651 -1.8924551e-19)
(10.999303 3.8714492 -4.7664952e-19)
(9.998564 4.3569494 -4.0670077e-20)
(8.6986787 4.547412 -7.1335572e-19)
(13.481859 0.38211012 -1.2804079e-18)
(13.331517 0.88377216 -4.7735364e-19)
(13.177397 1.5875657 -1.6780586e-18)
(12.876777 2.1423692 -4.4491594e-19)
(12.502734 2.7821555 1.1386856e-18)
(11.965255 3.3942395 5.8576414e-19)
(11.243013 3.904707 -2.7416313e-18)
(10.260031 4.411718 5.438616e-19)
(8.9669599 4.7571698 1.4269559e-18)
(9.0807642 4.9092216 -1.4282811e-18)
(10.368411 4.6851093 5.8734452e-19)
(11.364109 4.1543309 4.1143742e-18)
(12.100641 3.6173998 -5.8258082e-19)
(12.662547 2.9861412 2.9393531e-19)
(13.05168 2.3214219 8.4379157e-19)
(13.329406 1.6831946 1.1647745e-18)
(13.482008 0.96469205 -5.7222753e-20)
(13.727504 0.38874747 1.7302516e-18)
(9.3511808 5.0997466 5.6920412e-18)
(10.642322 4.7197606 5.4510494e-19)
(11.622284 4.1650428 -5.9366917e-18)
(12.349445 3.6056146 -1.8551492e-19)
(12.907433 2.9451027 -1.1496156e-18)
(13.28429 2.2768338 -1.0095493e-18)
(13.624286 1.6736181 -2.0936083e-18)
(13.77752 0.94883413 0)
(13.983469 0.39296642 -8.3302593e-19)
(9.4750033 5.23372 -7.3074794e-18)
(10.774837 4.990807 5.5950087e-18)
(11.771537 4.4128081 3.2149736e-18)
(12.511554 3.8300367 -1.8357508e-19)
(13.095883 3.1497972 2.5249317e-18)
(13.481155 2.4461086 5.4878823e-21)
(13.796688 1.7564006 3.193195e-19)
(13.938846 1.0248291 1.6270006e-18)
(14.249428 0.39587134 1.5487909e-18)
(9.7497344 5.408784 -1.4602327e-18)
(11.059952 5.0056766 1.0145872e-18)
(12.040668 4.3997555 -4.7069618e-19)
(12.774817 3.7963575 0)
(13.353461 3.0850625 -2.5609109e-18)
(13.730207 2.3975434 0)
(14.108693 1.73974 1.8298836e-18)
(14.253883 1.0073873 -3.3439725e-18)
(14.524176 0.3957528 -7.4865811e-20)
(9.8859993 5.5280958 -7.0441372e-19)
(11.218212 5.2750484 -4.5178052e-18)
(12.218998 4.6429788 4.6752598e-19)
(12.959203 4.0162787 0)
(13.570143 3.2863757 -2.5741306e-18)
(13.946628 2.5523375 2.1006432e-18)
(14.298818 1.8068484 1.1896281e-19)
(14.431478 1.0774585 3.3530717e-18)
(14.807148 0.3937732 -1.5110741e-18)
(10.169224 5.6900296 -6.6414702e-18)
(11.514683 5.2683772 -3.8777027e-18)
(12.496601 4.6039207 -3.4849435e-20)
(13.24017 3.9655007 -3.759349e-19)
(13.836339 3.196735 -4.8299832e-20)
(14.211252 2.4974477 -4.1613458e-18)
(14.624878 1.7809959 1.1555245e-19)
(14.759689 1.0560478 -1.661374e-18)
(15.096835 0.38819817 0)
(10.324332 5.7962273 4.5721215e-18)
(11.701776 5.5352053 5.6658072e-18)
(12.704567 4.8388679 -3.5823248e-20)
(13.442043 4.1709749 -3.6982361e-19)
(14.079766 3.3902478 2.2656507e-18)
(14.445688 2.6343091 2.2023634e-18)
(14.829042 1.8299576 1.0758328e-19)
(14.952403 1.119014 -9.8579627e-20)
(15.392232 0.38042966 0)
(10.621792 5.9457535 0)
(12.006625 5.5036635 -5.3148365e-19)
(12.991115 4.7711587 4.5315058e-19)
(13.740778 4.1085742 -5.2739196e-18)
(14.353543 3.2739553 -1.4882205e-19)
(14.724555 2.5706648 3.7031121e-18)
(15.164871 1.7922654 -3.1288647e-18)
(15.289552 1.0926273 2.9112973e-18)
(15.690616 0.36870866 2.443587e-18)
(10.801948 6.038281 1.1221639e-17)
(12.231719 5.7664531 9.7212027e-18)
(13.220806 4.9941014 -4.4644033e-19)
(13.965495 4.2909648 5.5576234e-18)
(14.613027 3.4555722 -1.3540823e-19)
(14.975099 2.6861961 -3.7651474e-18)
(15.378512 1.8216876 3.3850265e-18)
(15.494334 1.1465571 -3.0424022e-18)
(15.989905 0.35576457 -1.8321446e-19)
(16.309809 0.33847335 -2.2759421e-18)
(15.840156 1.1127016 2.546058e-18)
(15.721876 1.7694597 0)
(15.271744 2.6086321 -2.2446831e-19)
(14.905933 3.3117717 4.1748474e-18)
(14.288165 4.2122226 4.7527936e-18)
(13.530738 4.892643 0)
(12.558154 5.6965255 -3.7658196e-19)
(11.148937 6.1877445 -1.0965221e-17)
(16.611333 0.31397337 0)
(16.056953 1.1439782 -2.6333422e-18)
(15.944733 1.7687009 0)
(15.550892 2.6865619 -2.1479161e-19)
(15.19647 3.4629835 -7.5471156e-18)
(14.56152 4.3611071 -5.1920894e-18)
(13.818642 5.0955496 6.0785531e-18)
(12.873185 5.9629983 -7.6293765e-18)
(11.425374 6.2689143 9.1721474e-18)
(16.903313 0.27945259 0)
(16.41012 1.0923686 0)
(16.289661 1.6994276 -2.5336504e-18)
(15.864325 2.5861242 0)
(15.512103 3.2916942 3.8536869e-18)
(14.914045 4.2559752 -4.3949631e-18)
(14.168441 4.9550203 -5.5286301e-18)
(13.250409 5.8549734 -4.34262e-19)
(11.868975 6.3982594 -1.1930882e-18)
(17.18032 0.2381103 0)
(16.628954 1.1042041 0)
(16.510248 1.6773015 2.586241e-18)
(16.153828 2.632137 2.6582991e-18)
(15.809807 3.4099476 3.3642689e-18)
(15.208584 4.3674654 4.779019e-18)
(14.469406 5.1178072 0)
(13.585155 6.0682323 6.865662e-18)
(12.211347 6.4453011 -1.0822217e-17)
(17.449795 0.19290468 2.6948767e-20)
(16.979601 1.0399011 -2.9372024e-20)
(16.847159 1.5901886 0)
(16.467384 2.5071473 -2.6582405e-19)
(16.130074 3.2146229 -6.8617771e-18)
(15.565444 4.2396697 2.4625285e-19)
(14.827944 4.9476755 5.1769474e-18)
(13.956961 5.9266092 -7.600337e-18)
(12.711706 6.5347411 1.0524227e-17)
(17.704412 0.14559466 -2.4278104e-20)
(17.192807 1.0387183 2.6504122e-20)
(17.061116 1.5465417 0)
(16.755267 2.5213884 -2.8828513e-18)
(16.430258 3.296901 3.6489773e-18)
(15.870814 4.3144781 -2.3152591e-19)
(15.129151 5.0775374 -5.3545291e-18)
(14.287284 6.0782028 0)
(13.149432 6.5202513 -1.0413837e-17)
(17.940514 0.097559048 2.1584382e-20)
(17.530131 0.96299227 1.5367488e-18)
(17.38559 1.4430156 -6.3539401e-20)
(17.057272 2.3720192 2.144508e-18)
(16.745219 3.0770039 2.8881928e-18)
(16.22799 4.1630973 0)
(15.485772 4.8873223 0)
(14.624847 5.8975521 -6.3567572e-18)
(13.737333 6.5497185 0)
(18.172761 0.038222368 0)
(17.726183 0.9479098 -1.5925531e-18)
(17.58596 1.3810971 0)
(17.332727 2.3578246 -2.4252695e-18)
(17.039583 3.1207895 -2.6343561e-18)
(16.541092 4.1991089 3.1594016e-18)
(15.775349 5.002986 0)
(14.904698 5.9818361 7.0430402e-18)
(14.29795 6.4425316 -8.0902133e-18)
(18.295161 -0.021687805 0)
(18.037682 0.85769945 0)
(17.888631 1.2666133 -5.1011672e-20)
(17.613338 2.1849957 -6.992073e-20)
(17.340418 2.8728481 1.4207026e-19)
(16.893768 4.0212209 -3.2625753e-18)
(16.181177 4.7864752 0)
(15.16627 5.7530481 0)
(14.956776 6.3487849 8.0025904e-18)
(18.517506 -0.033840502 -2.6202678e-20)
(18.201044 0.84537058 -6.4631325e-21)
(18.069345 1.1895081 1.1817518e-18)
(17.869596 2.1500555 0)
(17.612848 2.8891655 0)
(17.20548 4.0248045 -1.705675e-19)
(16.378011 5.0137235 -3.1967734e-18)
(15.290064 5.8550572 1.429854e-19)
(15.313654 6.2508925 0)
(18.705978 -0.096708806 -2.0387862e-20)
(18.473472 0.82231419 -5.8436028e-21)
(18.348097 1.2080456 -1.0728477e-18)
(18.116511 2.2035697 0)
(17.841741 2.9725463 0)
(17.439182 4.2420088 1.4308467e-19)
(16.530776 5.1736865 8.6652697e-18)
(15.192907 6.0341353 -1.2808793e-19)
(14.531596 6.1063828 8.9547303e-18)
(18.840002 -0.07684102 0)
(18.607031 0.80411755 1.1650472e-18)
(18.496213 1.1275588 0)
(18.342629 2.1626275 6.6991476e-20)
(18.072481 3.0183529 -7.3141227e-20)
(17.646799 4.2937565 -1.2209271e-19)
(16.645057 5.46643 -1.0221398e-17)
(14.798121 6.0865176 1.1573345e-19)
(12.732179 6.0468399 -8.4107793e-18)
(18.957886 -0.12391536 4.6358815e-19)
(18.847493 0.74500087 -1.1162073e-18)
(18.745684 1.1328648 1.0141429e-18)
(18.58924 2.203684 1.2399568e-18)
(18.279497 3.101612 -1.7785556e-18)
(17.846828 4.5647098 2.1613158e-18)
(16.613765 5.6647696 4.8878635e-18)
(14.411868 6.151763 7.7811604e-18)
(10.351413 7.2722995 0)
(19.052443 -0.11615663 -7.8760278e-19)
(18.959489 0.70882916 5.487024e-19)
(18.859729 1.0538597 -9.8105105e-19)
(18.815418 2.1327405 -4.4829819e-19)
(18.505467 3.1618723 1.6949538e-18)
(18.07122 4.5817953 -6.6632357e-19)
(16.577238 5.9192063 0)
(13.619196 6.4476821 -7.4742031e-18)
(6.8487909 6.8563963 0)
(19.126514 -0.1657276 5.3073772e-19)
(19.171896 0.61841657 -5.271582e-19)
(19.081263 1.0399062 4.2802393e-19)
(19.082791 2.1376947 -7.3941902e-19)
(18.725548 3.2090608 -3.0108457e-20)
(18.287415 4.8326153 -1.3939509e-18)
(16.292761 6.1760557 3.0959743e-18)
(12.12532 5.7566737 6.5685937e-18)
(0.95155019 1.3055837 -7.8934701e-18)
(19.177609 -0.16545734 -2.1542555e-19)
(19.264995 0.56200771 6.1287994e-21)
(19.16629 0.95472272 -4.0335168e-19)
(19.308012 2.0249095 6.6286098e-21)
(18.956633 3.2664283 -7.1508085e-21)
(18.450659 4.8399321 -1.564519e-19)
(15.785688 6.1226073 -5.7450456e-18)
(9.2614013 5.0129333 -6.1933858e-18)
(-0.53337848 1.8516146 7.4838192e-18)
(19.201532 -0.21455631 -6.8679834e-22)
(19.454197 0.44053316 7.3192002e-22)
(19.362512 0.9154464 -3.920683e-20)
(19.577491 1.9982282 -5.692484e-19)
(19.17921 3.2737718 3.3208639e-19)
(18.539951 5.0264133 -3.1404225e-19)
(14.968552 6.3376303 4.9474188e-18)
(6.6843536 3.9232303 5.4385603e-18)
(-0.55151286 2.5653039 -6.7776586e-18)
(19.189403 -0.24104018 1.3390622e-19)
(19.515163 0.36714534 2.6839797e-21)
(19.422157 0.82016236 -1.8389045e-19)
(19.781259 1.8503169 5.5183283e-19)
(19.392267 3.3150882 -3.0138653e-19)
(18.449173 5.0736738 4.0543897e-19)
(13.608937 6.0298164 -2.2876247e-18)
(3.6349539 2.112458 -5.1491535e-18)
(-1.1630425 2.8452806 6.4583602e-18)
(-1.2869634 2.8293756 1.0595466e-17)
(1.8499341 1.5118523 6.2034873e-20)
(12.223455 5.9335902 -7.0559315e-21)
(18.367332 5.084819 5.9721007e-21)
(19.559022 3.2882409 0)
(20.017012 1.8028516 1.2470652e-20)
(19.589958 0.75579968 6.0674157e-19)
(19.667206 0.22608207 4.3791794e-19)
(19.156257 -0.27237455 -3.067836e-19)
(-1.3999052 2.8827743 -1.0259136e-17)
(1.6519266 1.8730766 0)
(10.983473 5.5483695 0)
(18.258023 5.0591362 4.792301e-18)
(19.76106 3.1750356 0)
(20.173639 1.5619683 -3.4090476e-18)
(19.619802 0.61198194 -1.4450399e-18)
(19.681521 0.13165906 -4.186747e-19)
(19.099753 -0.30064444 -3.1154062e-19)
(-1.4627256 2.9191913 -7.0417465e-20)
(2.1939677 3.3888522 5.6721261e-20)
(10.118676 5.3159397 0)
(18.108193 5.0044471 -4.70088e-18)
(19.887385 3.125224 0)
(20.366317 1.4934028 3.3664589e-18)
(19.753618 0.5303031 1.012453e-18)
(19.783057 -0.016128405 9.387697e-21)
(19.020423 -0.32466486 4.749474e-19)
(-1.5828657 3.0694032 -1.837702e-17)
(2.7379819 4.3391945 1.1978532e-17)
(9.2679429 5.2294019 -4.8897695e-20)
(17.904842 4.9676891 0)
(20.050837 2.9743329 -5.4873688e-18)
(20.483701 1.2357846 0)
(19.75199 0.38413021 -1.0202796e-20)
(19.752474 -0.11293904 9.9945564e-21)
(18.919038 -0.34497473 -6.3367136e-22)
(-1.6449728 3.1577615 1.7668562e-17)
(2.5895338 4.8797418 -4.3640041e-19)
(8.4686943 4.9742768 -3.8468581e-19)
(17.623547 4.8938282 -2.4223705e-20)
(20.139419 2.9049386 -9.1064684e-19)
(20.645345 1.1409921 0)
(19.852979 0.28691021 -1.4739063e-18)
(19.807545 -0.26602303 0)
(18.797965 -0.36215015 0)
(-1.735013 3.3350668 -5.7594694e-20)
(2.3665576 5.0227057 -1.0688782e-17)