/*--------------------------------*- C++ -*----------------------------------*\
  =========                 |
  \\      /  F ield         | OpenFOAM: The Open Source CFD Toolbox
   \\    /   O peration     | Website:  https://openfoam.org
    \\  /    A nd           | Version:  11
     \\/     M anipulation  |
\*---------------------------------------------------------------------------*/
FoamFile
{
    format      ascii;
    class       surfaceScalarField;
    location    "0.35923645";
    object      phi;
}
// * * * * * * * * * * * * * * * * * * * * * * * * * * * * * * * * * * * * * //

dimensions      [0 3 -1 0 0 0 0];

internalField   nonuniform List<scalar> 
1652
(
1.706212168242977
0.5337381654478366
-1.763034163104749e-13
1.172474003768357
0.533738158421321
9.350298313393068e-13
0.6387445850942362
0.5335571555788723
5.782041512247815e-13
0.5291695195388382
-8.919975869048358e-12
0.1057111329084423
1.706212168247671
1.067476330876201
1.172474005829469
1.0674763028405
0.6387502465605683
1.067105509857698
1.053469951389375
0.1085008275966889
1.706212168244341
1.601214496297513
1.172474013702311
1.601214386896487
0.6388068710419363
1.600473903130399
1.575038111870712
0.1089061397935033
1.706212168319533
2.134952661525117
1.172474043756286
2.13495222873314
0.6388942757478668
2.133493284378521
2.097351300405061
0.1052259153404695
2.651191214816958
1.723711780177984
3.16742976378227
1.723711779125778
3.683668090052819
1.723711851207379
1.72371285891881
4.199906971659888
2.65118946078969
1.207473399362422
3.167421594025421
1.207473287078947
3.683647048557122
1.207475968325715
1.207511807921576
4.199820705759858
2.649581370019251
0.6899954941000099
3.16604056406743
0.6888415100797595
3.682702437475284
0.6872903417709119
0.6887247618106195
4.194525748608241
2.650874465726299
0.1168379043968004
3.273931995942538
0.04172463025536238
3.912955047109701
0.01811964524992682
4.554446395120967
0.01129148812148961
4.164891486946503
0.03501639678360147
4.129861134106839
0.03500481609620576
4.094845355166045
0.03485880929719432
0.03478328206268089
4.059708001069354
4.164989933931563
0.06971402193877185
4.130355905860537
0.06893656483644695
4.096344156437766
0.06750053788695359
0.06567962234932057
4.062546338443908
4.174765250305273
0.08242252069147277
4.160204164903291
0.07410494648299965
4.152940631824007
0.06155652515989157
0.05298181338633351
4.147974741888405
4.603056147230199
0.006229210144604147
4.647547280098664
0.005264141072977069
4.680683780300561
0.006631568099074781
4.712916857801597
0.007741205216868441
4.670365365371985
0.1044175039619735
-0.06872496869341455
4.585724728120721
0.1015335631721436
-0.01838188142968933
4.503680512481311
0.09666912974002617
-0.00894176733879587
0.0878584359782919
4.431572759924123
-0.006796810360760352
4.220096257149632
0.01360741179294445
4.275162956017365
0.02651440734303478
4.314339764197486
0.03726910849288939
0.04540986652366208
4.338142448372587
4.068844758670174
0.001073227604213245
4.081319741477392
0.002963607036517657
4.098854718116407
0.005655612903725959
0.009950124683020034
4.118433310935206
4.059561399409
4.059934643679905
4.061254173420509
4.064432376431229
4.069795828712359
-0.01554491546284831
4.077679493749679
-0.02162145293134532
4.087623466427182
-0.02801780557914568
-0.03210796160580598
4.096916999776457
4.138847400971591
-0.05369588639343853
4.158817256001931
-0.06003531253308497
4.17699732008353
-0.06321989427817587
-0.06156515261066225
4.190974601906125
4.347633672874859
-0.07864938543322086
4.345713651912591
-0.06822782143035994
4.333663767669923
-0.05402390707031612
-0.04809061785569752
4.319208327446555
4.365059888927879
-0.007518749361494631
4.3164257295819
-0.005960751545480175
4.273216349758782
-0.003535245446712937
4.24428486825532
-0.002871877878781653
0.04263138215409651
4.228675403354885
-0.0174794586452191
0.05775046984230287
4.308730662746056
0.03447589679018859
4.199831913690279
4.10180864853802
0.04041910261707404
4.249424364807244
-0.1456627621445496
0.04760726778176433
4.301615755697393
0.03368338345334854
4.206144047562802
4.102832477739038
0.07818178530871717
3.985006907758475
-0.140005802987101
0.04627143777976989
4.308885516167236
0.02810063618052505
4.211434083299478
4.098033834748146
0.174660557508819
3.682276146849973
-0.04233673287699191
0.06565780493945794
4.316411219534117
0.02803763928012803
4.226445233453408
4.100476755172652
0.07033232946285028
3.97981396496106
0.1235566630164999
4.132434706249624
0.08027946653565554
4.217519283104486
3.560893802945517
0.1473566721688669
0.06627771925576553
3.876832771486597
0.08925397723490208
4.042791761294313
0.008555450728969016
4.094877430882015
3.434668211405519
0.1118000056529268
0.05279841001672536
3.784937960246936
0.01845354557204459
3.955719018043521
-0.07013711798343403
3.934669762090075
3.33293788071155
0.05847370626333481
0.02149029120537815
3.705442187079131
-0.08849210702484267
3.861473564573557
-0.1185519271770334
3.745430163663521
3.2392574559969
0.02716041564338767
0.1401541281034665
3.155192667223242
0.002272807091284967
0.1880851237248983
3.584087271110835
0.03402620692083957
3.734483553448553
3.642164814719104
0.1485181123270646
3.077803574052331
-0.006619697771538702
0.2559944070841015
3.47252319309664
0.1028843181283848
3.584916121563239
3.592147937009211
0.1404621367054355
2.995520851096982
0.002475045429131795
0.2945972815314128
3.346351140192074
0.1909906312483797
3.450090943640305
3.557358022271088
0.1099862720616072
2.890870841580167
0.01568641438446516
0.2666316325089679
3.221601108708499
0.2510968419454163
3.304257979141995
3.515470801132577
-0.2198606422664595
3.464403862338466
-0.1874177332427709
3.230011804416432
-0.04683144419544305
3.107244033395483
2.78961000880147
0.04415746941623322
-0.1620751037237409
3.402431831316117
-0.1271063601008661
3.139808004129472
0.001551503633479889
3.00499790577118
2.707306638584103
0.06647363428205044
-0.1025099824371242
3.328923661271288
-0.05274328869889444
3.057280769260595
0.06928484123681095
2.91161548722103
2.641311862454394
0.1219615353620804
-0.0359715391549732
3.224302369681062
0.03387154990469365
2.967052826221376
0.1556891378588087
2.81984234856607
2.56930790035651
0.2296405798445819
-0.3468345406449032
3.454811659040595
-0.5764961694439226
3.185792773473063
-0.7153241737408452
3.000044729497606
2.633114058523416
-0.7690707469405148
-0.30020911489818
3.659649300438375
-0.5257819234511458
3.40727609524108
-0.6286983139621839
3.176611560547157
2.281262851536962
-0.2632236680981071
-0.2736588139487893
3.844642882766457
-0.4821409487441879
3.621429142402148
-0.5140376207561452
3.331025521719208
1.80300591930487
-0.02966571261136369
-0.2402600252131444
4.011166695646308
-0.4394778677689997
3.827812663352521
-0.3630681169123964
3.438906476713655
1.41773260889466
-0.01228125677209736
0.1576818794905971
1.459275553880919
-0.01047804226871727
0.2075843862097025
3.529871127830194
0.1042120427814674
3.938193365562688
4.06297471756696
0.1656294343395207
1.439677359462707
-0.007978867261702671
0.1877443919125042
3.62567690086573
0.09472382039985822
4.050909097450231
4.108047505546031
0.1503822598465131
1.343317582986673
-0.003393855324742151
0.168629881519255
3.723213462553109
0.08924782830775174
4.16021250681641
4.149922718007382
0.1199112836305506
1.254281364308719
0.002202948633932743
0.1500457262419898
3.816530824319277
0.08903431188370298
4.257714972505987
4.196624116067814
-0.2359529811798353
1.570203886021905
-0.0156724950545617
-0.1845876996405281
3.985441850025176
-0.04698206770679625
4.1979957444468
4.097717042439633
-0.2649897820221255
1.927850956464385
0.005974071692900124
-0.1781050609199107
4.069002671137907
-0.03211420039528212
4.113302844140684
4.060050737843945
-0.2623647790617288
2.245158781961704
0.03358743261876143
-0.1344451391733738
4.102206132064242
-0.02063071610388012
4.06747555784312
4.056535963680302
-0.2321305361234864
0.08786605647741397
2.498259379740899
-0.1113836838756191
4.099523781490446
-0.0164876444164157
4.039832346316512
4.056691389841671
0.3370437539236515
-0.438618390059063
-0.01287172537016029
5.615952147763892e-12
0.8928688240024912
-0.4130648745627021
-3.481659405224491e-13
1.633810454982697
-0.4646879377758104
7.500666754367558e-13
-0.5171012860434065
-1.259925497265613e-11
0.3341161476466792
-0.8918390522851201
-0.01277412715477943
0.906821408367357
-0.8655147732484014
1.634736238742203
-0.9425091122726998
-1.035759315397537
0.3307524695445575
-1.351362096262072
-0.01558036403934623
0.9266025840107773
-1.343378723682678
1.638843460086886
-1.451593588946999
-1.556743871494062
0.3240816756902011
-0.01607254749435314
-1.703816960794776
0.9567812210914313
-1.851427277029308
1.647526997609013
-1.983871160067559
-2.082285786473299
-0.2321305361236866
-2.245158781964812
0.08786605647739613
2.498259379736672
-0.11138368387224
-4.102206132067044
4.099523781490644
-0.01648764441255501
-4.06747555784102
4.039832346315296
-4.056535963675107
4.056691389837376
-0.2623647790604083
-1.927850956467774
0.0335874326193594
-0.134445139175859
-4.069002671148813
-0.02063071610573131
-4.113302844144844
-4.060050737848565
-0.2649897820235396
-1.570203886027754
0.005974071693170893
-0.178105060922786
-3.985441850031016
-0.03211420040017443
-4.197995744447983
-4.097717042438171
-0.2359529811797747
-1.254281364310891
-0.01567249505434832
-0.1845876996447167
-3.816530824331244
-0.046982067711411
-4.257714972506396
-4.196624116060383
-0.1042120427765701
4.062974717585543
-4.01116669567139
-0.2075843861976291
3.938193365584934
-3.827812663382856
-0.1576818794842599
3.529871127807336
-3.438906476683993
1.459275553852666
-1.417732608872464
-0.01047804226894483
-0.09472382039404109
4.108047505549558
-0.1877443918982394
4.050909097464792
-0.1656294343345042
3.625676900853163
1.439677359452405
-0.00797886726182246
-0.08924782830220895
4.149922718001195
-0.1686298815018618
4.160212506825256
-0.1503822598414318
3.723213462550776
1.343317582984728
-0.003393855324485849
-0.08903431187676597
-0.1500457262258641
-0.1199112836255205
0.002202948633842242
0.36306811691618
-1.803005919291697
-0.01228125677209803
0.4394778677840858
-3.331025521705425
0.2402600252283231
-3.621429142428632
-3.844642882785987
0.5140376207602456
-2.281262851524722
-0.02966571261061068
0.4821409487588556
-3.176611560542581
0.2736588139600341
-3.407276095262702
-3.65964930045324
0.6286983139694731
-2.633114058519794
-0.263223668096907
0.5257819234660421
-3.000044729495449
0.3002091149083533
-3.185792773484664
-3.454811659046805
0.7153241737479903
-2.56930790035674
-0.7690707469424356
0.5764961694561257
-2.819842348567414
0.3468345406483131
-2.967052826227498
-3.224302369680446
-0.219860642265862
3.464403862349391
-3.515470801147965
-0.1874177332360109
3.230011804431797
-3.304257979164733
-0.04683144419043062
3.107244033384396
-3.221601108690434
2.789610008791415
-2.89087084156855
0.04415746941360199
-0.1620751037163979
3.402431831322721
-0.1271063600927405
3.139808004137941
0.001551503639636076
3.004997905762322
2.707306638576844
0.06647363428262953
-0.1025099824346644
3.328923661273977
-0.05274328869111855
3.057280769267158
0.06928484124101175
2.911615487216443
2.64131186245108
0.121961535361836
-0.03597153915057805
0.03387154991399866
0.1556891378620072
0.2296405798449087
0.1099862720644482
-2.995520851086007
0.01568641438509943
0.2666316325147271
-3.3463511401827
0.2510968419483138
-3.450090943654812
-3.557358022282428
0.1404621367081959
-3.077803574047538
0.002475045428878331
0.294597281538261
-3.472523193093519
0.1909906312529767
-3.5849161215706
-3.592147937016484
0.1485181123302106
-3.155192667216159
-0.006619697772795696
0.2559944070902319
-3.584087271114152
0.1028843181280608
-3.734483553452095
-3.642164814721218
0.1401541281054063
-3.23925745599804
0.002272807090664575
0.1880851237329756
-3.745430163665249
0.03402620692464242
-3.861473564574315
-3.705442187076976
0.07033232946410362
3.979813964962082
-4.100476755170948
0.1235566630172877
4.132434706250474
-4.22644523345136
0.08027946653812235
4.217519283108236
-4.316411219536451
3.560893802949983
-3.68227614685222
0.1473566721678268
0.06627771925775616
3.876832771488082
0.08925397723603934
4.042791761296305
0.008555450730834968
4.094877430885432
3.434668211404531
0.1118000056510026
0.05279841001837071
3.784937960248745
0.01845354557884105
3.955719018047689
-0.07013711798332101
3.934669762097371
3.332937880712156
0.0584737062630476
0.02149029120790547
-0.08849210702013421
-0.118551927175861
0.02716041564384719
-4.09803383474762
-0.0280376392793058
-4.10283247774082
-0.02810063617956771
-4.101808648539508
-0.03368338345246757
-0.0344758967905503
-4.096916999777572
-4.211434083300814
-0.06565780494198753
-4.206144047561503
-0.04627143778042803
-4.199831913684887
-0.04760726778113494
-0.0577504698419104
-4.190974601901438
-4.308885516170416
-0.1746605575066024
-4.301615755699733
-0.07818178530732922
-4.308730662745559
-0.04041910261813181
-0.04263138215390477
-4.319208327447732
-3.985006907765938
-0.04233673287720602
-4.24942436480832
-0.1400058029878518
-4.228675403353815
-0.1456627621420135
-4.24428486825617
-0.01747945864509939
-0.03210796160423757
-4.087623466426008
-0.06156515260953982
-4.176997320078733
-0.04809061785445279
-4.333663767674183
-4.273216349759712
-0.002871877879159046
-0.02801780558017242
-4.077679493750083
-0.06321989427644698
-4.158817255996649
-0.05402390706845028
-4.345713651918745
-4.316425729580216
-0.003535245444733631
-0.0216214529297295
-4.069795828713883
-0.06003531253330968
-4.138847400965127
-0.06822782142937472
-4.347633672883514
-4.365059888927267
-0.00596075154557249
-0.01554491545986791
-4.064432376437367
-0.05369588639448225
-4.118433310928154
-0.07864938543285777
-4.338142448383973
-4.431572759925338
-0.007518749360269222
-0.001073227606050109
4.059561399409048
-4.059708001064275
-0.01360741179502589
4.068844758653461
-4.062546338423749
-0.1044175039656436
4.220096257165614
-4.147974741905755
4.670365365381325
-4.712916857812999
-0.06872496869312592
-0.002963607039741523
4.059934643679849
-0.02651440734809968
4.081319741463813
-0.1015335631754949
4.275162956031191
4.585724728128198
-0.01838188143056257
-0.005655612907890739
4.061254173422483
-0.03726910850140369
4.098854718104498
-0.09666912974419067
4.314339764210039
4.503680512485671
-0.008941767340443996
-0.009950124685211614
-0.04540986652781276
-0.08785843598107562
-0.006796810360509387
-0.05298181339125785
-4.680683780308823
0.007741205216521274
-0.06567962236237901
-4.152940631831173
-0.03478328206781622
-4.096344156429482
-4.094845355165398
-0.06155652516532906
-4.647547280103583
0.006631568098760199
-0.06750053789998017
-4.16020416490241
-0.03485880930039031
-4.130355905864546
-4.129861134114071
-0.07410494648993204
-4.603056147230128
0.005264141072338191
-0.06893656484825911
-4.174765250298345
-0.03500481609685879
-4.164989933949773
-4.164891486946204
-0.08242252069575795
-4.554446395105018
0.006229210146100839
-0.06971402195136528
-4.194525748593709
-0.03501639678709012
-4.199820705786921
-4.199906971665525
-0.6887247618087405
-3.912955047079311
0.01129148812215319
-1.207511807913791
-3.682702437463992
-1.723712858924228
-3.683647048573977
-3.683668090052975
-0.6872903417688677
-3.273931995909622
0.018119645252621
-1.207475968318275
-3.166040564063166
-1.723711851208929
-3.167421594039284
-3.167429763785934
-0.6888415100793708
-2.65087446569834
0.04172463025199691
-1.207473287075145
-2.64958137001851
-1.723711779126112
-2.651189460794924
-2.651191214823063
-0.6899954940999966
-2.097351300393144
0.1168379043897855
-1.207473399362493
-2.133493284383608
-1.723711780188848
-2.134952228736605
-2.134952661529123
1.706212168246033
0.5337381654428741
1.172474003772973
0.5337381584279721
0.6387445850974613
0.533557155581001
0.5291695195262383
0.105711132912027
1.706212168248594
1.067476330870286
1.172474005829715
1.067476302839835
0.6387502465611025
1.067105509863476
1.05346995137969
0.1085008275983641
1.706212168246498
1.601214496294724
1.172474013702196
1.601214386894231
0.6388068710411972
1.600473903133164
1.575038111870263
0.1089061397926551
1.706212168319974
1.172474043753894
0.63889427574494
0.1052259153385431
0.1054762308635677
0.1054762308677096
0.1054653893466876
0.1079721207317254
0.105922511044835
0.1078287809883084
0.1026793164128165
0.1077871405768487
0.1079721207291694
0.1054653893510184
0.1076782104231627
0.1076782104256045
0.108168838733581
0.1066956989848646
0.09903951967199949
0.1111325180157733
0.1078287809893864
0.1059225110482255
0.1066956989853978
0.1081688387362298
0.1063680724339464
0.1063680724341392
0.09589779960091888
0.1089243903970828
0.1026793164171061
0.1077871405786855
0.09903951967486842
0.1111325180176184
0.09589779960538181
0.1089243903966661
0.0956781792043183
0.09567817920929711
-0.03916483419865585
0.1340424932647857
-0.0625320476841783
0.1313125672349446
-0.08851463976955226
0.1359908614975484
0.1348760674422614
-0.005682171380821333
0.1388609516371487
-0.01617534041351426
0.1408669351678915
-0.02705988690634026
0.1458977546299952
0.1484336159877985
-0.0009897454511618164
0.1391852179518267
-0.0073440474256663
0.146498522124678
-0.01313441752171274
0.1509051772087824
0.1525076760803508
-0.001218716288927002
0.1398031623267046
-0.006135057656398435
0.1507758149872634
-0.009219359943011929
0.1533082336844132
0.153821552457584
0.1533031309504669
0.006169575818619155
0.1533721009052138
0.004948543380809245
0.1526201071538154
0.007183188300376453
0.006669561009757186
0.1537744929289931
0.1535206821148852
0.005391475302965854
0.1538379725839416
0.004325676577828896
0.1539161563405411
0.006914476122591717
0.003199576622383904
0.1574316360693977
0.1528814183137779
0.002725278680377141
0.1538629366852102
0.003033501919330828
0.154704773344139
0.005885403610376871
-0.00975264753470334
0.1676840254985173
0.1419776462379121
0.1446515616301763
0.150291077806451
0.1404652911290311
0.1402989117205663
-0.05510088929043264
0.1310927956660235
-0.008870378175306198
0.1296687919402422
-0.006961203949975348
-0.006209409592455195
0.1296551137268681
0.1446496289442963
-0.04222970871856735
0.1388102902719326
-0.002739831378590241
0.1356410100650114
-0.003209403409193706
-0.003925132353896021
0.1339572897291723
0.1511964705406101
-0.02570025726166666
0.1456023137967194
0.003129665058849707
0.1416372916637162
0.001326780973304714
8.870600043939247e-05
0.138217582940195
0.1147562672140961
0.1181759249439485
0.1201040664045289
0.1208093978788299
0.1299201096241994
-0.006882548395330396
0.1308441844802573
-0.005824224166558561
0.1320144289402359
-0.003767107671284881
-0.003038503409017151
0.1331207737418815
0.1327149804676175
-0.004747778612290976
0.1322448837434756
-0.004284428289252268
0.1322701126119586
-0.002830359174282038
-0.002528187855886932
0.1326951281160054
0.1355128673070234
-0.001149128696177004
0.1336078788196118
-0.001296574477433143
0.1325487452132599
-0.0007878468062340049
-0.001115510606427866
0.1321948796001536
0.1205604585867376
0.1203303188295502
0.1204691573965869
0.1203652685892253
0.1377885904597005
-0.02482821301565991
0.1348827989285304
-0.1504997285170258
0.1107598853301859
-0.1229665462584292
-0.01104215227823752
0.0805115298733604
0.1322028769607835
-0.02831587602807548
0.1023254093413241
-0.1270270012446797
0.05610840861731738
-0.08144790577619099
-0.002616678189536759
0.04679684210826822
0.1239355225355365
-0.02441131608708608
0.05391313516212447
-0.06299653865807109
0.002564563816576826
-0.03524075141827643
-0.006634868044987141
0.004849330636835292
0.09095662254396
0.02205339253086019
-0.01732378041872842
-0.02687791472967264
0.1047430795252473
0.1254180303568787
0.1177022278796991
0.1030275855431666
0.1245919301621283
0.05756180746176764
0.02675343955453446
0.1298440619380263
0.08613664795134057
0.08814322265051078
0.1121677107497372
0.08104237164359618
0.1233710929987239
0.05040387986086514
0.02496190251086816
0.1295953792628221
0.05318291659857702
0.04164882039972917
0.09764533388005728
0.04052001268280914
0.1175439282770832
0.0337840097567158
0.02014559348872125
0.1261442712490304
0.01606355390859429
0.06047028462428625
0.09669644715646353
0.120020267334407
0.1350666265567987
0.003068265427516037
0.1400249512705097
-0.006417310173930879
0.1434898212889775
0.001381500708012795
0.01112156425719979
0.1477709563186616
0.1347763291236699
0.005054764492008812
0.139568718000855
-0.002603283404508994
0.1424688377559918
0.001754686407880124
0.006795003625739038
0.1464998258510945
0.1319896849769015
0.006205240410400825
0.1376971199873374
0.000134555123080693
0.1417126215534116
0.001461488178611248
0.003119726849818538
0.1452932637987494
0.1330968628803939
0.1388413264971126
0.1429867374408623
0.1462795448458245
0.1586638318316154
0.03178752419294406
0.1726591321477018
0.05121751088686688
0.1922475874813735
0.1023173847477983
0.1805135572987418
0.2412399875734653
0.1566728564052016
0.01993618932284036
0.1704611855929269
0.03610927192244928
0.1914989094899489
0.08113533560667285
0.1229080549551208
0.2492073629054525
0.1538903154281652
0.009770563840705626
0.1672302524765111
0.02141997618135139
0.1942631613567765
0.0534521419623844
0.03428847881135871
0.2830991291512138
0.1546647503258542
0.1746625192859989
0.2273712313496385
0.2615308800833266
0.1220014511611292
-0.6494854469648367
0.0121493197723038
-0.1526509669072376
-0.00259714668743301
-0.01384699415527185
-0.00976574567243285
-0.003860770557546101
0.08463897756237851
-0.4845210879718188
0.001807028356675775
-0.06912182459827976
-0.004315337807781456
-0.006799028479159616
-0.006316623970600665
-0.006748304208809099
0.04503313705577699
-0.2463298317883632
-0.002596049072740082
-0.02080256712980359
-0.005881500926183801
-0.002576884842544294
-0.003320593262096969
-0.008045798092817287
0.01517957669285248
-0.004926156984963971
-0.006659518496805971
-0.009082484829531392
-0.005367092449331724
-0.007899571225150708
-0.00684275077641711
-0.005047319518193946
-0.008519339504320499
-0.0008104965416737345
0.003538148572163773
-0.009128790115619317
-0.008192599170099901
-0.005611313832247897
-0.009147310691466924
-0.002763129902966156
-0.009653901873201717
0.0007066490740806897
0.00316851744005326
-0.008476733195069287
-0.009688810974398918
-0.0028822316813548
-0.009469046773593243
-0.001545623422753099
-0.008702839519054806
0.0009290842871924609
0.002634955568250989
-0.007328854596706964
-0.01079238121480572
-0.01094990077766843
-0.009120758904729983
-0.005723270753762378
-0.008421242613062926
-0.01576922148689828
0.001943142420436996
-0.002849459856150177
0.02247375239668539
0.01462039757837516
0.07047403993022767
0.04243676019219086
-0.00950907597041379
-0.01396204282863703
-0.007053742621687179
-0.003681780962608378
0.00890902310534479
4.077557003437371e-05
0.0477057908447464
0.03388595180241934
-0.01176758331885154
-0.008575084269095423
-0.01145448781954387
-0.002555854879316706
-0.003607351013413869
-0.006445999801227079
0.02557358641580264
0.02032676618965299
-0.01309197781758616
-0.01388663731716932
-0.0190129494553249
0.008975997205256679
0.04129068497435314
-0.006356817675450668
0.01063487414869446
0.03999954104511688
-0.007445450238117546
0.011266039278565
0.0367724033526926
-0.01237324091145856
0.01704052209392188
-0.01696916777136951
0.02817990529891979
0.02546630551611301
0.03266466431874929
-0.003783891686420224
0.03078345389893968
-0.004784172271895586
0.02748575283490403
-0.00873224760712385
-0.01083083218244279
0.02109994309615251
0.01849769714113805
-0.001709208165340353
0.01641348076868521
-0.002220716832011256
0.01257214635170334
-0.00443703672410968
-0.005015180600463614
0.006837882026234206
0.006533269987712732
0.004582820832792107
0.0002902095097457522
-0.004408775217409386
-0.006411131543169038
0.002584405347543395
-0.006056267153958128
0.0007783995337600769
-0.003634268307547386
-0.0008802556833156401
-0.001874229026268687
-6.212391712168142e-14
0.00349588997196703
0.006009725325588813
0.001027985321784282
0.003639509745611037
-4.024209228765258e-05
0.0009232416596693174
-0.0009164600311691827
-2.683270272640925e-14
0.016691244781675
0.01018025690267772
0.01132028958342882
0.008928164060318225
0.005680806692246701
0.006652597609149793
0.00507300504716449
1.675742877793596e-14
0.02174004188218453
0.01431339559026213
0.007707616428270808
5.661443536197908e-14
-0.001874229026270404
0.003634268307427531
-0.0009164600311753097
4.024209224132158e-05
0.005073005047175116
-0.005680806692205706
-0.007707616428147566
0.01287172537008352
-0.0008802556833077749
0.0060562671539224
0.0009232416596653067
-0.001027985321873884
0.006652597609192876
-0.01132028958351448
-0.01431339559023607
0.01277412715488567
0.0007783995337233493
0.006411131543008673
0.003639509745609608
-0.003495889971918242
0.008928164060417319
-0.01669124478168465
-0.02174004188219578
0.01558036403925483
0.00258440534761185
0.004408775217463842
0.006009725325587693
-0.006837882026307154
0.01018025690273626
-0.02109994309614349
-0.02817990529910566
0.01607254749423873
-0.03677240335261248
-0.01696916777120369
0.02546630551631551
-0.03999954104512568
-0.01237324091145462
0.01704052209388982
-0.04129068497435153
-0.007445450238115561
0.01126603927861778
-0.006356817675523478
-0.04243676019222447
0.01063487414872551
-0.0274857528349364
-0.01083083218246656
-0.03078345389890202
-0.008732247607173546
-0.03266466431878554
-0.004784172271936837
-0.003783891686484873
-0.03388595180250432
-0.01257214635176113
-0.005015180600431771
-0.01641348076866847
-0.004437036724046658
-0.01849769714126002
-0.002220716832053823
-0.001709208165365329
-0.02032676618973375
-0.0002902095097703297
-0.004582820832836482
-0.006533269987762706
-0.008975997205354594
0.01901294945520118
-0.02557358641585937
0.01388663731714991
0.006445999801486066
0.01309197781757239
0.00255585487925912
0.008575084268909544
0.005723270753784189
0.003607351013379161
-0.04770579084480087
0.01145448781947013
-4.07755702677981e-05
0.01176758331874925
0.003681780962514335
0.01396204282871565
0.007328854596717423
-0.008909023105487246
-0.07047403993026027
0.007053742621584438
-0.01462039757861235
0.009509075970315929
0.002849459856155118
0.01576922148660326
0.008476733195051244
-0.0224737523968623
-0.001943142420525165
0.008421242612894503
0.009128790115616596
0.008519339504327476
0.003538148572173043
0.006842750776492532
-0.000810496541632677
0.005367092449386409
-0.00504731951833088
-0.007899571225201947
0.003860770557501527
0.009653901873195059
0.00316851744004347
0.009147310691504857
0.000706649074063731
0.008192599170111368
-0.002763129903044927
-0.005611313832292015
0.006748304208815148
0.008702839519024242
0.002634955568264347
0.009469046773622711
0.000929084287299764
0.00968881097440584
-0.001545623422814224
-0.002882231681391352
0.008045798092816707
0.009120758904784698
0.01094990077770578
0.01079238121483045
0.009082484829532245
0.002597146687406036
-0.009765745672352805
-0.01214931977179139
-0.01384699415501497
-0.1220014511601655
-0.1526509669065579
-0.6494854469654326
-0.2412399875729132
0.004315337807823918
-0.00631662397052484
-0.001807028356492889
-0.006799028479059763
-0.08463897756171414
-0.06912182459803137
-0.4845210879717835
-0.2492073629051986
0.005881500926212785
-0.003320593262085797
0.002596049072812057
-0.002576884842498374
-0.04503313705548048
-0.02080256712969969
-0.2463298317883045
-0.283099129151084
0.006659518496812032
0.004926156984995678
-0.01517957669279057
-0.2615308800835058
-0.1922475874814266
0.1805135572995886
-0.1726591321475609
0.1023173847490574
-0.1586638318317002
0.05121751088862414
0.03178752419409481
-0.1477709563187109
-0.1914989094897755
0.1229080549543324
-0.1704611855929786
0.08113533560650521
-0.1566728564050344
0.03610927192375557
0.0199361893217751
-0.1464998258510917
-0.1942631613564859
0.03428847881138453
-0.1672302524765794
0.05345214196300452
-0.1538903154278894
0.02141997618362945
0.009770563841279389
-0.1452932637988691
-0.2273712313491229
-0.1746625192864405
-0.1546647503256633
-0.1462795448458696
-0.1434898212890074
0.01112156425719801
-0.1400249512703888
0.001381500707746786
-0.135066626556253
-0.006417310173206237
0.003068265427274008
-0.1298440619379383
-0.1424688377560998
0.006795003624323614
-0.139568718000416
0.001754686410698314
-0.1347763291233442
-0.0026032834043348
0.005054764491965402
-0.1295953792626814
-0.1417126215532027
0.003119726851458005
-0.1376971199870062
0.001461488178161274
-0.1319896849764773
0.0001345551230537145
0.006205240410562363
-0.1261442712490012
-0.1429867374409114
-0.1388413264969795
-0.1330968628801709
-0.1200202673341993
-0.1245919301622818
0.02675343955446696
-0.1177022278797166
0.05756180746156092
-0.1047430795254172
0.1030275855425422
0.1254180303571221
-0.08051152987353544
-0.1233710929987821
0.02496190251044095
-0.1121677107497602
0.05040387985957295
-0.08613664795168062
0.08104237164178296
0.08814322265164054
-0.04679684210839992
-0.1175439282770166
0.0201455934888044
-0.09764533388028836
0.03378400975635054
-0.05318291659870125
0.04052001268415395
0.04164882039805828
-0.004849330637287458
-0.09669644715611801
-0.06047028462391026
-0.01606355390885641
0.0268779147301243
-0.1107598853306565
-0.0110421522782625
-0.1348827989289856
-0.1229665462590752
-0.1377885904598974
-0.1504997285159762
-0.02482821301531676
-0.1331207737421562
-0.05610840861767118
-0.002616678190315525
-0.1023254093419759
-0.08144790577660616
-0.1322028769610463
-0.1270270012442268
-0.02831587602778884
-0.1326951281162064
-0.002564563816790336
-0.006634868044798459
-0.05391313516273277
-0.03524075141831456
-0.1239355225358132
-0.06299653865799132
-0.0244113160869284
-0.1321948796002926
0.01732378041871006
-0.02205339253093094
-0.09095662254409209
-0.1203652685891839
-0.1320144289403126
-0.003038503408344967
-0.1308441844800689
-0.003767107671014125
-0.1299201096242231
-0.005824224166733505
-0.006882548395652471
-0.1296551137267105
-0.1322701126120061
-0.002528187855358716
-0.1322448837433273
-0.002830359173794733
-0.1327149804675191
-0.0042844282895102
-0.004747778612224141
-0.1339572897291523
-0.1325487452131395
-0.001115510606194497