/*--------------------------------*- C++ -*----------------------------------*\
  =========                 |
  \\      /  F ield         | OpenFOAM: The Open Source CFD Toolbox
   \\    /   O peration     | Website:  https://openfoam.org
    \\  /    A nd           | Version:  11
     \\/     M anipulation  |
\*---------------------------------------------------------------------------*/
FoamFile
{
    format      ascii;
    class       volScalarField;
    location    "0.125";
    object      Ma;
}
// * * * * * * * * * * * * * * * * * * * * * * * * * * * * * * * * * * * * * //

dimensions      [0 0 0 0 0 0 0];

internalField   nonuniform List<scalar> 
880
(
1.11801663592382
1.118016635923447
1.118016483383865
1.117980044052922
1.11801663592382
1.118016635921642
1.118016061382759
1.117737834928792
1.11801663592382
1.11801663593985
1.118013619961379
1.116820815038268
1.118016635923826
1.11801663540495
1.117997005674043
1.110861137784321
1.118016635923442
1.118016635921288
1.118016635899655
1.118016633663764
1.11801663700439
1.118016635053948
1.118016639922565
1.118016245641145
1.117906266063602
1.117785429865227
1.11759884736672
1.118064037487306
1.088751902755476
1.06545380634464
1.056687641967881
1.054530538124306
1.118016585830931
1.118016160240526
1.118014644631634
1.11801464906529
1.11801172617868
1.118001324227433
1.117994226634125
1.117993849608689
1.116241689206673
1.115072351979823
1.11454250597506
1.11441317548097
1.053218563717511
1.048372561519136
1.050530100434496
1.052216708048606
1.095590766621656
1.116683943148149
1.126854058313254
1.136316414235934
1.110350901096782
1.110457970839315
1.114647757737614
1.118133219131833
1.117922836808595
1.117795540830976
1.117815391772217
1.117943410086853
1.118010958764968
1.118002558431559
1.117989155370676
1.117983004249236
1.117984676452306
1.117992584550827
1.118003880142642
1.118012415575342
1.118025685920234
1.118085355788801
1.118088866797075
1.118053474291788
1.120173417256854
1.121177404054566
1.121040767401062
1.120061166389395
1.140604242883088
1.140358960929519
1.137639143705835
1.133623172492056
1.128963319834564
1.118948616779182
1.11802573856291
1.11801586578438
1.123593119219344
1.118271769314094
1.118017685905723
1.118016571042266
1.115655863165368
1.118017143934505
1.118016632835686
1.118016631834045
1.042891842069494
1.1168177389635
1.118013126789938
1.118016580671394
1.11801616969688
1.117986267468821
1.11010220253053
0.841720050642325
1.118013715720671
1.11793298855303
1.10303474441537
0.8259638536754733
1.118010650460165
1.117794901003092
1.092672226777877
0.8069040857937716
1.117994250146487
1.117656206922369
1.082800997886966
0.8103802388473564
0.8147840499602013
1.071186613702952
1.11736237705818
1.117984880214032
0.8241588656459949
1.062944669053967
1.117187794847998
1.117943568536282
0.8289177869189567
1.051074294136289
1.116698479403084
1.117931746441227
0.8337562945696677
1.039916313364481
1.116266800646086
1.117858320956858
1.117815720821924
1.115223046676858
1.023564422821108
0.8490263630694466
1.117667085403118
1.114726763705306
1.033384129446549
0.8933814830474363
1.117784105506891
1.115709918774326
1.066931915672185
0.9801657344216989
1.117586629268721
1.116702810876413
1.102445247588403
1.080631472389
1.117607338150636
1.117256598718098
1.135089730224435
1.252078182583208
1.117625424368468
1.122025941512762
1.14853702437323
1.303473494265455
1.117952964896588
1.12074508657902
1.139230846004379
1.203275851366223
1.118036625431904
1.118531771462128
1.116490858122328
0.9878033707319008
0.873762989898808
1.099821046261888
1.117723221979218
1.11802283979603
0.8076444495962178
1.085676362593921
1.117137924440475
1.118007942595048
0.7715411345439402
1.077739411404388
1.117002834661565
1.118014781534442
0.7216254244181476
1.070166761551247
1.116735782262706
1.11801100235609
0.7863532959456111
1.082649971349588
1.117290643887003
1.118014418636419
0.8928474627927883
1.097072451961611
1.117723356477383
1.118015779982472
0.9866149504468862
1.107690856012602
1.117918538145769
1.118016423210668
1.049465040357427
1.11409692873892
1.118005370347214
1.118016618497285
1.011201279133471
1.110089541065888
1.117786091598786
1.118014306108019
1.019932951101496
1.110597050401141
1.117796777413827
1.118014365025672
1.018625017405899
1.110516320924122
1.117807012805497
1.11801447617573
1.017310933615168
1.111033068449636
1.117836762287464
1.11801482515342
1.04946504035759
1.114096928739987
1.118005370348706
1.118016618498749
0.9866149504469718
1.107690856013831
1.117918538146848
1.118016423211301
0.8928474627927995
1.097072451962518
1.117723356477562
1.118015779982866
0.7863532959446528
1.082649971350451
1.117290643886594
1.118014418636346
1.118022839795301
1.117723221978629
1.099821046260645
0.8737629898974952
1.118007942594569
1.117137924440541
1.08567636259297
0.8076444495948585
1.118014781534235
1.11700283466188
1.077739411405267
0.77154113454252
1.118011002356011
1.116735782261706
1.070166761551831
0.7216254244172767
0.987803370730216
1.116490858121965
1.11853177146257
1.118036625432071
1.203275851365335
1.139230846004675
1.120745086578652
1.117952964896691
1.303473494265553
1.148537024373318
1.122025941512678
1.11762542436784
1.252078182583188
1.135089730225187
1.117256598719119
1.117607338149856
1.117815720822806
1.115223046672817
1.023564422818779
0.8490263630693541
1.117667085403069
1.114726763704083
1.033384129445029
0.8933814830472612
1.117784105506443
1.115709918773466
1.066931915672122
0.9801657344221411
1.117586629269703
1.116702810877085
1.102445247588467
1.080631472389096
0.8337562945698886
1.039916313364216
1.116266800651541
1.117858320953795
0.8289177869183741
1.051074294134924
1.116698479398171
1.117931746441838
0.8241588656459502
1.06294466905435
1.117187794851588
1.117943568535791
0.8147840499602381
1.071186613701924
1.117362377056875
1.1179848802138
1.118016169696765
1.117986267468035
1.110102202529752
0.8417200506415957
1.118013715719228
1.117932988553016
1.103034744418218
0.8259638536764977
1.118010650458651
1.117794901002194
1.09267222677595
0.8069040857939447
1.117994250146537
1.117656206922846
1.08280099788881
0.8103802388476503
1.118016580671287
1.118016631834171
1.118016571041583
1.118015865784444
1.118013126791328
1.118016632836283
1.118017685906175
1.118025738563113
1.116817738964195
1.118017143934179
1.118271769314535
1.118948616779556
1.042891842070036
1.11565586316521
1.123593119219106
1.128963319834571
1.118012415574932
1.118053474291308
1.120061166389015
1.133623172491857
1.118003880142869
1.118088866796356
1.121040767401027
1.137639143705578
1.11799258455064
1.118085355788583
1.121177404055174
1.140358960930387
1.117984676452651
1.11802568592053
1.120173417256652
1.140604242883376
1.118010958767877
1.117922836809423
1.110350901096538
1.095590766621179
1.118002558434065
1.117795540830918
1.110457970838733
1.116683943148074
1.117989155370596
1.117815391772636
1.114647757738104
1.126854058313862
1.117983004249781
1.117943410086933
1.118133219131846
1.136316414236533
1.052216708048837
1.114413175480922
1.11799384960953
1.118014649061547
1.050530100434918
1.11454250597455
1.117994226633771
1.118014644626741
1.048372561519302
1.115072351980083
1.11800132422795
1.118016160247337
1.053218563717806
1.116241689207045
1.118011726181032
1.118016585826582
1.05453053812449
1.118064037485716
1.118016245641082
1.118016633663472
1.056687641968195
1.117598847367758
1.118016639923233
1.118016635899662
1.065453806344977
1.117785429865709
1.118016635055155
1.11801663592137
1.088751902755915
1.117906266063959
1.118016637003639
1.118016635923477
1.118016635923821
1.11801663592343
1.11801648338352
1.117980044052558
1.11801663592382
1.118016635921964
1.11801606138267
1.117737834929357
1.11801663592382
1.118016635940056
1.118013619961354
1.11682081503824
1.118016635923847
1.118016635405898
1.117997005674373
1.110861137784618
1.117878591499549
1.117306952110888
1.114054057674517
1.093413816914958
1.117306952110265
1.115118097124598
1.102644992839825
1.051601034842292
1.114054057674477
1.102644992840083
1.057676433529014
0.957100222111812
1.093413816915214
1.051601034842883
0.9571002221116984
0.8344133496603062
0.7943967443056172
0.8393261272601289
0.9244542073221357
1.001884692505659
0.8503326780348263
0.8627352295788476
0.902090827968394
0.9575536291726988
0.8823823549645932
0.8959457301368187
0.9299805511333823
0.9655983654636422
0.915936256680621
0.9235162279824394
0.9471358493632756
0.9704664495283111
0.9846321574994754
0.9936364929465743
1.000086681944071
1.014628120302768
0.9718951818512237
0.9922008192112945
1.000483032371886
1.037845699660848
0.9520182663232248
0.9841382385809752
0.9978838346134403
1.100394552439789
0.9302804346168942
0.9364657017400135
0.9473762373875038
1.183332694924643
1.205413593580438
1.212542253005231
1.175588777030358
1.164828617358151
1.292873522673315
1.287494081100194
1.227723600717962
1.196297724990883
1.432685983107558
1.335538252877853
1.254774018554382
1.213245740375037
1.15956624371327
1.056755191000322
1.029278638206646
1.034199767452962
1.159235040308539
1.152414784384382
1.145528307687329
1.13994671460931
1.179519014183487
1.166340329738407
1.15571140727175
1.147934368456939
1.190363105776332
1.174872029918001
1.162874368699352
1.153871151137365
1.04987954259447
1.069538140332353
1.087933446081033
1.10492997720226
1.136295513260512
1.128331325811572
1.080299255574982
0.8102785761945575
1.14304513358487
1.131809111942815
1.040878287653031
0.6560769041780709
1.148037690524814
1.134578246583992
0.9713123485424751
0.5008400869676164
1.112752854462331
1.120596145335092
0.8299887294568412
0.251893371856279
0.6001916070195485
0.6597678910603811
0.6944019701976446
0.7325699374660251
0.5462821425625991
0.6388590400421746
0.6916583952558096
0.7331733446324736
0.4357688335652928
0.5732895775483301
0.6620672646716321
0.720905465463194
0.2188700957564484
0.361682098402049
0.5067839079520557
0.6088160160661416
0.7534163876036569
0.7615122019950087
0.7663191655851267
0.775727129198738
0.751297509844524
0.7597460871911876
0.7657812476481933
0.7761129193948392
0.7479816362015567
0.7581572987077038
0.7650674157978447
0.7756156112027491
0.6819724329814879
0.7176047909297845
0.7342275444384392
0.7419605242575603
0.7940756502959402
0.8412859404873844
0.9267874616177131
1.040269676699683
0.7958293950466556
0.8393363525146411
0.9231489769450537
1.071757081614462
0.7957372894495536
0.8307896990366119
0.9404973855228297
1.361751509932305
0.7714176658625091
0.8083955764786173
0.9611454630712647
1.894708138316185
1.244405256198375
1.453733990861624
0.5245054670950366
0.2261427442039551
1.327281759455995
1.20694040475696
0.2387090403279468
0.1235508331442104
1.414923504566392
0.8623917974381666
0.1413377630657609
0.136745282538494
1.135658864284283
0.3668867548994837
0.1689131449453147
0.1062882301255933
0.1382456528303646
0.09712275415315905
0.06793767139725738
0.04477108656053734
0.062763350099495
0.02613565780602212
0.04446017441328504
0.08159376553946583
0.0865143935026127
0.07951574191394488
0.1026572204999371
0.1314113686496471
0.07749291632168318
0.09029913426795839
0.1299173609291085
0.1406834222038796
0.3249594630626413
0.6766200000135466
0.911882318559437
1.108225562936206
0.1343477366369615
0.4874666221140402
0.7810017245811586
1.02627969290754
0.07490641790639556
0.2438406858559236
0.5650360003684131
0.9245141764131676
0.08248441749018288
0.06206808885092061
0.4329887785104727
0.9813428301499841
1.313206116624025
1.538499803144132
1.399697569718448
0.9638485612404611
1.183717883952965
1.229455221587721
1.038965856802403
0.6850008634694268
1.083958559943607
0.8644831029311834
0.5756352605281695
0.2801405001978333
0.8361107346629417
0.3997276046329024
0.2012796064549327
0.1657521469572827
0.178100248002507
0.1754321297342621
0.1458883519316429
0.1140256252548739
0.1293592792413632
0.147058167365964
0.1844899311293538
0.1784848213138984
0.2064205340025758
0.07893171384374036
0.1590427849617481
0.1735274632225587
0.5412144670524911
0.3217534957276941
0.216186303029407
0.1875704476460864
0.1140256252548072
0.1784848213138873
0.1735274632226219
0.1875704476455268
0.1458883519315169
0.1844899311292251
0.1590427849617664
0.2161863030294927
0.1754321297341051
0.1470581673658501
0.07893171384369452
0.3217534957278715
0.1781002480023954
0.1293592792414082
0.2064205340024828
0.5412144670524922
0.9638485612396772
1.399697569717682
1.538499803143804
1.313206116623611
0.6850008634692398
1.038965856802226
1.229455221587584
1.183717883952629
0.2801405001978068
0.5756352605281324
0.8644831029310232
1.083958559943361
0.1657521469572958
0.2012796064549144
0.3997276046326937
0.8361107346627568
0.9813428301499508
0.4329887785104518
0.06206808885097514
0.08248441748996871
0.9245141764129554
0.5650360003682168
0.2438406858558892
0.07490641790646504
1.026279692907148
0.7810017245807477
0.4874666221135764
0.1343477366363459
1.108225562935728
0.9118823185589688
0.6766200000128952
0.3249594630615435
0.04477108656147533
0.06793767139699312
0.09712275415231778
0.1382456528305599
0.08159376553908348
0.04446017441374441
0.02613565780664893
0.06276335010018722
0.1314113686491453
0.1026572204998468
0.07951574191446373
0.08651439350310085
0.1406834222035272
0.1299173609291457
0.09029913426835136
0.07749291632192755
0.2261427442025754
0.5245054670904681
1.453733990858675
1.244405256197786
0.1235508331448696
0.2387090403259433
1.206940404755848
1.327281759456155
0.1367452825387494
0.1413377630669601
0.862391797437169
1.41492350456616
0.1062882301257597
0.1689131449463644
0.3668867548983095
1.135658864285119
1.040269676699916
0.926787461618111
0.8412859404873653
0.7940756502959385
1.071757081614483
0.9231489769451724
0.8393363525146708
0.7958293950467475
1.361751509932037
0.9404973855229272
0.8307896990366668
0.7957372894497267
1.894708138315587
0.9611454630713414
0.8083955764786389
0.7714176658624859
0.775727129198958
0.766319165584895
0.7615122019951153
0.7534163876037783
0.7761129193950891
0.7657812476480294
0.7597460871912091
0.7512975098446734
0.7756156112030538
0.7650674157976896
0.7581572987077373
0.7479816362016725
0.7419605242579494
0.7342275444385095
0.7176047909297922
0.6819724329808736
0.732569937466395
0.6944019701974544
0.6597678910614599
0.6001916070190046
0.7331733446328077
0.6916583952557253
0.6388590400429723
0.5462821425625008
0.7209054654632684
0.6620672646717199
0.5732895775487874
0.4357688335655705
0.608816016065592
0.5067839079529052
0.3616820984020486
0.218870095756916
0.8102785761943819
1.080299255575271
1.128331325811123
1.136295513260573
0.6560769041779571
1.040878287653431
1.131809111942487
1.143045133584846
0.5008400869684582
0.9713123485432501
1.134578246583438
1.148037690524562
0.2518933718573025
0.8299887294577573
1.120596145333696
1.112752854461576
1.139946714608001
1.145528307688075
1.152414784384536
1.159235040308734
1.147934368455052
1.155711407273371
1.16634032973819
1.179519014183875
1.153871151135726
1.162874368701347
1.174872029917843
1.190363105776679
1.104929977200131
1.087933446083286
1.069538140331348
1.049879542594883
1.16482861735862
1.175588777030921
1.212542253004958
1.205413593580038
1.196297724991399
1.22772360071866
1.287494081099366
1.292873522672797
1.213245740375627
1.254774018555176
1.335538252876837
1.43268598310687
1.034199767452879
1.029278638207743
1.056755191000101
1.15956624371385
1.014628120303152
1.000086681944839
0.9936364929457936
0.9846321574992941
1.037845699661206
1.000483032372365
0.9922008192104068
0.9718951818507321
1.100394552439824
0.9978838346136306
0.9841382385799039
0.9520182663228134
1.183332694924359
0.9473762373879793
0.9364657017399712
0.9302804346181262
0.9704664495290422
0.9655983654637178
0.957553629173006
1.001884692505606
0.947135849363807
0.9299805511334284
0.9020908279687726
0.9244542073222884
0.9235162279835017
0.8959457301372539
0.8627352295791096
0.8393261272608121
0.915936256682528
0.8823823549659365
0.8503326780351373
0.7943967443066213
1.05798219875899
1.113050246723077
1.117953137495216
1.118016340849289
1.055143234320779
1.113556965209256
1.11794384888989
1.118016158844807
1.03967617282919
1.112983067997026
1.117923321448723
1.118015917237785
1.012862593546896
1.111707008968308
1.117880172006682
1.118015417154518
1.11801430610738
1.117786091598629
1.110089541065751
1.011201279131847
1.118014365025708
1.117796777413442
1.110597050400945
1.019932951102418
1.118014476175565
1.117807012806266
1.110516320923888
1.018625017406784
1.118014825153346
1.117836762288171
1.11103306844922
1.017310933615859
1.1180154171551
1.118015917237349
1.118016158844425
1.118016340850213
1.117880172007353
1.117923321448709
1.117943848889627
1.11795313749477
1.111707008968294
1.112983067997106
1.113556965208905
1.113050246723641
1.012862593546976
1.039676172829217
1.055143234320407
1.057982198758918
)
;

boundaryField
{
    back
    {
        type            empty;
    }
    inlet
    {
        type            calculated;
        value           nonuniform List<scalar> 
16
(
1.11801663592382
1.11801663592382
1.11801663592382
1.118016635923825
1.118016635923441
1.11801663592382
1.11801663591443
1.118016634637697
1.118016634638209
1.118016635914427
1.118016635923833
1.118016635923476
1.11801663592382
1.11801663592382
1.11801663592382
1.118016635923847
)
;
    }
    front
    {
        type            empty;
    }
    top
    {
        type            calculated;
        value           uniform 0;
    }
    outlet
    {
        type            calculated;
        value           nonuniform List<scalar> 
16
(
1.118013628284928
1.11801368957613
1.118013820737675
1.118014246289044
1.118016249102803
1.118016018964835
1.118015702595067
1.11801503474135
1.118013628284402
1.118013689576131
1.118013820737595
1.118014246288987
1.118015034741871
1.118015702594632
1.118016018964539
1.118016249103693
)
;
    }
    bottom
    {
        type            calculated;
        value           uniform 0;
    }
    wall
    {
        type            calculated;
        value           uniform 0;
    }
}


// ************************************************************************* //
