/*--------------------------------*- C++ -*----------------------------------*\
  =========                 |
  \\      /  F ield         | OpenFOAM: The Open Source CFD Toolbox
   \\    /   O peration     | Website:  https://openfoam.org
    \\  /    A nd           | Version:  11
     \\/     M anipulation  |
\*---------------------------------------------------------------------------*/
FoamFile
{
    format      ascii;
    class       volScalarField;
    location    "0.1415";
    object      rho;
}
// * * * * * * * * * * * * * * * * * * * * * * * * * * * * * * * * * * * * * //

dimensions      [0 0 0 0 0 0 0];

internalField   nonuniform List<scalar> 
880
(
0.3733250556165154
0.3733250556165154
0.3733250556198223
0.3733273449170325
0.3733250556165154
0.3733250556165154
0.3733250556382138
0.3733331754153578
0.3733250556165154
0.3733250556165153
0.3733250557821028
0.3733707814536215
0.3733250556165154
0.3733250556165154
0.3733250589404857
0.3734579295491563
0.3733250556165154
0.3733250556165155
0.3733250556165152
0.3733250556076138
0.3733250556165154
0.3733250556165154
0.3733250556165151
0.3733250556165154
0.3733250182536115
0.3733250797925875
0.3734440695601323
0.3731790611542007
0.3776975295741807
0.3874498412883046
0.3939698061153542
0.3967378529800115
0.373325079961151
0.3733252685128768
0.3733253973279275
0.3733253411725969
0.3733257116625117
0.3733265928678481
0.3733306213775635
0.3733304858719729
0.3735714000239648
0.3738435062585711
0.3742945278371894
0.3745672914175855
0.4000327839714284
0.4045376225787473
0.4089133966298124
0.4148430999161167
0.4135999131685503
0.4047144381371338
0.3975422314271321
0.395115969072694
0.3755827398218672
0.3779820820509343
0.3788815465174096
0.3788717502720226
0.3733405326913514
0.3733793867591519
0.3734348720149164
0.3734685643720738
0.3733259369180064
0.3733276472181885
0.3733311412184402
0.3733327018472456
0.3733319371535906
0.3733298482890179
0.3733272512472899
0.3733255740104239
0.3734664359168015
0.3734462461753557
0.3734102421706003
0.3733655979497623
0.3783215254635986
0.3775604372710703
0.3765757807711935
0.3753929184967868
0.3934267705727024
0.3907522874628616
0.3875071023832958
0.3839921543078145
0.3804135727015148
0.3742223703397799
0.3733347245801992
0.3733250895980981
0.3772127706032932
0.3735376072145432
0.3733260307895479
0.3733250583018725
0.3743138847479448
0.373339946503582
0.3733250479199603
0.3733250522380011
0.3831715836728425
0.3734130722417766
0.3733247192385115
0.3733250489141992
0.3733248733975744
0.3733248117161507
0.373753899385635
0.4365221519780815
0.3733250841531006
0.3733328972538898
0.3755712719455232
0.4827612010378881
0.3733258306018531
0.3733433161011399
0.3777278522147364
0.5078614662835667
0.3733280005120901
0.3733809430341902
0.3809958067789418
0.5279347074825015
0.540566022773207
0.3846168480027779
0.3734140835905002
0.3733302284525026
0.5574385452597392
0.389457800834863
0.3735076647796882
0.3733359397700781
0.5744956459371885
0.3948587057918549
0.373582330888776
0.3733383946645339
0.5977876370577137
0.4009143216245191
0.3737220612169699
0.3733486800833413
0.3733548552010879
0.3738953387470484
0.409460784945667
0.6178457820766671
0.3733729952791119
0.3741759832866939
0.4169110551551761
0.6180462980946615
0.3734283262026543
0.3744512316514435
0.4156678656414781
0.5803656889121609
0.3733148404563775
0.3739318856146094
0.4011106455850673
0.5129381377132441
0.3734780439259375
0.3755515156041133
0.3968110062882351
0.4118162769899762
0.3735339236825119
0.3754060314112642
0.377145954408649
0.3026852039204076
0.3734134617195484
0.3740396822604616
0.3678621499720752
0.2315877045561439
0.3733253621197308
0.3731805698506963
0.3580801330035288
0.1975590703576752
0.1984687450863263
0.3542173317445306
0.3727706498928761
0.3733214111466446
0.1955139602052573
0.3513332003420667
0.3726121061321076
0.3733197050113539
0.1960017092329066
0.3501658532155161
0.3726580418728151
0.3733207847194471
0.188559155567041
0.3479128347001102
0.3726021975148978
0.3733208660463646
0.2144348891243402
0.3554985420657851
0.3729894594788288
0.373323441558617
0.2437066597755966
0.3635888718327088
0.3732136505717598
0.3733246233456933
0.2707091588521828
0.368212949730465
0.3732837384021201
0.3733249192135674
0.2975518117417572
0.3716162111980388
0.3733168311143565
0.3733250052499564
0.3273004191801671
0.368821319495908
0.3731951903596584
0.3733237453122542
0.3287080357648233
0.3690774934684256
0.3731991275830753
0.3733237512759027
0.3279338435043007
0.3692333268316794
0.3732028963791608
0.3733237579578033
0.3301518385884668
0.3697327362496943
0.3732240402704982
0.3733239262542778
0.2975518117413031
0.3716162111968553
0.3733168311134575
0.3733250052501209
0.2707091588508527
0.368212949729244
0.3732837383966163
0.3733249192128274
0.2437066597739354
0.363588871832542
0.3732136505703016
0.3733246233470584
0.2144348891244284
0.3554985420681472
0.3729894594783755
0.3733234415575298
0.3733214111516188
0.3727706498967993
0.3542173317456961
0.198468745085843
0.3733197050101733
0.372612106133982
0.3513332003437613
0.1955139602061219
0.3733207847165496
0.3726580418765803
0.3501658532163346
0.1960017092330907
0.3733208660473026
0.372602197515857
0.3479128347058269
0.1885591555664043
0.197559070354824
0.3580801330003798
0.3731805698493046
0.3733253621196502
0.2315877045527134
0.3678621499692099
0.3740396822580003
0.373413461713578
0.3026852039198226
0.3771459544055096
0.3754060314122164
0.3735339236773697
0.4118162769905218
0.3968110062876241
0.3755515156015705
0.3734780439313735
0.3733548551999469
0.3738953387578777
0.4094607849451672
0.6178457820786273
0.3733729952802088
0.3741759832855515
0.416911055154258
0.6180462980948541
0.373428326199352
0.3744512316497608
0.4156678656380391
0.5803656889119322
0.3733148404706815
0.3739318856133566
0.4011106455830493
0.5129381377131278
0.5977876370617355
0.4009143216180033
0.3737220612156696
0.3733486800830907
0.5744956459477245
0.3948587058098899
0.3735823308977274
0.3733383946658588
0.5574385452632579
0.3894578008402851
0.3735076647838371
0.3733359397690426
0.5405660227728356
0.384616847991212
0.3734140835931062
0.373330228451655
0.3733248734012883
0.3733248117182759
0.373753899386268
0.4365221519737765
0.3733250841514035
0.3733328972499742
0.3755712719449982
0.4827612010372757
0.3733258305991684
0.3733433161043888
0.377727852218277
0.5078614662888981
0.3733280005095419
0.3733809430275258
0.3809958067790433
0.527934707481581
0.3733250489118052
0.3733250522395324
0.3733250583018402
0.3733250895976554
0.3733247192338238
0.3733250479210712
0.3733260307940031
0.3733347245776824
0.3734130722428552
0.3733399465049356
0.3735376072113694
0.3742223703380888
0.383171583673177
0.3743138847482478
0.3772127706025197
0.3804135727016555
0.3733255740070019
0.3733655979499367
0.3753929184986248
0.3839921543095762
0.3733272512459432
0.3734102421694635
0.3765757807759503
0.3875071023848221
0.3733298482915036
0.3734462461751302
0.3775604372695573
0.3907522874626784
0.373331937155141
0.3734664359166161
0.3783215254658138
0.3934267705721326
0.3733259369138439
0.3733405326876166
0.3755827398181735
0.4135999131680791
0.3733276472147554
0.373379386759573
0.3779820820474701
0.4047144381341435
0.3733311412174325
0.373434872019473
0.3788815465167552
0.3975422314260756
0.3733327018463029
0.373468564375141
0.3788717502727227
0.3951159690706258
0.4148430999178944
0.3745672914235602
0.3733304858692775
0.3733253411704025
0.4089133966308875
0.3742945278510737
0.3733306213763948
0.3733253973220604
0.404537622582077
0.373843506266762
0.3733265928676642
0.3733252685182488
0.4000327839677418
0.3735714000168217
0.373325711662194
0.3733250799621742
0.3967378529782626
0.3731790611456367
0.3733250556165154
0.3733250556086576
0.3939698061140756
0.3734440695571793
0.3733250556165154
0.3733250556165154
0.387449841289265
0.3733250797917689
0.3733250556165154
0.3733250556165153
0.3776975295740903
0.3733250182521148
0.3733250556165154
0.3733250556165151
0.3733250556165154
0.3733250556165154
0.3733250556202811
0.3733273449317328
0.3733250556165152
0.3733250556165155
0.3733250556385464
0.3733331754160041
0.3733250556165154
0.3733250556165154
0.3733250557821519
0.3733707814463976
0.3733250556165154
0.3733250556165154
0.3733250589382385
0.3734579295484632
0.3733308505972601
0.373346494419792
0.3734082902045363
0.3742824979333272
0.3733464944682127
0.3733567561770605
0.3734475658927539
0.376772264521023
0.3734082902919941
0.3734475657528641
0.3747726448328718
0.3928143925926958
0.3742824977602812
0.3767722642105134
0.3928143931268362
0.4474669867534238
0.5290313624569557
0.4725818756002143
0.4422325309451803
0.4078813260344616
0.5143281220311717
0.5034846560089054
0.5015984065228956
0.477507670193512
0.5086877244079672
0.5058654007107994
0.5071251825419261
0.4962258788750817
0.5082715631966587
0.506529194665001
0.5079593481014605
0.5005554356196305
0.5039251099183832
0.5034341992729573
0.504973878323944
0.5086622309582748
0.5093189534593148
0.5075427874587424
0.5091110265602329
0.5134031044370805
0.511025132915933
0.5099810178098984
0.5110829474225473
0.5145470265478292
0.5127822039256654
0.5109380254819266
0.5114507120995103
0.5106046105399219
0.4477247321474196
0.3796432048053748
0.3616237112393748
0.367391140824539
0.4192577998023318
0.3559184539221253
0.3548191054372498
0.36480613413392
0.3907791661744721
0.3496548504694503
0.3572190383094005
0.3672251587863489
0.3356021487927869
0.3356152092771444
0.353038577256011
0.3642516406136153
0.3743467364902084
0.3774003892694001
0.3789171814846661
0.3791974892925064
0.372374851035754
0.3754911625118971
0.3769637435485537
0.377990188993296
0.3732496760415385
0.3754798567580637
0.3766029393825532
0.3781538457549572
0.3704833947551177
0.3734982278699702
0.3750178058725645
0.376607028112481
0.3794911454062964
0.3787413237451298
0.3763528065925122
0.4639118804204537
0.3791549932288399
0.3782635338915294
0.3771206341276187
0.4994065804219509
0.3794358408561171
0.3787060161079021
0.3792020339089842
0.5134921996386147
0.3785713689050866
0.3782226219723132
0.3812310500823901
0.5222942884439089
0.698547430009808
0.721075100952776
0.7185197916281576
0.7101804668358587
0.7403350656841418
0.7363699881422315
0.726235358744611
0.7178799486257247
0.7259845393953271
0.7243785310098498
0.7258419554271931
0.7242800748642908
0.7447245415389346
0.7335906204999747
0.7295717211098083
0.7272849178585427
0.6912792628399471
0.6867601556266657
0.6870120491459557
0.6976272022520469
0.6995077769041376
0.6944741740830643
0.6935606531747943
0.7032727160098574
0.7070002723499509
0.7024646584613228
0.7022988534064157
0.7110680440216937
0.7127357553330247
0.7063691869886859
0.7056485191505797
0.7141796644825262
0.7059046423674699
0.6925358845472914
0.656241937199139
0.5706527790323546
0.7111273360223059
0.7005704912255851
0.6594153450790754
0.5817661320724242
0.7193742070424513
0.7103520486074868
0.6646540309610447
0.5957586666788349
0.7230721632812696
0.7167317006361023
0.669339562283065
0.6907576307564882
0.3703596687927618
0.08831977143365219
0.02647444786441555
0.03785781385372951
0.2995064971450742
0.05828134761022287
0.035570748215195
0.04750860368353377
0.2263686336187878
0.037511534345515
0.03474416948317188
0.05722962454339849
0.1632965092910101
0.0217935449885467
0.03853724649539027
0.06075515808898165
0.05250616341840831
0.0606514804928216
0.06628930539622012
0.06348745244632512
0.06336089048059827
0.0709255263485985
0.07208547723609438
0.06591697865531911
0.0775370194246436
0.08605553175230456
0.08006935621295701
0.06944472030521358
0.08261274064447621
0.09459909898673285
0.08467132357525048
0.07576467006970201
0.1025977890810095
0.1357028306778664
0.1669662914836561
0.2049369115988014
0.09512686811297189
0.1261353696556864
0.1522268732137735
0.1905193923735771
0.08771247559630704
0.1148831485643007
0.1378614989842507
0.1688730262002704
0.07969166890675576
0.1023334035564038
0.1223636164747836
0.1577753526182038
0.1571982526431957
0.1070670341333501
0.07884672718024066
0.08147634219954444
0.139930776916357
0.08856419735325287
0.09047447719493015
0.09183737835364897
0.1116706918745257
0.08490402488397382
0.1053836241746888
0.1002119494780476
0.0853658029106705
0.1000892781934686
0.1169083924596702
0.1198789466533789
0.1154525843818173
0.1083235329394102
0.106406149090862
0.1037883357080616
0.09454436991051407
0.0938564944976021
0.09421288031383748
0.09375987074202699
0.08266306405992496
0.08632439023454762
0.0919429444735014
0.09453653752629952
0.09602922538778852
0.1067621493679718
0.1091651141759997
0.1097268828216919
0.1037883357080723
0.09375987074209019
0.09453653752641926
0.1097268828216666
0.1064061490908611
0.09421288031397511
0.09194294447375036
0.1091651141757885
0.1083235329393527
0.09385649449774207
0.08632439023468103
0.1067621493677336
0.1154525843816751
0.09454436991050147
0.08266306405996972
0.09602922538775197
0.0814763421993841
0.07884672717991294
0.1070670341327355
0.1571982526421337
0.09183737835348994
0.09047447719491163
0.08856419735309237
0.1399307769157214
0.1002119494779142
0.1053836241746636
0.08490402488393597
0.1116706918742655
0.1198789466531804
0.1169083924596358
0.1000892781935352
0.08536580291050599
0.1577753526177469
0.1223636164740428
0.1023334035550654
0.07969166890586474
0.168873026199913
0.1378614989838765
0.1148831485630969
0.08771247559528199
0.1905193923730966
0.1522268732135172
0.1261353696546862
0.09512686811194987
0.2049369115981864
0.1669662914832892
0.1357028306770024
0.1025977890799587
0.06348745244547338
0.06628930539613695
0.06065148049281679
0.05250616341808194
0.06591697865479081
0.07208547723576553
0.07092552634844046
0.06336089048028867
0.06944472030482804
0.08006935621266188
0.08605553175200718
0.07753701942441389
0.07576467006915966
0.08467132357492917
0.09459909898647934
0.0826127406442181
0.03785781385323726
0.02647444786365882
0.08831977143258098
0.3703596687915984
0.04750860368313987
0.03557074821451819
0.05828134760964825
0.2995064971436995
0.05722962454288976
0.03474416948257846
0.03751153434519437
0.2263686336181004
0.06075515808858036
0.03853724649508029
0.0217935449881821
0.1632965092907823
0.5706527790312961
0.6562419372009888
0.6925358845491169
0.7059046423711002
0.5817661320715229
0.6594153450804771
0.7005704912274888
0.7111273360258754
0.5957586666780537
0.6646540309612898
0.7103520486093848
0.7193742070458281
0.6907576307561751
0.669339562283533
0.716731700637995
0.7230721632847327
0.697627202257864
0.6870120491501793
0.6867601556270205
0.6912792628435022
0.7032727160153682
0.6935606531783932
0.6944741740841782
0.6995077769074219
0.7110680440269063
0.7022988534096121
0.7024646584626476
0.7070002723526394
0.7141796644879435
0.7056485191535184
0.7063691869905878
0.7127357553355363
0.7101804668358095
0.7185197916283546
0.7210751009519734
0.6985474300037808
0.7178799486257063
0.726235358744666
0.7363699881411749
0.7403350656811237
0.7242800748637277
0.7258419554270001
0.7243785310085699
0.725984539392637
0.7272849178565182
0.7295717211113134
0.7335906204988885
0.7447245415343302
0.4639118804188582
0.3763528065911411
0.3787413237468407
0.37949114540803
0.4994065804167521
0.3771206341246753
0.3782635338937105
0.379154993230721
0.5134921996286894
0.379202033903597
0.3787060161115512
0.3794358408579662
0.5222942884312618
0.3812310500753667
0.3782226219775215
0.3785713689079617
0.3791974892943017
0.3789171814859469
0.377400389269549
0.374346736489832
0.3779901889955775
0.3769637435493769
0.3754911625121161
0.3723748510351739
0.3781538457565354
0.376602939382953
0.375479856758192
0.3732496760406447
0.3766070281128686
0.3750178058738101
0.3734982278697562
0.3704833947542408
0.3673911408225199
0.3616237112380616
0.3796432048038055
0.4477247321474697
0.3648061341315199
0.3548191054357447
0.3559184539204825
0.4192577998030922
0.3672251587840268
0.3572190383081082
0.3496548504672073
0.3907791661761296
0.3642516406110248
0.3530385772543183
0.3356152092736752
0.3356021487941745
0.5086622309572498
0.5049738783201952
0.5034341992761584
0.5039251099211312
0.5134031044352052
0.5091110265585516
0.5075427874637805
0.5093189534604414
0.5145470265460146
0.5110829474219444
0.5099810178146266
0.5110251329174037
0.5106046105413421
0.5114507120986866
0.5109380254848235
0.5127822039266792
0.5005554356199498
0.4962258788663935
0.4775076701927871
0.4078813260868843
0.5079593480976333
0.5071251825332641
0.5015984065234044
0.4422325309321338
0.5065291946623411
0.5058654007085199
0.5034846560069259
0.4725818754792026
0.508271563193202
0.5086877244058959
0.5143281220179099
0.5290313624573697
0.3086818623264507
0.3707482667164174
0.3732935043993426
0.3733249025776295
0.311822437145216
0.3705979762098373
0.3732859759571411
0.373324801053839
0.3180568170714051
0.3705314041748408
0.3732748980869678
0.3733246585273616
0.3214882395118693
0.3701508334819338
0.3732534665087223
0.3733243411115627
0.3733237453128619
0.3731951903623998
0.3688213194915034
0.3273004191728337
0.3733237512769005
0.3731991275857972
0.3690774934658838
0.3287080357611799
0.3733237579558478
0.3732028963795838
0.3692333268325915
0.3279338435034278
0.3733239262485316
0.3732240402724453
0.3697327362472106
0.3301518385881573
0.3733243411081366
0.3733246585251878
0.3733248010476458
0.3733249025705376
0.3732534665102908
0.3732748980868975
0.3732859759564219
0.3732935043977569
0.3701508334797736
0.370531404170681
0.3705979762124015
0.3707482667160803
0.3214882395116171
0.3180568170684588
0.3118224371426669
0.3086818623288483
)
;

boundaryField
{
    back
    {
        type            empty;
    }
    inlet
    {
        type            calculated;
        value           nonuniform List<scalar> 
16
(
0.3733250556165154
0.3733250556165154
0.3733250556165154
0.3733250556165154
0.3733250556165154
0.3733250556165155
0.3733250556165152
0.3733250556076138
0.3733250556086576
0.3733250556165154
0.3733250556165154
0.3733250556165151
0.3733250556165154
0.3733250556165152
0.3733250556165154
0.3733250556165154
)
;
    }
    front
    {
        type            empty;
    }
    top
    {
        type            calculated;
        value           nonuniform List<scalar> 
40
(
0.373325079961151
0.3733252685128768
0.3733253973279275
0.3733253411725969
0.3733259369180064
0.3733276472181885
0.3733311412184402
0.3733327018472457
0.3733319371535906
0.3733298482890179
0.3733272512472899
0.3733255740104239
0.3733250895980981
0.3733250583018725
0.3733250522380011
0.3733250489141992
0.3733248733975744
0.3733250841531006
0.3733258306018531
0.3733280005120902
0.3733302284525025
0.3733359397700781
0.3733383946645339
0.3733486800833414
0.3733548552010879
0.3733729952791119
0.3734283262026544
0.3733148404563775
0.3734780439259375
0.3735339236825119
0.3734134617195484
0.3733253621197308
0.3733214111466446
0.3733197050113539
0.3733207847194471
0.3733208660463646
0.373323441558617
0.3733246233456933
0.3733249192135674
0.3733250052499564
)
;
    }
    outlet
    {
        type            calculated;
        value           uniform 0.3733250556165154;
    }
    bottom
    {
        type            calculated;
        value           nonuniform List<scalar> 
40
(
0.3733250052501208
0.3733249192128274
0.3733246233470584
0.3733234415575298
0.3733214111516188
0.3733197050101733
0.3733207847165496
0.3733208660473026
0.3733253621196502
0.3734134617135779
0.3735339236773697
0.3734780439313735
0.3733548551999469
0.3733729952802089
0.373428326199352
0.3733148404706815
0.3733486800830907
0.3733383946658588
0.3733359397690426
0.373330228451655
0.3733248734012883
0.3733250841514034
0.3733258305991684
0.3733280005095419
0.3733250489118052
0.3733250522395324
0.3733250583018402
0.3733250895976554
0.3733255740070019
0.3733272512459432
0.3733298482915036
0.373331937155141
0.3733259369138439
0.3733276472147554
0.3733311412174325
0.3733327018463029
0.3733253411704025
0.3733253973220604
0.3733252685182488
0.3733250799621742
)
;
    }
    wall
    {
        type            calculated;
        value           nonuniform List<scalar> 
104
(
0.5290313624569557
0.5143281220311717
0.5086877244079672
0.5082715631966587
0.5127822039256654
0.5109380254819266
0.5114507120995103
0.5106046105399219
0.3356021487927868
0.3356152092771444
0.353038577256011
0.3642516406136152
0.3704833947551177
0.3734982278699702
0.3750178058725645
0.376607028112481
0.3785713689050866
0.3782226219723132
0.3812310500823901
0.5222942884439089
0.7447245415389346
0.7335906204999747
0.7295717211098083
0.7272849178585427
0.7127357553330247
0.7063691869886859
0.7056485191505797
0.7141796644825262
0.7230721632812696
0.7167317006361023
0.669339562283065
0.6907576307564882
0.1632965092910101
0.0217935449885467
0.03853724649539027
0.06075515808898165
0.08261274064447621
0.09459909898673285
0.08467132357525048
0.07576467006970201
0.07969166890675576
0.1023334035564038
0.1223636164747836
0.1577753526182038
0.0853658029106705
0.1000892781934686
0.1169083924596702
0.1198789466533789
0.1154525843818173
0.1083235329394102
0.106406149090862
0.1037883357080616
0.1037883357080723
0.1064061490908611
0.1083235329393527
0.1154525843816751
0.1198789466531804
0.1169083924596358
0.1000892781935352
0.08536580291050599
0.1577753526177469
0.1223636164740427
0.1023334035550654
0.07969166890586474
0.07576467006915966
0.08467132357492917
0.09459909898647934
0.0826127406442181
0.06075515808858036
0.03853724649508029
0.0217935449881821
0.1632965092907823
0.6907576307561751
0.669339562283533
0.716731700637995
0.7230721632847327
0.7141796644879435
0.7056485191535184
0.7063691869905878
0.7127357553355363
0.7272849178565182
0.7295717211113134
0.7335906204988885
0.7447245415343302
0.5222942884312618
0.3812310500753667
0.3782226219775215
0.3785713689079617
0.3766070281128687
0.3750178058738101
0.3734982278697562
0.3704833947542408
0.3642516406110248
0.3530385772543182
0.3356152092736752
0.3356021487941745
0.5106046105413421
0.5114507120986866
0.5109380254848235
0.5127822039266792
0.508271563193202
0.5086877244058959
0.5143281220179099
0.5290313624573697
)
;
    }
}


// ************************************************************************* //
