/*--------------------------------*- C++ -*----------------------------------*\
  =========                 |
  \\      /  F ield         | OpenFOAM: The Open Source CFD Toolbox
   \\    /   O peration     | Website:  https://openfoam.org
    \\  /    A nd           | Version:  11
     \\/     M anipulation  |
\*---------------------------------------------------------------------------*/
FoamFile
{
    format      ascii;
    class       volVectorField;
    location    "19";
    object      U;
}
// * * * * * * * * * * * * * * * * * * * * * * * * * * * * * * * * * * * * * //

dimensions      [0 1 -1 0 0 0 0];

internalField   nonuniform List<vector> 
5472
(
(10.028011 2.4824175 1.7133311e-18)
(10.198257 2.4775157 -1.7840786e-18)
(10.382 2.5198646 -1.8053303e-18)
(10.573018 2.4641521 -1.8385802e-18)
(10.73981 2.4518351 5.7070826e-18)
(10.924673 2.3902335 -3.3202838e-20)
(11.088319 2.3460606 -3.0164243e-18)
(11.234657 2.2592154 1.0513563e-18)
(11.405483 2.1801639 0)
(11.554226 2.0845288 0)
(11.683293 1.9745998 0)
(11.831526 1.8641777 -3.3077374e-18)
(11.917269 1.7260211 1.6996842e-18)
(12.038573 1.598342 -2.1018726e-20)
(12.126935 1.4426836 1.1523736e-18)
(12.195451 1.2971426 -5.9212862e-19)
(12.277063 1.146455 -8.8800959e-19)
(12.317301 0.99230657 3.0378319e-19)
(12.375789 0.85334659 0)
(10.022786 2.2736815 -1.5651366e-18)
(10.182944 2.3025749 3.2316079e-18)
(10.344908 2.3091279 -1.6686102e-18)
(10.514088 2.2773617 -1.6822415e-18)
(10.689346 2.2792581 2.2220034e-20)
(10.873248 2.2083785 0)
(10.990134 2.1842198 1.8099522e-18)
(11.174504 2.1049855 -3.6999643e-18)
(11.339766 2.0301637 4.7756372e-18)
(11.464007 1.951456 9.7566377e-19)
(11.618264 1.8468228 0)
(11.722446 1.7493566 2.0304495e-18)
(11.848559 1.6266219 0)
(11.953839 1.4996191 5.163543e-19)
(12.038035 1.3738342 -5.313332e-19)
(12.131747 1.2332469 0)
(12.192946 1.1027425 0)
(12.258945 0.96870255 -2.6787959e-19)
(12.290899 0.83003183 0)
(10.032395 2.1137567 0)
(10.173759 2.1399607 1.4699749e-18)
(10.327347 2.1669986 1.5073343e-18)
(10.48566 2.1540686 0)
(10.647513 2.158052 -1.7778911e-20)
(10.771603 2.1183814 -2.4698531e-20)
(10.937488 2.1019911 -1.6656101e-18)
(11.116609 2.0239751 0)
(11.236502 1.9821441 -1.7157899e-18)
(11.384729 1.9027194 -4.3955278e-18)
(11.508568 1.8185484 1.194881e-20)
(11.629717 1.7274111 -8.9530156e-19)
(11.764428 1.6066268 -9.2265113e-19)
(11.851336 1.4986816 1.8913704e-18)
(11.966228 1.3717289 1.4282463e-18)
(12.044381 1.2366826 4.819658e-19)
(12.110639 1.114745 2.41007e-19)
(12.178874 0.97706382 -3.6424493e-19)
(12.205064 0.83781382 1.2147279e-19)
(10.036861 1.9458226 0)
(10.141523 1.9785613 -1.3267792e-18)
(10.313154 1.9836855 -1.3590406e-18)
(10.460222 1.9944654 2.7728612e-18)
(10.578306 2.0090718 -1.4556252e-18)
(10.755163 1.9629803 0)
(10.903168 1.9511218 -1.5038927e-18)
(11.028629 1.8873217 1.5190682e-18)
(11.174624 1.8523872 -1.5729387e-18)
(11.305997 1.7727114 -1.7498077e-20)
(11.440681 1.7033862 -1.6296249e-18)
(11.569576 1.6088752 0)
(11.685827 1.5115805 0)
(11.785221 1.4062652 -8.41733e-19)
(11.881754 1.287297 -8.5052119e-19)
(11.949074 1.1688887 0)
(12.014974 1.0459014 -2.1661394e-19)
(12.076535 0.91757049 1.0966897e-19)
(12.104654 0.79375364 2.1850005e-19)
(10.007026 1.7782211 0)
(10.167536 1.8054664 0)
(10.282736 1.8531051 0)
(10.384309 1.8887421 -2.50955e-18)
(10.548809 1.8755648 1.3061348e-18)
(10.668458 1.8683283 -3.9586897e-18)
(10.788752 1.8621496 5.4177514e-18)
(10.931394 1.8113471 -2.7649024e-18)
(11.075953 1.7857868 3.3381486e-21)
(11.210377 1.713643 1.4284632e-18)
(11.349466 1.666179 1.4527943e-18)
(11.465469 1.5687323 -2.9675779e-18)
(11.580319 1.4948678 2.2619792e-18)
(11.676966 1.3873211 -7.6546524e-19)
(11.772905 1.2904715 0)
(11.860069 1.1648269 7.7924141e-19)
(11.935233 1.0506225 -3.9168396e-19)
(12.001103 0.92659446 1.950321e-19)
(12.038688 0.80415529 -1.9429957e-19)
(10.037732 1.6323994 0)
(10.168765 1.678773 -4.3301122e-18)
(10.241134 1.7133355 2.2329647e-18)
(10.402765 1.7187561 2.2806272e-18)
(10.511734 1.7430624 1.1637744e-18)
(10.619212 1.7377846 -1.1841158e-18)
(10.776934 1.7176529 2.4575882e-18)
(10.89897 1.6964074 1.2380249e-18)
(11.057442 1.6659524 2.5231818e-18)
(11.159537 1.6098911 -2.5841407e-18)
(11.297746 1.5617025 1.6053764e-20)
(11.389946 1.4836987 2.6684958e-18)
(11.517344 1.4153652 0)
(11.609672 1.301751 -6.8685808e-19)
(11.719815 1.2181236 6.8683571e-19)
(11.799902 1.0890195 -1.7335394e-18)
(11.871834 0.99712514 6.967995e-19)
(11.92751 0.86863103 -1.7457335e-19)
(11.972385 0.76329675 3.5880975e-22)
(10.014506 1.4979646 3.8311651e-18)
(10.1451 1.5330123 3.9089435e-18)
(10.234735 1.5829992 0)
(10.367567 1.6123221 -6.1845079e-21)
(10.437277 1.6131841 -4.2019562e-18)
(10.58487 1.6209503 4.3168804e-18)
(10.690045 1.6272392 0)
(10.818068 1.6093206 -1.1249698e-18)
(10.94279 1.5767909 -4.5530039e-18)
(11.044923 1.5487532 2.3356991e-18)
(11.195751 1.4935935 1.1731134e-18)
(11.2899 1.4346412 -1.2034284e-18)
(11.439535 1.3519742 0)
(11.512183 1.2723941 6.0853749e-19)
(11.634553 1.1812431 0)
(11.694663 1.0754362 -6.1889366e-19)
(11.787793 0.98243093 9.3664357e-19)
(11.837145 0.86135424 8.1337806e-22)
(11.896527 0.76137971 -8.3482174e-22)
(10.059972 1.3659543 1.7148225e-18)
(10.174635 1.3992809 -3.5148189e-18)
(10.232607 1.4538362 -3.5860768e-18)
(10.358578 1.4671648 3.6960992e-18)
(10.433707 1.5042014 -1.898455e-18)
(10.572902 1.5164797 -1.9259319e-18)
(10.647252 1.5024175 0)
(10.796126 1.510773 3.002476e-18)
(10.885897 1.4814347 -1.268947e-20)
(11.035152 1.4501301 -3.1161203e-18)
(11.150874 1.4009741 3.1865442e-18)
(11.250702 1.3517281 0)
(11.38092 1.2825862 0)
(11.444744 1.2172969 1.0891156e-18)
(11.571699 1.1156746 -5.582956e-19)
(11.608599 1.0286893 -1.1090696e-18)
(11.729182 0.92331161 2.8074041e-19)
(11.735911 0.82529352 2.8233725e-19)
(11.838524 0.71337736 6.9096893e-20)
(10.037131 1.2374733 -1.5365196e-18)
(10.126342 1.2779061 4.7188183e-18)
(10.191094 1.3179684 -4.8629298e-18)
(10.304483 1.3442822 3.3100758e-18)
(10.366248 1.3815226 0)
(10.49331 1.3797147 1.7222868e-18)
(10.571692 1.4084273 -1.7770265e-18)
(10.725014 1.3965278 0)
(10.803032 1.3845159 9.1025068e-19)
(10.953931 1.3705057 -1.880624e-18)
(11.027377 1.3212862 -9.4041996e-19)
(11.168453 1.2907655 -8.7290441e-21)
(11.255675 1.2160361 -2.9060392e-18)
(11.372375 1.162137 4.9895014e-19)
(11.467362 1.073197 -4.8551588e-19)
(11.554931 0.99347385 9.9162173e-19)
(11.645282 0.88594385 -4.9425591e-19)
(11.685314 0.80376569 2.5229281e-19)
(11.770599 0.68143924 2.4778983e-19)
(10.080813 1.1136791 -2.7678121e-18)
(10.151511 1.1533595 0)
(10.232416 1.2194921 1.4458444e-18)
(10.327071 1.2386408 -4.4320544e-18)
(10.401754 1.2687629 1.5255782e-18)
(10.513047 1.2778243 -1.5512776e-18)
(10.576331 1.2981282 1.5720122e-18)
(10.703389 1.2981914 -1.617597e-18)
(10.777689 1.3078356 0)
(10.921047 1.2816536 8.2774841e-19)
(10.99026 1.2506447 0)
(11.134782 1.207722 8.4919555e-19)
(11.191613 1.1457699 2.0663538e-23)
(11.324025 1.1007344 -4.3192991e-19)
(11.370362 1.0084967 4.3516334e-19)
(11.480799 0.95250954 4.3794842e-19)
(11.518879 0.84791938 -2.5184136e-21)
(11.600105 0.77404097 -6.6166098e-19)
(11.638904 0.65409186 0)
(10.068354 0.98865705 0)
(10.116798 1.0419096 1.2640159e-18)
(10.194636 1.0782299 0)
(10.259225 1.1174826 1.3137946e-18)
(10.324542 1.1638659 -4.0633355e-18)
(10.416245 1.1749187 4.1549634e-18)
(10.490982 1.2031609 -1.394474e-18)
(10.613721 1.1941962 4.3236086e-18)
(10.684307 1.2103627 0)
(10.818858 1.187773 7.4266533e-19)
(10.890284 1.1758235 0)
(11.030999 1.1326577 -1.5104644e-18)
(11.096344 1.0973371 3.0647601e-18)
(11.232691 1.0335887 -7.2281307e-21)
(11.287006 0.96909767 -3.8987189e-19)
(11.414748 0.89269178 0)
(11.459696 0.80083236 0)
(11.566076 0.72045516 0)
(11.59802 0.61363055 -4.8930373e-20)
(10.089493 0.89175444 4.3945945e-18)
(10.137855 0.95012359 -5.6531867e-18)
(10.214546 0.99553141 2.3023102e-18)
(10.267953 1.0209898 -7.0703017e-21)
(10.360174 1.0438884 0)
(10.424223 1.074205 -2.4544261e-18)
(10.518654 1.0992915 1.2679806e-18)
(10.601106 1.1112021 -1.2747243e-18)
(10.680359 1.1218323 0)
(10.799844 1.1080318 -6.5639833e-19)
(10.86968 1.1034671 1.3274626e-18)
(10.993252 1.0593432 -1.2125005e-20)
(11.057425 1.0357205 -1.3660091e-18)
(11.174161 0.9712549 -2.7336077e-18)
(11.224939 0.92718626 2.4108202e-18)
(11.332434 0.84194423 -1.382317e-18)
(11.365458 0.77828393 8.685299e-19)
(11.465127 0.68339685 1.7394496e-19)
(11.484011 0.60167615 4.2946119e-20)
(10.061699 0.76581197 -6.8767564e-18)
(10.113219 0.82983477 4.0315851e-18)
(10.176059 0.861862 0)
(10.225342 0.90785539 -5.2446645e-18)
(10.2919 0.94114442 4.3076858e-18)
(10.347841 0.96772175 1.0965289e-18)
(10.444177 0.99680771 3.3413466e-18)
(10.507682 1.0199112 -2.2784102e-18)
(10.615945 1.0266466 -2.8729613e-18)
(10.703185 1.0219161 1.7608683e-18)
(10.798396 1.0070756 2.3546031e-18)
(10.902768 0.98261811 -3.588395e-18)
(10.993252 0.95924047 2.408944e-18)
(11.106605 0.90859413 -6.1340341e-19)
(11.17441 0.87078476 3.0143685e-19)
(11.284116 0.78572995 -3.8503827e-21)
(11.324852 0.72961648 -7.6657597e-19)
(11.418333 0.62746822 -1.5251094e-19)
(11.438401 0.56211713 -3.8281279e-20)
(10.089452 0.68548116 2.6300758e-18)
(10.141083 0.7321454 3.571176e-18)
(10.190205 0.78128827 -3.6659988e-18)
(10.239799 0.82477749 9.3477282e-19)
(10.301432 0.85013297 -2.8496422e-18)
(10.35821 0.88000037 2.9287325e-18)
(10.438809 0.90033967 9.8466195e-19)
(10.499993 0.93373254 -5.0319995e-18)
(10.598145 0.94784637 3.5707037e-18)
(10.662332 0.95854548 -1.5611564e-18)
(10.753186 0.94390614 0)
(10.827302 0.92142386 -5.2965198e-19)
(10.927845 0.88635798 -1.5947031e-18)
(11.002027 0.85541859 5.4541614e-19)
(11.101511 0.80968321 1.6181108e-18)
(11.183267 0.75230546 5.3820821e-19)
(11.253123 0.69155106 -1.0814961e-18)
(11.333046 0.6045269 2.7211932e-19)
(11.373921 0.53622669 3.0324506e-19)
(10.055942 0.57306445 -3.8787179e-18)
(10.094651 0.62130776 3.1851423e-18)
(10.133581 0.67442668 0)
(10.186159 0.71724071 -8.2859588e-19)
(10.240372 0.75463387 3.3749774e-18)
(10.308947 0.77810834 -6.8905736e-18)
(10.38045 0.79839817 8.9832127e-19)
(10.452526 0.82697668 3.5778062e-18)
(10.546956 0.84376017 2.7129741e-18)
(10.626203 0.86651308 -4.5800939e-19)
(10.725908 0.85867639 0)
(10.804324 0.85091946 2.3236251e-18)
(10.894844 0.81944115 -9.4701811e-19)
(10.960089 0.79045476 9.4458192e-19)
(11.062568 0.73720535 -1.4265727e-18)
(11.118703 0.69083435 -2.3859458e-19)
(11.20832 0.62234994 0)
(11.259944 0.55954543 0)
(11.322265 0.4855299 -2.9745636e-20)
(10.091334 0.49387217 6.7259054e-19)
(10.131966 0.53776043 -6.3525861e-18)
(10.172295 0.58447665 2.8729348e-18)
(10.213373 0.62455418 -3.6762826e-18)
(10.254214 0.67116601 -7.4794871e-19)
(10.301699 0.70548277 0)
(10.352899 0.73482477 -3.8634661e-18)
(10.419138 0.7507021 2.3692629e-18)
(10.487302 0.76459803 -7.9815238e-19)
(10.563458 0.7849536 -1.5073089e-21)
(10.647696 0.78621811 0)
(10.735319 0.78717826 0)
(10.825582 0.76576772 -4.1272178e-19)
(10.904895 0.74046376 -4.1479154e-19)
(10.995066 0.6927446 2.0814608e-19)
(11.054537 0.65510206 1.2535543e-18)
(11.140151 0.58397759 -8.4039854e-19)
(11.188623 0.53099678 1.0505995e-19)
(11.258585 0.45206678 2.5986848e-20)
(10.051505 0.40882135 4.2741368e-18)
(10.082109 0.45360833 -4.3774853e-18)
(10.119421 0.48981098 0)
(10.166811 0.52570526 6.4910744e-19)
(10.218397 0.56428173 0)
(10.273791 0.6006956 6.731009e-19)
(10.340054 0.63702547 6.8393004e-19)
(10.406195 0.66241678 0)
(10.469004 0.68214419 3.5023401e-18)
(10.540476 0.69356323 -2.4955079e-18)
(10.608864 0.69718298 1.789646e-18)
(10.692554 0.69767848 -1.4514199e-18)
(10.767325 0.68930254 1.4511257e-18)
(10.855627 0.66767523 -9.4873802e-21)
(10.930248 0.62932502 -1.4726087e-18)
(11.006412 0.59130394 -1.8332135e-19)
(11.074712 0.529418 -1.8453266e-19)
(11.132139 0.48118464 -9.1692827e-20)
(11.188643 0.41056396 0)
(10.09718 0.32461224 4.8698192e-18)
(10.108309 0.38225041 0)
(10.14505 0.41528235 0)
(10.1614 0.46000413 5.734488e-19)
(10.195931 0.48899528 0)
(10.237179 0.52461073 -5.9270516e-19)
(10.290275 0.56050978 -6.0153607e-19)
(10.350067 0.59088319 -2.435133e-18)
(10.416573 0.61338928 2.4778944e-18)
(10.484036 0.62912917 0)
(10.552755 0.63694921 -2.828937e-18)
(10.631482 0.63831665 2.2307935e-18)
(10.706472 0.63222578 1.2742882e-18)
(10.794923 0.61252104 -2.5681866e-18)
(10.865286 0.58219682 2.5762683e-18)
(10.950016 0.54563281 -1.9374823e-18)
(11.010521 0.49421209 6.4632434e-19)
(11.078628 0.4455731 0)
(11.128327 0.38196429 0)
(10.051752 0.25942573 7.6559593e-18)
(10.07921 0.29681342 -3.9059781e-18)
(10.117994 0.33069608 3.968696e-18)
(10.138898 0.37151535 -4.5544299e-18)
(10.189778 0.40239515 -4.105129e-18)
(10.22145 0.44242088 4.1833428e-18)
(10.272048 0.46652936 2.1138167e-18)
(10.324745 0.50213127 -9.5987491e-21)
(10.383765 0.5217247 -2.1763163e-18)
(10.448865 0.54312714 0)
(10.518337 0.55141534 0)
(10.593166 0.55389289 2.7806398e-19)
(10.667332 0.55261911 0)
(10.744744 0.53897062 1.1219737e-18)
(10.81812 0.51441335 -1.1314881e-18)
(10.893699 0.48248519 -5.6370291e-19)
(10.953643 0.44070928 7.0757913e-19)
(11.021829 0.39574523 -3.5276719e-19)
(11.064075 0.34137489 2.8174477e-19)
(10.050261 0.1990499 0)
(10.077151 0.23560907 0)
(10.094616 0.26602748 3.4984502e-18)
(10.123968 0.30266922 -3.5652154e-18)
(10.161557 0.33589254 4.0645942e-18)
(10.19451 0.37511532 -4.1360463e-18)
(10.249893 0.40695405 0)
(10.297381 0.4382644 4.7120853e-19)
(10.355967 0.45838908 1.9001447e-18)
(10.409009 0.48181362 -1.927434e-18)
(10.475162 0.49201202 1.933645e-18)
(10.541237 0.50192033 -1.0747904e-20)
(10.616519 0.49800104 -3.923008e-18)
(10.690797 0.48451274 1.9742948e-18)
(10.764531 0.46296561 0)
(10.838248 0.43442441 -9.8594697e-19)
(10.900854 0.3951859 1.5458278e-18)
(10.968602 0.35537053 -6.7975969e-19)
(11.019732 0.30444335 2.4628889e-19)
(10.046397 0.14445048 1.1545592e-17)
(10.071681 0.17057733 -6.0690099e-18)
(10.081432 0.19990352 0)
(10.112011 0.22544273 -3.915325e-19)
(10.132152 0.25529224 -3.9722541e-19)
(10.175444 0.2862733 4.0271996e-19)
(10.215459 0.32068098 0)
(10.270335 0.35159096 -4.1244899e-19)
(10.322196 0.37723854 3.3292963e-18)
(10.38182 0.39902124 -3.3738576e-18)
(10.444671 0.41291965 0)
(10.505654 0.42295496 0)
(10.580921 0.42534019 2.1461362e-19)
(10.646993 0.41788539 1.0768345e-19)
(10.720336 0.40138894 -1.0792372e-19)
(10.785802 0.37789436 0)
(10.847986 0.34608842 -4.8451134e-19)
(10.905631 0.31020711 4.3197148e-19)
(10.956104 0.26735655 0)
(10.035821 0.097909935 -1.0490782e-17)
(10.049596 0.12477243 1.1004799e-17)
(10.069082 0.14815098 -9.4325523e-21)
(10.092078 0.17813033 -5.1621702e-18)
(10.116359 0.20315614 0)
(10.149232 0.2318712 2.821931e-18)
(10.185088 0.26054263 -5.8985006e-18)
(10.231388 0.28577421 2.8959987e-18)
(10.27655 0.31310155 0)
(10.339302 0.33299754 -2.9369721e-18)
(10.39257 0.3533658 2.9705625e-18)
(10.467833 0.36002678 1.4865814e-18)
(10.531088 0.36439557 -1.499771e-18)
(10.606511 0.35766342 1.3098307e-18)
(10.674139 0.34348514 -1.4137448e-18)
(10.745161 0.3220724 0)
(10.810149 0.29386911 -4.7098182e-20)
(10.86978 0.2607982 -1.4055115e-19)
(10.924544 0.22070168 1.9913854e-19)
(10.036766 0.06684804 2.8842638e-19)
(10.049768 0.080624247 -5.861953e-19)
(10.065131 0.094499162 4.7548158e-18)
(10.082742 0.11363561 2.9283768e-19)
(10.106625 0.13929623 -3.163945e-19)
(10.131062 0.16406002 -4.9561106e-18)
(10.171124 0.19185479 1.5634253e-19)
(10.204809 0.21876818 2.6820846e-18)
(10.253401 0.23850195 -2.5553687e-18)
(10.302658 0.26142963 -1.6079165e-19)
(10.356563 0.27779317 0)
(10.424544 0.29165979 2.757707e-18)
(10.483125 0.29902705 -2.7800653e-18)
(10.559144 0.29777698 -1.2240073e-18)
(10.621332 0.29133321 8.8142684e-20)
(10.693722 0.27311621 1.968483e-18)
(10.751955 0.25630839 -6.1583424e-19)
(10.813887 0.22680746 -6.1313516e-20)
(10.865522 0.20018618 -1.0167518e-20)
(10.017058 0.045820265 0)
(10.029242 0.056706738 2.5724932e-19)
(10.03985 0.067598204 4.1707659e-18)
(10.0544 0.080793178 -4.6290519e-18)
(10.071924 0.096745621 4.4108791e-18)
(10.10003 0.11638916 -4.3357796e-18)
(10.134132 0.13696133 1.3684267e-19)
(10.175425 0.1581593 -1.379342e-19)
(10.224837 0.17719349 2.0831005e-18)
(10.273598 0.19474465 -2.1061091e-18)
(10.335208 0.20975746 2.1089433e-18)
(10.39626 0.21959292 -2.3405392e-18)
(10.465832 0.22461674 0)
(10.533741 0.22247644 1.1360693e-18)
(10.601039 0.21389297 -1.285109e-18)
(10.668439 0.20016235 5.6889147e-19)
(10.72739 0.18056569 -5.3522726e-19)
(10.78544 0.15503907 -2.4846478e-19)
(10.832813 0.12632782 2.8818904e-19)
(10.019253 0.024174832 -5.7731605e-21)
(10.027935 0.031368576 -7.2231147e-18)
(10.041249 0.037013572 1.1432296e-19)
(10.05522 0.048168375 -9.0814447e-23)
(10.069617 0.054828579 1.1699285e-19)
(10.092192 0.069419612 0)
(10.11357 0.084189308 3.8175786e-18)
(10.148926 0.10258506 -3.981494e-18)
(10.185591 0.11988241 1.2128432e-19)
(10.229102 0.13714057 -1.890602e-18)
(10.283053 0.15302931 3.9924205e-18)
(10.339132 0.16571833 -3.9471915e-18)
(10.407942 0.17637002 1.9837197e-18)
(10.478274 0.18128664 0)
(10.55055 0.18299417 -9.5847353e-19)
(10.621157 0.17600733 9.9355037e-19)
(10.684266 0.16897148 -1.5422379e-20)
(10.744158 0.15103131 2.8532338e-23)
(10.795532 0.13254084 -3.8407884e-21)
(10.006274 0.012386861 6.2928875e-18)
(10.013331 0.015179034 -6.3206958e-18)
(10.022439 0.020058217 6.3051889e-18)
(10.034062 0.025030746 1.0113993e-19)
(10.050022 0.029325333 0)
(10.068519 0.035314431 0)
(10.093847 0.041769598 -5.1981134e-20)
(10.126925 0.048472233 -3.3026313e-18)
(10.165603 0.056153335 3.4409469e-18)
(10.214844 0.062264586 3.3687085e-18)
(10.268195 0.068597664 -1.6383236e-18)
(10.329559 0.072845996 -1.798143e-18)
(10.396705 0.07332844 0)
(10.465564 0.072217301 2.6921417e-20)
(10.539264 0.069721121 2.6869891e-20)
(10.608334 0.066104888 8.443995e-19)
(10.673504 0.060097672 -8.7373288e-19)
(10.730612 0.046913787 1.9384312e-19)
(10.780695 0.033597194 -2.1372815e-19)
(10.005696 0.0031673798 -4.2390893e-20)
(10.009795 0.0048394585 5.470318e-18)
(10.016751 0.007307977 -4.1698656e-21)
(10.026764 0.010640842 -5.8983329e-21)
(10.040171 0.014781055 -5.6584493e-18)
(10.057806 0.019471078 0)
(10.080936 0.024587324 2.8296897e-18)
(10.110611 0.029803004 -2.8571599e-18)
(10.147566 0.034781575 -4.5498345e-20)
(10.191928 0.039230064 -2.2861388e-20)
(10.243414 0.042802094 -2.2949258e-20)
(10.302259 0.045776804 2.3012103e-20)
(10.361826 0.04920529 0)
(10.423694 0.054456667 1.457544e-18)
(10.48814 0.060244291 -1.4929543e-18)
(10.552651 0.062204736 -7.3179409e-19)
(10.629089 0.073211138 7.4597034e-19)
(10.687643 0.060754957 3.7664056e-19)
(10.742717 0.065758382 -3.7050391e-19)
(12.399092 0.71442387 -1.4561396e-19)
(12.427685 0.58007282 -5.8275432e-19)
(12.418499 0.45643887 5.6994495e-19)
(12.432819 0.33355194 0)
(12.393634 0.22413062 -1.0654283e-18)
(12.382601 0.12021066 -2.0547328e-18)
(12.327649 0.025029516 0)
(12.293184 -0.068042499 -2.1414384e-20)
(12.213909 -0.14535121 3.5108001e-18)
(12.159353 -0.22496085 1.6822906e-18)
(12.078954 -0.2767711 -1.5762981e-18)
(12.010832 -0.3461692 3.0083778e-18)
(11.932733 -0.3662309 -2.8087573e-18)
(11.857854 -0.41341728 0)
(11.793382 -0.42814402 1.2822823e-18)
(11.684738 -0.43958166 -1.1989824e-18)
(11.584868 -0.41216287 -2.328795e-18)
(11.452568 -0.36695137 2.1879648e-18)
(11.32036 -0.27836825 -1.05169e-18)
(12.319226 0.68506755 -1.2581011e-19)
(12.342819 0.55028677 7.5185665e-19)
(12.329234 0.4006031 -4.9247831e-19)
(12.33762 0.28654466 0)
(12.310151 0.15640427 -9.3466163e-19)
(12.282837 0.05989905 2.6843505e-18)
(12.247161 -0.038359669 0)
(12.222127 -0.11296114 0)
(12.158662 -0.18329076 0)
(12.10291 -0.24715199 0)
(12.018976 -0.29201865 2.8189508e-18)
(11.934889 -0.33423333 -4.0204356e-18)
(11.8481 -0.34448048 -3.8575762e-18)
(11.757887 -0.35609386 2.4076999e-18)
(11.70027 -0.33302361 -2.3095064e-18)
(11.619646 -0.28902174 2.2253084e-18)
(11.559529 -0.23446564 1.3263758e-21)
(11.49885 -0.12437756 -2.0020338e-18)
(11.421773 -0.030399414 1.9531141e-18)
(12.246498 0.7133763 0)
(12.264766 0.55614817 -4.3703897e-19)
(12.25381 0.42838826 -8.572333e-19)
(12.267659 0.30077559 -4.393019e-21)
(12.218124 0.17657086 -7.3985355e-21)
(12.206005 0.066843428 1.5895567e-18)
(12.146443 -0.034458486 -3.0279767e-18)
(12.116282 -0.1172882 1.4428078e-18)
(12.070366 -0.18548819 1.8267601e-20)
(12.019974 -0.24206171 0)
(11.955243 -0.28393808 3.8064056e-18)
(11.892386 -0.31119219 1.5005816e-20)
(11.824117 -0.31234021 2.3021288e-18)
(11.74608 -0.30760841 2.215716e-18)
(11.677067 -0.26133865 3.1564056e-18)
(11.635253 -0.21254008 -3.9797268e-18)
(11.599342 -0.1105961 -3.8388372e-20)
(11.587558 -0.0028125327 3.6543536e-18)
(11.575826 0.12988709 1.8100389e-18)
(12.156665 0.65860376 3.789296e-19)
(12.157748 0.50882602 -7.5575343e-19)
(12.180064 0.3867811 1.1138005e-18)
(12.16085 0.2496089 0)
(12.142318 0.14203726 2.1281136e-18)
(12.103886 0.034572179 -3.4365458e-18)
(12.048729 -0.059195172 2.6615453e-18)
(12.003179 -0.13859519 -2.4875325e-21)
(11.956317 -0.19716639 1.8070008e-20)
(11.898883 -0.24897399 -1.1897552e-18)
(11.8507 -0.27677193 0)
(11.804914 -0.2934708 -1.074052e-18)
(11.763247 -0.28012175 1.0577397e-18)
(11.731139 -0.25457195 -1.9663609e-18)
(11.709625 -0.19998061 0)
(11.69775 -0.14037332 0)
(11.712326 -0.038135735 -1.728406e-18)
(11.742145 0.056401893 0)
(11.840743 0.21713211 1.6211671e-18)
(12.088545 0.66971322 3.2777035e-19)
(12.093053 0.52955615 -3.2572856e-19)
(12.123224 0.39487798 3.649545e-21)
(12.091281 0.26249078 -6.3289881e-19)
(12.095052 0.15256638 6.0969612e-19)
(12.036975 0.040761487 -7.7515444e-22)
(12.004664 -0.047414592 -1.1615946e-18)
(11.943478 -0.11777077 0)
(11.894674 -0.17062938 -2.1777256e-18)
(11.84422 -0.21097453 1.0411041e-18)
(11.80531 -0.22927059 0)
(11.764063 -0.23347563 0)
(11.750552 -0.21971832 -1.8425124e-18)
(11.748317 -0.19404476 -1.7843203e-18)
(11.765241 -0.15562363 1.7070478e-18)
(11.803175 -0.089282308 3.2777463e-18)
(11.901556 -0.024097691 1.5908078e-18)
(11.982421 0.052126321 -1.4801292e-18)
(12.198152 0.15472005 1.3312938e-20)
(12.003175 0.61807111 0)
(12.034543 0.4897362 2.8343489e-19)
(12.035986 0.34098287 -1.3950639e-18)
(12.020992 0.23090307 5.4927318e-19)
(12.005197 0.11659462 1.6155176e-18)
(11.957289 0.023441067 -1.0589856e-18)
(11.930082 -0.065865651 -2.0591127e-18)
(11.876875 -0.11885367 1.9745842e-18)
(11.827843 -0.18155579 -9.8021051e-19)
(11.79719 -0.19651017 1.8440926e-18)
(11.760825 -0.21729309 0)
(11.750177 -0.21393365 0)
(11.758243 -0.20815661 -1.6195217e-18)
(11.779911 -0.17563478 4.7321454e-18)
(11.831518 -0.16528347 -6.0593404e-18)
(11.920971 -0.10008386 2.8893028e-18)
(12.030204 -0.12483632 -5.5558171e-18)
(12.220979 -0.077073125 1.3124788e-18)
(12.416658 -0.12738654 2.5169453e-18)
(11.934971 0.61624013 6.1589897e-20)
(11.973894 0.49128369 2.4620662e-19)
(11.976705 0.33884013 -4.8250401e-19)
(11.980051 0.23675822 0)
(11.949125 0.10438214 -9.4169543e-19)
(11.928438 0.024630422 2.7548657e-18)
(11.879939 -0.066198812 -1.7818092e-18)
(11.844483 -0.10802461 8.7639762e-19)
(11.797846 -0.16787525 -1.7032804e-18)
(11.777752 -0.18124739 4.9191619e-18)
(11.759808 -0.21435685 -3.0900022e-18)
(11.763728 -0.21233504 0)
(11.785415 -0.22063205 1.4323736e-18)
(11.8444 -0.19343194 2.8065662e-18)
(11.911051 -0.23140846 -4.0244837e-18)
(12.055385 -0.2078636 3.8595787e-18)
(12.14529 -0.31876836 -3.6722952e-18)
(12.382115 -0.34614497 -2.3247385e-18)
(12.483761 -0.56400293 -1.094236e-18)
(11.828204 0.58864492 1.5931661e-19)
(11.908543 0.44868624 2.1189084e-19)
(11.870684 0.31511515 -4.1797645e-19)
(11.901209 0.204755 0)
(11.842062 0.084303316 1.6288171e-18)
(11.850312 0.0062005515 -8.0309049e-19)
(11.781764 -0.075595464 0)
(11.78212 -0.12214582 -1.527292e-18)
(11.737097 -0.1790586 7.4660055e-19)
(11.740746 -0.19493731 0)
(11.740035 -0.23402544 -1.3766256e-18)
(11.764916 -0.23503898 1.3236723e-18)
(11.792511 -0.27411183 1.2862193e-18)
(11.885865 -0.2819792 -2.4859902e-18)
(11.937284 -0.36884446 2.3736258e-18)
(12.11209 -0.42172865 -1.1386757e-18)
(12.148239 -0.57133596 -1.080024e-18)
(12.368725 -0.71482628 -1.0254947e-18)
(12.350584 -0.996555 -9.7507847e-19)
(11.778099 0.57815425 3.665963e-19)
(11.850766 0.42157575 -1.8178338e-19)
(11.816279 0.31236885 0)
(11.862527 0.1782147 0)
(11.796722 0.082257569 -1.4151247e-18)
(11.814695 -0.003793978 1.3908227e-18)
(11.743444 -0.081017789 0)
(11.75445 -0.13213434 6.6456026e-19)
(11.713315 -0.19055309 -6.4836376e-19)
(11.736188 -0.21649862 0)
(11.731674 -0.2673935 1.2160324e-18)
(11.783754 -0.28746646 4.8194421e-21)
(11.798517 -0.35872298 2.3470015e-21)
(11.909242 -0.41183285 0)
(11.919388 -0.53639041 -4.1975291e-18)
(12.073369 -0.65009111 4.0112875e-18)
(12.058168 -0.845364 4.7839031e-18)
(12.18915 -1.0510515 -6.3647851e-18)
(12.051196 -1.3396028 4.3406546e-18)
(11.70247 0.56561039 0)
(11.726739 0.3896181 1.4693809e-21)
(11.742222 0.29610403 0)
(11.755669 0.14671004 0)
(11.72691 0.076001313 6.1138663e-19)
(11.731385 -0.036133596 5.499936e-21)
(11.680605 -0.093039673 -5.9785355e-19)
(11.692125 -0.15967089 -1.7605877e-18)
(11.655976 -0.22124182 2.2569011e-18)
(11.692241 -0.25315195 0)
(11.683961 -0.32087613 -1.0727466e-18)
(11.761007 -0.37188034 -6.234849e-18)
(11.755121 -0.46680517 2.9962482e-18)
(11.864942 -0.57584796 0)
(11.837935 -0.70961125 -3.7004404e-18)
(11.942746 -0.89057726 4.4285602e-18)
(11.848176 -1.0844549 -3.3827588e-18)
(11.88912 -1.3017357 4.0396693e-18)
(11.662434 -1.5621948 0)
(11.681461 0.52358271 -2.7367481e-19)
(11.688462 0.36787275 1.3715435e-19)
(11.725311 0.27493976 0)
(11.703629 0.12450858 -1.0809406e-18)
(11.701363 0.059476227 1.5963946e-18)
(11.689794 -0.060672975 -5.2395188e-19)
(11.666963 -0.10653893 -1.5662764e-18)
(11.665426 -0.19847965 3.5624043e-18)
(11.644704 -0.2439416 -1.9764474e-18)
(11.678764 -0.31700778 0)
(11.662987 -0.38599208 9.3885962e-19)
(11.735051 -0.48403555 5.4715242e-18)
(11.697469 -0.5886902 -3.5128656e-18)
(11.784191 -0.74054744 0)
(11.701165 -0.87379653 0)
(11.729773 -1.0888768 -1.5640903e-18)
(11.570944 -1.2410368 7.5050992e-19)
(11.527939 -1.4578986 -2.1557635e-18)
(11.242581 -1.6116945 0)
(11.585639 0.48999377 -2.363768e-19)
(11.585949 0.35713455 7.0831813e-19)
(11.650714 0.24766669 -7.0360935e-19)
(11.603015 0.10914459 0)
(11.633037 0.029719176 1.3956835e-18)
(11.591437 -0.082977438 -1.818881e-18)
(11.60263 -0.1339507 0)
(11.584039 -0.23457783 8.8735632e-19)
(11.593329 -0.28399938 8.6832245e-19)
(11.604796 -0.39204218 0)
(11.605791 -0.45674846 0)
(11.634474 -0.59970741 -7.9707903e-19)
(11.595995 -0.68758168 -2.3152556e-18)
(11.600191 -0.88936684 -2.9741319e-21)
(11.496834 -0.98469325 2.1506869e-18)
(11.454462 -1.2095102 1.3809546e-18)
(11.252836 -1.3055969 -6.6337769e-19)
(11.149582 -1.4823032 1.274275e-18)
(10.841119 -1.5454106 0)
(11.536007 0.43960669 0)
(11.531386 0.34553435 -8.1601767e-19)
(11.611127 0.20940929 1.6212808e-18)
(11.55892 0.093383683 -1.2082915e-18)
(11.605726 -0.0050799871 0)
(11.552198 -0.10893369 0)
(11.580323 -0.17947888 0)
(11.534147 -0.27857878 -7.6699467e-19)
(11.560564 -0.34724955 -7.5282155e-19)
(11.52815 -0.4620395 0)
(11.538829 -0.5409985 -7.1892625e-19)
(11.499536 -0.69635946 -6.9813578e-19)
(11.464395 -0.78914775 -6.750284e-19)
(11.377468 -0.99100618 2.6144775e-18)
(11.261175 -1.0526645 -2.5247384e-18)
(11.126651 -1.2587968 -6.0842056e-19)
(10.916524 -1.2683373 3.5305334e-18)
(10.759254 -1.4176941 -5.668924e-18)
(10.427691 -1.3828036 3.2822729e-18)
(11.455873 0.41436664 -4.4203782e-20)
(11.471206 0.32646775 8.8223411e-20)
(11.533624 0.16412179 8.7674236e-19)
(11.500734 0.083752639 -2.0956095e-18)
(11.541298 -0.044618428 1.0320712e-18)
(11.486145 -0.12176077 0)
(11.526696 -0.21469303 0)
(11.465325 -0.31289072 6.6929396e-19)
(11.492168 -0.39895176 -2.6304983e-18)
(11.433115 -0.513945 -6.5490984e-19)
(11.434767 -0.6108033 6.1633467e-19)
(11.345753 -0.76258816 3.0410956e-18)
(11.282395 -0.84449694 5.9187345e-19)
(11.135296 -1.0155406 0)
(11.011164 -1.046766 1.6667765e-18)
(10.824745 -1.2035443 0)
(10.645342 -1.1430987 -3.1281208e-18)
(10.436989 -1.2520388 9.0548725e-18)
(10.141531 -1.1228367 -7.7897765e-18)
(11.366072 0.39245886 7.5987163e-20)
(11.421166 0.27895887 -7.5585891e-20)
(11.453171 0.13940915 0)
(11.446492 0.057168345 -9.077907e-19)
(11.463056 -0.088591007 2.8972241e-19)
(11.421125 -0.15223298 1.1811726e-18)
(11.445974 -0.27441484 0)
(11.376174 -0.34708229 -2.9009001e-18)
(11.398251 -0.4660265 1.700434e-18)
(11.308498 -0.56961617 -1.490772e-21)
(11.287566 -0.67716923 0)
(11.151106 -0.79119028 0)
(11.073271 -0.87392794 -5.1648519e-19)
(10.867418 -0.996011 0)
(10.74027 -0.99662958 2.8213282e-21)
(10.501447 -1.0792699 9.4901974e-19)
(10.363083 -0.97318902 -2.7603366e-18)
(10.134937 -1.0159738 7.1234814e-18)
(9.9410109 -0.80532966 -3.4509989e-18)
(11.296425 0.36973982 2.2947882e-19)
(11.379233 0.23741527 -1.9620105e-19)
(11.38482 0.13238211 0)
(11.420655 0.017711973 0)
(11.403943 -0.10379625 0)
(11.395453 -0.17532771 0)
(11.376552 -0.31127645 -2.0386778e-18)
(11.325139 -0.36958726 1.9985079e-18)
(11.303093 -0.51756112 2.4699843e-18)
(11.198949 -0.58001752 -9.6545678e-19)
(11.15843 -0.70048592 0)
(10.994037 -0.77816258 3.711491e-18)
(10.89426 -0.84923177 -6.7790232e-18)
(10.665378 -0.89513361 3.518922e-18)
(10.540547 -0.87315866 -4.2877332e-18)
(10.272189 -0.87296538 2.4987356e-18)
(10.158308 -0.75063345 -8.093958e-19)
(9.9322476 -0.72928942 -7.8737136e-19)
(9.8167102 -0.48085428 7.6218121e-19)
(11.234542 0.33282803 2.2594426e-19)
(11.302456 0.19931585 -7.3370281e-19)
(11.30726 0.10458737 4.4931629e-19)
(11.339051 -0.028845732 -8.9896641e-19)
(11.299333 -0.11972978 8.8959047e-19)
(11.31387 -0.22584037 0)
(11.257773 -0.33166817 -4.3997209e-19)
(11.228405 -0.41303156 1.7407028e-18)
(11.141698 -0.54346007 -1.7075158e-18)
(11.053061 -0.58506245 -4.1999276e-19)
(10.946569 -0.71635005 -3.3045291e-18)
(10.77827 -0.72944572 3.2260742e-18)
(10.664918 -0.78177371 -3.9405337e-19)
(10.443869 -0.75363091 2.3139905e-18)
(10.335275 -0.70854018 -2.2505692e-18)
(10.098434 -0.64086398 0)
(10.032705 -0.50924503 -5.7098796e-18)
(9.8210713 -0.41718199 6.2366761e-18)
(9.7900869 -0.14928742 0)
(11.195464 0.30026512 -3.8930015e-19)
(11.251023 0.17518631 3.8899179e-19)