/*--------------------------------*- C++ -*----------------------------------*\
  =========                 |
  \\      /  F ield         | OpenFOAM: The Open Source CFD Toolbox
   \\    /   O peration     | Website:  https://openfoam.org
    \\  /    A nd           | Version:  11
     \\/     M anipulation  |
\*---------------------------------------------------------------------------*/
FoamFile
{
    format      ascii;
    class       surfaceScalarField;
    location    "0.01";
    object      phi;
}
// * * * * * * * * * * * * * * * * * * * * * * * * * * * * * * * * * * * * * //

dimensions      [0 3 -1 0 0 0 0];

internalField   nonuniform List<scalar> 
1652
(
1.706212168242967
0.5337381654508488
2.220446049250313e-16
1.172474002792889
0.533738165450077
0
0.638735837341972
0.5337381654509175
0
0.5337381654523889
-1.312283615106935e-13
0.1049976718951958
1.706212168246044
1.067476330897457
1.172474002798808
1.067476330897313
0.6387358373461097
1.067476330903616
1.067476330963262
0.1049976719387709
1.706212168254444
1.601214496347916
1.17247400280502
1.601214496346737
0.638735837348575
1.60121449635939
1.601214501323938
0.1049976708969386
1.706212168255721
2.134952661797195
1.172474002807805
2.134952661794653
0.6387358373494131
2.13495266175646
2.134952404131397
0.1049963004498756
2.65119121526914
1.723711780227148
3.167429768742327
1.723711780225906
3.683668322215918
1.7237117802255
1.723711780224005
4.199906875691007
2.651191215262505
1.207473226759295
3.167429768730585
1.207473226757827
3.683668322198525
1.207473226757546
1.207473226755729
4.199906875667859
2.651191215855321
0.691234653893682
3.167429769417867
0.6912346449339561
3.683668322427089
0.6912346493737436
0.6912346537207124
4.199906883663368
2.651210084702964
0.1746868581727393
3.167464202095231
0.1743873798598371
3.683702199138741
0.174363271154575
4.199943786803568
0.1743662346036212
4.164907651727179
0.03499922396374922
4.129908427763368
0.03499922396372968
4.094909203799532
0.03499922396374944
0.03499922396378996
4.059909979835696
4.164907651710115
0.06999844789823589
4.129908427752397
0.06999844789665949
4.094909203794575
0.06999844789532117
0.06999844790294957
4.059909979840787
4.164907658855534
0.1049975425163151
4.12990843498348
0.1049975346401317
4.094909210785446
0.1049975303929513
0.104997551719576
4.059910005626583
4.164949329364745
0.1394325532642142
4.129949451550132
0.1394170797609675
4.094948916486699
0.1394171317771135
4.059982321731737
0.139476063883819
4.059986569060806
3.959388926721985e-07
-0.0007682682739420521
4.059915891662675
9.424587937845175e-08
-0.0001165681473998537
4.059910013621859
3.415878246926241e-09
-2.305078263764582e-06
7.681411062776533e-12
4.05990997979394
2.087805539563448e-09
4.059910005584472
1.195547549848186e-10
4.059909982407227
3.001898729593222e-11
4.059909979848247
-2.885913730210632e-12
-4.332367797843517e-12
4.059909979832205
4.059909979839112
-1.687761042035163e-12
4.059909979831827
-2.024935774613823e-12
4.059909979829165
-2.190247982980509e-12
-2.184585845554921e-12
4.059909979827012
4.05990997983351
4.059909979831342
4.059909979829145
4.059909979826962
4.059909979827625
-6.625811010962934e-13
4.059909979828285
-6.603606550470431e-13
4.059909979828955
-6.703526622686695e-13
-6.505906924303417e-13
4.059909979829606
4.059909979827662
-1.313005260072941e-12
4.059909979828306
-1.305289210051797e-12
4.059909979828949
-1.313060771224173e-12
-1.309119479486753e-12
4.059909979829608
4.05990997983155
-4.209410597866281e-13
4.059909979830906
-6.297184995673888e-13
4.059909979830252
-6.593614543248805e-13
-6.605271885007369e-13
4.059909979829603
4.059909979786512
5.802329727799815e-10
4.059909979829939
4.01865762889031e-11
4.059909979830267
2.164379786506743e-13
4.059909979829604
5.551115123125783e-17
0
4.059909979829543
-1.665334536937735e-16
5.551115123125783e-17
4.059909979829603
0
4.059909979829609
4.059909979829605
-5.143108161576038e-13
4.059909979923044
8.459899447643693e-14
-1.942890293094024e-15
4.05990997982984
0
4.059909979829609
4.059909979829606
1.183247999581027e-09
4.059909822529088
-2.249973540813244e-10
3.030908857226677e-13
4.05990997988011
-1.199040866595169e-14
4.059909979829615
4.059909979829594
-1.608552774312599e-07
4.059910740877552
0.0003873307981712704
-4.189537605725491e-11
4.059909980334999
4.551914400963142e-15
4.059909979829609
4.059909979829606
0.09333124057345671
3.966578739256132
0.1866624811419835
3.966578739255396
0.2799936871840252
3.96657874021059
3.966584496299254
0.37314287128223
0.09333124057335801
3.873247498682746
0.1866624811389778
3.873247498681277
0.279993673034121
3.8732474996869
3.8732530348153
0.3730896560164232
0.09333124057326292
3.779916258109451
0.186662481137264
3.779916258107181
0.2799936681572046
3.779916259158983
3.779921507289768
0.3730896280404958
0.09333124057316594
3.686585017536246
0.1866624811351059
3.686585017533262
0.2799936627159108
3.686585018628626
3.686589947841159
0.3730905032067481
-0.2799938664046633
3.593258283488357
0.3730918228553379
-0.1866626211213873
3.593253708091212
-0.09333131056798755
3.593253706965506
3.593253706968209
-0.2799938590308263
3.499926565399142
0.3730930077308062
-0.186662621118553
3.499922397542138
-0.09333131056809851
3.49992239639777
3.49992239640005
-0.2799938503762944
3.406594948774879
0.3730943658528291
-0.1866626211131325
3.406591087027069
-0.09333131056672606
3.406591085830204
3.406591085833247
-0.2799938379568667
3.3132629138872
0.3730911777731749
-0.1866626211065124
3.313259776254721
-0.09333131056587396
3.313259775262786
3.313259775267271
0.119580658544798
3.193679116722394
0.2391613170692068
3.193679116719238
0.3587419035913664
3.193679117284432
3.193681105328715
0.4781195111510308
0.1195806585447388
3.074098458177565
0.2391613170674285
3.074098458175623
0.3587419060255039
3.074098458996161
3.074099720532605
0.4781571980144317
0.1195806585447927
2.954517799631032
0.2391613170650582
2.954517799632253
0.3587419075874329
2.954517800286363
2.954518498831364
0.4781883395214326
0.1195806585358857
2.834937141120571
0.2391613174359214
2.834937141087543
0.3587420190097376
2.8349371600833
2.834959277919849
0.4782731691535841
-0.2012455390714721
3.03618267891741
-0.4024910486094502
3.036182682173842
-0.6036687523711433
3.036179081204241
3.031549070022449
-0.7650408900990536
-0.2012455383497019
3.237428216697457
-0.4024910195528492
3.237428218510958
-0.6035756619868983
3.237420176067773
3.222915803102814
-0.6730656801901601
-0.2012455381707313
3.438673754479138
-0.4024910313419644
3.438673755750262
-0.6035844249817494
3.438667121973181
3.42327838747909
-0.6520486307102284
-0.201245538096025
3.639919292264615
-0.4024910443090031
3.639919294824784
-0.6036097554439831
3.639914536073318
3.627618931914449
-0.6509965971721475
0.3148998194577781
3.732489611087891
-0.331875782054858
0.2099953125722476
3.744912990835734
0.1049976728764468
3.744916966671052
3.744916964161018
0.3149118845006707
3.837886241991625
-0.331293473062418
0.2099953199801852
3.849911295255771
0.1049976728865098
3.84991463858295
3.849914636050708
0.3149207052784184
3.942735189466628
-0.329809298050806
0.2099953244534353
3.954909025190303
0.1049976727558188
3.954912310430219
3.954912307940381
0.3148921853979186
4.052988202030737
-0.2886151164479855
0.2099953150150273
4.059907823376409
0.1049976722300961
4.059909980985061
4.059909979834766
-3.094059189967524e-06
4.059899683031056
0.001991617602795259
-9.102630871282713e-10
4.059909981745491
1.186684084331091e-10
4.05990997986339
4.059909979828916
4.012025756061632e-08
4.059910600209192
1.894108167088682e-06
6.223654924752964e-11
4.059909982919708
7.521316902625585e-12
4.059909979840802
4.059909979836236
-4.600505432161839e-08
4.059914660602846
4.980879391763837e-05
-8.685052677037675e-12
4.059909982211948
7.344125307895411e-12
4.059909979846594
4.059909979843584
-1.989066855667687e-07
0.0002075727859717214
4.05991444606448
-8.753153757368182e-11
4.059909981624243
7.316369732279782e-12
4.059909979838704
4.059909979850929
0.664986896310266
-0.5249941731285883
-0.1400328547575349
-8.79296635503124e-14
1.18997361769683
-0.5249883751195803
0
1.714961974233977
-0.5249883594756337
-1.154631945610163e-14
-0.5249883594622071
-4.440892098500626e-16
0.6649869021590044
-1.049987593227582
-0.1400317845797987
1.189973617697202
-1.049976748607152
1.714961974234825
-1.049976718948686
-1.049976718922399
0.664986982592328
-1.574974023179294
-0.1400172919974002
1.189973617587231
-1.574965115899842
1.714961974245862
-1.574965078412474
-1.574965078383728
0.6649896001371577
-0.1399684308618603
-2.099960997478926
1.189973617377202
-2.099953463998949
1.71496197424712
-2.099953437856023
-2.099953437843333
-1.989066799046313e-07
-4.059914660603108
0.0002075727859837118
4.059914446064557
-8.753342495282368e-11
-4.059909982211757
4.059909981624192
7.310818617156656e-12
-4.059909979846706
4.059909979838345
-4.059909979843585
4.059909979850929
-4.600503766827302e-08
-4.059910600208996
4.980879390242832e-05
-8.692935260512513e-12
-4.0599099829198
7.340794638821535e-12
-4.059909979840846
-4.059909979836236
4.012019960697444e-08
-4.059899683031466
1.894108153932539e-06
6.222644621800555e-11
-4.059909981745489
7.519984634996035e-12
-4.059909979863299
-4.059909979828917
-3.094059171204755e-06
-4.052988202030566
0.001991617602879359
-9.102808506966653e-10
-4.059907823376519
1.186963860533297e-10
-4.059909980985161
-4.059909979834766
-0.1049976728702289
3.744916964182193
-3.639919292292
-0.2099953125600072
3.744916966691958
-3.63991929485182
-0.3148998194521363
3.744912990814472
-3.639914536045402
3.732489611067999
-3.62761893188798
-0.3318757820553724
-0.1049976728799166
3.849914636065306
-0.2099953199671504
3.849914638597509
-0.3149118844946279
3.849911295240974
3.837886241978018
-0.3312934730629344
-0.1049976727487916
3.954912307947966
-0.2099953244396275
3.954912310437701
-0.3149207052719933
3.954909025183048
3.94273518946
-0.3298092980514203
-0.1049976722226008
-0.2099953149997791
-0.3148921853896648
-0.2886151164466306
0.6036097554493236
-3.42327838746229
-0.650996597168696
0.4024910443237957
-3.438667121954598
0.2012455381037119
-3.43867375577026
-3.438673754498825
0.6035844249876525
-3.222915803093652
-0.6520486307087123
0.4024910313558506
-3.237420176057165
0.2012455381778882
-3.237428218524006
-3.237428216710014
0.6035756619948205
-3.031549070018226
-0.6730656801925505
0.402491019566437
-3.036179081199227
0.201245538356317
-3.036182682179995
-3.036182678923316
0.6036687523783143
-2.834959277919885
-0.7650408901017717
0.4024910486215275
-2.834937160083343
0.201245539077269
-2.834937141087531
-2.834937141120555
0.1195806585487284
3.193679116732509
-3.313259775281316
0.2391613170781479
3.193679116731707
-3.313259775280328
0.3587419035960207
3.193679117272435
-3.313259776238387
3.193681105317341
-3.31326291387191
0.4781195111517222
0.1195806585484241
3.074098458183994
0.2391613170757877
3.074098458183417
0.3587419060298868
3.074098458988152
3.074099720524901
0.4781571980152244
0.1195806585481288
2.954517799634139
0.2391613170724708
2.954517799636012
0.3587419075906936
2.954517800282509
2.954518498827639
0.4781883395207198
0.1195806585390057
0.2391613174427738
0.3587420190127286
0.4782731691528751
-0.2799938379529422
-3.406594948762747
0.3730911777724399
-0.1866626210991005
-3.406591087014229
-0.09333131056261507
-3.40659108584359
-3.406591085844031
-0.2799938503722926
-3.499926565390535
0.373094365852321
-0.1866626211053269
-3.499922397533135
-0.09333131056328764
-3.499922396406745
-3.499922396407397
-0.2799938590273657
-3.593258283484002
0.3730930077316351
-0.1866626211106295
-3.593253708086655
-0.09333131056452554
-3.59325370697018
-3.593253706971983
-0.2799938664007874
-3.686589947841008
0.373091822855755
-0.1866626211129455
-3.686585018628654
-0.0933313105642134
-3.686585017533283
-3.686585017536247
0.09333124057350228
3.966578739256085
-4.059909979829605
0.1866624811421492
3.966578739255277
-4.059909979829603
0.2799936871844014
3.966578740210442
-4.059909980334958
3.966584496298924
-4.059910740877527
0.3731428712828919
0.09333124057337988
3.87324749868268
0.186662481139102
3.873247498681085
0.279993673034405
3.873247499686479
3.873253034814767
0.3730896560169229
0.09333124057321879
3.779916258109428
0.1866624811370645
3.779916258107113
0.279993668156738
3.779916259158865
3.779921507289602
0.3730896280396733
0.09333124057314202
0.1866624811350182
0.279993662715718
0.3730905032063898
-4.059909979829606
8.659739592076221e-15
-4.059909979829606
0
-4.059909979829606
0
0
-4.059909979829605
-4.059909979829603
4.189593116876722e-11
-4.059909979829603
-3.077538224260934e-13
-4.059909979829609
7.882583474838611e-15
-1.942890293094024e-15
-4.059909979829607
-4.059909979880136
1.608552767651261e-07
-4.059909979829842
-1.183237785529201e-09
-4.059909979829602
5.080935672197029e-13
-5.551115123125783e-17
-4.059909979829603
-4.059909822529104
0.0003873307981547836
-4.059909979923089
-2.249969655032658e-10
-4.059909979829543
7.932543510946743e-14
-4.059909979829604
-1.665334536937735e-16
-6.604716773495056e-13
-4.059909979828944
-1.309230501789216e-12
-4.05990997982896
-6.605271885007369e-13
-4.059909979830251
-4.059909979830266
1.665334536937735e-16
-6.604716773495056e-13
-4.059909979828285
-1.311062369779847e-12
-4.059909979828308
-6.573630528805552e-13
-4.059909979830905
-4.059909979829942
2.031708135064036e-13
-6.605826996519681e-13
-4.059909979827625
-1.306954544588734e-12
-4.059909979827661
-6.306066779870889e-13
-4.059909979831549
-4.059909979786531
4.017275401224651e-11
-6.625811010962934e-13
-4.059909979826962
-1.313005260072941e-12
-4.059909979827012
-4.205524817280093e-13
-4.059909979832207
-4.059909979793958
5.802133218324457e-10
-1.33326683027235e-12
4.059909979824448
-4.059909979823612
-1.255518466969363e-10
4.059909979830122
-4.059909979828844
-3.959419733745584e-07
4.059910005593194
-4.059910005638259
4.05998656907004
-4.059982321744018
-0.0007682682739061919
-9.888756480336269e-13
4.059909979825293
-3.601441367351299e-11
4.059909979825881
-9.424894659160188e-08
4.059909982413104
4.059915891668831
-0.0001165681473888625
-8.337774914934926e-13
4.059909979826121
-3.103461931885931e-12
4.059909979826188
-3.418946736832851e-09
4.059909979851297
4.059910013624926
-2.305078291298113e-06
-8.396616735240059e-13
-1.670052984792392e-12
-1.074501598807842e-11
2.08779754595767e-09
-0.104997551723876
-4.094948916494613
0.1394760638838031
-0.06999844791469184
-4.094909210789815
-0.03499922396632205
-4.094909203791754
-4.094909203789982
-0.1049975303973287
-4.129949451553591
0.1394171317770781
-0.06999844790727244
-4.129908434980181
-0.03499922396632316
-4.129908427759002
-4.12990842775639
-0.1049975346445858
-4.164949329364036
0.1394170797609774
-0.06999844790880339
-4.164907658844705
-0.03499922396636423
-4.164907651726313
-4.164907651722836
-0.10499754252086
-4.199943786798256
0.1394325532642067
-0.06999844791060322
-4.199906883644489
-0.03499922396642519
-4.19990687569376
-4.199906875689337
-0.6912346537181282
-3.683702199135674
0.1743662346033295
-1.207473226746582
-3.683668322414923
-1.723711780223959
-3.683668322215321
-3.683668322214204
-0.6912346493714989
-3.167464202094218
0.1743632711542958
-1.207473226749887
-3.167429769410989
-1.723711780225355
-3.167429768739865
-3.167429768740465
-0.6912346449333615
-2.651210084702649
0.1743873798599858
-1.207473226753196
-2.65119121585243
-1.723711780226762
-2.651191215266301
-2.651191215268137
-0.6912346538937171
-2.134952404131253
0.1746868581730507
-1.207473226756505
-2.134952661756585
-1.723711780228153
-2.134952661794653
-2.134952661797196
1.706212168246006
0.5337381654478088
1.172474002797067
0.533738165448939
0.6387358373453851
0.5337381654516822
0.5337381654549942
0.1049976718959379
1.70621216824656
1.067476330893901
1.172474002799517
1.067476330895981
0.6387358373466885
1.067476330904511
1.067476330966364
0.1049976719389137
1.706212168253681
1.601214496345124
1.172474002803972
1.601214496345691
0.6387358373477193
1.601214496360108
1.601214501326422
0.1049976708967708
1.706212168252928
1.172474002803967
0.6387358373462951
0.1049963004491801
0.1049976719338036
0.1049976719344362
0.1049976728736157
0.1049976718778567
0.1049976745569389
0.1049976328047863
0.1049945400916109
0.1049932705508462
0.1049976718776098
0.1049976728743956
0.1049976734276135
0.1049976734282185
0.1049976780524308
0.1049973300810385
0.1049295217289533
0.1049113890429861
0.1049976328051452
0.1049976745575432
0.1049973300813473
0.1049976780530966
0.1049557267382585
0.1049557267376779
0.1027304071424803
0.1044149826416951
0.1049945400923667
0.1049932705513947
0.104929521729511
0.1049113890438239
0.1027304071431419
0.1044149826410059
0.09778581467213161
0.09778581467281447
-0.07881605617256499
0.1546089717193931
-0.1327592565531365
0.1344869067468241
-0.1642332051565671
0.11877627067358
0.1139518943392294
-0.05492658786947197
0.1664544207044633
-0.1170018748578837
0.1435914335359716
-0.1623949752635055
0.1281347605319383
0.1227357984999557
-0.05408668613197259
0.1729738847456308
-0.1160606522112423
0.1479502783979063
-0.1622833102874481
0.1361936076140491
0.1314523369055798
-0.05415863171853452
0.1793694186735934
-0.1161665037434807
0.1522381735050521
-0.1623161030438089
0.1442741632030762
0.140175170552044
0.1401920918619395
0.1363305260406537
0.1401940111181659
0.1362237941617085
0.1401940202255442
0.1362216676819488
0.1365372350073518
0.1402349719798824
0.1447357600018369
0.10045956714987
0.1447717518008253
0.09995851811739551
0.1447717495446523
0.09994790949850882
0.09931127070602364
0.1447649749712555
0.1524419427372386
0.04711184277850128
0.1525077637450348
0.04635678233936208
0.152523367748129
0.04631118886072327
0.03517068770962584
0.1548974691782347
0.1806250867044552
0.1809083906762062
0.1809712854897424
0.1623396270271427
0.1402369483048605
-0.003485296049464737
0.1400086291313646
-0.0003154350747974211
0.139996933486255
-2.074193776679945e-06
1.61638856188695e-08
0.1399968956305347
0.1410623159536367
-0.01244434666060773
0.1400136087483834
-0.0002926923229816247
0.1399969100421346
-3.179206048420369e-07
1.108971533492209e-07
0.1399968876295334
0.1410232320108944
-0.0110979885653032
0.1400067669424785
-0.0001862417725885801
0.1399968987099761
1.053812187790104e-06
3.169397426172615e-07
0.1399968930387342
0.140481344426642
0.1399968811781989
0.1399961610031683
0.139996745156399
0.1399968956252209
2.980388491558017e-09
0.1399968958540271
2.961680900526176e-11
0.1399968958561922
-6.328271240363392e-14
-1.665334536937735e-16
0.1399968958561933
0.139996895685232
5.843862949106438e-09
0.1399968958559848
2.245004182555022e-11
0.1399968958561933
-2.259303855112194e-14
-6.050715484207103e-15
0.1399968958561933
0.1399968958617283
2.581934427370314e-08
0.139996895856209
1.503667745872406e-10
0.1399968958562092
6.661338147750939e-15
-7.049916206369744e-15
0.1399968958561933
0.1399968939968147
0.13999689585531
0.1399968958561934
0.1399968958561933
0.1399968958561933
-1.110223024625157e-16
0.1399968958561969
3.719247132494274e-15
0.1399968952156798
-5.71591435294394e-09
0.002064614201694348
0.1400466455416184
0.1399968958561933
-1.110223024625157e-16
0.1399968958561933
5.551115123125783e-17
0.1399966641883831
-1.055458558330002e-06
0.01576648942805764
0.1414703771331355
0.1399968958561933
-2.220446049250313e-16
0.1399968958561933
0
0.1399934004978809
-1.955846002332784e-05
0.0388544756720044
0.1380387805487071
0.1399968958561933
0.1399968958561933
0.1393582652265174
0.1655923173300018
0.1400820831702754
0.3709708137598006
0.1400857620416257
0.3702186469490202
0.1400858103715706
0.3702082261344489
0.3702076619156842
0.1400858210014285
0.1461609675162577
0.2911979196914317
0.1464359295534217
0.2779126647460151
0.1464363945872916
0.2779189959583682
0.2779233356280128
0.1464364058169757
0.1512999629373527
0.1238587269785715
0.1516317967264401
0.108068911472664
0.1516312316691956
0.1081653251519094
0.1082142776106764
0.1516251119417606
0.2159701148815179
0.2166270908479893
0.2165912728859057
0.2165588226554153
0.1400858322708624
0.3702078863153238
0.1400858453343904
0.3702078864514269
0.1400858834340091
0.3702078594802271
0.3701623148553256
0.1400663294822434
0.1464364357240699
0.2779233669175162
0.1464364495995142
0.2779233689096223
0.1464365214698003
0.2779232801201523
0.2778684973303696
0.1459966341751467
0.1516250593768046
0.1082167177959898
0.1516250599274485
0.1082167320801529
0.15162959347783
0.1082168769404049
0.1082452390763394
0.1518753162230989
0.2165584193488186
0.216558419016479
0.2165632136817494
0.2169524097772538
0.1662910641333718
0.4493757254765089
0.1925260976239146
0.4498277145759019
0.2187577002255794
0.4502171044065857
0.451324334669354
0.2450568058265757
0.1702683755431324
0.3363756790156205
0.1955583894459235
0.3439323746217189
0.2208099539484612
0.3524411133141896
0.3813750878236312
0.2472500513648851
0.1667022067521129
0.1394726580060475
0.1827431813811958
0.1476729358704799
0.2004829669207578
0.1586045839110363
0.1685972087061225
0.2587841730710732
0.2374017429145514
0.2616025607380875
0.2980004736433235
0.3642077447133006
0.1671799413369912
-0.6452346049676326
0.09768996313203722
-0.4395224400280965
0.04851738251974602
-0.4035850116772984
-0.4033469618971375
0.0004231300518304643
0.1211622510669431
-0.4704020717917842
0.04817743121848141
-0.1670866224651433
0.02350037371144926
-0.1353690806586603
-0.1348588175768828
0.0004408873742589997
0.06956552175196562
-0.2867771991766589
0.01536099790967908
-0.0270461915893663
0.007459499675121242
-0.01531470899054038
-0.01528292727191265
0.0005316923536106515
0.02426292216479871
0.002865932087322552
0.001416421559647767
0.0002037259920036807
0.02709344690587481
-0.2371229820989316
0.05418917902267906
-0.2366112818415486
0.08156515649000243
-0.234173248718042
-0.1613000506707956
0.1193671572820314
0.01271224974166025
-0.09052397598904841
0.02540552365982064
-0.09025892992332107
0.03865928523303078
-0.08872883157066397
-0.03087523270297182
0.08028479622182437
0.004173556954847585
-0.01340385216324107
0.007623652041167217
-0.01348281545917699
0.008704700984568537
-0.01296833277566522
0.003162815645899042
0.02681364006226036
0.0009522548132198045
0.001383839545004577
-0.004636335351770618
-0.01589644094729755
0.1399186279170709
0.001001271031476736
0.1399977310467231
-2.736973216121985e-05
0.1400342993938634
0.0002296791434596712
0.001079829549631039
0.1400179258511419
0.1391100986806889
0.005158316633693927
0.1399317833538307
0.0001266584502836454
0.1403149513787223
0.001421713096685984
0.007039744916653712
0.1405944375511651
0.1357764048022519
0.008340825431743082
0.1404169542915394
0.002743758378210281
0.1426361823942983
0.002909984158653456
0.009994022616078568
0.1543115771684057
0.1099173276719169
0.1385569049236911
0.1498036376308663
0.1764860820811565
0.1049695104571362
-0.2443034596712923
0.2798874522836047
0.06994142925938089
-0.2435404630229693
0.2797895412112983
0.03495914843470571
-0.2430802938650999
0.2797247536462013
-0.2431376583129827
-7.973050029788653e-05
0.279776553663167
0.1032581430525912
-0.1946761832714916
0.06748375902074319
-0.182181550827585
0.0333867788666643
-0.1750335112549061
-0.1738758365733341
-9.187086650512544e-05
0.0936612740380779
-0.09796754485401364
0.05088906611479732
-0.06976907271319244
0.0240213219796947
-0.05247279851941266
-0.04977198572787148
0.002496962201843977
0.07776696971778566
0.02059226832869554
0.007460013116610528
0.002243442252297029
0.001370851799843555
0.03704810391970395
0.0002348777072108989
0.03670561013402879
1.102503962722642e-05
0.03631349183752447
0.03626644248154404
-1.176142516712275e-15
0.001144697524642815
0.1152713380036792
0.0002835597253914302
0.1153631470574392
2.494674565016453e-05
0.1151760589943944
0.1151309198919416
-3.05311331771918e-16
-0.0001493557540869633
0.1392216906955474
-3.552571711112895e-06
0.1393159331116746
5.596552612160965e-06
0.1393332016133326
0.1393330027065928
8.815170815523743e-14
-3.908888952958156e-05
-7.111089387612513e-06
-2.061217118654035e-07
-1.221245327087672e-15
0.03626644248154589
-1.102503963021362e-05
0.1151309198919459
-2.494674566962118e-05
0.139333002706599
-5.596552600420357e-06
2.061217039273089e-07
0.1400328547575362
0.03631349183751612
-0.0002348777072160163
0.1151760589943998
-0.0002835597254085137
0.1393332016133413
3.552571703424601e-06
7.111089382838554e-06
0.1400317845798067
0.03670561013402806
-0.00137085179985403
0.1153631470574302
-0.001144697524597407
0.1393159331116697
0.0001493557540992868
3.908888953044198e-05
0.1400172919973959
0.03704810391970843
-0.002243442252297119
0.1152713380036779
-0.002496962201846087
0.1392216906955481
9.187086650891407e-05
7.973050029783102e-05
0.1399684308618621
-0.03495914843470772
-0.2431376583129866
0.2797765536631735
-0.06994142925937742
-0.2430802938651074
0.2797247536462111
-0.1049695104571259
-0.2435404630229717
0.2797895412113015
-0.2443034596712926
-0.1400179258511438
0.2798874522836063
-0.03338677886666928
-0.1738758365733353
-0.06748375902073769
-0.1750335112549085
-0.1032581430525927
-0.182181550827584
-0.1946761832714911
-0.1405944375511714
-0.02402132197968791
-0.04977198572787188
-0.05088906611481625
-0.05247279851942076
-0.09366127403807681
-0.06976907271319598
-0.09796754485401429
-0.1543115771684075
-0.007460013116604717
-0.02059226832869967
-0.07776696971778502
-0.1764860820811612
-0.1498036376308634
-0.009994022616068687
-0.1385569049236788
-0.002909984158626089
-0.1099173276718761
-0.002743758378207062
-0.008340825431702809
0.01589644094730845
-0.1426361823942954
-0.007039744916658652
-0.1404169542915325
-0.00142171309667366
-0.1357764048022399
-0.0001266584502548351
-0.005158316633718518
-0.02681364006217419
-0.1403149513787232
-0.001079829549644085
-0.1399317833538093
-0.0002296791434268641
-0.1391100986806711
2.736973218864236e-05
-0.001001271031585815
-0.08028479622170158
-0.1400342993938692
-0.1399977310467156
-0.13991862791707
-0.1193671572819539
-0.08156515648989256
-0.1613000506702078
-0.05418917902321384
-0.234173248718034
-0.02709344690614744
-0.2366112818420513
-0.2371229820994151
-0.0004231300518184183
-0.03865928523296332
-0.03087523270288797
-0.02540552366010775
-0.08872883157043207
-0.01271224974180401
-0.09025892992353468
-0.09052397598930373
-0.0004408873742516445
-0.008704700984525159
0.003162815645883117
-0.007623652041262544
-0.01296833277559641
-0.004173556954890509
-0.01348281545922776
-0.01340385216329663
-0.0005316923536090867
0.004636335351787113
-0.00138383954501891
-0.0009522548132299561
-0.0002037259920024976
-0.04851738251872888
-0.4033469618954195
-0.0976899631305439
-0.4035850116765496
-0.1671799413360859
-0.4395224400290401
-0.6452346049691366
-0.245056805826578
-0.02350037371100272
-0.1348588175764762
-0.04817743121781369
-0.1353690806584752
-0.121162251066274
-0.1670866224652546
-0.4704020717923481
-0.2472500513648969
-0.007459499675004311
-0.01528292727187919
-0.01536099790949733
-0.01531470899054545
-0.06956552175161357
-0.0270461915893204
-0.2867771991768547
-0.2587841730710554
-0.001416421559630286
-0.002865932087295764
-0.02426292216472643
-0.3642077447133866
-0.2187577002256976
0.4513243346687443
-0.1925260976240018
0.4502171044058253
-0.1662910641334076
0.4498277145766125
0.4493757254771809
-0.1400663294822476
-0.2208099539485697
0.3813750878231634
-0.1955583894460113
0.3524411133135525
-0.1702683755431681
0.3439323746222983
0.3363756790160661
-0.1459966341751598
-0.2004829669208173
0.1685972087058949
-0.1827431813812565
0.1586045839106989
-0.1667022067521345
0.1476729358707776
0.1394726580062677
-0.1518753162230959
-0.2980004736433927
-0.261602560738149
-0.2374017429145815
-0.2169524097772331
-0.1400858834340187
0.3701623148545696
-0.1400858453343653
0.3702078594796674
-0.1400858322708028
0.3702078864521848
0.3702078863158262
-0.1400858210014296
-0.1464365214698319
0.2778684973297968
-0.1464364495995047
0.277923280119721
-0.1464364357240015
0.2779233689102466
0.2779233669179639
-0.1464364058169652
-0.1516295934778366
0.1082452390761447
-0.1516250599274356
0.1082168769402031
-0.1516250593767838
0.1082167320804183
0.1082167177961754
-0.1516251119417572
-0.2165632136817502
-0.2165584190164646
-0.216558419348768
-0.2165588226554362
-0.1400858103715388
0.3702076619153125
-0.1400857620416308
0.3702082261336506
-0.1400820831703038
0.3702186469495348
0.3709708137604297
-0.1400466455416178
-0.1464363945872844
0.2779233356276832
-0.1464359295534472
0.2779189959577917
-0.1461609675162895
0.2779126647463944
0.2911979196918326
-0.1414703771331342
-0.1516312316691832
0.1082142776106438
-0.151631796726442
0.1081653251516159
-0.1512999629373664
0.108068911472823
0.1238587269787654
-0.1380387805487117
-0.2165912728858744
-0.2166270908479898
-0.2159701148815449
-0.1655923173300159
-0.1399968952156799
0.002064614201686382
-0.1399968958561963
-5.715914130899336e-09
-0.1399968958561933
3.441691376337985e-15
-1.110223024625157e-16
-0.1399968958561933
-0.1399966641883831
0.01576648942804404
-0.1399968958561933
-1.055458557996936e-06
-0.1399968958561933
5.551115123125783e-17
-1.110223024625157e-16
-0.1399968958561933
-0.1399934004978813
0.0388544756719727
-0.1399968958561933
-1.955846002188455e-05
-0.1399968958561933
0
-2.220446049250313e-16
-0.1399968958561933
-0.1393582652265193
-0.1399968958561933
-0.1399968958561933
-0.1399968958561933
-0.1399968958561922
-1.110223024625157e-16
-0.1399968958540254
-4.984901380566953e-14
-0.1399968956252193
2.961292322467557e-11
2.980395485963072e-09
-0.1399968956305332
-0.1399968958561933
-5.995204332975845e-15
-0.1399968958559844
-2.314815006343451e-14
-0.139996895685231
2.24505414259113e-11
5.843857731058222e-09
-0.1399968876295337
-0.1399968958562097
-7.049916206369744e-15
-0.1399968958562095
6.439293542825908e-15
-0.1399968958617282
1.503649982304012e-10
2.581932573297863e-08
-0.1399968930387358
-0.1399968958561934
-0.13999689585531
-0.1399968939968136
-0.139996745156399
-0.1399969334862556
1.616388400904611e-08
-0.1400086291313643
-2.074193791279377e-06
-0.1402369483048607
-0.0003154350747934798
-0.00348529604944614
-0.1402349719798825