/*--------------------------------*- C++ -*----------------------------------*\
  =========                 |
  \\      /  F ield         | OpenFOAM: The Open Source CFD Toolbox
   \\    /   O peration     | Website:  https://openfoam.org
    \\  /    A nd           | Version:  11
     \\/     M anipulation  |
\*---------------------------------------------------------------------------*/
FoamFile
{
    format      ascii;
    class       volScalarField;
    location    "0.01";
    object      T;
}
// * * * * * * * * * * * * * * * * * * * * * * * * * * * * * * * * * * * * * //

dimensions      [0 0 0 1 0 0 0];

internalField   nonuniform List<scalar> 
880
(
500
500
500
499.999999999969
500.0000000000001
500
500
499.9999999997112
500
500
500
499.999999990542
500.0000000000001
500
500.0000000000118
500.0000057052471
500
500
500.0000000000001
500
500
500
500
500
500.0000000300232
500.0000000387099
500.0000000303081
500.0000000147976
500.0007771780662
500.0012991436536
500.0012204129807
500.0010924642139
500.0000000000001
500
500
500
500.0000000000337
500.0000000000373
500.0000000000358
500.0000000000027
500.0000001981873
500.00000021023
500.000000219858
500.0000001554807
500.0012055029837
500.0012608044078
500.0012812417887
500.0010786175384
500.0022377500616
500.0005170848752
500.0000190730584
500.0000000558602
500.0000007640424
500.000000212097
500.0000000092537
500.0000000000407
500.0000000001796
500.000000000055
500.0000000000041
500
500.0000000000001
500
500
500.0000000000001
500
500
500.0000000000001
500
500
500.0000000000001
500.0000000000001
500.0000000000001
500
499.9999999999999
500
500
499.9999999986062
499.9999999998339
499.9999999999961
500
500.0000000000002
500
500
500.0000000000001
499.9999999998244
499.9999999999991
500
500.0000000000001
500.0000003271011
500.000000001661
500
500
499.9991045479137
499.9999997447043
499.999999999948
500
500
500.0000000000064
500.0000000493106
500.0003661030746
500
500.0000000000119
500.0000000709792
500.0004962402051
500.0000000000001
500.000000000014
500.0000000811122
500.0005215399626
499.9999999999999
500.0000000000172
500.0000000929736
500.0005476048258
500.0005762372803
500.0000001072385
500.0000000000218
500
500.0006079812247
500.0000001246138
500.0000000000262
500
500.0006429410751
500.0000001458383
500.0000000000283
500
500.0006973388527
500.0000001764539
500.0000000000384
500.0000000000001
500
500.0000000000308
500.0000001393211
500.0005835370189
500
500.0000000000295
500.000000142504
500.0005209566148
500.0000000000067
500.0000000000375
500.0000001624352
500.0004680371419
499.9999999999861
500.0000000013339
499.9999998690918
500.0001810553971
500.0000000054377
500.0000001661485
499.999862535942
499.8494417142083
500.0000000039099
500.0000000794498
499.9996939658823
499.6060868005708
500.0000000026214
500.0000000549423
499.9997327291548
499.5818627057186
500.0000000019025
500.0000000423504
499.9997920046717
499.6129813859149
499.7046993120866
499.9998482469121
500.000000136441
500.0000000030399
499.7247740025355
499.9998792073868
500.0000001390025
500.0000000026925
499.7414839562605
499.999898578098
500.0000001218098
500.0000000022192
499.6258896139629
499.9998444917459
500.0000000512011
500.0000000014251
499.9894247946967
499.9999982200291
500.0000000078887
500.0000000000628
500.0000093639421
500.0000001025711
500.000000000041
500
499.9999200590083
499.9999999609094
499.9999999999977
500
499.9996834227509
499.999999817851
499.9999999999427
500
500.0012713260811
500.0000032086815
500.0000000027437
500.0000000000011
500.00126640074
500.000003204105
500.0000000027441
500.0000000000011
500.0011675364885
500.0000030451677
500.000000002666
500.0000000000009
500.0007540234485
500.0000023994797
500.000000001988
500
499.9996834227495
499.9999998178465
499.9999999999263
500.0000000000001
499.9999200590187
499.9999999609003
499.9999999999798
500.0000000000001
500.0000093639227
500.0000001025633
500.0000000000418
500
499.9894247947174
499.9999982200146
500.0000000078884
500.0000000000639
500.0000000030427
500.0000001364415
499.9998482469278
499.7046993120824
500.0000000026898
500.0000001390042
499.9998792074035
499.7247740025268
500.0000000022187
500.0000001218024
499.9998985780855
499.7414839562287
500.0000000014253
500.0000000512134
499.9998444917511
499.625889613973
499.6129813859254
499.9997920046691
500.0000000423464
500.0000000019016
499.5818627057213
499.9997327291579
500.0000000549458
500.0000000026185
499.6060868005753
499.9996939658903
500.000000079447
500.0000000039155
499.8494417142106
499.9998625359309
500.0000001661353
500.0000000054456
500
500.0000000000265
500.0000001393323
500.0005835369955
500
500.000000000035
500.0000001425083
500.0005209566405
500.0000000000006
500.0000000000375
500.0000001624329
500.0004680371302
499.999999999986
500.0000000013308
499.999999869089
500.000181055393
500.0006973388471
500.0000001764429
500.0000000000383
500.0000000000001
500.0006429410747
500.0000001458357
500.0000000000327
500
500.0006079812214
500.0000001246143
500.0000000000255
500.0000000000001
500.0005762372827
500.000000107243
500.0000000000218
500.0000000000001
500
500.0000000000082
500.0000000493095
500.0003661030743
500.0000000000001
500.0000000000131
500.0000000709734
500.0004962402029
499.9999999999999
500.0000000000135
500.0000000811169
500.0005215399557
500
500.0000000000203
500.0000000929751
500.0005476048204
500
500.0000000000001
499.9999999999999
500.0000000000001
499.999999999943
500.0000000000001
500.0000000000001
500
499.9999997446959
500.0000000016611
499.9999999999993
500.0000000000001
499.9991045479063
500.0000003270997
499.9999999998245
500.0000000000002
500
500.0000000000001
500
500
500.0000000000001
500.0000000000001
500.0000000000001
499.9999999999967
500
500
500
499.9999999998267
500.0000000000001
500.0000000000001
500
499.9999999986049
499.9999999999999
500.0000000001731
500.0000007640463
500.0022377500731
500
500.0000000000568
500.0000002120975
500.0005170848732
500.0000000000001
500.0000000000022
500.0000000092533
500.000019073049
500.0000000000001
500
500.0000000000342
500.0000000558523
500.0010786175377
500.0000001554747
500.0000000000124
500
500.0012812417802
500.0000002198693
500.0000000000343
500
500.001260804414
500.000000210238
500.0000000000325
500
500.0012055029769
500.0000001981766
500.0000000000319
499.9999999999998
500.0010924642102
500.0000000148022
500
500
500.001220412977
500.0000000303031
500.0000000000001
500
500.0012991436482
500.0000000387063
500
500
500.000777178062
500.0000000300172
500.0000000000001
499.9999999999999
500.0000000000001
500
500
499.999999999971
500
500
500.0000000000001
499.9999999997103
500
500
500
499.9999999905422
500
500.0000000000001
500.0000000000035
500.0000057052342
499.9999999943853
499.9999999343727
500.0000026666556
500.0007882489151
499.9999999343815
499.9999999207396
500.0000799867029
500.0369684847365
500.0000026666626
500.0000799867085
500.0228205317856
501.3381961150241
500.0007882489314
500.0369684847381
501.338196115045
515.91343489663
549.6051734086792
515.919509262114
503.5541517804413
500.1443007762004
560.7258916987897
524.2330922754812
506.2687601074315
500.2849689788947
561.4735086505068
524.8122714411774
506.4577545404098
500.294168481201
561.5060042249089
524.8029012806652
506.4334532073032
500.2908575357845
500.3255377195401
500.3348997745
500.3351839948397
500.3018946417607
507.0096966214189
507.1428809187953
507.1473173469184
507.2341775635616
525.6116267737993
525.7806253008902
525.7944748159097
528.2322242158999
563.1124457393047
563.5213402037673
563.5615783357578
569.6882551676626
500.3191318309944
500.0494183198692
500.0010922577632
500.0000012396478
502.4741081511116
500.1548006299362
500.00150873296
499.9999857832348
504.3020048426011
500.155165767451
500.0005554382648
499.9999535547252
505.3117614697148
500.0561212607447
499.9997927019162
499.9998100357149
499.9999997547898
499.9999999821379
499.9999999998698
500.0000000000001
499.9999987327795
499.999999987564
499.9999999999864
500.0000000000011
499.9999980318585
499.9999999934669
500.0000000000102
500.000000000019
499.9999833763019
499.9999998941353
499.999999999976
500.0000000000315
500.0000000000001
500.0000000000131
499.9999999890511
499.848420056994
500.0000000000001
500.0000000000011
499.9999637866862
497.0768055891997
500.0000000000001
500.0000000000001
499.9986826308734
485.8906601787563
500.0000000000011
500.0000000000001
500.0393263681854
468.6898539514031
500.183733579522
500.2406123001434
500.2415890566246
500.2416931151415
512.7290395964775
515.0735658045814
515.0953634971838
515.0952758563344
569.7076725068382
572.6912420569398
572.6611030738578
572.6491067143122
655.7556724937961
663.8289459429144
663.7679965714871
663.7286117179323
500.2417569990213
500.2418263992531
500.2419062433164
500.2471343143403
515.0953348252795
515.0953493703547
515.0953931337697
515.1952841629759
572.6484943973094
572.6484975596684
572.648193770936
572.6374925481513
663.7259838451236
663.7259703776427
663.7256767943592
663.6955729574622
500.1758634021007
500.144636631098
500.1192969391844
500.0482923453246
512.1995255783555
510.8980989371582
509.6623594455052
505.9001837166724
568.1274863763319
565.7691827414636
562.9183484435758
558.5119808633324
658.1964144847266
655.6908240953618
652.1168495242547
666.7108330453027
495.1620988615316
484.6534641267455
482.0682555310265
482.1647660835034
483.011430950181
436.1097845673719
424.4109734512878
424.1661646622075
464.3525901740761
359.1123134485291
338.3695487233117
337.6790156950819
430.6027552352779
241.2769973237897
220.7487955666435
219.3468304200317
481.3149456140658
481.4036432595006
481.3254146759126
471.7915338961275
423.4507127671012
423.5086598403508
423.1381336298044
381.4833995383773
333.1306038485578
332.8049802303852
333.0439189791956
279.0947779943411
212.635295065323
212.0713723555072
214.7210093931619
206.7788303030137
498.8681581388596
499.998873501463
499.9831255378681
499.9430082106767
493.8231211696162
499.9479787191906
499.8030406034193
499.4508407712711
483.2105185319221
499.5977446686679
499.3732475638985
496.6107355591708
460.0492996251448
496.8908068181893
498.1245735098294
489.3776546107234
499.9708200433786
499.9345677967266
499.9128704898164
499.9391824536135
498.2514169413669
496.865314020456
496.0736786864347
496.1673191593967
474.0606351739631
459.5850030141701
451.964798034158
450.5035070871149
389.7055072525509
316.2111986000042
275.735560167375
266.6495812693418
258.7412381838822
255.4356880630036
254.2987485745281
254.1638224224965
446.5637023661067
446.3273684725459
445.9811569312246
445.8912620594698
496.5651219674263
496.8509430315619
496.8902458298048
496.8874066489768
500.0070045225042
500.0471970443599
500.0629118386648
500.0644772736483
254.1638224224979
445.891262059458
496.8874066490111
500.0644772736528
254.2987485745413
445.9811569312515
496.8902458298206
500.0629118386889
255.4356880630657
446.3273684725476
496.8509430315517
500.0471970443588
258.7412381839379
446.563702366106
496.5651219674215
500.0070045225144
499.9391824536198
499.9128704898202
499.9345677967373
499.9708200433813
496.167319159395
496.0736786864434
496.8653140204568
498.2514169413604
450.5035070871281
451.9647980341391
459.5850030141634
474.0606351739632
266.649581269386
275.7355601673865
316.211198600022
389.7055072525556
489.3776546107279
498.1245735098352
496.8908068181866
460.049299625095
496.6107355591731
499.373247563906
499.5977446686629
483.2105185319026
499.4508407712678
499.8030406034249
499.9479787191962
493.8231211695996
499.9430082106761
499.9831255378737
499.9988735014492
498.8681581388636
471.7915338961204
481.3254146759235
481.4036432594936
481.3149456140696
381.4833995383714
423.1381336298492
423.5086598403921
423.4507127670889
279.0947779943492
333.0439189791817
332.804980230387
333.1306038485354
206.7788303031286
214.7210093931999
212.0713723555058
212.6352950653104
482.1647660834863
482.0682555310098
484.65346412673
495.1620988615143
424.1661646621614
424.4109734512681
436.1097845673038
483.0114309501324
337.6790156950475
338.3695487232846
359.1123134484949
464.3525901740679
219.3468304199779
220.7487955666322
241.276997323822
430.6027552353303
500.0482923453062
500.1192969391623
500.1446366310833
500.1758634021141
505.9001837166863
509.6623594455066
510.8980989371681
512.199525578356
558.5119808633361
562.9183484435696
565.7691827414474
568.1274863763346
666.7108330453102
652.1168495242398
655.6908240953553
658.1964144847142
500.2471343143198
500.2419062433113
500.2418263992409
500.2417569990444
515.1952841629999
515.0953931337957
515.0953493703624
515.095334825271
572.6374925481466
572.6481937709415
572.6484975596586
572.6484943973104
663.6955729574446
663.7256767943536
663.725970377644
663.7259838451537
500.2416931151491
500.2415890566152
500.240612300133
500.1837335795295
515.0952758563175
515.0953634972128
515.0735658045867
512.7290395964793
572.649106714302
572.6611030738659
572.691242056937
569.707672506837
663.7286117179228
663.7679965714901
663.8289459429154
655.7556724937807
499.848420056993
499.9999999890516
500.0000000000142
500.0000000000001
497.0768055892021
499.9999637866862
500.0000000000011
500.0000000000001
485.8906601787664
499.9986826308726
500.0000000000001
500.0000000000001
468.6898539514279
500.0393263681846
500.0000000000001
500.0000000000011
500.0000000000001
499.9999999998768
499.9999999821381
499.9999997547986
500.0000000000011
499.9999999999862
499.9999999875657
499.9999987327842
500.000000000019
500.0000000000057
499.9999999934666
499.9999980318617
500.0000000000315
499.9999999999757
499.9999998941358
499.9999833763084
500.0000012396494
500.0010922577605
500.0494183198652
500.3191318309954
499.9999857832323
500.0015087329598
500.1548006299361
502.4741081511114
499.9999535547248
500.000555438265
500.1551657674495
504.3020048426017
499.9998100357153
499.9997927019145
500.0561212607437
505.3117614697175
500.3018946417668
500.3351839948498
500.334899774508
500.3255377195292
507.2341775635478
507.147317346933
507.1428809188099
507.0096966214017
528.2322242158882
525.7944748159176
525.7806253008985
525.6116267737942
569.688255167652
563.5615783357597
563.521340203767
563.1124457393073
500.2908575357898
500.2941684812074
500.2849689789019
500.1443007761957
506.4334532072864
506.4577545403589
506.2687601073826
503.5541517804155
524.8029012806217
524.8122714410504
524.2330922753728
515.9195092619954
561.5060042248703
561.4735086503516
560.7258916987398
549.6051734085989
499.9999863928105
500.0000006425195
500.0000000015784
500.0000000000001
499.9999748161741
500.0000012282264
500.0000000022549
500.0000000000001
499.9999239573858
500.0000011828183
500.0000000032038
500.000000000001
500.0001608992462
500.000002071442
500.0000000012108
499.9999999999999
500.0000000000016
500.0000000027437
500.0000032086811
500.0012713260858
500.0000000000002
500.0000000027556
500.0000032041069
500.0012664007428
500.0000000000012
500.0000000026513
500.0000030451653
500.0011675364731
500.0000000000001
500.0000000019861
500.0000023994889
500.0007540234398
500.0000000000001
500.0000000000005
500.0000000000001
500.0000000000001
500.0000000012074
500.0000000032048
500.0000000022585
500.000000001586
500.0000020714418
500.000001182809
500.0000012282376
500.000000642516
500.000160899238
499.9999239573788
499.9999748161902
499.9999863928149
)
;

boundaryField
{
    back
    {
        type            empty;
    }
    inlet
    {
        type            zeroGradient;
    }
    front
    {
        type            empty;
    }
    top
    {
        type            zeroGradient;
    }
    outlet
    {
        type            fixedValue;
        value           uniform 500;
    }
    bottom
    {
        type            zeroGradient;
    }
    wall
    {
        type            zeroGradient;
    }
}


// ************************************************************************* //
