/*--------------------------------*- C++ -*----------------------------------*\
  =========                 |
  \\      /  F ield         | OpenFOAM: The Open Source CFD Toolbox
   \\    /   O peration     | Website:  https://openfoam.org
    \\  /    A nd           | Version:  11
     \\/     M anipulation  |
\*---------------------------------------------------------------------------*/
FoamFile
{
    format      ascii;
    class       volScalarField;
    location    "0.2";
    object      p;
}
// * * * * * * * * * * * * * * * * * * * * * * * * * * * * * * * * * * * * * //

dimensions      [0 2 -2 0 0 0 0];

internalField   nonuniform List<scalar> 
5472
(
100.73662
98.676892
96.624464
94.610614
92.647861
90.674687
88.765745
87.007714
85.283007
83.611723
82.071819
80.728717
79.499898
78.285367
77.254897
76.512254
75.911623
75.328218
74.79943
101.25212
99.346797
97.445443
95.572713
93.707616
91.797192
89.967143
88.265821
86.566491
84.89766
83.380186
82.075788
80.82539
79.580169
78.568772
77.828431
77.138322
76.449314
75.945916
101.72177
99.973503
98.217824
96.465473
94.694804
92.894228
91.160784
89.483258
87.803579
86.171062
84.697479
83.397578
82.098017
80.866437
79.893416
79.110668
78.360394
77.668267
77.16704
102.14714
100.52838
98.904923
97.288554
95.634195
93.932247
92.276663
90.646753
89.013628
87.429558
85.996312
84.661417
83.321488
82.150901
81.208049
80.372911
79.564156
78.860993
78.404569
102.50507
101.04151
99.563069
98.04874
96.467645
94.86381
93.31474
91.739696
90.146175
88.626298
87.23883
85.875217
84.546198
83.4296
82.470893
81.579922
80.731583
80.061162
79.638799
102.7976
101.46622
100.1088
98.705697
97.247664
95.776768
94.305865
92.762407
91.218208
89.772361
88.419603
87.036312
85.752867
84.681661
83.702366
82.772592
81.917249
81.285116
80.851289
103.0252
101.81914
100.58995
99.30277
97.9424
96.568474
95.178711
93.709501
92.259419
90.887819
89.530375
88.151949
86.916793
85.862079
84.870876
83.911279
83.079208
82.481809
82.018478
103.23733
102.14248
101.00536
99.799893
98.553663
97.307116
95.995659
94.596614
93.226963
91.903197
90.564899
89.240741
88.076906
87.033511
86.002885
85.024228
84.228596
83.636785
83.155209
103.38229
102.3962
101.36781
100.27165
99.128809
97.962732
96.709022
95.39719
94.128982
92.863523
91.546421
90.278394
89.173265
88.115209
87.068797
86.124963
85.367313
84.765161
84.248774
103.48473
102.60501
101.66695
100.66492
99.632291
98.5606
97.381773
96.161905
94.970756
93.732038
92.456861
91.27448
90.210756
89.140955
88.101654
87.197565
86.471539
85.84565
85.312459
103.56681
102.76561
101.91401
101.00681
100.07182
99.072109
97.969883
96.854366
95.736645
94.542
93.338556
92.231833
91.183046
90.108034
89.096858
88.233119
87.507355
86.871403
86.338057
103.63106
102.91516
102.14084
101.32148
100.4658
99.524593
98.502423
97.480056
96.414826
95.27146
94.152144
93.121944
92.083964
91.025183
90.063856
89.240929
88.515373
87.864454
87.340862
103.65178
103.00651
102.31621
101.59144
100.81331
99.93734
99.001156
98.05762
97.034415
95.951931
94.920241
93.937544
92.90984
91.882543
90.975583
90.183659
89.461977
88.812577
88.299945
103.67898
103.09335
102.46634
101.81366
101.09509
100.28446
99.438799
98.56299
97.591765
96.588334
95.638633
94.686975
93.688772
92.718062
91.836479
91.039883
90.31966
89.706246
89.198993
103.68879
103.17066
102.61542
102.02401
101.35472
100.60662
99.832676
99.0022
98.083932
97.171693
96.279907
95.347511
94.389269
93.517949
92.723921
91.936241
91.216831
90.614195
90.177415
103.67204
103.21307
102.72417
102.19261
101.57804
100.90477
100.19449
99.403031
98.547328
97.71791
96.883948
95.969485
95.020746
94.136289
93.339381
92.606657
91.907809
91.297842
90.787053
103.68386
103.27337
102.82995
102.3343
101.76596
101.15579
100.49916
99.750828
98.964143
98.194451
97.40089
96.570122
95.756193
94.999547
94.240155
93.504413
92.887607
92.356087
91.914721
103.6891
103.32516
102.93063
102.47284
101.95001
101.39221
100.7719
100.07761
99.36372
98.632714
97.830872
96.972845
96.109875
95.279829
94.533959
93.849432
93.208664
92.637722
92.164308
103.70285
103.37938
103.01898
102.59445
102.10991
101.59008
101.00868
100.37119
99.726943
99.057878
98.361091
97.697054
97.044362
96.341897
95.554235
94.891507
94.332464
93.855898
93.445308
103.72776
103.44468
103.12155
102.72957
102.28005
101.77102
101.21293
100.64411
100.03821
99.33357
98.512039
97.656421
96.874151
96.216548
95.568788
94.88488
94.262948
93.738941
93.304394
103.76415
103.5042
103.20878
102.86225
102.45625
101.96737
101.41885
100.89698
100.40157
99.887031
99.352034
98.76264
98.047222
97.303779
96.667268
96.108651
95.58678
95.127693
94.744956
103.82916
103.58967
103.30306
102.98057
102.60882
102.15792
101.64428
101.08518
100.45007
99.747448
99.042471
98.381577
97.750584
97.039636
96.313679
95.663266
95.093863
94.602264
94.187846
103.87654
103.68909
103.43776
103.12057
102.75297
102.33942
101.91539
101.5072
101.0775
100.57128
100.01465
99.42476
98.855852
98.277601
97.692089
97.133663
96.625654
96.170455
95.779079
103.91375
103.76237
103.56771
103.29214
102.93819
102.49857
101.99025
101.44238
100.89438
100.35156
99.655073
98.973749
98.261874
97.551958
96.860735
96.241851
95.70832
95.286112
94.939382
103.98487
103.84516
103.67472
103.45389
103.16137
102.82593
102.45607
102.01895
101.50563
101.10179
100.67724
100.18452
99.806621
99.237542
98.504973
97.930774
97.364884
96.778168
96.316329
104.03497
103.94179
103.79439
103.59796
103.35988
103.02726
102.64653
102.17229
101.41815
100.64559
100.02826
99.36409
98.731066
98.057145
97.464076
96.895261
96.355659
95.935312
95.58615
104.05859
104.0023
103.89975
103.74283
103.49747
103.23786
103.07517
102.73391
102.27792
101.83707
101.37834
100.91207
100.28061
99.484691
98.65574
97.890043
97.22001
96.658113
96.209208
74.518733
74.486697
74.571139
74.676935
74.898615
75.269402
75.714541
76.204708
76.774862
77.376081
77.947872
78.545767
79.160608
79.806155
80.459878
81.121968
81.774149
82.399531
83.028982
75.713081
75.711968
75.773615
75.851323
76.113968
76.558409
77.066154
77.637813
78.299499
78.970685
79.635706
80.339516
81.060919
81.816325
82.591401
83.372419
84.159811
84.960719
85.781435
76.946269
76.919125
76.927875
77.016762
77.347261
77.858353
78.427893
79.079847
79.822862
80.572442
81.341245
82.144414
82.992923
83.871572
84.770174
85.684822
86.639278
87.608482
88.605573
78.161044
78.069053
78.057014
78.190601
78.603618
79.173008
79.799898
80.518875
81.324466
82.138044
82.998715
83.91191
84.876405
85.845283
86.854911
87.906146
88.992853
90.10388
91.259846
79.339062
79.193297
79.188774
79.392368
79.867368
80.466352
81.138629
81.919155
82.776854
83.65927
84.616951
85.62836
86.655229
87.70606
88.815854
89.945301
91.108113
92.314557
93.538682
80.481696
80.308509
80.33536
80.604667
81.110977
81.731758
82.443185
83.295059
84.212698
85.175427
86.209183
87.273771
88.349478
89.480049
90.645735
91.825379
93.047806
94.278374
95.468208
81.604934
81.412111
81.474467
81.800541
82.322002
82.963848
83.731
84.649424
85.618447
86.652543
87.74034
88.84528
89.975857
91.156221
92.335673
93.525774
94.725257
95.883996
96.969479
82.713973
82.515013
82.618483
82.967041
83.485146
84.171267
85.016996
85.978521
86.977648
88.066558
89.191942
90.331207
91.508319
92.699885
93.868631
95.032874
96.151469
97.193214
98.142934
83.781835
83.609875
83.736989
84.078559
84.616056
85.355014
86.258596
87.258796
88.314434
89.439936
90.569759
91.731965
92.903632
94.045233
95.159285
96.233664
97.229179
98.147341
98.964093
84.852133
84.693689
84.821707
85.165311
85.730856
86.508465
87.437953
88.469335
89.576148
90.722642
91.8691
93.033784
94.160862
95.250288
96.287386
97.240376
98.111799
98.896209
99.564136
85.883156
85.718938
85.856555
86.232147
86.839052
87.656417
88.614269
89.6607
90.759095
91.885622
93.02675
94.144779
95.203564
96.219488
97.152726
97.99768
98.75976
99.412216
99.961078
86.893612
86.712918
86.807365
87.193768
87.844004
88.697204
89.713193
90.809723
91.923091
93.038989
94.125745
95.170431
96.16072
97.076331
97.886263
98.603974
99.230554
99.74745
100.18254
87.880085
87.734938
87.875981
88.266861
88.908156
89.741888
90.700349
91.736357
92.830482
93.941106
95.010328
96.007071
96.916205
97.722616
98.43022
99.049589
99.570973
99.9983
100.3479
88.721102
88.512149
88.615463
89.081376
89.827159
90.756731
91.811833
92.899934
93.959559
94.942223
95.870367
96.760918
97.566523
98.266796
98.873066
99.385855
99.80169
100.13559
100.39922
89.782017
89.61516
89.750823
90.126902
90.729057
91.516691
92.431152
93.426916
94.489728
95.534475
96.499427
97.337624
98.050523
98.666558
99.192069
99.625534
99.973686
100.25472
100.47091
90.319669
90.097963
90.255792
90.81315
91.61307
92.625253
93.709083
94.746635
95.662681
96.45826
97.190946
97.884506
98.499744
99.022726
99.455056
99.807684
100.08891
100.3065
100.46469
91.503174
91.343822
91.423518
91.721474
92.311498
93.010658
93.79166
94.651832
95.634095
96.620093
97.480036
98.175019
98.742346
99.2198
99.610602
99.923172
100.17677
100.37272
100.5249
91.692648
91.464241
91.694857
92.336313
93.150521
94.196923
95.285321
96.296302
97.12675
97.719209
98.227892
98.705089
99.137669
99.495141
99.789846
100.03201
100.21215
100.33911
100.43359
93.038208
92.830214
92.839153
93.104964
93.654775
94.258389
94.909472
95.598038
96.402606
97.28619
98.045204
98.639376
99.118952
99.529637
99.863512
100.1132
100.31684
100.48976
100.61247
92.829963
92.652932
92.96234
93.610973
94.421151
95.45744
96.507286
97.483697
98.260942
98.724722
99.065124
99.371165
99.645445
99.86065
100.00621
100.12066
100.21172
100.28125
100.32381
94.350503
94.075947
94.006782
94.230007
94.74081
95.279372
95.829372
96.400473
97.039342
97.722105
98.358152
98.89081
99.332892
99.703058
100.02537
100.31718
100.57097
100.75859
100.84662
93.755734
93.628957
93.975954
94.621837
95.429264
96.399731
97.395122
98.306624
99.010044
99.44787
99.739369
99.972973
100.11639
100.16712
100.16245
100.16277
100.12182
100.0684
100.06163
95.344647
94.972061
94.878351
95.095492
95.607894
96.151457
96.666826
97.167822
97.664943
98.158254
98.660213
99.095977
99.471015
99.84174
100.20923
100.52592
100.86877
101.18145
101.31094
94.561603
94.479171
94.767174
95.413086
96.17859
97.059349
97.965996
98.773527
99.423657
99.92222
100.26459
100.46591
100.55816
100.52622
100.34492
100.12733
99.928279
99.697882
99.567936
95.816702
95.424303
95.422124
95.754865
96.351548
96.978636
97.538228
98.037328
98.463935
98.860634
99.182396
99.432948
99.677863
99.929964
100.25958
100.6752
101.15296
101.63119
102.06949
95.215999
95.138588
95.375606
95.931078
96.695047
97.496848
98.301857
99.000136
99.605516
100.08783
100.40447
100.64415
100.80025
100.81875
100.69434
100.40076
99.91183
99.441618
99.192453
95.750586
95.514816
95.722547
96.309056
97.076971
97.84203
98.516229
99.087986
99.525699
99.864819
100.0927
100.25298
100.33254
100.33762
100.39737
100.51919
100.88376
101.59812
103.29752
83.637058
84.238509
84.846725
85.48025
86.165591
87.000653
87.981483
89.246983
90.996213
93.277108
96.124064
99.580566
103.42502
107.59718
111.91213
115.80607
118.89363
120.96794
121.9369
86.575964
87.339729
88.125925
88.981897
89.948672
91.120004
92.505209
94.218094
96.315102
98.716557
101.45931
104.60208
107.95472
111.43141
114.7979
117.70676
119.98999
121.54505
122.30322
89.588143
90.512496
91.440159
92.433217
93.566409
94.903744
96.4448
98.23479
100.26056
102.46271
104.89017
107.5162
110.20773
112.91883
115.4992
117.75308
119.56112
120.80746
121.42018
92.400354
93.43472
94.427786
95.477151
96.657072
97.993455
99.48748
101.13985
102.92722
104.82226
106.8267
108.88442
110.95103
113.01857
114.98744
116.7426
118.18972
119.20586
119.7193
94.727578
95.776163
96.740715
97.748733
98.861263
100.08943
101.42903
102.86793
104.38761
105.95603
107.55491
109.15412
110.74805
112.32154
113.80596
115.14293
116.26153
117.05474
117.46321
96.587528
97.538418
98.385397
99.272467
100.25017
101.31437
102.46146
103.68199
104.9476
106.23399
107.53051
108.81305
110.07208
111.27509
112.37619
113.35421
114.16878
114.75056
115.05655
97.971981
98.808803
99.533086
100.29002
101.12275
102.0246
102.98725
103.99114
105.02117
106.06973
107.11663
108.14721
109.15029
110.08032
110.91039
111.63772
112.24104
112.68003
112.9169
98.991052
99.684657
100.28364
100.91948
101.62673
102.39139
103.18208
103.9913
104.81867
105.64575
106.4598
107.27283
108.06293
108.78882
109.44176
110.01349
110.48346
110.82505
111.00862
99.670602
100.26064
100.77604
101.3197
101.9227
102.55951
103.20289
103.86224
104.52018
105.16077
105.79885
106.43889
107.04678
107.60475
108.10986
108.54158
108.88363
109.12419
109.25004
100.13073
100.61814
101.05671
101.52392
102.03848
102.56248
103.11576
103.66582
104.19261
104.70638
105.22175
105.71765
106.17407
106.59579
106.97578
107.29441
107.54175
107.71171
107.79888
100.43148
100.84207
101.20846
101.59643
102.00792
102.44867
102.91516
103.34732
103.76011
104.17566
104.5854
104.96331
105.31151
105.63827
105.9316
106.17893
106.37257
106.50581
106.57395
100.55911
100.88043
101.17716
101.49844
101.84279
102.22347
102.58942
102.92688
103.25806
103.59793
103.92208
104.21567
104.49228
104.7497
104.97516
105.16418
105.31245
105.41405
105.46568
100.6338
100.87815
101.12919
101.39918
101.68782
101.9923
102.28129
102.55241
102.82648
103.10505
103.36119
103.59523
103.81832
104.01703
104.18458
104.3231
104.43018
104.50244
104.5389
100.62725
100.84683
101.06168
101.2869
101.52921
101.77893
102.0132
102.23391
102.46034
102.68407
102.88614
103.07526
103.25503
103.40881
103.53927
103.64808
103.73109
103.78682
103.81493
100.6466
100.81702
100.99016
101.17802
101.37948
101.58061
101.76612
101.939
102.12421
102.30351
102.46022
102.61456
102.75829
102.87937
102.98556
103.0744
103.1418
103.18732
103.21029
100.59522
100.73699
100.88314
101.0409
101.20794
101.37022
101.5194
101.65831
101.81149
101.95929
102.08454
102.21358
102.32583
102.42301
102.50919
102.5799
102.63374
102.67028
102.68879
100.63512
100.70673
100.81273
100.94611
101.08192
101.20832
101.32272
101.44535
101.56821
101.67186
101.77628
101.88211
101.96851
102.04676
102.11532
102.17079
102.21327
102.24199
102.25654
100.52175
100.63163
100.73808
100.8452
100.95063
101.05019
101.14222
101.24603
101.34598
101.42759
101.52061
101.60185
101.671
101.73449
101.78885
101.83292
101.86665
101.88945
101.90092
100.68288
100.69426
100.72983
100.79001
100.86462
100.94118
101.02195
101.10285
101.16994
101.23713
101.31154
101.37113
101.42596
101.47582
101.51814
101.55279
101.57928
101.59726
101.60621
100.39871
100.53335
100.64124
100.72379
100.7848
100.83635
100.90055
100.96451
101.01533
101.07561
101.12957
101.17543
101.21886
101.25783
101.29095
101.3182
101.33902
101.35315
101.36019
100.86009
100.79639
100.74671
100.72801
100.73657
100.77203
100.82181
100.86593
100.90257
100.94622
100.98348
101.01787
101.05018
101.07847
101.10266
101.12249
101.13763
101.14786
101.15299
100.15764
100.36239
100.51066
100.614
100.68662
100.73147
100.75867
100.77955
100.80725
100.83574
100.85851
100.88117
100.90367
100.92409
100.94143
100.95546
100.96619
100.97329
100.97685
101.23596
101.03191
100.87832
100.79459
100.75275
100.73435
100.72701
100.72604
100.73559
100.74487
100.75378
100.76562
100.77789
100.78827
100.79707
100.80462
100.81052
100.81445
100.81637
99.658184
99.995005
100.23618
100.38363
100.48052
100.54381
100.58134
100.61132
100.63462
100.64673
100.65696
100.66353
100.66562
100.66634
100.66784
100.66961
100.67121
100.67243
100.6731
102.10462
101.66433
101.28186
101.03937
100.87642
100.76732
100.68848
100.63828
100.60365
100.58321
100.56777
100.55598
100.54853
100.54237
100.53652
100.53173
100.52827
100.52611
100.52516
98.857335
99.189243
99.621393
99.922088
100.09348
100.2172
100.29933
100.35688
100.39005
100.40832
100.42314
100.42663
100.41901
100.40558
100.39261
100.38233
100.37474
100.36981
100.36737
104.69397
103.17198
102.26894
101.7619
101.39053
101.09627
100.86427
100.69423
100.56295
100.45729
100.37222
100.31149
100.27019
100.24302
100.22529
100.21318
100.20489
100.19973
100.19726
121.93632
120.96634
118.8911
115.80046
111.90183
107.58227
103.40675
99.562152
96.106012
93.258138
90.980218
89.236971
87.973975
86.994189
86.164985
85.482447
84.847239
84.241131
83.643105
122.30221
121.5425
119.98688
117.70351
114.79457
111.42858
107.95094
104.5965
101.45322
98.709103
96.303186
94.204596
92.495812
91.112316
89.942097
88.981946
88.129632
87.34019
86.576732
121.41813
120.8014
119.55209
117.7427
115.48873
112.91029
110.20102
107.50833
104.88065
102.45491
100.25451
98.225791
96.433858
94.896092
93.559918
92.42629
91.438696
90.514916
89.586696
119.71727
119.19982
118.18053
116.73206
114.97675
113.00859
110.94142
108.87249
106.81047
104.8044
102.91319
101.12894
99.474682
97.981389
96.651046
95.472684
94.421534
93.434057
92.403178
117.46226
117.05204
116.25763
115.13911
113.8029
112.31884
110.74425
109.1475
107.54518
105.94402
104.37643
102.85989
101.41985
100.07558
98.848501
97.742631
96.735674
95.768476
94.727159
115.05628
114.74992
114.16804
113.3539
112.37604
111.27403
110.06868
108.80642
107.52272
106.22737
104.94168
103.677
102.45735
101.30663
100.23718
99.261486
98.379865
97.532154
96.578975
112.91654
112.67901
112.23934
111.63542
110.90693
110.07476
109.14249
108.13779
107.10716
106.0625
105.01611
103.98524
102.98092
102.01909
101.11308
100.27712
99.523666
98.801602
97.965092
111.00814
110.82365
110.48104
110.00993
109.43681
108.78212
108.05478
107.26483
106.45302
105.63928
104.81222
103.98387
103.17287
102.38357
101.6188
100.90656
100.27261
99.676664
98.97967
109.24975
109.12334
108.88219
108.53942
108.10683
107.60091
107.04244
106.43486
105.79611
105.15781
104.5146
103.85482
103.19538
102.55005
101.91564
101.30775
100.76027
100.24773
99.66524
107.79875
107.71132
107.54102
107.2933
106.97405
106.59353
106.17191
105.71565
105.21948
104.70315
104.18643
103.65699
103.10993
102.55816
102.03258
101.51611
101.04428
100.6001
100.11548
106.57378
106.50532
106.37173
106.17766
105.92976
105.63573
105.30866
104.96056
104.58166
104.17012
103.75258
103.33772
102.90704
102.45078
102.0086
101.591
101.1956
100.82074
100.41368
105.46545
105.41333
105.31126
105.16245
104.9729
104.74674
104.48857
104.21174
103.91775
103.59205
103.25111
102.91945
102.58285
102.22406
101.84927
101.50215
101.17207
100.85836
100.52308
104.53867
104.50178
104.42904
104.3215
104.18253
104.01456
103.81529
103.59181
103.35802
103.10158
102.82213
102.54789
102.2775
101.99187
101.69502
101.40914
101.1317
100.87055
100.61035
103.81476
103.78638
103.73033
103.64705
103.53792
103.40725
103.25321
103.07311
102.88448
102.68164
102.45768
102.2315
102.01055
101.77762
101.53138
101.29333
101.06246
100.83175
100.60076
103.21022
103.18706
103.14141
103.07384
102.98488
102.8786
102.7575
102.6127
102.45856
102.30287
102.12404
101.93838
101.76465
101.58021
101.38142
101.18346
100.99495
100.81104
100.63651
102.68876
102.67013
102.63354
102.57963
102.5089
102.42272
102.3257
102.21286
102.08352
101.95921
101.81202
101.65923
101.51974
101.37121
101.21124
101.04755
100.8932
100.73935
100.58028
102.25653
102.24198
102.21323
102.17079
102.11535
102.04691
101.96881
101.88262
101.77645
101.67261
101.56938
101.4469
101.32425
101.21041
101.08575
100.95186
100.82099
100.71335
100.62414
101.90094
101.88954
101.86677
101.83313
101.78913
101.7349
101.67156
101.60264
101.52135
101.42921
101.34811
101.24818
101.14473
101.0532
100.9549
100.85163
100.74762
100.63914
100.52089
101.60623
101.59733
101.57942
101.55301
101.51846
101.47623
101.42647
101.37179
101.31235
101.23798
101.17136
101.10455
101.02409
100.94355
100.8673
100.79401
100.73731
100.70295
100.68697
101.3602
101.35316
101.33906
101.31824
101.29105
101.25796
101.21907
101.17569
101.12989
101.07586
101.01619
100.96579
100.90257
100.83984
100.78863
100.72627
100.64391
100.53827
100.40554
101.15295
101.14775
101.13747
101.12228
101.10243
101.07819
101.04982
101.01736
100.98285
100.94562
100.90201
100.8654
100.82122
100.77168
100.73701
100.72871
100.74687
100.79699
100.86466
100.97676
100.97303
100.96576
100.95485
100.94065
100.92319
100.9027
100.88016
100.85745
100.83465
100.80617
100.77907
100.75828
100.73076
100.68553
100.61278
100.50824
100.35831
100.157
100.81625
100.81408
100.8099
100.80376
100.79603
100.78716
100.77688
100.76492
100.75347
100.74488
100.73588
100.72655
100.72738
100.73474
100.75327
100.79537
100.87964
101.03386
101.24061
100.673
100.67215
100.67081
100.66914
100.66738
100.66601
100.66555
100.66382
100.65752
100.64749
100.63553
100.61203
100.58229
100.54454
100.48084
100.38342
100.23494
99.992219
99.65503
100.52514
100.52606
100.52822
100.53176
100.53669
100.54275
100.54923
100.557
100.56902
100.58455
100.60517
100.63973
100.69009
100.76923
100.87868
101.04223
101.28556
101.66881
102.11037
100.36747
100.37012
100.37526
100.38305
100.39352
100.40663
100.42007
100.42758
100.42389
100.40899
100.39059
100.35716
100.2993
100.21705
100.09293
99.921086
99.620823
99.189481
98.856982
100.19744
100.20029
100.20581
100.21441
100.22676
100.24464
100.27184
100.31314
100.37388
100.45897
100.56471
100.69616
100.86639
101.0987
101.3927
101.76471
102.27487
103.17458
104.67798
83.034893
82.40475
81.780879
81.130756
80.469999
79.81563
79.170082
78.5553
77.954486
77.382493
76.778119
76.20611
75.719407
75.275134
74.904535
74.672332
74.546784
74.476897
74.543742
85.786082
84.963959
84.162684
83.379034
82.598656
81.824231
81.071375
80.348765
79.640838
78.976897
78.305988
77.642356
77.071932
76.565884
76.123444
75.849564
75.746578
75.693093
75.733933
88.606643
87.615055
86.643121
85.688844
84.777397
83.877599
83.00168
82.157643
81.350634
80.578423
79.827216
79.080008
78.427206
77.863549
77.364114
77.027558
76.904724
76.887995
76.951834
91.258049
90.106093
89.00103
87.911676
86.859437
85.851617
84.883312
83.922323
83.010582
82.147711
81.330887
80.521129
79.793844
79.164518
78.609742
78.206963
78.050785
78.043489
78.151891
93.544606
92.314878
91.112273
89.952012
88.82025
87.711965
86.660898
85.63729
84.628909
83.670488
82.785205
81.922783
81.1384
80.45709
79.859901
79.395873
79.192059
79.182943
79.324747
95.466049
94.280724
93.050119
91.83126
90.650753
89.485023
88.353283
87.280354
86.221887
85.18707
84.223932
83.301872
82.445383
81.725913
81.098734
80.598698
80.334276
80.308084
80.474582
96.965447
95.884771
94.724728
93.527006
92.337805
91.164247
89.982844
88.845766
87.748449
86.66534
85.630576
84.659149
83.735825
82.965019
82.309232
81.786296
81.469492
81.415888
81.606391
98.135515
97.191865
96.15215
95.039924
93.865909
92.698323
91.518907
90.337802
89.196076
88.07258
86.987824
85.991761
85.023836
84.175236
83.474498
82.949622
82.611291
82.517848
82.720341
98.959555
98.140395
97.222859
96.241295
95.167022
94.04419
92.904375
91.736664
90.581419
89.446754
88.316992
87.268397
86.266272
85.363746
84.612885
84.058502
83.72528
83.61288
83.790879
99.558795
98.892751
98.102829
97.240003
96.292137
95.256168
94.167095
93.031243
91.87382
90.735156
89.583375
88.476396
87.443488
86.51259
85.734227
85.149321
84.806682
84.69378
84.861904
99.955348
99.414205
98.756588
97.997737
97.154385
96.220353
95.214186
94.150531
93.027585
91.892918
90.765922
89.667006
88.623185
87.659294
86.838422
86.220913
85.842775
85.717538
85.892013
100.16386
99.748807
99.232484
98.608083
97.889015
97.073751
96.162807
95.176576
94.128745
93.042971
91.932743
90.815178
89.719171
88.703988
87.843581
87.184718
86.796507
86.711046
86.901283
100.33344
99.994962
99.570471
99.050561
98.432803
97.723725
96.916156
96.011371
95.015727
93.944608
92.838155
91.745344
90.706015
89.747921
88.908567
88.259456
87.862912
87.732457
87.887419
100.37614
100.12286
99.797834
99.386863
98.876252
98.271098
97.568564
96.763221
95.873108
94.940025
93.961219
92.907965
91.817935
90.762212
89.826924
89.073772
88.609158
88.513356
88.726983
100.46332
100.25268
99.974105
99.627377
99.194598
98.670052
98.05194
97.338117
96.505026
95.542081
94.494842
93.433822
92.437942
91.523851
90.731086
90.124072
89.741299
89.609654
89.783496
100.44262
100.296
100.0863
99.807461
99.455337
99.024369
98.50128
97.884949
97.189887
96.45563
95.661514
94.751744
93.711109
92.626882
91.613298
90.807226
90.250772
90.100695
90.324625
100.51458
100.36998
100.17421
99.921478
99.609821
99.2204
98.742907
98.175597
97.483402
96.629165
95.643088
94.66113
93.802197
93.018177
92.311598
91.719018
91.420692
91.339177
91.499116
100.42654
100.33236
100.20858
100.03052
99.789179
99.496309
99.138324
98.704655
98.222513
97.7116
97.118824
96.294759
95.285292
94.199349
93.1539
92.33414
91.689355
91.464064
91.691411
100.60911
100.49125
100.32545
100.11636
99.864555
99.530504
99.12037
98.6425
98.04899
97.294008
96.417062
95.611621
94.920884
94.265117
93.654594
93.102632
92.84008
92.82883
93.027358
100.32596
100.27906
100.20978
100.12177
100.00573
99.861706
99.64507
99.370842
99.062558
98.714962
98.241661
97.471602
96.506918
95.46189
94.426241
93.614613
92.959697
92.64413
92.818792
100.84986
100.76021
100.57557
100.32026
100.02761
99.706166
99.336695
98.89648
98.367569
97.739066
97.058203
96.407455
95.832033
95.282297
94.743061
94.23148
94.009277
94.075555
94.348307
100.06198
100.0635
100.11493
100.15617
100.16069
100.16427
100.11363
99.968238
99.732657
99.437052
98.99875
98.304666
97.395738
96.401365
95.432592
94.629906
93.974546
93.623319
93.755456
101.31627
101.1861
100.87163
100.52615
100.21107
99.844876
99.474931
99.101354
98.665878
98.164708
97.671193
97.169598
96.666968
96.152668
95.610207
95.09926
94.88498
94.971415
95.348079
99.564769
99.692403
99.921838
100.12151
100.33941
100.52084
100.55503
100.46413
100.26427
99.921421
99.422386
98.775013
97.967516
97.057962
96.176169
95.411935
94.77775
94.483179
94.56229
102.0756
101.63714
101.15766
100.67953
100.26416
99.933128
99.679662
99.43413
99.18304
98.860735
98.463761
98.037665
97.540119
96.981592
96.353271
95.754796
95.423364
95.423553
95.807118
99.189868
99.437561
99.905316
100.39469
100.68941
100.8156
100.79967
100.64539
100.40633
100.0902
99.606284
98.999114
98.301384
97.498824
96.694526
95.923873
95.376344
95.153503
95.234149
103.30375
101.60772
100.8886
100.52165
100.39762
100.33653
100.33105
100.25105
100.09209
99.865518
99.52817
99.089261
98.514884
97.843223
97.081833
96.307593
95.717067
95.516582
95.73045
74.813652
75.322333
75.909416
76.518328
77.267002
78.300721
79.513862
80.74464
82.100047
83.646205
85.30639
87.027085
88.788214
90.687863
92.658431
94.609869
96.606156
98.659363
100.71188
75.971102
76.449696
77.131348
77.83241
78.581558
79.59936
80.841966
82.092142
83.411513
84.939396
86.591547
88.283664
89.993957
91.814102
93.717662
95.575811
97.43292
99.332541
101.23574
77.196697
77.680295
78.351073
79.108427
79.908983
80.888315
82.118508
83.419141
84.729992
86.212558
87.830821
89.503962
91.187324
92.91336
94.709059
96.476431
98.214251
99.962628
101.71043
78.426281
78.886374
79.557346
80.360902
81.22127
82.174512
83.345926
84.68961
86.032207
87.468049
89.044508
90.669904
92.304019
93.955874
95.650631
97.305135
98.909962
100.52308
102.14292
79.647899
80.090159
80.737627
81.565274
82.474387
83.452018
84.577597
85.908308
87.273215
88.664462
90.184072
91.764945
93.338708
94.892187
96.492297
98.072557
99.576755
101.03642
102.50327
80.847398
81.304406
81.934578
82.762549
83.697571
84.700699
85.788788
87.074583
88.455737
89.808437
91.25574
92.791988
94.332963
95.810734
97.279037
98.732958
100.12874
101.47295
102.80245
82.011625
82.488031
83.098809
83.914767
84.864997
85.874586
86.951802
88.192757
89.570502
90.921286
92.295579
93.747089
95.209799
96.604424
97.982441
99.339623
100.61827
101.82859
103.03533
83.152788
83.635357
84.241989
85.032955
86.001375
87.046041
88.111329
89.278603
90.60597
91.943244
93.265157
94.635565
96.03379
97.352277
98.5987
99.833528
101.03855
102.17365
103.25923
84.248342
84.761765
85.373799
86.138498
87.07359
88.123108
89.205648
90.320439
91.587523
92.904053
94.168519
95.443588
96.754317
98.006108
99.175876
100.31384
101.40673
102.42917
103.41416
85.315076
85.842215
86.469707
87.209159
88.116569
89.152024
90.237074
91.31613
92.501043
93.777706
95.013319
96.210064
97.434073
98.607877
99.678114
100.70474
101.70702
102.65283
103.52682
86.34177
86.869754
87.504863
88.238743
89.11423
90.125304
91.209622
92.273796
93.382661
94.591146
95.785606
96.904878
98.023158
99.117198
100.11533
101.04942
101.95312
102.80962
103.6142
87.344402
87.863751
88.514287
89.243954
90.080798
91.047983
92.11117
93.164243
94.199357
95.321573
96.467087
97.530107
98.554959
99.570959
100.50588
101.3611
102.17772
102.9594
103.68018
88.302921
88.810211
89.460288
90.185639
90.990145
91.909404
92.940709
93.980343
94.969787
96.003295
97.089676
98.108551
99.050634
99.981603
100.8489
101.62803
102.35048
103.04393
103.6933
89.199708
89.701591
90.320211
91.047004
91.852305
92.746157
93.723489
94.732984
95.69208
96.640147
97.645589
98.611875
99.481085
100.32366
101.12557
101.84501
102.49697
103.12345
103.71528
90.177493
90.611447
91.215358
91.942779
92.737915
93.543569
94.427462
95.398424
96.337222
97.220322
98.131173
99.045869
99.867738
100.6402
101.38282
102.05197
102.64338
103.19517
103.71662
90.788702
91.293844
91.90543
92.611259
93.360372
94.175046
95.068431
96.02114
96.935263
97.760959
98.585656
99.440105
100.22511
100.93367
101.60351
102.21634
102.74855
103.23242
103.69134
91.903422
92.347003
92.890293
93.517929
94.270485
95.03959
95.800678
96.610769
97.439811
98.233403
98.994662
99.780716
100.52659
101.18041
101.78888
102.35384
102.84914
103.28833
103.69849
92.162034
92.641362
93.225036
93.87119
94.560196
95.314973
96.147498
97.011253
97.86397
98.663154
99.391604
100.10301
100.79657
101.41436
101.97043
102.48951
102.9467
103.33763
103.70073
93.436743
93.858787
94.355747
94.927049
95.586935
96.374494
97.067036
97.719196
98.387528
99.083053
99.752456
100.39385
101.03151
101.6096
102.12709
102.60832
103.03117
103.38916
103.71135
93.315176
93.755614
94.28941
94.91498
95.590938
96.239777
96.901305
97.67613
98.535666
99.353278
100.06081
100.66631
101.23217
101.7881
102.29432
102.74141
103.13185
103.45342
103.73345
94.749684
95.143667
95.602077
96.132555
96.691877
97.319948
98.056777
98.760022
99.371055
99.909257
100.42394
100.91741
101.43594
101.98236
102.46858
102.87308
103.21774
103.51122