/*--------------------------------*- C++ -*----------------------------------*\
  =========                 |
  \\      /  F ield         | OpenFOAM: The Open Source CFD Toolbox
   \\    /   O peration     | Website:  https://openfoam.org
    \\  /    A nd           | Version:  11
     \\/     M anipulation  |
\*---------------------------------------------------------------------------*/
FoamFile
{
    format      ascii;
    class       volVectorField;
    location    "14.4";
    object      U;
}
// * * * * * * * * * * * * * * * * * * * * * * * * * * * * * * * * * * * * * //

dimensions      [0 1 -1 0 0 0 0];

internalField   nonuniform List<vector> 
4455
(
(9.9983897 0.0027973321 0)
(9.9889987 0.0029383988 -1.4704178e-19)
(9.9693816 0.0093976184 5.0472813e-19)
(9.9423865 0.0058397883 1.0113534e-21)
(9.8941541 0.017715517 4.735022e-19)
(9.8450722 0.011869704 -1.7796884e-18)
(9.7527018 0.036876048 7.905499e-19)
(9.6608208 0.013213657 0)
(9.5112116 0.067480233 -4.7498797e-18)
(10.000584 0.0065947925 -9.6123771e-19)
(9.9904682 0.01269815 9.3645573e-19)
(9.9683163 0.023087687 -1.1510812e-18)
(9.9405508 0.022203988 1.9157337e-18)
(9.8901505 0.033672012 -3.6679125e-18)
(9.8370272 0.024391792 3.9928583e-18)
(9.7341964 0.037099919 -3.7866211e-19)
(9.6455242 0.010050588 5.5264123e-19)
(9.467627 -0.0093062251 2.0607075e-17)
(10.001392 0.010319926 -1.0063336e-18)
(9.9921142 0.022025395 1.270935e-18)
(9.9684976 0.038021404 1.1265046e-18)
(9.9401195 0.040222982 -1.1198891e-18)
(9.8882441 0.056913879 4.893947e-18)
(9.8338214 0.050663208 -2.7513118e-18)
(9.7327755 0.071115174 3.5550776e-19)
(9.6244995 0.015304946 -7.7783344e-18)
(9.4501767 0.055159347 -1.4566457e-17)
(10.002014 0.013833272 2.3625381e-21)
(9.9935901 0.029818049 -1.4085635e-19)
(9.9696009 0.053110256 2.6745321e-18)
(9.940029 0.057097092 3.648537e-19)
(9.8912271 0.082521956 1.144101e-22)
(9.8295895 0.073903248 -5.2939352e-19)
(9.7242136 0.1158515 5.8389408e-18)
(9.6059464 0.042577067 1.5550284e-17)
(9.4106236 0.10452093 1.2083934e-17)
(10.004401 0.018150461 1.9464889e-18)
(9.9943442 0.035620571 -2.176259e-18)
(9.9721869 0.067425576 2.7691799e-18)
(9.9407869 0.073474173 1.1226743e-21)
(9.8947537 0.10765401 -3.3567658e-18)
(9.8292817 0.096905571 -1.0255359e-18)
(9.71749 0.13998828 -4.6018358e-18)
(9.5886869 0.061987124 -7.3159922e-18)
(9.3642997 0.14018477 -3.5644963e-17)
(10.005383 0.020310099 0)
(9.9965811 0.042327984 0)
(9.9750312 0.078926038 -4.8269324e-18)
(9.9437624 0.089935032 -5.5455185e-18)
(9.90023 0.13087454 0)
(9.832194 0.12842494 -7.4272342e-18)
(9.7107019 0.18274554 -6.2781093e-19)
(9.5633576 0.097083297 -4.3510021e-19)
(9.3166303 0.19097718 4.3998006e-17)
(10.008477 0.022803192 0)
(9.9964614 0.046392621 -1.3097437e-19)
(9.9798259 0.09047414 1.4741726e-19)
(9.9476038 0.10354328 5.4201934e-18)
(9.9052759 0.14975357 -3.9799387e-19)
(9.8356851 0.14818 1.5818576e-17)
(9.714675 0.21002014 0)
(9.5495371 0.12474189 0)
(9.2620363 0.25050612 2.0160377e-17)
(10.010193 0.023743056 3.68697e-18)
(9.9988014 0.050335645 0)
(9.9824085 0.098827486 0)
(9.9554494 0.12050224 0)
(9.9142276 0.17353934 0)
(9.8408569 0.18077247 -7.897657e-18)
(9.7094552 0.25289884 -8.4270808e-18)
(9.5306564 0.16618943 1.2073841e-17)
(9.2116472 0.31121997 1.1704082e-19)
(10.012276 0.024315958 -3.630559e-18)
(10.000543 0.052294164 -1.2613857e-19)
(9.986552 0.1039736 -1.4221287e-19)
(9.9592794 0.12796358 3.2252279e-19)
(9.924636 0.18700353 1.2399828e-17)
(9.8514259 0.19801389 1.3939126e-17)
(9.7212093 0.28280098 2.6853644e-17)
(9.5150521 0.20386453 -1.1859002e-17)
(9.152886 0.38353892 -3.4736477e-17)
(10.01307 0.023754599 0)
(10.014065 0.022833479 6.7540404e-18)
(10.014002 0.021337867 -6.6992218e-18)
(10.013378 0.019000602 6.423583e-18)
(10.013139 0.016461565 -6.2786893e-18)
(10.011262 0.013081207 1.2545374e-17)
(10.009983 0.010220654 -1.2179083e-17)
(10.007719 0.0058702078 0)
(10.003589 0.002277362 0)
(10.003575 0.054866855 0)
(10.005222 0.05432653 1.1683202e-19)
(10.008401 0.053450055 0)
(10.009874 0.051401161 3.324097e-19)
(10.01199 0.048706036 6.7913391e-18)
(10.014703 0.044602499 -2.0290799e-17)
(10.014694 0.03990884 1.3138005e-17)
(10.018854 0.034871222 -2.0032387e-19)
(10.015515 0.023325705 1.2698198e-17)
(9.9917628 0.11147069 8.4703261e-18)
(9.997127 0.11601943 -1.6695309e-17)
(10.002586 0.11821971 1.5948843e-17)
(10.009611 0.11759727 -4.9761213e-19)
(10.013404 0.115249 -7.5308716e-18)
(10.021991 0.11205986 -2.289723e-19)
(10.023909 0.10463368 0)
(10.033763 0.099544589 4.332531e-19)
(10.033165 0.081739566 -2.1090071e-19)
(9.9682949 0.14164399 8.8260512e-18)
(9.977021 0.15216397 -1.7933024e-17)
(9.9853276 0.15955641 1.7070924e-17)
(9.9976569 0.16515437 -8.2735224e-18)
(10.004905 0.16596311 -5.1780886e-19)
(10.01913 0.16866969 2.502623e-19)
(10.025761 0.16388261 0)
(10.042532 0.16286773 -2.3583617e-19)
(10.044812 0.14677049 1.42142e-17)
(9.932052 0.20846369 -9.9579694e-18)
(9.9493689 0.22843381 0)
(9.9567552 0.24305493 -9.2243049e-18)
(9.9767376 0.25780211 9.5118562e-18)
(9.9853092 0.26535523 -8.5969574e-18)
(10.006924 0.27545262 8.8839816e-18)
(10.016794 0.27623019 0)
(10.040385 0.2829763 0)
(10.047796 0.26854028 5.0279216e-19)
(9.8574925 0.22704952 -1.2160429e-17)
(9.8750925 0.26003343 -1.163574e-17)
(9.8842506 0.28330043 1.1185287e-17)
(9.9053515 0.3139048 1.0727866e-17)
(9.9196095 0.32932176 -1.0342402e-17)
(9.9438621 0.35738042 0)
(9.9630107 0.36292724 1.9164236e-17)
(9.9896318 0.38943713 -4.4542912e-20)
(10.007787 0.37934144 -3.5784452e-17)
(9.7187509 0.32016794 -1.4227413e-17)
(9.7384344 0.37908171 0)
(9.7477567 0.40553996 0)
(9.774378 0.45913129 3.8996183e-19)
(9.7960022 0.47837489 0)
(9.8281715 0.53191508 0)
(9.857787 0.54326768 0)
(9.893087 0.59316328 0)
(9.9210002 0.59133413 0)
(9.5030612 0.25132973 5.4454755e-19)
(9.4843101 0.34863326 0)
(9.4924809 0.40953889 4.8846971e-19)
(9.492651 0.51407569 -9.1630582e-19)
(9.5300431 0.56343843 -1.3887201e-17)
(9.5535304 0.65685455 -1.3180818e-17)
(9.6059884 0.68927875 2.5302283e-17)
(9.6448474 0.77261147 2.4467586e-17)
(9.7008844 0.78124547 -2.3146708e-17)
(9.0836371 0.46238309 6.509494e-17)
(9.0066397 0.67882959 -4.0349583e-17)
(9.008772 0.80925545 3.7486114e-17)
(9.0456661 1.0310478 -3.5399019e-17)
(9.1245312 1.1248037 -5.0374337e-17)
(9.2090259 1.3021733 9.4827004e-17)
(9.3049391 1.3551731 -5.9911239e-17)
(9.4022863 1.495868 -2.8574532e-17)
(9.4911194 1.5062478 2.6863267e-17)
(10.00508 0.0027909291 -1.674072e-20)
(10.008155 0.004001357 1.7191728e-17)
(10.012998 0.0059377281 -6.0488104e-21)
(10.019265 0.0081187325 -1.7318356e-17)
(10.026833 0.010381358 1.6950086e-20)
(10.035919 0.012706243 1.7424131e-17)
(10.04659 0.015155123 -1.7509168e-17)
(10.059026 0.017665911 -1.7100834e-20)
(10.074406 0.021153291 -8.8073914e-18)
(10.023011 0.026472709 -1.8220604e-17)
(10.027647 0.036730891 1.8335667e-17)
(10.039651 0.037905492 -1.8340748e-17)
(10.047238 0.051146531 0)
(10.063141 0.051169493 1.8500249e-17)
(10.073862 0.066970137 1.5707176e-20)
(10.093419 0.065486444 3.1502338e-20)
(10.107556 0.08361541 -1.8614744e-17)
(10.131413 0.080221658 9.3650407e-18)
(10.045671 0.088698875 1.9432425e-17)
(10.049374 0.1050765 -1.9491738e-17)
(10.065352 0.1098817 -1.9624717e-17)
(10.070469 0.12789772 1.9671219e-17)
(10.089127 0.13251055 -1.9836279e-17)
(10.096341 0.15339631 1.9769013e-17)
(10.118838 0.15776446 -1.9965838e-17)
(10.128675 0.18225274 -1.2059889e-20)
(10.155647 0.18577079 1.9999719e-17)
(10.064078 0.15905997 -2.0765756e-17)
(10.066885 0.18351326 -8.1696845e-20)
(10.087669 0.19327344 8.2178023e-20)
(10.090582 0.21832753 0)
(10.113881 0.22801235 -1.6538856e-22)
(10.119151 0.25660648 -2.1136101e-17)
(10.146862 0.26615973 2.1486393e-17)
(10.155097 0.29906898 8.3638812e-20)
(10.187854 0.30751824 8.3907558e-20)
(10.0705 0.28613123 -8.7683001e-20)
(10.071583 0.31628128 -2.2576659e-17)
(10.093253 0.33073771 -6.9404448e-20)
(10.092561 0.35951038 2.2782407e-17)
(10.116943 0.37368567 2.29408e-17)
(10.119039 0.40661351 -2.3057673e-17)
(10.148572 0.4206855 -8.9861277e-20)
(10.153791 0.45830722 -9.018668e-20)
(10.188739 0.47101337 -9.051189e-20)
(10.039394 0.406325 2.4467168e-17)
(10.038133 0.44740003 0)
(10.065587 0.46879471 0)
(10.061711 0.50743269 2.4666316e-17)
(10.092392 0.52782027 -2.4996615e-17)
(10.092383 0.57080404 -2.5066017e-17)
(10.128824 0.5905066 5.0172185e-17)
(10.132564 0.63773688 -4.4747653e-20)
(10.174302 0.65518311 -5.0559966e-17)
(9.9550026 0.63389491 -1.0569359e-19)
(9.9588933 0.68020583 0)
(9.9830146 0.70881892 1.0649107e-19)
(9.9859647 0.74767486 2.7356732e-17)
(10.015144 0.77453997 -2.7522102e-17)
(10.024844 0.81214523 2.7594477e-17)
(10.059721 0.83744082 -2.7654337e-17)
(10.074252 0.8721662 -1.0830491e-19)
(10.111731 0.89377993 2.7828689e-17)
(9.7457209 0.84823763 -2.9739508e-17)
(9.7882628 0.90305409 3.015292e-17)
(9.8284782 0.95017753 -3.027372e-17)
(9.8738011 0.99455242 3.0118363e-17)
(9.9189319 1.0336629 -2.998771e-17)
(9.969001 1.0707148 -5.6522164e-21)
(10.017489 1.1020772 3.0396206e-17)
(10.068495 1.1304291 2.3823525e-19)
(10.113971 1.1508346 1.518298e-17)
(9.5881548 1.6131821 0)
(9.6416198 1.6424613 -3.3387793e-17)
(9.736077 1.7227812 1.8885358e-19)
(9.7905379 1.7273523 3.148281e-19)
(9.8890748 1.7776108 6.7038716e-17)
(9.9399546 1.7427166 -3.3548495e-17)
(10.04827 1.7440527 -3.3571245e-17)
(10.111195 1.637167 3.3697798e-17)
(10.219787 1.5717161 1.6924228e-17)
(10.276052 1.3987737 -1.9782872e-17)
(10.307426 1.3102419 0)
(10.327974 1.1955948 1.9693458e-17)
(10.300325 1.1480681 -1.9687443e-17)
(10.257448 1.038839 0)
(10.18731 1.0103101 0)
(10.112448 0.90390708 0)
(10.029288 0.89914825 -2.0191573e-17)
(9.9415515 0.80954097 2.0191625e-17)
(10.154683 1.1657663 -1.7295448e-17)
(10.186999 1.1858638 0)
(10.216651 1.1875607 0)
(10.234332 1.1925219 0)
(10.249817 1.1888107 0)
(10.252684 1.1933412 0)
(10.247807 1.1940661 0)
(10.237988 1.2037381 1.7124434e-17)
(10.214082 1.2026064 -3.4330766e-17)
(10.126526 0.9223562 -5.6689846e-20)
(10.160035 0.94950671 -3.0552138e-17)
(10.171871 0.97261447 0)
(10.203489 0.99819 -1.5199094e-17)
(10.211283 1.0194722 1.5199089e-17)
(10.238924 1.042275 0)
(10.240744 1.0626783 0)
(10.263398 1.0859351 0)
(10.257382 1.1081394 0)
(10.177237 0.70188523 2.7184617e-17)
(10.220426 0.72664131 0)
(10.223743 0.7717907 1.3516829e-17)
(10.26711 0.79565615 -2.7008359e-17)
(10.270355 0.8405583 1.3491246e-17)
(10.313792 0.86458016 0)
(10.315878 0.90999208 0)
(10.359461 0.93567465 0)
(10.359046 0.98246245 1.3366503e-17)
(10.194458 0.51185768 0)
(10.23269 0.52750282 2.4428301e-17)
(10.23935 0.57046093 -3.6620507e-17)
(10.280346 0.58614638 1.2191941e-17)
(10.288036 0.6310812 1.2144137e-17)
(10.33188 0.6474199 -2.5318957e-20)
(10.340172 0.69485025 -2.421109e-17)
(10.387229 0.71263499 2.4157562e-17)
(10.395498 0.76313194 -1.2065022e-17)
(10.197656 0.34428403 0)
(10.234807 0.35432241 1.1111807e-17)
(10.246742 0.3943559 -1.1111951e-17)
(10.288056 0.40399022 0)
(10.302183 0.44707808 -2.208137e-17)
(10.347617 0.45656439 2.2081413e-17)
(10.363813 0.5030122 1.0985826e-17)
(10.413729 0.51269716 -2.1941966e-17)
(10.431811 0.56297463 1.0956057e-17)
(10.167422 0.21394728 0)
(10.198798 0.21817948 0)
(10.213152 0.250049 0)
(10.24924 0.25375815 -1.0187321e-17)
(10.266456 0.28942006 2.0352378e-17)
(10.307525 0.29259585 -2.0306256e-17)
(10.327769 0.3323423 1.0141134e-17)
(10.374341 0.33507015 -1.0087905e-17)
(10.39775 0.37940571 2.0146263e-17)
(10.148286 0.10104001 -1.8980548e-17)
(10.176885 0.097136455 1.7276507e-20)
(10.197244 0.12177888 9.4652743e-18)
(10.230188 0.11640773 -9.4264688e-18)
(10.25437 0.1440905 9.4264314e-18)
(10.291963 0.13680216 0)
(10.320241 0.16759713 9.3557986e-18)
(10.363389 0.15837579 -1.868427e-17)
(10.396187 0.19311889 9.328477e-18)
(10.08389 0.026314198 1.2228186e-20)
(10.10717 0.026372997 8.8637377e-18)
(10.122301 0.038302304 8.8382332e-18)
(10.152547 0.03791814 -8.838234e-18)
(10.169866 0.049044489 0)
(10.205022 0.048544372 0)
(10.22579 0.060000567 -8.7668536e-18)
(10.267941 0.060222566 1.7511118e-17)
(10.294135 0.072475359 -8.7444391e-18)
(10.343156 0.073804912 0)
(10.376043 0.086631383 -8.6629706e-18)
(10.432013 0.089028931 3.2095715e-20)
(10.472138 0.10251676 3.4842136e-20)
(10.535875 0.1058595 3.7784333e-20)
(10.584192 0.12001988 8.5582481e-18)
(10.65657 0.12492158 8.4728402e-18)
(10.714336 0.13991089 -8.4728408e-18)
(10.796813 0.14631479 0)
(10.445647 0.18199893 0)
(10.483297 0.22133959 0)
(10.53966 0.20832456 -9.1972445e-18)
(10.582452 0.25281047 3.8921205e-20)
(10.646477 0.23793004 4.1660418e-20)
(10.694848 0.28832528 9.1166061e-18)
(10.767583 0.2716043 9.0241827e-18)
(10.822133 0.32890305 -9.024149e-18)
(10.904803 0.3103198 0)
(10.450427 0.38186765 -1.0058394e-17)
(10.47712 0.43142626 0)
(10.53654 0.43384609 0)
(10.566682 0.48936384 -9.9186422e-18)
(10.633624 0.49198329 1.9796209e-17)
(10.667513 0.55439531 -4.3829217e-20)
(10.742967 0.55742189 -4.6870173e-20)
(10.781127 0.62789292 -9.7867869e-18)
(10.866328 0.63139337 0)
(10.486632 0.57333323 -1.089173e-17)
(10.506341 0.62804291 1.089167e-17)
(10.566554 0.63968037 0)
(10.587666 0.69967041 0)
(10.653944 0.71325849 1.0741357e-17)
(10.676411 0.77973057 -1.0741287e-17)
(10.749744 0.79588735 1.0653199e-17)
(10.773823 0.87040163 -5.3505814e-18)
(10.855581 0.88955742 -5.3024954e-18)
(10.446013 0.78334166 -1.2007627e-17)
(10.453546 0.83766769 1.2007506e-17)
(10.507823 0.86142691 0)
(10.513999 0.9207996 0)
(10.572669 0.9492303 0)
(10.577139 1.0154317 0)
(10.641377 1.0494834 0)
(10.644191 1.1247214 0)
(10.715733 1.1650559 0)
(10.402749 1.011573 -1.3366498e-17)
(10.398429 1.0606935 1.3320088e-17)
(10.442313 1.0953675 -1.3319722e-17)
(10.433045 1.1483794 1.3276103e-17)
(10.477784 1.1902764 -1.3275474e-17)
(10.462956 1.2497433 0)
(10.51038 1.2999198 0)
(10.489917 1.3689379 0)
(10.542737 1.4283114 0)
(10.27479 1.1360925 0)
(10.25953 1.161402 -1.5115485e-17)
(10.273656 1.1975981 1.511227e-17)
(10.247994 1.228254 0)
(10.261061 1.2755505 1.5123723e-17)
(10.22348 1.3152671 -1.5124253e-17)
(10.23878 1.3760993 0)
(10.189102 1.4283864 7.5759848e-18)
(10.209744 1.5039205 -1.5156807e-17)
(10.19631 1.22509 1.7188185e-17)
(10.150149 1.2327895 1.7272144e-17)
(10.126237 1.2659558 -1.7275059e-17)
(10.060276 1.2871515 1.7382637e-17)
(10.031766 1.3304661 -3.4828683e-17)
(9.9486746 1.3681375 3.4956771e-17)
(9.9168912 1.4233289 -3.5093662e-17)
(9.8182171 1.4808093 1.7581715e-17)
(9.7848718 1.549916 0)
(9.8518446 0.82812257 -2.0453041e-17)
(9.7531364 0.75341494 2.0453089e-17)
(9.6601025 0.79405751 0)
(9.5477036 0.73224839 0)
(9.4527733 0.79546177 0)
(9.3226364 0.74709566 0)
(9.2252147 0.83441277 0)
(9.0797488 0.80232736 -1.0744686e-17)
(8.9716787 0.91515343 1.0744617e-17)
(8.8142423 0.90715313 1.090972e-17)
(9.6721608 1.6309429 0)
(10.149016 1.5735711 7.5817154e-18)
(10.517182 1.5100469 0)
(10.717406 1.2517233 0)
(10.881921 0.97394442 0)
(10.909569 0.71124421 4.8125157e-18)
(10.966344 0.37572887 4.429485e-18)
(10.865417 0.162236 4.1578514e-18)
(8.6953229 1.0536216 -1.0909623e-17)
(9.6397207 1.716109 0)
(10.176821 1.6615285 0)
(10.578435 1.5791323 6.5544713e-18)
(10.798408 1.2986371 0)
(10.973843 0.99623577 -5.2200929e-18)
(11.00596 0.7150774 -9.5939444e-18)
(11.06047 0.35516504 -8.8272764e-18)
(10.959416 0.17057311 -8.2849448e-18)
(8.5260143 1.0770633 0)
(9.5153438 1.8252523 0)
(10.109262 1.7581405 7.5888619e-18)
(10.549049 1.676832 -6.5545494e-18)
(10.799976 1.3991555 0)
(11.003533 1.0924571 5.2200786e-18)
(11.055415 0.80570757 4.7814486e-18)
(11.13002 0.43003104 4.3977934e-18)
(11.040567 0.18753313 4.1270924e-18)
(8.3945601 1.2702769 1.116366e-17)
(9.4876026 1.9287384 0)
(10.144466 1.8570396 -1.5176134e-17)
(10.622098 1.7555396 0)
(10.892849 1.4524577 0)
(11.10764 1.1176314 -5.1542154e-18)
(11.164552 0.80940691 -4.7120216e-18)
(11.237208 0.40723932 0)
(11.147789 0.19812545 -4.0574504e-18)
(8.2153818 1.335686 -1.1163613e-17)
(9.3556351 2.0716779 -9.0345931e-18)
(10.074018 1.983793 7.5871708e-18)
(10.5912 1.8726637 0)
(10.896004 1.5691981 0)
(11.142236 1.2276013 5.15421e-18)
(11.221705 0.9121036 4.7120159e-18)
(11.315994 0.49297647 0)
(11.243348 0.21618884 4.0574499e-18)
(8.0730017 1.5930227 0)
(9.3385462 2.195715 9.0345692e-18)
(10.120248 2.0939359 -7.5726421e-18)
(10.67762 1.9577792 0)
(11.00321 1.6279181 0)
(11.260713 1.2549434 -5.0769035e-18)
(11.34525 0.91484705 -4.6311949e-18)
(11.43866 0.46748105 0)
(11.365509 0.22922538 -3.9754882e-18)
(7.8943041 1.718476 0)
(9.2055228 2.3794624 0)
(10.052363 2.254653 7.5726379e-18)
(10.653301 2.1010996 -3.2198907e-18)
(11.010649 1.7632628 -2.8297692e-18)
(11.302191 1.3803013 7.5934953e-18)
(11.411963 1.0308178 6.9240277e-18)
(11.524773 0.56273084 0)
(11.477144 0.24797127 5.9402215e-18)
(7.7544038 2.0800046 0)
(9.2090389 2.5242214 -4.538202e-18)
(10.11469 2.3744162 0)
(10.752408 2.189668 3.2193881e-18)
(11.133514 1.8246244 2.829252e-18)
(11.437049 1.4085695 -2.3801532e-20)
(11.552376 1.0314256 -4.5609882e-18)
(11.669586 0.54014173 0)
(11.614854 0.26303186 -1.9647336e-18)
(7.6180437 2.2654044 -5.724056e-18)
(9.085155 2.7640709 4.5377657e-18)
(10.05576 2.5833026 0)
(10.740895 2.3704659 0)
(11.153514 1.9929157 0)
(11.490755 1.5589263 -4.9589248e-18)
(11.631169 1.163875 2.6797749e-20)
(11.760934 0.63985912 0)
(11.741728 0.28145682 0)
(11.912234 0.29913365 0)
(11.927278 0.62269378 0)
(11.790064 1.1563516 -1.0969679e-19)
(11.636819 1.5693011 2.588075e-18)
(11.292362 2.0319967 0)
(10.861007 2.4421678 -3.9658075e-19)
(10.154258 2.6893861 -2.7372171e-20)
(9.1450367 2.91233 -3.7661045e-18)
(7.5306463 2.7458097 1.0668393e-17)
(12.074944 0.31213594 -9.3958535e-19)
(12.030794 0.7079923 -1.2755328e-19)
(11.886049 1.2764311 1.1273339e-18)
(11.717692 1.716445 -3.5892822e-21)
(11.351916 2.2001105 -1.1867265e-18)
(10.889363 2.6300518 1.5419033e-18)
(10.155296 2.9215695 -4.7012245e-19)
(9.1229848 3.2093739 4.9001802e-18)
(7.6434681 3.0535226 -5.4303208e-18)
(12.242573 0.32313665 1.8817345e-18)
(12.221157 0.68889668 0)
(12.07743 1.2731696 2.2021393e-18)
(11.885517 1.7186915 -1.2026168e-18)
(11.524825 2.2276244 1.2006269e-18)
(11.058142 2.6886038 -2.9226587e-18)
(10.341902 3.0111084 -2.2892959e-18)
(9.338182 3.33131 1.1028111e-18)
(7.9354243 3.3877129 6.4789162e-20)
(12.422714 0.33416092 -9.4265627e-19)
(12.3366 0.77192229 -1.2628453e-19)
(12.18689 1.3915852 -9.6977347e-19)
(11.988583 1.8805291 1.3729054e-18)
(11.611666 2.4124645 5.0898035e-19)
(11.117968 2.8924227 1.572471e-18)
(10.383284 3.2532213 1.8499904e-18)
(9.3691298 3.6169107 5.7493527e-19)
(7.9711297 3.6451309 -6.5823351e-19)
(12.616308 0.34567431 2.280259e-19)
(12.556669 0.75478672 -2.4620734e-19)
(12.406851 1.3900174 -1.3755271e-19)
(12.17869 1.8702079 4.4778149e-19)
(11.810863 2.4257783 -5.1329491e-19)
(11.316486 2.9367261 -5.7945778e-19)
(10.600242 3.3271 -4.7697597e-19)
(9.6020751 3.7199389 5.3857257e-19)
(8.2333218 3.9238141 -7.2276655e-19)
(12.821927 0.35769717 -2.3063436e-19)
(12.684666 0.83955953 2.4917007e-19)
(12.53006 1.504083 -1.3660793e-19)
(12.303028 2.0430372 -1.7489833e-21)
(11.919139 2.6204584 -1.6704554e-19)
(11.397741 3.1498424 3.9434135e-19)
(10.66326 3.5742355 -4.7852491e-19)
(9.6524897 4.0011967 5.4164989e-19)
(8.3031023 4.1307244 0)
(13.038155 0.36889543 -2.2116605e-19)
(12.933954 0.82568056 -1.228814e-19)
(12.777324 1.5027974 -1.3157306e-19)
(12.511887 2.0193857 -1.5170602e-19)
(12.134932 2.6197304 -1.6844526e-19)
(11.612551 3.1793309 4.0259595e-19)
(10.891313 3.6303305 -9.3008966e-19)
(9.8975437 4.0796901 1.1287542e-18)
(8.5876277 4.3682455 -6.7557641e-19)
(13.265188 0.37938796 6.5772629e-19)
(13.074032 0.90961531 4.7456938e-19)
(12.914911 1.6102008 6.5580839e-19)
(12.658041 2.2011653 7.298922e-19)
(12.266425 2.8214342 5.1217444e-19)
(11.718687 3.3995171 -1.9072836e-19)
(10.981551 3.8801071 -4.8025758e-19)
(9.9780814 4.3562758 -4.0604253e-20)
(8.6766754 4.5415639 -7.1780348e-19)
(13.503137 0.38787143 -1.2881843e-18)
(13.349542 0.89695582 -4.8048662e-19)
(13.187945 1.6076455 -1.689599e-18)
(12.880307 2.1630711 -4.4827599e-19)
(12.497693 2.8037042 1.147622e-18)
(11.951012 3.4108358 5.904757e-19)
(11.224986 3.9153631 -2.7636232e-18)
(10.238296 4.4123849 5.4811892e-19)
(8.9581068 4.7519676 1.4363347e-18)
(9.0567959 4.9024305 -1.4382303e-18)
(10.344273 4.6852015 5.9171869e-19)
(11.343666 4.1656854 4.1481351e-18)
(12.084403 3.6357951 -5.8742614e-19)
(12.656012 3.0101273 2.9648121e-19)
(13.055449 2.3500669 8.5033047e-19)
(13.343841 1.7052502 1.1727616e-18)
(13.501166 0.97797937 -5.7570022e-20)
(13.75249 0.39532623 1.7403339e-18)
(9.3391656 5.0934252 5.7337487e-18)
(10.616906 4.7217408 5.4969588e-19)
(11.601745 4.1788836 -5.9871803e-18)
(12.330175 3.6265551 -1.8708371e-19)
(12.902765 2.9715463 -1.1587667e-18)
(13.285016 2.2987084 -1.0173651e-18)
(13.639241 1.6990932 -2.107357e-18)
(13.801384 0.96540346 0)
(14.012714 0.40031272 -8.3772697e-19)
(9.4479719 5.2258861 -7.3612799e-18)
(10.74625 4.9923919 5.6446287e-18)
(11.74837 4.4278801 3.2425657e-18)
(12.496264 3.8517121 -1.8517072e-19)
(13.089455 3.1791193 2.5460126e-18)
(13.491345 2.4855838 5.6532896e-21)
(13.816503 1.7838885 3.2197115e-19)
(13.964401 1.0422819 1.6361687e-18)
(14.283575 0.40414667 1.5557684e-18)
(9.7347413 5.4020328 -1.4717318e-18)
(11.029961 5.0098832 1.0255031e-18)
(12.017958 4.4177121 -4.7499029e-19)
(12.74979 3.8248013 0)
(13.349589 3.1172527 -2.5822093e-18)
(13.727229 2.4219816 0)
(14.130163 1.7718527 1.8413716e-18)
(14.285894 1.0286376 -3.3621349e-18)
(14.56398 0.40495647 -7.6541977e-20)
(9.8542407 5.5190379 -7.1063632e-19)
(11.184255 5.2792881 -4.5608522e-18)
(12.193246 4.6627469 4.7198322e-19)
(12.943445 4.0400808 0)
(13.564228 3.3222087 -2.5962541e-18)
(13.959429 2.599393 2.117557e-18)
(14.325857 1.8411666 1.1978061e-19)
(14.464789 1.0996376 3.3695366e-18)
(14.853448 0.40415841 -1.5165624e-18)
(10.150994 5.6838434 -6.6993614e-18)
(11.479492 5.2760713 -3.9186928e-18)
(12.471598 4.6271349 -3.5246729e-20)
(13.211298 4.004941 -3.7966064e-19)
(13.833802 3.2360361 -4.8975424e-20)
(14.211855 2.5313312 -4.1941554e-18)
(14.654657 1.8207808 1.1631179e-19)
(14.801607 1.0837605 -1.6690036e-18)
(15.150585 0.39973641 0)
(10.284853 5.7857593 4.6119138e-18)
(11.661747 5.5436105 5.7246353e-18)
(12.676038 4.8645468 -3.6275998e-20)
(13.427952 4.2019608 -3.7362397e-19)
(14.07515 3.4344143 2.2855706e-18)
(14.462134 2.6913223 2.2198461e-18)
(14.86541 1.8723777 1.0799354e-19)
(14.996883 1.1476259 -9.8955555e-20)
(15.454531 0.39330368 0)
(10.599578 5.9411566 0)
(11.969002 5.5162898 -5.3729451e-19)
(12.963566 4.8008866 4.5813011e-19)
(13.709598 4.1562119 -5.333573e-18)
(14.351231 3.3228934 -1.5030187e-19)
(14.729463 2.6163444 3.7316216e-18)
(15.205608 1.8414283 -3.1367509e-18)
(15.344715 1.1282236 2.914785e-18)
(15.762698 0.38287679 2.4336534e-18)
(10.751659 6.0270825 1.1341069e-17)
(12.182753 5.7818617 9.8403171e-18)
(13.189675 5.0268224 -4.5158614e-19)
(13.948705 4.3317235 5.6202653e-18)
(14.618839 3.5141659 -1.3651883e-19)
(14.9962 2.7557189 -3.7938083e-18)
(15.427033 1.8735488 3.393763e-18)
(15.553363 1.1835989 -3.0460433e-18)
(16.073207 0.37135232 -1.9116994e-19)
(16.406285 0.35571625 -2.258186e-18)
(15.911708 1.1577596 2.5378872e-18)
(15.777331 1.8299818 0)
(15.282893 2.66916 -2.2629907e-19)
(14.900182 3.3659646 4.2124584e-18)
(14.25427 4.2702854 4.8123924e-18)
(13.50145 4.9301799 0)
(12.515655 5.715865 -3.7508781e-19)
(11.123075 6.187153 -1.1081852e-17)
(16.722724 0.33332219 0)
(16.135278 1.1916884 -2.6247876e-18)
(16.010333 1.8317948 0)
(15.580249 2.7731339 -2.1645061e-19)
(15.204703 3.5360584 -7.6154366e-18)
(14.543322 4.4137674 -5.2571302e-18)
(13.785835 5.1373712 6.1521218e-18)
(12.817833 5.9886759 -7.7302015e-18)
(11.357898 6.2592784 9.2925185e-18)
(17.030392 0.30182431 0)
(16.502489 1.1487841 0)
(16.365089 1.772158 -2.5125954e-18)
(15.886488 2.6654816 0)
(15.511505 3.3608389 3.8881251e-18)
(14.879244 4.3272175 -4.4571146e-18)
(14.137956 5.0027305 -5.5949214e-18)
(13.201712 5.886567 -4.4013694e-19)
(11.82882 6.4025328 -1.1922571e-18)
(17.333464 0.26187098 0)
(16.731084 1.1645881 0)
(16.597893 1.7522188 2.5647489e-18)
(16.197437 2.7383816 2.6611423e-18)
(15.823028 3.5006477 3.3909514e-18)
(15.189562 4.4350967 4.845984e-18)
(14.435497 5.1703767 0)
(13.525622 6.1080678 6.9735825e-18)
(12.128372 6.4443124 -1.097864e-17)
(17.61994 0.21775014 2.6110307e-20)
(17.097967 1.108344 -2.8459861e-20)
(16.946342 1.6757586 0)
(16.507898 2.6082883 -2.7631593e-19)
(16.135921 3.303927 -6.9172677e-18)
(15.530733 4.3268378 2.4924905e-19)
(14.796142 5.0070266 5.2499865e-18)
(13.905453 5.973879 -7.720411e-18)
(12.651307 6.5501188 1.0722776e-17)
(17.895074 0.1698767 -2.3207026e-20)
(17.325841 1.1099936 2.5336537e-20)
(17.174084 1.6346089 0)
(16.820703 2.6498963 -2.8765072e-18)
(16.450502 3.4113638 3.6763652e-18)
(15.850846 4.4008418 -2.343929e-19)
(15.095113 5.1413621 -5.4300897e-18)
(14.228615 6.1350589 0)
(13.045628 6.5359855 -1.0612317e-17)
(18.153376 0.12039629 2.0238295e-20)
(17.684684 1.041799 1.4549126e-18)
(17.51213 1.5420353 -6.2159236e-20)
(17.123533 2.4969792 2.1089019e-18)
(16.762531 3.1926456 2.8962909e-18)
(16.192069 4.2713676 0)
(15.45459 4.9573514 0)
(14.577694 5.962944 -6.4551462e-18)
(13.651018 6.5847074 0)
(18.412063 0.056873218 0)
(17.8999 1.0286264 -1.5075273e-18)
(17.72972 1.4820603 0)
(17.427181 2.5096533 -2.3886733e-18)
(17.074529 3.2650437 -2.6445497e-18)
(16.518599 4.310964 3.2320992e-18)
(15.740936 5.0767446 0)
(14.855031 6.058027 7.1559195e-18)
(14.172126 6.4815737 -8.3762478e-18)
(18.555865 0.015596384 0)
(18.23637 0.94686299 0)
(18.049657 1.3772704 -4.8537245e-20)
(17.712237 2.3343519 -7.0437902e-20)
(17.377015 3.0220369 1.3956706e-19)
(16.854902 4.1601938 -3.337653e-18)
(16.147612 4.8670659 0)
(15.130223 5.8411571 0)
(14.855627 6.4032257 8.290253e-18)
(18.796799 -0.04576545 -2.1414361e-20)
(18.420539 0.9400787 -7.8178104e-21)
(18.251594 1.3016523 1.05004e-18)
(17.99923 2.3271404 0)
(17.670928 3.0726963 0)
(17.177593 4.1769719 -1.7515788e-19)
(16.327172 5.0940851 -3.2890352e-18)
(15.262365 5.9468121 1.4518108e-19)
(15.192815 6.3050036 0)
(19.022774 -0.061945153 -1.509636e-20)
(18.719889 0.9281677 -7.2567797e-21)
(18.548228 1.3344761 -9.5448164e-19)
(18.246016 2.3797161 0)
(17.895879 3.1435886 0)
(17.378151 4.3964213 1.4843018e-19)
(16.499993 5.2454588 8.9675389e-18)
(15.156828 6.1264332 -1.3014657e-19)
(14.397792 6.1586444 9.4521611e-18)
(19.171912 -0.088670228 0)
(18.872945 0.91621501 8.1141578e-19)
(18.715061 1.2551907 0)
(18.494523 2.3680015 6.2867184e-20)
(18.135781 3.2371109 -6.8638352e-20)
(17.595002 4.4779538 -1.281058e-19)
(16.573672 5.5421676 -1.0649306e-17)
(14.768145 6.1612312 1.1795503e-19)
(12.597057 6.1043789 -8.8774776e-18)
(19.324965 -0.088717575 -8.7397983e-21)
(19.142479 0.86595835 -7.8031295e-19)
(18.98493 1.2784725 6.7403503e-19)
(18.739602 2.4206125 1.0123642e-18)
(18.341577 3.3137211 -1.6795813e-18)
(17.750493 4.7497497 2.3796553e-18)
(16.54606 5.7231585 5.1135602e-18)
(14.378305 6.246478 7.8191631e-18)
(10.182523 7.3197193 0)
(19.438067 -0.13068982 1.8502222e-19)
(19.274109 0.83672694 1.3659101e-19)
(19.11896 1.2001036 -6.5204105e-19)
(18.987723 2.3753112 -4.767498e-19)
(18.57955 3.4181635 1.599841e-18)
(17.987371 4.7992728 -6.3612002e-19)
(16.489405 5.9757034 0)
(13.558855 6.5231533 -7.5122931e-18)
(6.6115749 6.7081136 0)
(19.54842 -0.13456096 -4.9048925e-19)
(19.515538 0.75210754 -1.3476372e-19)
(19.366718 1.2034831 1.6765263e-20)
(19.260044 2.3963226 -4.8946983e-19)
(18.806599 3.4625646 -3.1792834e-20)
(18.151565 5.0490564 -1.6279261e-18)
(16.182641 6.2045882 3.3270929e-18)
(12.007371 5.7791507 6.6094322e-18)
(0.8511455 1.3098581 -8.2456708e-18)
(19.619403 -0.18584952 3.1228002e-19)
(19.628283 0.70494718 -8.3049723e-21)
(19.472389 1.118249 -7.1011174e-21)
(19.512001 2.3017463 1.5714625e-22)
(19.043369 3.5658617 -1.6952623e-22)
(18.321251 5.0901163 -4.4616082e-19)
(15.649073 6.1224445 -6.2198738e-18)
(9.1760175 5.0540825 -6.2304042e-18)
(-0.36737206 2.1619658 7.8182264e-18)
(19.675474 -0.18647289 7.1440616e-21)
(19.846994 0.585599 -7.5859666e-21)
(19.695919 1.0961334 -4.9697348e-19)
(19.793224 2.2939751 -9.0071179e-19)
(19.274322 3.5811957 5.0666666e-19)
(18.35552 5.2819953 2.6806762e-19)
(14.79604 6.3266802 5.451289e-18)
(6.6552273 3.9469103 5.4325519e-18)
(-0.42100739 2.8119007 -7.0716726e-18)
(19.69406 -0.23881183 -4.5117856e-19)
(19.930524 0.51825953 9.9817472e-21)
(19.775875 1.0016998 -2.3019808e-19)
(20.027216 2.1589996 8.7315508e-19)
(19.487517 3.6698644 -4.7194035e-19)
(18.225397 5.3349345 1.0659339e-19)
(13.367795 5.9560138 -2.5331148e-18)
(3.6810638 2.1381569 -5.1411841e-18)
(-1.0824783 3.038293 6.7380735e-18)
(-1.2297455 2.990358 1.1078483e-17)
(1.9065696 1.5999747 6.3513962e-20)
(12.027008 5.8573749 -1.3820364e-20)
(18.130938 5.3682008 1.1714155e-20)
(19.658712 3.6510046 0)
(20.278691 2.1307201 2.0399925e-20)
(19.972095 0.95265548 1.6550767e-18)
(20.114798 0.37354159 1.0270011e-18)
(19.678921 -0.2709661 8.7017069e-19)
(-1.3740753 3.0171937 -1.0725305e-17)
(1.75881 1.9179411 0)
(10.674949 5.4075703 0)
(17.98213 5.3752976 3.8851238e-18)
(19.869128 3.5924268 0)
(20.467167 1.8957972 -4.3907982e-18)
(20.019749 0.80765387 -3.1724802e-18)
(20.154961 0.27765152 -9.7810183e-19)
(19.641384 -0.30317776 3.2346387e-19)
(-1.4594475 3.0319291 -7.2169051e-20)
(2.2572101 3.4352614 5.8130036e-20)
(9.8992943 5.1805155 0)
(17.800434 5.3079427 -3.8075165e-18)
(20.004378 3.5503248 0)
(20.680922 1.8430008 4.3397179e-18)
(20.185921 0.73612564 2.151637e-18)
(20.288199 0.12125568 2.3537797e-20)
(19.580263 -0.33226936 -7.4187934e-19)
(-1.6129935 3.1524565 -1.9279604e-17)
(2.7646109 4.2487377 1.1987911e-17)
(8.8398381 5.0352122 -5.2295131e-20)
(17.548991 5.3263333 0)
(20.184564 3.4438551 -6.263661e-18)
(20.832122 1.5849827 0)
(20.203435 0.58638252 -2.0670689e-20)
(20.281754 0.019737776 2.4754648e-20)
(19.494848 -0.35714919 -5.3926407e-21)
(-1.6976112 3.2256724 1.8537602e-17)
(2.5367651 4.7372336 -3.8207881e-19)
(8.1269701 4.7181988 -1.4037325e-18)
(17.221265 5.2268622 -1.7209707e-20)
(20.284334 3.38413 -1.0282138e-18)
(21.017534 1.5033869 0)
(20.337727 0.49500494 -2.8256642e-18)
(20.365435 -0.14438433 0)
(19.38718 -0.37836264 0)
(-1.8077931 3.3756985 -5.9519396e-20)
(2.3078755 4.8076181 -1.0740741e-17)