/*--------------------------------*- C++ -*----------------------------------*\
  =========                 |
  \\      /  F ield         | OpenFOAM: The Open Source CFD Toolbox
   \\    /   O peration     | Website:  https://openfoam.org
    \\  /    A nd           | Version:  11
     \\/     M anipulation  |
\*---------------------------------------------------------------------------*/
FoamFile
{
    format      ascii;
    class       volScalarField;
    location    "0.0125";
    object      p;
}
// * * * * * * * * * * * * * * * * * * * * * * * * * * * * * * * * * * * * * //

dimensions      [0 2 -2 0 0 0 0];

internalField   nonuniform List<scalar> 
880
(
79.99999999999999
80
80
79.99999999989913
80.00000000000001
80
80
79.99999999670565
80
80.00000000000001
80.00000000000087
79.99999992864457
79.99999999999996
80
80.0000000004414
80.00001936792556
80
80
79.99999999999999
80
80
80
80
79.99999999999584
80.00000010726133
80.00000015835485
80.0000001290864
80.00000005159487
80.00212177170319
80.00408261333203
80.00398406271729
80.00356304161639
80
80.00000000000004
80
79.99999999999999
80.0000000001542
80.00000000016755
80.00000000017776
80.00000000009383
80.00000086155202
80.00000092509283
80.00000096887867
80.0000007292099
80.00399935464037
80.00424149924885
80.00431474310275
80.00376960267062
80.00594799917604
80.00152914375913
80.00007780528593
80.00000043339375
80.00000261875989
80.00000083000218
80.00000005070915
80.0000000003426
80.00000000073845
80.00000000024399
80.00000000001656
80
80.00000000000057
80
79.99999999999997
79.99999999999999
80
80
79.99999999999999
80
80
79.99999999999999
79.99999999999999
79.99999999999999
79.99999999999935
80.00000000000001
80
80
79.99999999565209
79.99999999922147
79.9999999999862
80
80.00000000000009
80.00000000000003
80
80
79.99999999896748
79.9999999999948
80
79.99999999999999
80.00000155213193
80.00000000977835
80.00000000000098
79.99999999999999
79.99663701543041
79.99999875160374
79.99999999970026
80
80
80.00000000004346
80.00000032388122
80.00194795040275
80
80.00000000007732
80.00000050811113
80.00288384387139
79.99999999999999
80.00000000009888
80.00000058174683
80.00303867410481
79.99999999999999
80.00000000012156
80.00000066691342
80.00319056117328
80.00335765395187
80.00000076945727
80.00000000014934
80
80.00354302643652
80.00000089438849
80.00000000018433
79.99999999999997
80.00374636961162
80.00000104645243
80.00000000023722
79.99999999999997
80.00406259727659
80.00000126891088
80.00000000030617
79.99999999999999
80
80.00000000020695
80.00000091137643
80.00315163019852
79.99999999999997
80.00000000023728
80.00000091634278
80.00274723641795
80.00000000000766
80.0000000002685
80.00000095268099
80.00240632467046
79.99999999988479
79.99999999901965
79.99999978389589
80.00073004592062
80.0000000040999
79.99999988243445
79.99951531877402
79.72512493609476
80.0000000023629
79.99999966946757
79.99890954304857
79.16575865509968
80.00000000156463
79.99999974184729
79.99898927650865
79.05915090923591
80.00000000113306
79.99999983178999
79.99921601142967
79.11686541033373
79.30161657109625
79.99935747337666
79.99999986135482
80.00000000228476
79.34311198495232
79.99946936611232
79.99999991689262
80.00000000221475
79.3841587992745
79.99955719522484
79.99999994284673
80.0000000018652
79.14187299535266
79.99941526863662
79.99999987523684
80.00000000090274
79.95920713638471
79.99998121519062
79.99999999989407
80.00000000009229
79.99989566448907
80.00000003834232
80.00000000063051
79.99999999999999
79.99969959695557
79.99999981148481
79.99999999994132
80
79.99889373521125
79.99999927004089
79.99999999974145
80
79.99977864867549
80.00000709138338
80.00000001805847
80.00000000000392
79.99976786184224
80.00000705028943
80.00000001834442
80.00000000000442
79.99964376901902
80.00000630550937
80.00000002105841
80.00000000000395
79.99926838093131
80.0000035622531
80.0000000224718
80.00000000000404
79.99889373521259
79.99999927002999
79.99999999972708
79.99999999999999
79.99969959696146
79.99999981146486
79.999999999926
80.00000000000001
79.99989566446584
80.00000003832892
80.00000000063081
79.99999999999996
79.95920713641641
79.99998121517244
79.9999999998992
80.00000000009378
80.00000000229038
79.99999986135843
79.99935747339383
79.30161657108816
80.00000000221259
79.99999991689464
79.99946936614108
79.34311198495058
80.00000000186721
79.99999994283964
79.99955719520416
79.38415879923636
80.00000000090348
79.99999987525544
79.99941526864156
79.14187299535408
79.11686541034665
79.99921601142307
79.99999983178158
80.00000000113501
79.05915090924211
79.99898927651039
79.99999974185681
80.00000000156254
79.16575865510008
79.99890954305548
79.9999996694625
80.00000000237014
79.72512493609445
79.99951531875507
79.99999988241714
80.00000000410962
80
80.00000000021168
80.00000091139681
80.00315163017225
80
80.00000000023439
80.00000091635405
80.00274723644279
80.00000000000554
80.00000000027282
80.00000095268092
80.00240632466112
79.99999999988722
79.99999999901432
79.99999978389465
80.00073004591958
80.00406259727369
80.0000012688932
80.00000000030839
80.0000000000001
80.00374636961213
80.00000104645589
80.0000000002387
79.99999999999997
80.00354302642897
80.00000089438817
80.00000000018467
79.99999999999999
80.00335765394448
80.00000076946974
80.00000000015234
80.00000000000001
80
80.00000000004653
80.00000032387605
80.00194795039528
80.00000000000001
80.00000000008311
80.00000050810485
80.00288384387301
79.99999999999999
80.00000000010431
80.00000058174935
80.00303867409379
80
80.00000000012045
80.00000066691284
80.00319056116487
80
79.99999999999999
79.99999999999999
80
79.99999999968743
80.00000000000098
79.99999999999999
80
79.99999875159236
80.00000000978329
79.99999999999474
79.99999999999999
79.99663701542268
80.00000155213151
79.99999999897069
80.00000000000009
79.99999999999999
79.99999999999999
80
80
79.99999999999999
80
80.00000000000001
79.99999999998725
80
80
80
79.99999999921192
79.99999999999999
80.00000000000001
79.99999999999979
79.9999999956496
80.00000000000091
80.0000000007289
80.0000026187614
80.00594799919283
80
80.00000000025052
80.0000008300083
80.001529143765
80
80.00000000001383
80.00000005070119
80.00007780527189
79.99999999999999
80
80.00000000034484
80.00000043338054
80.00376960266492
80.00000072920311
80.00000000009332
80
80.0043147430906
80.00000096889249
80.00000000016512
80
80.00424149925658
80.00000092510645
80.00000000015386
79.99999999999999
80.00399935462433
80.00000086154023
80.00000000014965
79.99999999999999
80.00356304161079
80.00000005160317
79.99999999999611
80
80.00398406271295
80.00000012908114
80.00000000000001
80
80.00408261332315
80.00000015835136
80
79.99999999999997
80.00212177169378
80.00000010725246
80.00000000000001
80.00000000000001
79.99999999999999
80
80
79.9999999998945
80
80
79.99999999999999
79.9999999967082
80
80
80.00000000000072
79.99999992864758
80
80
80.00000000043829
80.00001936790987
79.99999997623672
79.9999998378772
80.00001070837071
80.00211708624292
79.99999983788319
79.99999913198783
80.00009689060865
80.0535693593184
80.00001070837664
80.00009689060887
80.03310374295684
81.20307908315262
80.00211708626294
80.05356935932271
81.20307908316936
90.21687745565924
111.7381165534743
90.79514204919917
83.79815937891269
80.3024472528184
121.7850713835834
98.75622533881631
87.53676760125323
80.68684632210675
122.9468818225681
99.75304823749819
88.007995732541
80.73351673195141
123.0066900824913
99.77045402688363
87.98909522113499
80.72622411501499
80.82029661153581
80.85183215856409
80.85340779069119
80.7872269874954
88.60830303032061
88.79999346630504
88.81146412960025
89.04794359492587
100.2378642687408
100.3704284691489
100.3916057922993
102.84101721406
124.0476082219649
124.3172422668298
124.3673877034171
129.9308111271977
80.66636449411789
80.107037757068
80.00324910787711
80.00001030288439
83.07631779858842
80.24697095361577
80.00410026601611
79.99998724053806
83.63627972955116
80.2243827364436
80.00242113941988
79.99995714878212
83.67472158610541
80.07359285837545
80.00026783246997
79.99988872546729
79.99999945790172
79.9999999420877
79.99999999920676
79.99999999999912
79.99999717692779
79.99999992852793
79.99999999982171
80.00000000000017
79.99999470225437
79.99999992868389
79.99999999993065
80.00000000000311
79.9999741349677
79.99999938004805
79.99999999894959
80.00000000000502
79.99999999999999
80.00000000002916
80.00000651055846
79.55785982930063
79.99999999999999
80.00000000000148
80.00040112090292
76.51473984705957
80.00000000000006
79.99999999999999
80.0036417286485
72.21018844680965
80.00000000000017
79.99999999999999
80.11020362586368
72.15687724291456
80.76738661640542
81.09048618594211
81.09897602385801
81.09941289656651
98.89715853314517
103.3254252332056
103.4126018259002
103.4102060439855
138.3361264573976
143.1173026733879
143.175630061732
143.1656197698833
199.138426337181
212.5020360263961
212.6728791470139
212.6510846085342
81.09983481584401
81.10028550867391
81.10079868539346
81.12198611327091
103.4100462447951
103.4100862497232
103.4100097905116
103.5040195439265
143.1636655575073
143.1636278770533
143.1628504080605
143.100117571021
212.643317496096
212.643069247706
212.6421828904041
212.5407446901522
80.76098916253505
80.6134752702781
80.49348414488142
80.18080576944949
99.33149652361675
97.26642654797867
95.2444676841023
89.06601119003012
139.8266426524161
137.64655594915
134.8496885955791
129.0280428021784
208.6215495657404
206.9381364899918
203.5107027651013
219.512161002145
74.51616731495707
59.06938620043613
54.45840067744754
54.44428351778923
66.59552778251397
36.69512298881694
29.65278068239408
29.39290536173097
54.55561731472109
21.87827630259357
16.56858085227664
16.39309487173199
37.94233861071422
8.916664559221974
6.889267439512354
6.781977224325652
52.99029460267919
52.98238435608218
52.75686883166084
43.34567746951877
28.85465336540862
28.81422138172778
28.72191924596888
18.65990669928848
15.83431627467961
15.81803904618345
16.27330677657577
12.48652504565611
6.31363362080327
6.304755895813254
7.113820728059436
8.404922868325524
76.73548103387876
79.9813862637594
79.95526322091409
79.82578373071432
69.42968266401907
79.75795593774401
79.69582145401932
78.85813469676525
58.84533964264416
78.61636319236527
79.17126724727805
76.61704252272061
47.81661832195319
74.89224766050914
77.92225690575529
75.5645327290765
79.86290387602135
79.63205151319958
79.46390167595968
79.46475317981506
77.00973661543682
73.84906156154898
71.67369262817027
71.25944689073236
61.56521184134236
51.39528988538547
44.23473251050452
42.35975559527552
36.70773007961916
20.43974936806976
11.65285976826148
9.713355392907555
9.447262766211493
9.241836637922521
9.059832342146045
9.020212978114502
40.31201858996183
39.98342631470597
39.70109710779575
39.61698880280588
70.7926783757777
70.85586973131855
70.82847944267881
70.81661490812138
79.49017615624379
79.52093098158346
79.53506957552935
79.53715143818519
9.020212978114351
39.61698880279996
70.81661490816316
79.53715143819137
9.05983234214872
39.70109710781043
70.82847944268819
79.53506957555128
9.241836637930327
39.98342631471181
70.85586973131122
79.52093098158973
9.447262766217012
40.31201858996862
70.7926783757671
79.49017615626046
79.46475317982916
79.4639016759763
79.63205151320984
79.86290387602212
71.25944689072651
71.67369262816864
73.84906156154361
77.00973661543104
42.35975559528422
44.23473251049924
51.39528988538827
61.56521184134368
9.713355392912499
11.65285976826347
20.43974936807371
36.70773007962178
75.5645327290818
77.92225690576251
74.89224766050476
47.81661832192691
76.61704252272358
79.17126724728135
78.61636319235971
58.84533964262604
78.85813469676619
79.69582145402451
79.75795593774573
69.42968266400291
79.8257837307147
79.95526322091699
79.98138626374214
76.73548103388723
43.34567746952303
52.75686883167942
52.98238435607993
52.99029460266796
18.65990669929098
28.72191924598335
28.81422138174172
28.85465336540259
12.4865250456586
16.27330677657617
15.81803904618599
15.834316274678
8.404922868327073
7.113820728067157
6.304755895814066
6.313633620802531
54.44428351775999
54.45840067742878
59.06938620040265
74.51616731493236
29.39290536171266
29.6527806823856
36.69512298877896
66.59552778248147
16.39309487172781
16.56858085227226
21.87827630258022
54.55561731471236
6.781977224322821
6.889267439511484
8.916664559223371
37.94233861071986
80.18080576943555
80.49348414485948
80.61347527027
80.7609891625408
89.06601119003878
95.24446768409538
97.26642654798255
99.3314965236189
129.0280428021746
134.8496885955714
137.6465559491382
139.8266426524281
219.5121610021391
203.5107027650988
206.9381364899727
208.621549565745
81.1219861132529
81.10079868538975
81.10028550865979
81.09983481585682
103.5040195439394
103.4100097905325
103.4100862497196
103.4100462447908
143.1001175710239
143.1628504080719
143.163627877037
143.1636655575027
212.540744690142
212.6421828904192
212.6430692476869
212.6433174961016
81.0994128965643
81.09897602385097
81.09048618593789
80.76738661640358
103.4102060439658
103.4126018259275
103.3254252332124
98.8971585331486
143.1656197698773
143.1756300617436
143.117302673391
138.3361264574109
212.6510846085134
212.6728791470273
212.5020360264017
199.1384263371993
79.55785982929918
80.00000651055872
80.00000000002848
79.99999999999999
76.51473984706078
80.00040112090288
80.00000000000146
79.99999999999999
72.21018844681434
80.00364172864784
79.99999999999999
80.00000000000017
72.15687724291924
80.11020362586258
79.99999999999999
80.00000000000017
79.99999999999912
79.99999999921103
79.99999994208598
79.9999994579085
80.00000000000017
79.99999999981932
79.99999992852705
79.99999717693119
80.00000000000345
79.99999999992723
79.99999992868379
79.99999470225841
80.00000000000502
79.99999999894894
79.99999938004743
79.99997413497536
80.00001030288264
80.0032491078712
80.10703775706858
80.66636449412283
79.99998724053711
80.00410026601381
80.24697095361719
83.07631779859062
79.99995714878186
80.0024211394188
80.2243827364441
83.63627972955119
79.99988872546669
80.00026783246916
80.07359285837566
83.6747215861045
80.78722698749883
80.85340779069412
80.85183215856713
80.82029661152451
89.04794359491795
88.811464129615
88.7999934663198
88.60830303030237
102.8410172140475
100.39160579232
100.3704284691637
100.2378642687356
129.9308111271831
124.3673877034427
124.3172422668528
124.0476082219685
80.72622411502087
80.73351673195462
80.6868463221156
80.30244725281084
87.98909522111647
88.00799573248933
87.53676760122431
83.79815937889391
99.77045402684966
99.75304823739982
98.75622533874552
90.79514204911877
123.0066900824707
122.9468818224717
121.7850713835785
111.7381165534488
79.99940231411807
79.9999999185479
80.00000000416829
80.00000000000887
79.99847580862672
79.99999972253786
80.00000000789484
80.00000000001971
79.99779314145667
79.99999930777165
80.00000000727428
80.00000000003179
79.9979366521024
80.00000005875172
80.00000001298612
80.00000000001002
80.0000000000036
80.00000001805955
80.00000709138237
79.99977864868187
80.0000000000034
80.00000001835537
80.00000705029437
79.99976786184692
80.00000000000448
80.00000002104272
80.00000630550805
79.99964376899651
80.00000000000441
80.00000002246746
80.00000356226408
79.99926838091866
80.00000000000554
80.00000000003307
80.00000000001828
80.00000000000887
80.00000001297531
80.00000000727411
80.00000000789807
80.00000000417745
80.00000005874945
79.99999930776534
79.99999972255405
79.99999991853993
79.99793665209133
79.99779314145114
79.99847580864528
79.99940231412118
)
;

boundaryField
{
    back
    {
        type            empty;
    }
    inlet
    {
        type            zeroGradient;
    }
    front
    {
        type            empty;
    }
    top
    {
        type            zeroGradient;
    }
    outlet
    {
        type            fixedValue;
        value           uniform 80;
    }
    bottom
    {
        type            zeroGradient;
    }
    wall
    {
        type            zeroGradient;
    }
}


// ************************************************************************* //
