/*--------------------------------*- C++ -*----------------------------------*\
  =========                 |
  \\      /  F ield         | OpenFOAM: The Open Source CFD Toolbox
   \\    /   O peration     | Website:  https://openfoam.org
    \\  /    A nd           | Version:  11
     \\/     M anipulation  |
\*---------------------------------------------------------------------------*/
FoamFile
{
    format      ascii;
    class       volScalarField;
    location    "0.0815";
    object      p;
}
// * * * * * * * * * * * * * * * * * * * * * * * * * * * * * * * * * * * * * //

dimensions      [0 2 -2 0 0 0 0];

internalField   nonuniform List<scalar> 
880
(
80
80
80
80.00003506918239
80
80
80.00000000003007
80.00037449354315
80
79.99999999999999
79.99999999989217
80.00209179911099
80
80
80.00000000245797
80.00148248708861
80
80.00000000000001
79.99999999999994
80.0000000000738
79.99999999999999
80
79.99999999999983
80
79.99999994048767
80.00000011024314
80.00995483977816
79.9747799856376
80.54580286133861
82.43527147107835
84.14569161728836
85.05383761657279
80.0000014237345
80.00000279625938
80.00000322431028
80.00000140157992
80.00004328105183
80.00009007073072
80.00013448252595
80.00006961058807
80.03718625583433
80.05416657762461
80.0709667638579
80.06032862057732
85.91937100827104
86.86465011313554
87.77482429880965
88.37404507723667
87.60187449651052
85.80321660043312
84.24525900692777
82.97037646165531
80.11706373717978
80.20435947402598
80.24038257329639
80.17205854998767
80.00029515737313
80.00060596156364
80.00084111575482
80.00063610277498
80.00000944564934
80.00001460317243
80.00001634621414
80.00001072761498
80.00000315055489
80.00000032543413
80.00000000724698
80.0000000000169
80.00026145688614
80.00004989780795
80.00000320295024
80.00000004442889
80.07618396329148
80.01905476891321
80.00190843123498
80.00004907948528
81.76316895564997
80.71833730030912
80.14595688290031
80.01001908604118
80.00014892500683
80.00000002224546
79.99999999422117
80.00000000000863
80.00001704999806
79.9999999836888
79.99999998142447
79.99999999885212
79.99863949636001
79.9999791238441
80.00000205465986
80.00000030809024
80.89687548886788
79.99814364782284
79.99960398682504
79.99999534088434
79.99998954073803
79.99984381685053
80.02165710455102
90.69457642948878
79.99999901128224
80.00010045014339
80.119642050751
100.3008451278337
80.00001599884327
80.00053235551734
80.26404096244779
106.01356196273
80.00002834570378
80.00102820691146
80.43388979346116
112.0031174484648
116.0710969971676
80.52796407857161
80.00126893313762
80.00003664128087
119.8795181241809
80.68685453728851
80.00190398224431
80.00005240110342
121.9599025571709
80.76451115587864
80.00211338294567
80.00006248768922
125.0948367885383
80.99898039060088
80.00345527625794
80.00010400005775
80.00010385459795
80.00344685740278
81.14159285619638
129.2734457663954
80.00014024394774
80.00470491557289
81.42025447863968
131.669217034962
80.00020168610899
80.00622240725149
81.5577019178767
127.6173652119782
80.00003469178596
80.00160346064935
80.79432495562524
111.1094508110262
80.00029428649654
80.01833350543782
81.22824648403888
91.40813350860586
79.99981484260481
80.00741445280487
80.37277613426831
72.1299608940547
79.99976121447745
79.98663350596247
79.34012114522041
61.00313205481499
79.99990152209281
79.96640294828349
78.12957182002773
53.07455898529211
50.63067440197759
78.03613122545637
79.98005732528343
79.99994756847039
48.6734195980472
78.00805190200877
79.98210506121646
79.99995621466253
49.38360924296278
78.52454236351173
79.99102986088855
79.99998103741591
48.8776174776675
78.4676155022228
79.99037428226499
79.9999794946478
57.47069027253416
79.38541636204513
79.99722119085889
79.99999374629785
66.20661674588013
79.82096321795385
79.99944111461812
79.99999895501246
72.23187901562284
79.94269703265299
79.9998511196229
79.99999976488044
76.47373184142936
79.97705510860602
79.99993013692085
79.99999978950872
74.0576874414364
79.809554511171
79.99811932716109
79.99999191222571
74.16453277391275
79.8127529133433
79.99812785976525
79.99999191665084
74.40296022728315
79.81503716503727
79.9981291870801
79.99999188982133
75.11772516811899
79.82542330798915
79.99817277174139
79.99999204818364
76.47373184120278
79.97705510831123
79.99993013648233
79.99999978993787
72.23187901522085
79.94269703224394
79.99985111855381
79.99999976501574
66.206616745676
79.82096321817272
79.99944111459939
79.99999895511469
57.47069027274576
79.38541636291727
79.9972211909119
79.99999374602096
79.99994756879087
79.98005732639076
78.03613122555679
50.63067440183799
79.99995621535825
79.98210506160738
78.00805190212843
48.6734195980867
79.99998103681504
79.99102986156861
78.52454236340367
49.38360924335242
79.99997949479251
79.9903742824508
78.46761550335198
48.8776174774079
53.07455898469044
78.12957181966756
79.96640294747439
79.99990152188531
61.00313205405743
79.34012114458859
79.98663350496014
79.99976121285354
72.12996089388268
80.37277613352776
80.00741445294827
79.99981484248768
91.40813350880876
81.22824648384874
80.01833350505521
80.00029428778788
80.00010385421128
80.00344685828205
81.14159285682456
129.2734457672214
80.00014024411304
80.00470491584913
81.42025447864157
131.6692170348906
80.0002016867888
80.00622240726477
81.55770191726114
127.6173652119518
80.00003469307588
80.00160346063106
80.79432495517935
111.109450810872
125.0948367900624
80.99898038967801
80.00345527741064
80.00010399994852
121.9599025585974
80.76451115740628
80.00211338314546
80.00006248795053
119.8795181235769
80.68685453884235
80.00190398321878
80.00005240085409
116.0710969971659
80.52796407711054
80.00126893324094
80.00003664103295
79.99998954137389
79.9998438174719
80.02165710465233
90.694576428541
79.99999901072161
80.00010044940933
80.11964205071233
100.3008451279991
80.00001599845592
80.00053235548937
80.26404096335968
106.0135619626312
80.00002834524331
80.00102820702429
80.43388979257887
112.0031174498851
79.99999534075428
80.00000030837359
79.99999999884918
80.00000000000882
79.99960398604291
80.00000205459085
79.99999998209084
79.99999999401004
79.99814364801603
79.99997912413806
79.99999998328248
80.00000002199776
80.89687548889725
79.99863949649625
80.00001705001574
80.00014892498363
79.99999999965151
80.00000004443092
80.00004907975854
80.01001908629053
80.00000000713182
80.00000320273077
80.0019084326384
80.14595688295429
80.00000032574408
80.00004989782653
80.01905476810727
80.71833730037979
80.00000315076322
80.00026145674835
80.07618396399754
81.76316895535589
80.0000094448028
80.00029515658839
80.11706373693225
87.60187449628019
80.00001460244771
80.00060596171014
80.20435947412076
85.80321659977717
80.00001634593968
80.00084111666712
80.24038257318446
84.24525900669987
80.00001072736912
80.00063610333466
80.17205854993863
82.97037646125713
88.37404507743273
80.06032862180045
80.00006961005816
80.00000140116683
87.77482429891019
80.0709667651532
80.000134482359
80.00000322445263
86.86465011408039
80.05416657676632
80.00009007106792
80.00000279604009
85.91937100810074
80.0371862538163
80.00004328066176
80.00000142399138
85.05383761685246
79.97477998822936
80
80.00000000008723
84.14569161691446
80.00995483706397
80
79.99999999999999
82.43527147140654
80.00000011007995
80
79.99999999999999
80.54580286149528
79.99999994025106
80
79.99999999999989
80
79.99999999999997
80
80.00003507203536
80.00000000000003
80.00000000000001
80.00000000002146
80.00037448722615
80
80
79.99999999990877
80.00209179642899
80
80
80.00000000220729
80.00148248719212
80.00004069798003
80.00034637108381
80.00285470989341
80.13454685292663
80.00034638419989
80.00019045335769
80.00010721366881
80.55363079719594
80.00285468633918
80.00010716361619
80.1978084781824
84.1405111144862
80.1345468597974
80.55363079270133
84.14051115750597
101.0389695917803
131.1895514611039
109.6751402489764
98.44625584939125
87.96296446445416
126.9445795265237
121.9022363605449
118.8936775838129
109.3802220954811
124.8358246822279
123.0251508080473
122.1009341149487
117.9550692322832
124.2556349027842
123.2100847350498
123.0593190758656
120.7897666768536
123.2397779989292
124.7748074308115
125.550964144507
128.1426510650718
124.4565053338744
125.8992596186275
126.8040385029989
130.7502995622223
124.430558122481
125.9741445677745
127.2273002582286
130.2778206907139
124.4812339281813
125.8832826317654
127.4862574479361
128.9770664072693
107.8755080779634
88.5598693813739
82.51757934957161
82.16786599341883
98.33024692024571
82.18472349472614
80.9942051439176
81.93462646011064
88.75892912275651
79.21506956716281
81.31372810881683
82.47705157229825
70.18344319263619
72.28001384573891
79.2267392018493
81.76088204797826
82.22689850894427
81.39854474433089
80.451435770299
80.06532191483137
82.13742900791918
81.40330350961882
80.52889549180981
80.09447734248393
82.56297092329437
81.75363185548061
80.71204001751384
80.13868684628937
82.20431287438008
81.39096947881167
80.34750247268917
80.01569694221867
80.00292946949929
80.00001191296334
79.99977590016226
97.34701442310681
80.00527069101705
80.00003756434145
79.99998740198497
108.1091578808733
80.00835640220279
80.00006068432938
80.00011314662991
114.3902036598044
79.99622715112795
79.99978300733704
80.00015717460462
115.8959327317688
185.2798410706873
196.527110057333
200.7419228672202
207.2800031196309
211.2524901823227
209.10415568446
207.5629851319756
212.3548885961089
211.9651903425644
204.2060172579017
208.0371991870634
211.935113533968
226.1150572546089
211.1948066129604
208.7828622966969
212.4857671337574
212.7030393466662
217.4215056040978
218.1064504788553
218.9807653827168
216.9067646204164
221.3387219749416
222.2500030611617
222.5327296486358
217.3713162417033
222.2326733323777
223.6416721061281
223.8101274803081
218.0258603571857
223.0884462011339
224.7596184066325
224.9274556500646
218.8624035957074
214.9288761962211
199.503727864178
164.2603581635834
221.5770942457069
217.3536154738005
202.4053376692207
177.8390166869536
223.1278358642641
218.4848155478974
203.5822910039994
190.5108133786434
224.0781334820058
219.7222211632523
205.176347309138
212.4716066130245
101.238119533967
25.0844194138145
8.821400738572962
7.65588876366574
79.7797731284015
14.72181850427498
8.558405593685775
7.70973596481911
53.46397606846607
9.453487697282359
7.863611244916537
8.557156980921064
30.44368766082032
5.110935937253604
9.325961900472183
9.55702831283787
8.552226143259627
9.245508093029086
9.733614804233996
8.02558713461835
7.954189107992253
8.412476927933422
8.118660624092247
6.008458138164961
8.702781393153652
8.975491176233346
8.205906186614882
6.889217892352871
9.658274398163478
9.734299587390593
8.317918664658643
7.951912504950596
23.24280977578496
38.33649544009873
46.83771248353996
57.11369071785189
20.66302227010439
33.65465884273878
41.03583784694665
54.09245531617169
19.67363539824539
34.05607829252649
42.40370865809405
52.79051856412185
14.81247915334515
28.00219924954657
39.73976124126334
50.71384182578262
41.19557226881528
22.91889868038462
14.12638903590151
20.07832899305746
34.87911817748213
19.36281368173018
7.561338835717732
5.904188135563222
28.20967738793112
12.59292251036829
4.056968464309461
3.722049050502505
17.22257717237639
5.88128417086065
2.188767619248986
2.714579842728843
4.834597773552345
9.610685316047618
18.36950972669178
26.05614880102815
5.285833425412567
10.30711622791761
20.98563006025291
30.28510207960179
8.907697281268453
13.90119900850725
25.66324893370112
36.33387970425098
25.40669782491463
25.58064166321165
33.36501614305308
41.51929672088405
26.05614880103056
30.2851020795995
36.33387970424771
41.51929672091284
18.36950972669964
20.98563006023399
25.6632489337499
33.36501614309501
9.610685316036522
10.30711622790082
13.90119900845573
25.58064166311373
4.834597773555434
5.285833425418307
8.907697281218995
25.4066978246944
20.07832899282713
14.12638903579787
22.91889868031022
41.19557226847921
5.904188135545318
7.561338835711434
19.36281368171386
34.87911817736713
3.722049050514643
4.056968464304544
12.59292251032588
28.20967738789159
2.71457984273484
2.18876761925188
5.881284170861056
17.22257717236043
50.71384182576303
39.73976124134111
28.00219924957645
14.81247915320107
52.79051856407511
42.40370865813208
34.05607829257289
19.6736353981145
54.09245531610779
41.03583784685859
33.65465884274973
20.66302227008035
57.11369071769872
46.83771248335982
38.3364954400317
23.2428097757224
8.025587134504137
9.733614804374076
9.245508093049931
8.552226143175931
6.008458138121721
8.118660624168299
8.412476927974335
7.954189107970719
6.889217892334123
8.205906186675717
8.975491176280736
8.702781393140999
7.951912504931303
8.317918664696423
9.734299587427117
9.65827439814451
7.655888763538123
8.821400738303257
25.08441941366308
101.2381195339263
7.709735964726202
8.558405593572015
14.72181850417786
79.77977312788356
8.557156980803908
7.86361124482628
9.453487697293863
53.46397606835143
9.557028312718526
9.325961900341436
5.110935937232793
30.44368766080443
164.2603581632831
199.5037278645906
214.9288761962848
218.8624035962139
177.8390166866273
202.4053376690731
217.3536154740031
221.5770942465566
190.5108133783995
203.5822910036472
218.4848155483609
223.127835865091
212.4716066131409
205.1763473092671
219.7222211637924
224.0781334828941
218.9807653837715
218.1064504797767
217.4215056035461
212.7030393456625
222.5327296497252
222.2500030619167
221.3387219743498
216.9067646196286
223.8101274810114
223.6416721067585
222.2326733318432
217.3713162414844
224.9274556508844
224.7596184072681
223.0884462004328
218.0258603568508
207.2800031226302
200.7419228659307
196.5271100577806
185.2798410700315
212.3548885997293
207.5629851303803
209.1041556851781
211.2524901818312
211.9351135371088
208.0371991854664
204.2060172582302
211.9651903419277
212.4857671352968
208.7828622952131
211.1948066134728
226.1150572538148
97.34701442265424
79.99977589875547
80.00001191291051
80.00292946958146
108.1091578802526
79.99998740109528
80.00003756433036
80.00527069125758
114.3902036592731
80.00011314611838
80.00006068429805
80.00835640255616
115.8959327315113
80.00015717467501
79.99978300719906
79.99622715172201
80.06532191489504
80.4514357701762
81.39854474454972
82.22689850842941
80.09447734234597
80.52889549178555
81.40330350962081
82.13742900733416
80.13868684598815
80.71204001774412
81.75363185522727
82.56297092285027
80.0156969417653
80.34750247296455
81.39096947848067
82.20431287389177
82.16786599322145
82.51757934943892
88.55986938123577
107.8755080780235
81.9346264598754
80.99420514378589
82.18472349454346
98.33024692034054
82.47705157201112
81.31372810864762
79.21506956688151
88.75892912292704
81.76088204749962
79.22673920158114
72.28001384529723
70.18344319271638
128.1426510646363
125.5509641435553
124.7748074309163
123.2397779999837
130.7502995616762
126.8040385027274
125.8992596193674
124.4565053350469
130.2778206901448
127.2273002580692
125.9741445683553
124.4305581235321
128.9770664069203
127.486257447792
125.8832826321936
124.4812339288464
120.7897666768911
117.9550692320578
109.3802220962651
87.96296446441606
123.0593190759783
122.1009341149193
118.8936775848197
98.44625584953423
123.2100847351802
123.0251508081868
121.9022363625969
109.675140247252
124.2556349028579
124.8358246818232
126.9445795270793
131.1895514659247
77.16670197136143
79.96384225719423
79.9997905803168
79.99999933236566
76.21541536012933
79.93981181116595
79.99956034336222
79.99999830865761
76.15276446157607
79.90789018118788
79.9991585424056
79.9999964665179
75.17545725346979
79.84715549574877
79.99846014832853
79.99999343639017
79.99999191266457
79.9981193271425
79.80955451082859
74.05768744092147
79.9999919169483
79.99812786024866
79.8127529126313
74.16453277388746
79.99999188935931
79.99812918755221
79.81503716477488
74.40296022673574
79.99999204681872
79.99817277235667
79.82542330649801
75.11772516766661
79.99999343604412
79.99999646615009
79.99999830708111
79.99999933071609
79.99846014850932
79.99915854238367
79.99956034312982
79.99979057966995
79.84715549582758
79.90789018063296
79.93981181174335
79.96384225679331
75.17545725325243
76.15276446090402
76.21541535998557
77.16670197159299
)
;

boundaryField
{
    back
    {
        type            empty;
    }
    inlet
    {
        type            zeroGradient;
    }
    front
    {
        type            empty;
    }
    top
    {
        type            zeroGradient;
    }
    outlet
    {
        type            fixedValue;
        value           uniform 80;
    }
    bottom
    {
        type            zeroGradient;
    }
    wall
    {
        type            zeroGradient;
    }
}


// ************************************************************************* //
