/*--------------------------------*- C++ -*----------------------------------*\
  =========                 |
  \\      /  F ield         | OpenFOAM: The Open Source CFD Toolbox
   \\    /   O peration     | Website:  https://openfoam.org
    \\  /    A nd           | Version:  11
     \\/     M anipulation  |
\*---------------------------------------------------------------------------*/
FoamFile
{
    format      ascii;
    class       volScalarField;
    location    "0.0815";
    object      T;
}
// * * * * * * * * * * * * * * * * * * * * * * * * * * * * * * * * * * * * * //

dimensions      [0 0 0 1 0 0 0];

internalField   nonuniform List<scalar> 
880
(
300
300
300
300.0000360066823
300
300
300.0000000001129
300.0004268775593
300
300
299.9999999994813
300.0021063040955
300.0000000000001
300
300.000000000486
299.9988256484459
300
300
299.9999999999999
300.0000000002212
300
300
299.9999999999997
300
299.9999998296275
300.0000036798643
300.0116826921512
299.9683913647296
300.6319600633093
303.1121539223071
305.5078629040007
306.7452374962386
300.0000015277055
300.0000030032789
300.0000034626188
300.0000015065122
300.0000534131214
300.0001102644762
300.000158794895
300.0000813440273
300.0516972854815
300.0741840392152
300.0926361707489
300.0804276537383
308.0865687351916
309.3317516662362
310.119451085925
311.0812650629629
310.1553763079694
307.7969372615236
305.414635984962
303.4653558035928
300.1589559787649
300.2306128965824
300.2448149128833
300.1649194574996
300.0003649734413
300.0006588265907
300.0008252888334
300.0006161294577
300.0000101509816
300.0000156604826
300.0000174857957
300.0000114676567
300.0000033682181
300.0000003480146
300.0000000077613
300.0000000000633
300.0002629056294
300.0000530534158
300.0000035014143
300.0000000488808
300.0734942837321
300.0199554894737
300.0020944756807
300.0000539938422
301.9090073527128
300.7500744700823
300.1518600840329
300.0105407129513
300.0001580379438
300.0000000457399
299.9999999945493
300.0000000000327
300.0000196594993
300.000000021776
299.9999999808542
299.9999999986956
299.9980453540583
299.9999697055114
300.0000021812647
300.0000003300894
301.1641053668869
299.9983850819278
299.9995814404693
299.9999948785945
299.9999886375854
299.9998290309925
300.0239950373281
314.5780748392643
299.9999988911681
300.0001139327862
300.1582567456823
327.5991721449502
300.0000172105437
300.0006960140178
300.3976866727846
337.3193792850827
300.0000305447372
300.00135501268
300.6712757077836
346.2457704827237
351.6330078698523
300.822172894716
300.0016758391878
300.0000394232525
355.4808822798228
301.0532582756451
300.0024983995386
300.0000565610266
357.5755944305924
301.160726823365
300.0027276669552
300.0000670795407
360.286878952617
301.5142273311484
300.0045304571279
300.0001123911825
300.0001116910394
300.0044687418645
301.7145866888982
364.4506653272816
300.0001510404534
300.0061344641077
302.1391052926023
366.2403194914679
300.0002176036789
300.0080639488825
302.3203319490516
361.8271869464154
300.000037098083
300.0009241215167
301.1346872755247
344.2326525523328
300.0003642133067
300.0255567603711
302.1634044802584
326.4714865000722
299.9995411456021
300.0142638204274
301.6568028165174
313.4840685368399
299.9992352291776
299.9818838202599
300.4850162049487
307.1372210376873
299.9998175941283
299.9481047527165
299.2818358095683
302.7725330796888
295.6951735581545
298.9104458045811
299.9776150420511
299.999942926878
289.5454671635425
298.8773849240793
299.9841903365559
299.9999565619032
285.5697250641658
299.0951675580445
299.9921842879703
299.9999813481583
288.3874631607966
299.1784595048608
299.9918491068985
299.9999799208827
288.5536837090059
299.6917637700064
299.9979505665609
299.9999943110182
289.3332488676605
299.8784284316523
299.9995361053808
299.999999012794
292.1985889219469
299.9430198693886
299.999845759684
299.9999997516254
296.1794665784704
299.9743456297235
299.9999213626666
299.9999997680408
297.6808404202581
299.8837928255186
299.9983450224612
299.9999920041597
297.8201825267307
299.8844036074045
299.998344673619
299.9999920063364
297.9343884012158
299.8833270112873
299.998338232189
299.999991977396
298.6801375991822
299.890189973881
299.9983256453682
299.9999920260053
296.1794665777696
299.9743456291984
299.9999213617813
299.99999976909
292.1985889214935
299.9430198687363
299.999845757889
299.9999997518683
289.3332488676037
299.8784284322821
299.9995361056077
299.9999990128674
288.5536837092674
299.6917637717791
299.9979505667005
299.9999943104777
299.9999429272943
299.977615044413
298.9104458041823
295.6951735577873
299.9999565635401
299.9841903369173
298.8773849243206
289.5454671633445
299.9999813472137
299.9921842891031
299.0951675577734
285.5697250654498
299.9999799209737
299.9918491075236
299.1784595066252
288.3874631605005
302.772533078715
299.281835808874
299.9481047503784
299.9998175934459
307.137221036566
300.4850162038391
299.9818838186686
299.9992352261833
313.4840685367554
301.6568028154325
300.0142638208213
299.9995411458418
326.4714865004179
302.1634044800471
300.0255567595844
300.0003642158863
300.0001116902828
300.0044687435116
301.7145866895807
364.4506653279574
300.0001510405501
300.0061344651496
302.1391052930013
366.2403194915866
300.0002176048943
300.008063948909
302.3203319481374
361.8271869465055
300.0000371002357
300.0009241216077
301.1346872746863
344.2326525521478
360.2868789537611
301.514227330232
300.0045304591628
300.000112391009
357.5755944318377
301.1607268280418
300.0027276665324
300.0000670799195
355.4808822792245
301.0532582752685
300.0024984025359
300.0000565605768
351.633007870045
300.8221728911329
300.0016758377813
300.0000394228314
299.9999886385747
299.9998290318936
300.023995037419
314.5780748383643
299.9999988904634
300.0001139315672
300.1582567460156
327.5991721446404
300.0000172098909
300.0006960134934
300.3976866730154
337.3193792852533
300.0000305439219
300.0013550138816
300.6712757092126
346.2457704835805
299.9999948784402
300.0000003305352
299.9999999987002
300.0000000000334
299.9995814394067
300.0000021812613
299.9999999818012
299.999999994249
299.9983850822725
299.99996970578
300.0000000211461
300.0000000454311
301.1641053669234
299.9980453542452
300.0000196595749
300.0001580379789
299.9999999995448
300.0000000488965
300.0000539945854
300.0105407134574
300.0000000075137
300.000003501007
300.0020944781473
300.1518600839462
300.0000003486362
300.0000530535582
300.0199554876879
300.7500744700187
300.0000033684918
300.000262905609
300.0734942852752
301.9090073520319
300.0000101495946
300.0003649722632
300.1589559788241
310.1553763076804
300.0000156591796
300.0006588266052
300.2306128966468
307.7969372606719
300.0000174851657
300.0008252899768
300.2448149126361
305.414635984606
300.0000114671478
300.0006161303143
300.164919457139
303.4653558029114
311.0812650631894
300.0804276566565
300.0000813433496
300.0000015058735
310.119451086462
300.0926361732584
300.0001587946498
300.0000034628721
309.3317516676555
300.0741840370752
300.0001102650743
300.0000030028709
308.0865687346826
300.0516972795618
300.0000534124566
300.0000015281641
306.7452374968113
299.9683913705831
300
300.0000000002571
305.5078629034298
300.0116826874207
300
300.0000000000001
303.1121539226918
300.0000036795665
300
300
300.6319600631449
299.9999998293673
300
299.9999999999999
300
299.9999999999999
300
300.0000360091379
300.0000000000002
300
300.0000000000806
300.0004268704645
300
300
299.9999999995605
300.0021063032734
300
300
300.0000000000874
299.9988256489922
300.0000444565609
300.0003902929789
300.0027880283034
300.1449891141044
300.0003903081136
300.0001922323792
299.9997256142258
300.6079262537087
300.0027880153447
299.999725572988
300.2145186871163
304.7313027370868
300.1449891242534
300.6079262553749
304.7313027865277
323.5121123633454
352.4777610025535
332.7446246450933
319.7031147905011
308.5405912385964
348.6531612799163
343.5933210361468
338.9144835449869
329.8062066127165
345.3194239457121
343.1730977349584
341.2286886861211
337.3963421819556
343.2490874812663
342.314690698082
341.9399258145097
340.1090989732161
343.213700854433
344.9228497550469
345.4783173643503
347.9679230894499
343.0515651080512
344.277363958801
345.053486511107
348.4406385154936
342.79745761942
343.7312184299515
344.8240338367542
346.7093498209999
342.8298441520532
343.5441019740155
345.0071132185827
343.0859794549028
331.5659984098019
314.4947382920254
306.2654253571476
303.9915349658176
322.9679850902372
307.4348695957559
304.5820295239804
304.0089185489748
312.9118162904013
301.9136823620614
304.6609316485113
304.3717834338958
288.604031253112
292.5898405418553
302.621222622107
303.4912598791499
302.9578265788963
301.4879038416509
300.4380258985113
300.0644227562392
303.0703388627887
301.6223745576853
300.5214480571596
300.0900949581073
303.582486035465
302.0795850460466
300.729727819943
300.1356622774619
303.1464830979705
301.6987164038803
300.3438176861894
300.0085684672838
300.0030188212453
299.9999792648289
300.0000284160504
321.6071102609001
300.0051600166484
300.0000277464834
300.0000282747171
336.5261298096306
300.0080903316382
300.0000405404525
300.0001092363132
345.9130797362699
299.9950510569757
299.9996519050594
300.0001545325115
348.7727654263371
395.2184774983069
409.9637367090724
417.5197352974254
425.8014210710682
412.9739244854192
415.4091934061024
416.5025567160756
421.4818327831456
419.3798106421653
412.5548299195644
413.2738404263256
415.3859843253859
429.9159387041265
416.950074222502
411.9044137273027
413.5840683109317
431.1245930591475
434.276011283129
434.6517074351213
434.9619267749874
425.0651735099765
427.6278160003058
428.0554591877769
428.1449518934759
418.2783632699511
420.7384470344535
421.3888291416637
421.4209108696729
416.2309391301699
418.7375233298563
419.5163354087398
419.5455925157904
434.6748092612934
431.7855963625963
421.0868076699207
398.4269998273535
427.7462910217262
425.1021609288026
416.4242230311134
412.6430113668445
421.1176138809374
418.7582513900888
413.2545452212686
422.1798706635684
419.0369865815933
417.4059525354951
415.6487862262858
404.7878585884039
357.1050078380915
307.8546273445444
232.7036259333503
209.1476095303048
345.0369381860682
270.2517552490506
211.8784689725148
186.2702401145676
307.1784941812105
234.2092871647159
181.7094567858575
160.1616891237914
240.4147867538079
177.604356537951
174.9590790985648
149.3671154447914
210.0401313598335
209.6064587533995
209.372357186475
202.7852829927501
183.5430736305782
181.5633847991662
180.006477716381
178.2970599572426
154.3655738367858
153.5893133978962
157.561448342277
182.649970729077
141.9535282006437
142.7178483522846
148.9642250939639
186.4553425342584
252.8463039416287
260.2542072524089
263.925166137658
274.0281094759662
266.3615699576976
266.7360944337477
262.7549747069862
275.1327350009507
263.3560139210052
284.1809822947907
278.3836372901825
284.850033563649
239.7872752774203
275.079441854202
286.7000903262022
291.2698210573022
251.3030325869684
214.4202664530502
193.2483984994885
220.636490917249
246.1320969038615
212.0086686370211
158.9879888822274
137.6604161215538
241.0868324177376
187.8815112953531
124.358869186548
110.5807784145384
204.2400971637131
131.0174479830166
82.812279683572
86.93205870269658
104.6553367799399
133.4870173696462
168.6952467279482
192.4503712123598
119.3421453563023
150.9349911052442
192.8668081922908
220.2868258233311
159.0695968767959
185.3723108628885
225.6161515851794
252.077427285431
240.7019240907348
241.6491040423815
259.5824646865774
274.9765701066491
192.4503712124658
220.286825823346
252.0774272854084
274.9765701066033
168.6952467281884
192.8668081922651
225.6161515852438
259.5824646865395
133.4870173696906
150.9349911052715
185.3723108625821
241.6491040420113
104.6553367799808
119.3421453564569
159.069596876411
240.7019240898726
220.6364909162518
193.2483984989452
214.4202664525925
251.3030325860432
137.6604161213452
158.9879888823097
212.0086686371502
246.1320969034232
110.5807784147334
124.3588691862732
187.8815112949379
241.0868324175269
86.93205870276331
82.81227968359255
131.017447982926
204.2400971634879
291.2698210570433
286.70009032619
275.0794418543387
239.787275276589
284.8500335634253
278.3836372901728
284.1809822950402
263.3560139202859
275.1327350007537
262.7549747068912
266.7360944340092
266.3615699575652
274.0281094754876
263.9251661375074
260.2542072526244
252.8463039417866
202.7852829922826
209.3723571876924
209.6064587533651
210.0401313592576
178.297059957083
180.0064777173492
181.5633847995371
183.5430736302451
182.6499707292604
157.5614483428486
153.5893133983108
154.3655738367774
186.4553425343493
148.9642250942622
142.7178483525206
141.9535282008551
209.1476095291409
232.7036259315201
307.8546273444471
357.1050078381784
186.2702401131145
211.8784689714333
270.2517552483793
345.0369381851311
160.1616891227964
181.7094567849024
234.2092871648295
307.1784941812711
149.3671154446191
174.9590790974429
177.6043565374066
240.4147867537933
398.4269998272833
421.0868076704045
431.7855963627666
434.6748092615038
412.6430113667407
416.4242230312142
425.1021609291033
427.746291022248
422.1798706635064
413.2545452212302
418.7582513905704
421.1176138816119
404.7878585884344
415.64878622662
417.4059525360273
419.0369865823234
434.9619267748332
434.6517074340783
434.2760112843422
431.1245930593473
428.1449518938575
428.0554591872987
427.6278160007628
425.0651735099462
421.4209108702059
421.3888291417983
420.738447034375
418.2783632700229
419.5455925164586
419.5163354091271
418.737523329582
416.2309391301332
425.8014210711625
417.5197352970966
409.9637367085224
395.2184774980174
421.4818327845221
416.5025567152517
415.4091934062072
412.9739244851741
415.3859843270435
413.2738404253489
412.5548299196045
419.3798106417195
413.5840683117486
411.9044137264205
416.9500742226974
429.9159387035534
321.6071102605907
300.0000284150611
299.9999792647226
300.0030188214091
336.5261298091648
300.0000282740227
300.0000277465036
300.0051600169326
345.9130797358194
300.0001092357947
300.0000405404859
300.008090332042
348.772765426042
300.000154532562
299.9996519049663
299.995051057644
300.0644227563787
300.438025898073
301.4879038418349
302.9578265778304
300.0900949581207
300.5214480570402
301.6223745574879
303.0703388619513
300.1356622773474
300.7297278202057
302.0795850454533
303.5824860349303
300.0085684670152
300.3438176864663
301.6987164031817
303.1464830973421
303.9915349656109
306.2654253569186
314.4947382914426
331.5659984093237
304.0089185486502
304.5820295237648
307.4348695952561
322.9679850899419
304.3717834335121
304.6609316482135
301.9136823615579
312.9118162902805
303.4912598785439
302.6212226216773
292.5898405411
288.6040312529774
347.9679230881158
345.4783173638836
344.9228497567566
343.2137008571484
348.4406385146155
345.0534865111248
344.2773639600994
343.051565109596
346.7093498203848
344.8240338366204
343.7312184303354
342.7974576201865
343.0859794544882
345.0071132183866
343.5441019742167
342.8298441524646
340.109098972719
337.3963421817525
329.8062066135902
308.5405912379118
341.939925814474
341.2286886861652
338.9144835461268
319.7031147903452
342.3146906981107
343.173097735058
343.593321037334
332.7446246426531
343.249087481236
345.3194239451074
348.6531612798855
352.4777610051095
297.6238022819361
299.9675849814884
299.9997948874368
299.9999993199979
297.4155850819504
299.9519295105158
299.9995860639398
299.9999982984378
298.7293887629451
299.9360305631746
299.9992121388037
299.9999964437037
298.8109761176177
299.9002519106296
299.9985652500857
299.9999934127848
299.9999920049737
299.9983450223149
299.8837928252528
297.6808404197667
299.9999920069177
299.9983446744695
299.8844036063294
297.8201825268526
299.9999919764743
299.9983382332013
299.8833270105062
297.9343884003353
299.9999920234919
299.9983256465649
299.8901899708385
298.6801375984975
299.9999934122372
299.9999964429076
299.9999982953439
299.9999993170736
299.9985652503604
299.9992121387756
299.9995860635213
299.9997948862727
299.9002519107424
299.9360305623632
299.9519295114528
299.9675849806126
298.8109761168622
298.7293887618551
297.4155850817311
297.6238022821879
)
;

boundaryField
{
    back
    {
        type            empty;
    }
    inlet
    {
        type            zeroGradient;
    }
    front
    {
        type            empty;
    }
    top
    {
        type            zeroGradient;
    }
    outlet
    {
        type            fixedValue;
        value           uniform 300;
    }
    bottom
    {
        type            zeroGradient;
    }
    wall
    {
        type            zeroGradient;
    }
}


// ************************************************************************* //
