/*--------------------------------*- C++ -*----------------------------------*\
  =========                 |
  \\      /  F ield         | OpenFOAM: The Open Source CFD Toolbox
   \\    /   O peration     | Website:  https://openfoam.org
    \\  /    A nd           | Version:  11
     \\/     M anipulation  |
\*---------------------------------------------------------------------------*/
FoamFile
{
    format      ascii;
    class       volScalarField;
    location    "0.131";
    object      T;
}
// * * * * * * * * * * * * * * * * * * * * * * * * * * * * * * * * * * * * * //

dimensions      [0 0 0 1 0 0 0];

internalField   nonuniform List<scalar> 
880
(
300
300
300.0000000000943
300.0005775988749
300
300
300.0000000042972
300.0024029876693
300
300
300.0000000528775
300.0126465773643
300.0000000000001
300
300.0000010960692
300.0252441371602
300
300
299.9999999999999
299.9999999973664
300
300
299.9999999999997
300
299.9999935266457
300.0000889988334
300.0480563610167
299.9214977572323
301.3372626478229
305.1778835091409
308.5738562305498
309.8538094554897
300.000007229085
300.0000518213379
300.0000749515095
300.0000566301823
300.000192336485
300.0005270620657
300.0017437011286
300.0014281352247
300.098956647722
300.2221137548023
300.3972839456094
300.4408380709222
311.3722754752651
313.2721326845738
314.9250275124533
317.0444416868928
316.5393916108179
313.6264122099358
311.1221330309311
309.3356953385226
300.7751695289656
301.5044209190622
301.805081444322
301.7107316322368
300.0041571815721
300.0119684270985
300.0235379253311
300.029636725496
300.0001832686992
300.0005077360268
300.001127592176
300.0013242765601
300.0011274974668
300.0006749646597
300.0002328784682
300.0000313228591
300.027494956448
300.0215485990159
300.0124524135974
300.0040310575273
301.4191477540647
301.0665025222218
300.6965132518569
300.3369072777846
307.4546337821792
305.5231536319307
303.8849833969703
302.5574420484812
301.4391801663339
300.0940405649043
300.0005442785784
300.0000006871221
300.5771045693696
300.0140318378028
300.0000379886733
300.0000001878889
300.0808972554323
300.0001677346243
299.999985264845
300.0000000365727
303.4199551957254
300.023377333247
299.9998363015842
299.9999860924641
299.9999474113664
299.9999025705023
300.1222748723729
325.0198891194947
299.9999947229808
300.0017817870568
300.6992307005734
343.0538857695723
300.0001762934232
300.0042306990652
301.4716893948492
353.8467393842503
300.0006338785143
300.0150386303103
302.7443998517844
362.7290132062279
369.8767176521164
304.2203624745914
300.0228753185613
300.0010264532982
377.7015731032268
306.2116625286833
300.0497552291631
300.0020810670811
383.7949773696481
308.0674761429945
300.0607394660983
300.0023464461959
389.9923867803756
310.2103327366997
300.1016118214462
300.0042710137038
300.0050536512737
300.1302574828936
312.8685875016708
394.9874859443455
300.0080609781805
300.2051701155909
315.889219977874
394.5059122094175
300.0164711214001
300.2769170007078
315.7458400942246
384.6630288983291
299.9993744827513
300.1297740475684
310.0463899160406
362.2207791661476
300.0269076105159
300.4978437152044
310.9737262955366
341.6650945840659
300.0323295782406
300.622226968496
306.4807451117939
318.6177045772257
300.0079829451755
300.3473198815174
305.4088472377907
312.8805478159353
299.9957144885337
300.0594878455372
304.0681383700853
319.6784149418936
316.8217965408027
301.0385084599371
299.8429455066004
299.9919094194495
309.5673895363586
299.1863873374265
299.7971928648718
299.9963066487725
302.8390904653409
298.0619363792153
299.8002223724055
299.9987680335654
293.4622502083635
297.5743630584365
299.865075549346
299.9992370576113
286.3807406524114
298.1481153149402
299.9544220779093
299.9997610627485
280.7174839898478
298.9305545989569
299.9871364811697
299.9999434921618
279.6854696389168
299.2861451607434
299.9943516543728
299.999980723533
281.7172771352212
299.6662998947056
299.9982709308021
299.9999909767477
297.7729851702358
299.4741958747716
299.9779068199842
299.999770135247
298.8501132946033
299.5141765121372
299.9762930341008
299.9997611726718
298.8625535099753
299.5222252541123
299.9724738304093
299.999728804479
300.0418983520751
299.6211822300535
299.9621073950302
299.9996158047679
281.7172771347837
299.6662998938413
299.9982709294316
299.9999909793418
279.6854696384966
299.2861451603808
299.9943516517296
299.9999807232296
280.7174839893096
298.93055460037
299.9871364816536
299.9999434924302
286.3807406527557
298.1481153173306
299.9544220779599
299.9997610619497
299.9919094195092
299.842945508537
301.0385084597947
316.8217965404866
299.9963066505273
299.7971928658898
299.1863873384118
309.567389536858
299.9987680318399
299.8002223742757
298.0619363781141
302.8390904657297
299.9992370583217
299.8650755501811
297.5743630602091
293.4622502076871
319.6784149404574
304.0681383682314
300.0594878423707
299.9957144869674
312.8805478136183
305.4088472364654
300.3473198802157
300.0079829427604
318.6177045780707
306.4807451104613
300.622226968819
300.0323295781109
341.66509458429
310.9737262951246
300.4978437141189
300.0269076142657
300.0050536501594
300.1302574865326
312.8685875034524
394.9874859450216
300.00806097795
300.205170117774
315.8892199794817
394.5059122097933
300.0164711218768
300.2769170008125
315.7458400933637
384.663028898306
299.9993744873876
300.129774047905
310.0463899151549
362.2207791659141
389.9923867816416
310.210332736757
300.1016118223702
300.0042710142764
383.7949773714739
308.0674761462976
300.0607394650925
300.002346446536
377.7015731033696
306.2116625268552
300.0497552381069
300.0020810659701
369.876717652968
304.2203624738032
300.0228753104257
300.0010264524632
299.999947413067
299.9999025715395
300.1222748723957
325.0198891183916
299.9999947225062
300.0017817868768
300.6992307017121
343.0538857697612
300.0001762923202
300.0042306951501
301.4716893945736
353.8467393846958
300.0006338769701
300.0150386368478
302.7443998522813
362.7290132060731
299.9999860918896
300.0000000374281
300.0000001879382
300.0000006865867
299.9998363000053
299.9999852654245
300.0000379906226
300.0005442766966
300.0233773336633
300.0001677351436
300.0140318361522
300.0940405653922
303.4199551960741
300.0808972558528
300.5771045690973
301.4391801665996
300.000031320653
300.0040310580782
300.3369072794697
302.5574420488354
300.0002328784607
300.0124524131158
300.6965132537271
303.8849833970096
300.0006749660344
300.0215485992592
301.0665025213617
305.5231536314396
300.0011274976341
300.0274949566268
301.4191477551116
307.4546337815056
300.0001832667293
300.0041571800023
300.7751695293805
316.5393916110886
300.0005077338424
300.0119684268154
301.5044209195668
313.6264122092909
300.0011275908349
300.0235379267821
301.8050814444694
311.1221330304298
300.001324275545
300.0296367268143
301.7107316324154
309.3356953374599
317.0444416878818
300.4408380734849
300.0014281343041
300.0000566292818
314.9250275127405
300.3972839473271
300.0017437008756
300.0000749507484
313.2721326857568
300.2221137547158
300.000527062214
300.0000518220882
311.3722754748512
300.0989566465883
300.0001923359647
300.0000072298831
309.8538094553564
299.9214977575791
300
299.9999999980095
308.5738562293773
300.0480563563286
300
300.0000000000001
305.1778835088018
300.0000889983397
300
300
301.3372626483008
299.9999935260261
300
299.9999999999999
300
299.9999999999999
300.0000000000147
300.0005776013227
300.0000000000002
300
300.0000000043735
300.00240298614
300
300
300.000000053005
300.0126465743298
300
300
300.0000010947906
300.0252441383925
300.0014273961187
300.0053231673589
300.0233911710801
300.2833180884126
300.0053231867074
300.0073733127711
300.0250232638671
301.0737986817083
300.0233911647108
300.0250231843206
300.4252023900343
306.5740304145061
300.283318048345
301.0737986622852
306.574030526332
326.3731062070523
355.2647455744793
336.3493653104453
323.1705600199249
311.127168008165
351.5264073218865
346.8436718676922
342.3908904129624
333.5738748561058
348.7989661275828
346.6490955901464
344.4697342953509
340.4308103479344
346.6780133252591
345.9319590035204
345.5384573520824
343.5045779962044
344.9747906277564
345.359010147192
346.1546276723619
348.0921064245939
345.380950592263
344.8241943638428
345.3811159524888
347.4088447341326
345.6659059366748
344.4384871852162
344.6438027745324
345.8476687286095
346.2496992370744
344.3889033922908
344.3535008178723
341.9646004636715
331.1036666592182
312.1397663243295
303.4255632333977
304.0723203200941
322.0293276132169
304.4417814787554
301.732337618064
304.8201174734059
311.4946078432012
298.5837612976664
302.7290914830214
306.4127090319805
287.7009522259406
291.5882812434107
302.1996030854727
306.0027182911895
303.8951484143221
303.257159085273
302.5742810807535
302.2796586801148
304.7606901731947
303.8796487983304
302.8109123107128
302.4807487298492
306.0263274954784
304.6838697797831
303.3237117355035
302.7614554274365
305.5232580665141
304.1495294278196
302.7324095443427
302.3342267202817
301.9965456690428
301.1897064266707
300.3803163858291
334.3667744217193
301.9095648171476
301.0589701624913
300.42343861425
351.2659105984231
302.0698224351729
301.1560352709378
300.9766966255643
360.6501430217972
301.8646750769402
300.8617523665786
301.8084206319741
366.5167939716102
411.0189992638783
421.1382446728527
423.5757413454479
425.0837084473071
424.2520010214261
426.692607317353
424.4694746845737
423.3152453866727
426.4988348855467
424.993409430109
423.8818068725771
421.3043701419658
434.2975543494978
428.5917880483894
424.2265277384644
420.4648234773339
425.130883464566
427.7104527663484
430.2599987408279
433.444208505968
421.7858672448137
423.2820628298679
425.0221264331405
428.0190772201941
417.2970802058332
417.9714806704668
419.1091239328264
421.7199164603539
415.771300350922
415.7219304731618
416.3632794719051
418.8079854864757
433.970741813638
428.7840931914472
417.2865209099665
398.111345376142
429.1258320283176
425.0235472869595
415.0882771416807
414.720111915965
423.3162394692976
420.5673506701073
415.5205534967945
428.5481136611925
420.3245660247791
419.272179529793
420.3422834894842
409.7777437615259
362.5758811680922
298.3066442995221
204.8600857777537
202.8282028777077
351.1757724431118
262.581985906273
187.7195847395438
169.0101920683011
317.9100424265895
215.3324396963231
164.3364242984882
153.8857169326761
241.1562719998154
153.9439367556689
162.8827988336388
149.6087373075482
217.0968104576909
227.7638897173335
235.4301953661333
234.9007817419545
179.3714518052294
193.7488417527973
209.6449529409888
225.8265134512646
156.8611051140496
167.4013563248258
192.0166067080716
226.1421870711656
148.7693708127088
157.517454994857
187.7335244070261
232.3471967883828
267.2713884609108
257.2261244324115
251.6231839524611
254.6660100355092
272.6532713275817
267.0533985651023
257.72646803242
260.6292582443137
265.4498877427392
273.915755557964
269.4475253522667
274.7544704015599
249.7766425288128
266.0553179053547
270.0462923306302
287.4702300665857
233.5244219433358
209.2400490216646
186.5649461888388
208.4361491448052
237.3922006924392
208.8827388390776
209.627988805965
217.5342116485341
240.1693454011148
194.9631342466128
219.8224421557071
199.3887005071059
213.6183479724575
210.3418804669728
217.141674593039
185.127934172243
171.2221105912535
168.383705506843
166.8765514768432
164.5154098600738
176.2764658550058
171.4358668003038
172.4227658404713
172.55957709166
202.7671617812395
203.8284179596675
209.3028230155778
211.1921609159649
247.6750561278082
260.4927889051471
255.4622295856211
252.5178391385124
164.5154098601488
172.5595770916729
211.1921609158461
252.5178391378622
166.8765514770992
172.4227658405141
209.3028230155898
255.4622295851183
168.3837055070607
171.4358668005176
203.8284179597069
260.4927889045675
171.2221105914196
176.2764658552101
202.7671617813018
247.6750561276642
208.4361491448249
186.5649461885613
209.2400490210815
233.5244219426122
217.5342116485089
209.6279888060762
208.8827388389181
237.3922006919437
199.38870050706
219.8224421558009
194.963134246484
240.1693454009049
185.1279341722415
217.1416745929344
210.3418804670648
213.6183479723469
287.4702300665336
270.0462923302646
266.0553179042039
249.7766425272609
274.7544704013475
269.4475253520384
273.9157555570084
265.4498877410208
260.6292582440082
257.7264680321829
267.0533985640818
272.6532713259281
254.6660100352072
251.6231839522613
257.2261244313557
267.2713884594788
234.9007817414051
235.430195366559
227.7638897178783
217.0968104574173
225.8265134506036
209.6449529414047
193.7488417536124
179.3714518050146
226.1421870704776
192.0166067083023
167.4013563253284
156.8611051140348
232.3471967873056
187.7335244069428
157.5174549951139
148.7693708128404
202.8282028760182
204.860085776314
298.3066442995131
362.5758811681629
169.0101920672165
187.7195847384432
262.5819859059343
351.1757724425684
153.8857169319396
164.3364242975118
215.3324396960163
317.9100424265059
149.6087373071446
162.882798831234
153.9439367541245
241.1562719995093
398.1113453759272
417.286520909959
428.7840931912877
433.9707418137097
414.7201119159652
415.0882771417788
425.0235472869962
429.1258320286115
428.5481136613247
415.5205534970073
420.5673506704719
423.3162394699065
409.7777437615084
420.3422834899974
419.2721795302195
420.3245660255965
433.4442085063489
430.2599987420061
427.7104527669588
425.1308834650898
428.0190772208111
425.0221264341315
423.2820628303973
421.7858672455395
421.7199164612405
419.1091239336487
417.9714806709467
417.2970802068236
418.8079854876021
416.3632794726329
415.7219304738068
415.7713003521944
425.0837084474836
423.5757413441746
421.1382446723931
411.0189992627314
423.3152453867887
424.4694746831954
426.6926073174299
424.2520010195627
421.3043701421237
423.8818068715177
424.993409429407
426.4988348830342
420.4648234772254
424.2265277379641
428.591788047582
434.2975543468319
334.3667744196489
300.3803163830594
301.1897064279602
301.9965456687699
351.2659105958186
300.4234386111148
301.0589701643348
301.9095648164705
360.6501430194928
300.9766966236664
301.1560352730763
302.0698224342055
366.5167939691424
301.8084206300486
300.8617523681335
301.8646750766188
302.279658680405
302.5742810807074
303.2571590849007
303.8951484137618
302.4807487302855
302.8109123105822
303.8796487981087
304.7606901726382
302.7614554278082
303.3237117351247
304.6838697797047
306.0263274948995
302.3342267207917
302.7324095440288
304.1495294277158
305.5232580658637
304.0723203191543
303.4255632328979
312.1397663234993
331.1036666591613
304.8201174725112
301.732337617542
304.4417814776893
322.0293276132709
306.4127090311629
302.7290914825512
298.5837612964692
311.4946078432365
306.0027182903114
302.199603085038
291.5882812419322
287.7009522255202
348.0921064245334
346.154627672955
345.3590101496107
344.9747906287499
347.4088447336149
345.3811159529482
344.8241943660998
345.3809505919265
345.8476687279016
344.6438027744654
344.4384871870751
345.665905936533
341.9646004632261
344.3535008174596
344.3889033939373
346.249699236739
343.5045779949327
340.4308103485758
333.5738748535118
311.1271680186821
345.5384573503918
344.4697342950724
342.3908904141678
323.1705600180919
345.9319590020773
346.6490955894709
346.8436718686894
336.3493653040904
346.6780133236643
348.7989661254429
351.5264073184732
355.264745576727
283.4556003688564
299.509158450539
299.9949018661596
299.999976411433
287.6324984537115
299.5634072765411
299.9937839258368
299.9999587347047
293.8003253335219
299.629844827286
299.9910262953093
299.9999248050031
299.4809971876994
299.6661829389079
299.972291349585
299.9997340683872
299.9997701361927
299.9779068202617
299.4741958735804
297.7729851677982
299.9997611737957
299.9762930353623
299.5141765104158
298.8501132943563
299.9997288026821
299.9724738319207
299.5222252529094
298.8625535090439
299.9996158006817
299.9621073966778
299.6211822273874
300.0418983509504
299.9997340669863
299.9999248025925
299.9999587289212
299.9999764067284
299.9722913502816
299.9910262954014
299.9937839254349
299.9949018645863
299.6661829383266
299.6298448256085
299.5634072776465
299.509158449609
299.4809971866122
293.800325331694
287.6324984530011
283.4556003692262
)
;

boundaryField
{
    back
    {
        type            empty;
    }
    inlet
    {
        type            zeroGradient;
    }
    front
    {
        type            empty;
    }
    top
    {
        type            zeroGradient;
    }
    outlet
    {
        type            fixedValue;
        value           uniform 300;
    }
    bottom
    {
        type            zeroGradient;
    }
    wall
    {
        type            zeroGradient;
    }
}


// ************************************************************************* //
