/*--------------------------------*- C++ -*----------------------------------*\
  =========                 |
  \\      /  F ield         | OpenFOAM: The Open Source CFD Toolbox
   \\    /   O peration     | Website:  https://openfoam.org
    \\  /    A nd           | Version:  11
     \\/     M anipulation  |
\*---------------------------------------------------------------------------*/
FoamFile
{
    format      ascii;
    class       volVectorField;
    location    "0.239";
    object      U;
}
// * * * * * * * * * * * * * * * * * * * * * * * * * * * * * * * * * * * * * //

dimensions      [0 1 -1 0 0 0 0];

internalField   nonuniform List<vector> 
880
(
(25 -3.21307664682713e-16 0)
(24.99999999994116 1.989867228587056e-11 0)
(24.99999996666977 -5.242441196113259e-08 0)
(24.99978905733327 1.60196760735226e-05 0)
(24.99999999999999 -2.013526346414085e-15 0)
(25.00000000019438 -2.430916155231813e-10 0)
(24.99999985421167 -1.249558757648273e-07 0)
(24.99934593888834 -0.001023935989385328 0)
(24.99999999999999 -9.654970313090994e-16 0)
(24.99999999885705 2.997852899588954e-09 0)
(24.99999816466661 -2.127571438865644e-06 0)
(24.99937169476991 -0.00179992037663614 0)
(24.99999999999999 1.095397000431542e-15 0)
(25.00000002946841 1.634346769023069e-10 0)
(24.99998453176566 6.760085445836818e-06 0)
(24.98068250579259 -0.05204193550854377 0)
(24.99999999999999 -1.184611335785393e-15 0)
(24.99999999999973 3.239669318524999e-13 0)
(24.99999999740432 -3.088966000783338e-10 0)
(25.00000147651987 3.164629462436026e-07 0)
(25.00000042803352 -5.593336336441434e-08 0)
(24.99999946091021 9.346382691619909e-08 0)
(24.99999575537871 6.93688192245441e-06 0)
(24.99995689986354 1.196876534082688e-05 0)
(25.00019421664527 -0.0001705467423662096 0)
(24.99967876933633 0.0001785831794449257 0)
(24.99005853925222 0.01495081929214729 0)
(25.01452001168382 -0.02000438897047966 0)
(24.72197344762841 -0.1585618540697477 0)
(24.04838083052745 0.2101620334702812 0)
(23.65713155539323 0.7876885047902236 0)
(23.53632838496172 1.165198032150004 0)
(24.99998808042513 -4.759267761877378e-07 0)
(24.99998723161278 0.0001803205332227206 0)
(24.99993454897055 -0.0002303004855972118 0)
(24.99990438345252 -0.0002169457517766978 0)
(24.99999676733485 -6.952564572042698e-05 0)
(24.99961274576023 4.651782628768526e-05 0)
(24.99878339501437 0.000962812098656632 0)
(24.99855709536279 0.001193355494193488 0)
(24.97080088539231 -0.01018654362670445 0)
(24.92806406624422 0.02521220427612088 0)
(24.88532639690392 0.08543277495550979 0)
(24.85109371390053 0.1250989478580101 0)
(23.50664407338784 1.51377510828473 0)
(23.2971293959964 1.96160435882516 0)
(23.28737757511321 2.287253378003869 0)
(23.15962982324007 2.545230486008239 0)
(23.54456756565447 3.087308684694802 0)
(24.11446649853367 3.084834774915117 0)
(24.63955859321334 2.923675994275442 0)
(25.00998559869535 2.633077603080983 0)
(24.75532384406245 0.244699536628158 0)
(24.65434709885272 0.4510084339864275 0)
(24.66577211954881 0.6997392790442225 0)
(24.77690910610453 0.8646574069617842 0)
(24.99532085588521 0.003983735133613821 0)
(24.98495383311326 0.01206753385872355 0)
(24.96907577172074 0.03368799434072457 0)
(24.95748523846565 0.07118475068781238 0)
(24.9996629014668 -0.0004126532029406899 0)
(24.99873541473866 -0.001199336329002416 0)
(24.99678578660826 -0.003219079271128375 0)
(24.99452918213517 -0.006607371463431635 0)
(24.99101004328969 -0.009724354442131213 0)
(24.98824858295638 -0.01010736113491886 0)
(24.9871151301126 -0.009335762231813783 0)
(24.98730244383201 -0.007962149412606081 0)
(24.96241693810845 0.1103930290785769 0)
(24.98712251858966 0.1335450105305977 0)
(25.01510189078134 0.1304854107124606 0)
(25.02872843283932 0.1187859925121505 0)
(24.92205375229547 0.9031280985153745 0)
(25.08296770043382 0.8579360854399836 0)
(25.18593430126731 0.7866973912890504 0)
(25.25834376448815 0.7113601510797282 0)
(25.24443704176898 2.292073411819449 0)
(25.37780836022979 1.931725571158485 0)
(25.48430628904974 1.563743933319776 0)
(25.67278909688211 1.208560062411938 0)
(25.78880121890919 0.8848251475233498 0)
(25.30548542010458 0.605935066059193 0)
(25.03835704390486 0.09832359859560939 0)
(24.98850798391125 -0.006156666507478842 0)
(25.84894867185111 0.5952255087901857 0)
(25.31385868615903 0.4974497989237598 0)
(25.03954284194948 0.07493643995794032 0)
(24.99067110174481 -0.004248641440718691 0)
(25.74006985043258 0.4793337085601406 0)
(25.29613314554864 0.3785292650321361 0)
(25.03510983439378 0.05145766698025417 0)
(24.99344383443561 -0.002533632883005425 0)
(24.90566541282707 0.8620752309400799 0)
(25.25860529301651 0.2208563222947008 0)
(25.02845185795806 0.02512268319849705 0)
(24.99655612836731 -0.001094476282329424 0)
(24.99867477483431 -0.0004475543612592433 0)
(25.01103705352103 0.007073205701581734 0)
(25.03807034148499 0.1617864297930976 0)
(21.0412192530158 1.739057002268447 0)
(24.99937799305554 -0.0002265328606244106 0)
(25.00119607414416 0.003479094863936977 0)
(24.70491157503979 0.2276998736558224 0)
(17.88279580026191 3.288682569238272 0)
(24.99935533723195 -0.0005271869299407733 0)
(24.99231108490039 0.007052268186216583 0)
(24.16344326636491 0.4903791840251885 0)
(16.77612101399434 4.965151851624355 0)
(24.9984094975238 -0.001631614639149238 0)
(24.97499001675634 0.02367084025308467 0)
(23.57725945887599 1.011367467806206 0)
(16.27359295599747 6.43645944500259 0)
(15.96368799381686 7.671118945923984 0)
(22.98213736364695 1.733307325878369 0)
(24.94996331368774 0.05693275419495749 0)
(24.99530721360991 -0.004164556745587379 0)
(15.88683769039634 8.768953841366059 0)
(22.33940419106876 2.713510859423591 0)
(24.88959835703056 0.1453004355822289 0)
(24.99028850750418 -0.01035220652002584 0)
(15.80375281952193 9.803864869604999 0)
(21.73727269332547 3.853670196504512 0)
(24.81967403266808 0.2773550263517037 0)
(24.97828225002482 -0.01988566423246511 0)
(16.08371346036351 10.55448628180397 0)
(21.22629686156399 5.08118239968149 0)
(24.661981778462 0.5657669866299194 0)
(24.95890280651866 -0.038817628777076 0)
(24.92252084264239 -0.06664737462845562 0)
(24.50852801056955 0.9427439076062867 0)
(20.77708972661873 6.450070106453214 0)
(16.63802992711928 10.98717946976139 0)
(24.87155018109506 -0.1061480888384519 0)
(24.28093528852306 1.611856220262469 0)
(21.53899608775767 7.03028952328481 0)
(17.94089354357299 10.84407706849647 0)
(24.98933115895379 -0.1021935043768381 0)
(24.61372987543583 1.728404047663624 0)
(22.83042657198414 6.480681457692754 0)
(20.0196914276421 10.17984293939438 0)
(24.73868534695013 -0.210869015575275 0)
(24.81556035651714 1.3526817761565 0)
(24.1675478550018 5.179670285355463 0)
(22.8089105081472 8.501145697154868 0)
(24.72780794788631 -0.09443825115795304 0)
(25.05863691414837 1.569373709333205 0)
(25.57407162309692 4.102677979626284 0)
(26.52878254994139 5.880017098924129 0)
(24.88849944961071 0.04946076113853478 0)
(25.49485116607788 1.187863028066148 0)
(26.89319162968235 2.729983945862895 0)
(29.36056877865492 2.645058116883015 0)
(24.9341340854794 -0.0007046124376117814 0)
(25.65063981127842 0.704735285155444 0)
(27.4389433810523 1.356314447054027 0)
(30.74695830829743 -0.9736355471932341 0)
(25.01119520133853 -0.01175095549500788 0)
(25.55408908276401 0.3380786539776519 0)
(27.38559665260633 0.2720281182189166 0)
(32.18989248696732 -2.823831326261531 0)
(28.21350432084118 -2.142329786651477 0)
(26.80946171179207 -0.4066259727493292 0)
(25.39140779290435 0.08007273551942785 0)
(25.0345785745615 -0.01470941388380436 0)
(25.3207760740048 -1.774123366654468 0)
(26.20150121124364 -1.123782121388823 0)
(25.2451178238955 -0.1197246202105683 0)
(25.02543300964335 -0.008671219512669397 0)
(22.39039472825733 -3.166944161964907 0)
(25.49746884093648 -1.79912296927705 0)
(25.1118718278769 -0.2022293624565198 0)
(25.00922774001103 -0.006232397684128043 0)
(18.2655140707092 -4.231556985385401 0)
(24.63736429115412 -2.294975898356799 0)
(24.97662491836735 -0.2480397751782425 0)
(25.00247679883366 -0.008057869609272834 0)
(16.21495937792042 -5.490106555243352 0)
(23.85531811212739 -1.987095956199656 0)
(24.89606713416012 -0.158750732641518 0)
(24.99807493501501 -0.005062008441119766 0)
(16.91135162096448 -5.651310291349249 0)
(23.66388692432697 -1.395089562278783 0)
(24.90148663076425 -0.09184294173928133 0)
(24.9983312000466 -0.001715308754764422 0)
(18.03628406375128 -3.543014641266395 0)
(23.84983824361843 -0.7201207148493503 0)
(24.93509112155051 -0.03792204333593576 0)
(24.99933806310874 -0.0005236218657889677 0)
(20.15887017044703 -2.806427710870744 0)
(24.29252005990332 -0.530019251152725 0)
(24.98301876600146 -0.03013380145703632 0)
(24.99978550316765 -0.0002811314896441746 0)
(20.38523101214967 0.390673043132526 0)
(24.16662741836614 -0.0143153836390205 0)
(24.92081130298487 -0.002334356812202109 0)
(24.99705381247016 -6.232567971084005e-05 0)
(20.07434722560616 1.430478749678794 0)
(24.10151145111594 0.003360627656980027 0)
(24.92060210592723 -0.006504381577875471 0)
(24.99727771800597 -0.0002231000941519067 0)
(19.66907970176758 1.478757459594967 0)
(23.99865660173025 -0.01172051131807435 0)
(24.91878782858838 -0.01124965101145579 0)
(24.99766611742807 -0.0003462363673354825 0)
(19.52413856791346 1.431995702506175 0)
(23.95284128216044 -0.0366602554627706 0)
(24.92148190537588 -0.01314823398981961 0)
(24.99810787689921 -0.0004205903243614548 0)
(20.15887017036808 2.806427711009662 0)
(24.29252005991823 0.5300192511239109 0)
(24.98301876599329 0.0301338015091696 0)
(24.99978550305498 0.0002811319403924394 0)
(18.03628406362683 3.543014641441498 0)
(23.8498382436181 0.720120714904815 0)
(24.93509112172176 0.03792204368832947 0)
(24.99933806313232 0.0005236214276697277 0)
(16.91135162091269 5.651310291448973 0)
(23.66388692432245 1.395089562309163 0)
(24.90148663080017 0.09184294208268197 0)
(24.99833120011375 0.001715309119839224 0)
(16.21495937783522 5.490106555296339 0)
(23.85531811196382 1.987095956006681 0)
(24.89606713410756 0.1587507324987423 0)
(24.99807493508133 0.005062008228299354 0)
(25.03457857418029 0.01470941381779959 0)
(25.39140779293405 -0.08007273578586757 0)
(26.80946171194384 0.4066259727698941 0)
(28.21350432102048 2.142329786582627 0)
(25.02543300950023 0.008671219587543083 0)
(25.2451178239333 0.1197246200071986 0)
(26.20150121127606 1.123782121161538 0)
(25.32077607403961 1.774123366512505 0)
(25.00922774007577 0.006232397809517002 0)
(25.11187182781433 0.2022293621430444 0)
(25.4974688409963 1.799122969329509 0)
(22.39039472829936 3.166944161832426 0)
(25.00247679885328 0.008057869502411004 0)
(24.97662491829792 0.2480397751488307 0)
(24.63736429087214 2.294975898113217 0)
(18.26551407068078 4.231556985349947 0)
(32.18989248726695 2.823831326633025 0)
(27.38559665282797 -0.2720281181783551 0)
(25.554089082962 -0.338078653652841 0)
(25.01119520144686 0.0117509557203548 0)
(30.74695830832207 0.9736355471691082 0)
(27.4389433811507 -1.356314446898373 0)
(25.65063981114878 -0.7047352850113151 0)
(24.93413408525773 0.000704613527686092 0)
(29.36056877860803 -2.645058116906858 0)
(26.89319162966543 -2.729983945582767 0)
(25.49485116567576 -1.187863027592203 0)
(24.88849944892396 -0.04946075969734348 0)
(26.52878254993801 -5.880017098853369 0)
(25.57407162302507 -4.102677979592906 0)
(25.05863691372178 -1.569373708967434 0)
(24.72780795418818 0.09443824578047852 0)
(24.92252084258718 0.06664737467952149 0)
(24.5085280106986 -0.9427439076185999 0)
(20.77708972645446 -6.450070106304258 0)
(16.63802992696323 -10.98717946972915 0)
(24.87155018110633 0.1061480889016718 0)
(24.28093528807958 -1.611856220660129 0)
(21.53899608777399 -7.030289523202441 0)
(17.94089354355001 -10.84407706833912 0)
(24.98933115666775 0.1021935062615184 0)
(24.61372987566402 -1.72840404738464 0)
(22.83042657227102 -6.480681457855737 0)
(20.01969142766535 -10.179842939331 0)
(24.73868534366904 0.2108690165900991 0)
(24.81556035718292 -1.35268177631754 0)
(24.16754785495262 -5.179670285708796 0)
(22.80891050813108 -8.501145697169109 0)
(16.08371346009147 -10.55448628184366 0)
(21.22629686130332 -5.081182399806312 0)
(24.66198177795279 -0.565766986886469 0)
(24.95890280640531 0.0388176288040494 0)
(15.80375281926106 -9.803864869821886 0)
(21.73727269299284 -3.853670196995359 0)
(24.81967403272727 -0.2773550265295683 0)
(24.97828225005788 0.01988566426077028 0)
(15.88683769053282 -8.76895384140693 0)
(22.3394041908168 -2.713510859758866 0)
(24.8895983561369 -0.1453004366071461 0)
(24.99028850775491 0.01035220662748512 0)
(15.96368799391483 -7.671118945754655 0)
(22.98213736435733 -1.733307325221856 0)
(24.94996331484861 -0.05693275328297845 0)
(24.99530721382311 0.004164556686713235 0)
(24.99867477455254 0.0004475542560520424 0)
(25.01103705381264 -0.007073205684032403 0)
(25.03807034154302 -0.1617864297494222 0)
(21.04121925303845 -1.739057002209811 0)
(24.9993779930849 0.0002265328818529985 0)
(25.00119607394609 -0.003479094950837537 0)
(24.70491157493843 -0.2276998737364519 0)
(17.88279580032289 -3.288682569226913 0)
(24.99935533736472 0.0005271869104120966 0)
(24.99231108558117 -0.00705226736649283 0)
(24.16344326650396 -0.4903791838166179 0)
(16.77612101400327 -4.965151851589857 0)
(24.99840949798374 0.001631614723808376 0)
(24.97499001554539 -0.02367084140548831 0)
(23.57725945834581 -1.011367468467009 0)
(16.27359295566967 -6.436459445041876 0)
(24.99655612788638 0.001094476073980094 0)
(24.99344383445579 0.002533633272198257 0)
(24.9906711017167 0.004248641332131678 0)
(24.98850798412409 0.006156666507616182 0)
(25.02845185822939 -0.02512268328529943 0)
(25.03510983420809 -0.05145766696690673 0)
(25.03954284197768 -0.07493643992278966 0)
(25.03835704393999 -0.098323598810692 0)
(25.25860529305115 -0.2208563223967817 0)
(25.29613314559613 -0.3785292649756966 0)
(25.31385868610776 -0.4974497991512575 0)
(25.30548542002273 -0.6059350660357055 0)
(24.9056654128578 -0.8620752308983606 0)
(25.74006985047406 -0.4793337085243202 0)
(25.84894867185917 -0.5952255087696795 0)
(25.78880121893199 -0.8848251474069099 0)
(24.98730244395086 0.007962149342177607 0)
(25.02872843285115 -0.1187859926178901 0)
(25.25834376448294 -0.7113601508801137 0)
(25.67278909679784 -1.208560062390122 0)
(24.98711513008172 0.009335762332696472 0)
(25.01510189073266 -0.1304854107967289 0)
(25.18593430119615 -0.7866973913537358 0)
(25.48430628904447 -1.563743933331427 0)
(24.98824858280627 0.01010736128290257 0)
(24.98712251848358 -0.1335450106387544 0)
(25.08296770050649 -0.8579360854993839 0)
(25.37780836027907 -1.93172557119412 0)
(24.99101004323165 0.009724354550332708 0)
(24.96241693811538 -0.1103930292404023 0)
(24.92205375241061 -0.9031280985058425 0)
(25.24443704184949 -2.292073411855329 0)
(24.99966290086391 0.0004126519985912658 0)
(24.99532085607225 -0.003983735117759848 0)
(24.7553238439094 -0.2446995365933053 0)
(23.54456756550887 -3.08730868455758 0)
(24.99873541506364 0.001199336985865642 0)
(24.98495383328559 -0.01206753417422043 0)
(24.65434709873813 -0.4510084341824052 0)
(24.11446649850809 -3.084834774903231 0)
(24.99678578689431 0.003219080149656561 0)
(24.96907577191136 -0.03368799465119671 0)
(24.66577211951202 -0.6997392792618091 0)
(24.639558593292 -2.923675994311045 0)
(24.99452918207392 0.006607371684827717 0)
(24.95748523853305 -0.07118475088708361 0)
(24.77690910612925 -0.8646574071777108 0)
(25.00998559874646 -2.633077603132205 0)
(23.15962982320256 -2.545230485720757 0)
(24.85109371378957 -0.1250989473196255 0)
(24.99855709566521 -0.001193355016748428 0)
(24.99990438136868 0.0002169427759819571 0)
(23.28737757460956 -2.287253377998976 0)
(24.88532639652657 -0.08543277465293035 0)
(24.99878339536799 -0.0009628115582813702 0)
(24.99993454624029 0.0002302965562241284 0)
(23.29712939583384 -1.961604358571813 0)
(24.92806406599342 -0.02521220443815334 0)
(24.99961274558616 -4.651800425125493e-05 0)
(24.99998723673765 -0.0001803148194680925 0)
(23.50664407333117 -1.513775108396175 0)
(24.9708008856593 0.01018654325779831 0)
(24.99999676738593 6.952574818200739e-05 0)
(24.99998808033462 4.759408383438644e-07 0)
(23.53632838523217 -1.165198031954068 0)
(25.0145200119413 0.02000438931738902 0)
(24.99995689972646 -1.196877776800263e-05 0)
(25.00000147647811 -3.16410305379246e-07 0)
(23.65713155535304 -0.7876885052545715 0)
(24.99005853954238 -0.01495081918955322 0)
(24.99999575536482 -6.936870221129534e-06 0)
(24.99999999740839 3.060142795469262e-10 0)
(24.04838083021231 -0.2101620338488027 0)
(24.99967876939789 -0.0001785831752260226 0)
(24.99999946089599 -9.345851737940289e-08 0)
(24.99999999999994 -3.938945779150526e-13 0)
(24.72197344781175 0.1585618544724013 0)
(25.00019421667491 0.0001705466988025462 0)
(25.00000042802942 5.593924391690396e-08 0)
(25 -4.763094116027912e-15 0)
(25 -9.875762480909746e-16 0)
(24.99999999993596 -2.173372363532037e-11 0)
(24.99999996661739 5.245012779112288e-08 0)
(24.99978905738178 -1.601958287462008e-05 0)
(24.99999999999999 1.46663537585773e-15 0)
(25.0000000002079 2.420118356934828e-10 0)
(24.99999985418836 1.249381443929895e-07 0)
(24.99934593910541 0.001023935974617337 0)
(25 -1.898596012961866e-15 0)
(24.99999999886435 -2.998162332601294e-09 0)
(24.99999816467935 2.127537022104832e-06 0)
(24.99937169479288 0.001799920844397668 0)
(25 1.574580298794896e-16 0)
(25.00000002948033 -1.641795594870867e-10 0)
(24.99998453189383 -6.760126713266501e-06 0)
(24.98068250655137 0.05204193429894433 0)
(24.99954698798291 -2.398020304791333e-11 0)
(24.9987858219069 0.001579596918407866 0)
(24.99748675001598 0.009641447352044957 0)
(24.94028310875026 0.07239284318736476 0)
(24.99878582164032 -0.001579597134479061 0)
(24.99721885762905 -2.625529912365451e-10 0)
(24.98796475717853 0.005566941632607172 0)
(24.81081944435229 0.01354654596364007 0)
(24.99748674985595 -0.009641447090874417 0)
(24.98796475717868 -0.005566941495516084 0)
(24.89071171030761 6.249752428120139e-10 0)
(23.90042110624786 -0.177621524898241 0)
(24.94028310807794 -0.07239284410411101 0)
(24.8108194437993 -0.0135465469247536 0)
(23.90042110513462 0.1776215250646089 0)
(20.98000013564804 -6.077869827982509e-10 0)
(18.61353216991852 2.389735865209037 0)
(19.70708840223319 3.042307547465665 0)
(22.26821217249458 2.28280786803051 0)
(23.75727550709782 1.018524929043039 0)
(19.57252343088222 4.454630396188574 0)
(19.66472455869247 4.511136173548102 0)
(20.5301291640999 4.284536451095468 0)
(21.790740451439 3.608026910229759 0)
(19.05533975846337 5.429942610745537 0)
(20.30203739173825 4.824053425667579 0)
(21.01964230587544 5.025517744586922 0)
(21.73260313463315 4.735775949630808 0)
(19.14850192390326 6.089450453129216 0)
(20.78271170269305 5.016987218365187 0)
(21.31955561396005 5.205376824520203 0)
(21.70962014623243 5.006850492099073 0)
(21.92083434355153 5.150696413772755 0)
(22.04444193811695 5.228645593171373 0)
(22.13920655145428 5.333589938615821 0)
(22.19405218892289 5.368588012023954 0)
(21.67612295343714 5.27137813459179 0)
(21.93202189948376 5.320923154627152 0)
(22.03646264055005 5.390095735865874 0)
(22.60740424163932 5.660556537505323 0)
(21.29602103636065 5.115697505737952 0)
(21.71246890953119 5.217143749469881 0)
(21.86597151181691 5.322283181623509 0)
(23.91019732300919 6.036009883142411 0)
(19.43608510102388 6.171027383729812 0)
(20.0446211153209 6.235644866374813 0)
(20.37649965556182 6.185437366902488 0)
(25.48741286289714 7.409040360100803 0)
(24.53591839617248 3.808487610875759 0)
(26.27461236109091 1.483426424066008 0)
(26.04098892714837 0.2756875466986775 0)
(25.77183397431286 0.2709767246590224 0)
(25.87387836385654 2.957872525647886 0)
(27.91040411983893 0.4600274880347344 0)
(27.36395135488471 -0.03969483093966385 0)
(26.84858067693335 0.1312127284830812 0)
(28.57435172473353 2.283762276083467 0)
(29.39349763936761 -0.02822381883588813 0)
(28.12298806888852 -0.1716985064839063 0)
(27.47408521136414 0.009847217255584793 0)
(21.57421993812964 1.353179027165303 0)
(22.17860856850858 0.5724371055764655 0)
(22.67733577168292 0.08724332793542561 0)
(23.19776360217112 0.08549156281818163 0)
(25.70936547399643 0.2945432974004152 0)
(25.65562855926476 0.2749049838966203 0)
(25.61707670883922 0.2003150723208695 0)
(25.67372352636244 0.0579393705281854 0)
(26.50149100770771 0.2698959449316226 0)
(26.17512870173275 0.2759463362569939 0)
(25.89811447178237 0.1596344748319186 0)
(25.78420520982204 0.06910974412062781 0)
(26.95532187881831 0.1134909037138705 0)
(26.45317159694534 0.1287862301226706 0)
(26.01771668357386 0.02796828362892828 0)
(25.72945923832312 0.03473007628640631 0)
(23.15392251138011 -0.0951937721744706 0)
(22.98970147264012 -0.3362803141678964 0)
(22.89139025709368 -0.2855858372752082 0)
(22.77760954901474 -0.2109490975390078 0)
(25.75716013132856 -0.06188215645269476 0)
(25.80666111649738 -0.1867798890883125 0)
(25.70064832420089 0.3394188108906961 0)
(19.88424873521761 4.280674466948145 0)
(25.78653790063532 -0.02275050467987404 0)
(25.83061398419825 -0.1725420540708656 0)
(25.41331383265339 1.083402515387478 0)
(15.76769496518026 4.222324875313717 0)
(25.6201126517285 0.001954812426178892 0)
(25.72971163307617 -0.1196975353737954 0)
(24.12200898053286 1.626577505473214 0)
(11.72436160219111 2.245575923617819 0)
(22.74069643582173 -0.3531523274849617 0)
(23.44211181419355 -0.4255716736997923 0)
(19.05631821375245 -0.06852229511079586 0)
(5.170342535330055 0.8208892924308269 0)
(13.50568649357069 6.998706612929257 0)
(13.29613618799937 6.877948879236084 0)
(13.60430923219031 7.581530308652948 0)
(14.1381738683452 8.396605959197096 0)
(11.64328301342582 6.952865137056597 0)
(12.7308914904015 6.895283403303216 0)
(13.39915620654445 7.68156587040785 0)
(14.04777634604163 8.524996750673751 0)
(8.690500935193247 5.054776581858101 0)
(10.91268751666363 6.024792039465266 0)
(12.45545332281993 7.463631167292624 0)
(13.49476447322202 8.520995824428867 0)
(3.423528239815429 2.371771587108227 0)
(5.920392388778013 3.696688774614036 0)
(8.892213143494681 5.0411736029652 0)
(11.52644404095217 6.125456786364245 0)
(14.73607770025209 8.992358486464648 0)
(15.31929857945773 9.370727641461222 0)
(15.7129226020291 9.345149212149972 0)
(15.51793988752547 9.641121539081128 0)
(14.65142766046064 9.124682128622304 0)
(15.17950440723669 9.498469866363498 0)
(15.78824353992773 9.650413507014422 0)
(15.92520523461058 9.88818707596856 0)
(14.28991023367353 9.170906955905442 0)
(14.89372162103759 9.589470884125776 0)
(15.54875756633706 9.915961045775349 0)
(15.92344210659564 10.19972677170909 0)
(13.25837567656337 7.339605575880404 0)
(14.34381300899754 8.613126333537025 0)
(15.05395039320136 9.818961682784153 0)
(15.32349348743694 10.38208731866677 0)
(15.71835973751611 10.18412992197434 0)
(16.72775867598801 11.14122772911183 0)
(18.25592059220956 11.50939516612483 0)
(21.15094453146148 10.45390912128175 0)
(15.80277928264037 10.17274620861871 0)
(16.49634506081443 10.88011229346064 0)
(18.03158293777181 11.31893588217948 0)
(21.57170542349492 12.06236779188899 0)
(15.84266669515821 10.29561533076859 0)
(16.43972035958507 10.62306444149582 0)
(18.46460484072337 11.66474176315943 0)
(27.38813756627355 16.98670340755411 0)
(15.42012272557382 10.65391005054384 0)
(16.38156252929441 10.55453996875979 0)
(19.19029209406899 11.86944053143014 0)
(37.61712240218284 22.70343662592888 0)
(26.76974468096327 5.881212764299922 0)
(30.17768056457302 -2.986312279197413 0)
(9.947946749981709 -3.05266536314443 0)
(8.062952466823477 8.343155515447028 0)
(27.60089181830385 5.50299646034204 0)
(25.91208994662139 -2.697382806574125 0)
(6.640468921410587 2.758010833089259 0)
(5.499889067822006 10.24539232089671 0)
(27.22332454197739 3.222984311995989 0)
(19.20916286545697 -7.434312038600952 0)
(2.64844611733158 5.401248660043104 0)
(3.269605783436813 10.12952841998682 0)
(16.89871361431022 -6.418887466459592 0)
(7.669453422257716 -6.48836774830459 0)
(1.133376008768643 7.925658876995382 0)
(1.572247046114774 9.691654954341114 0)
(7.044353641802337 9.730123875410612 0)
(4.056937476317922 9.576670456900834 0)
(0.8014619861609585 7.545758623640205 0)
(-0.8788737124873893 6.033902062919413 0)
(5.111068761424143 10.82504077590464 0)
(3.250934702428429 10.42966414761416 0)
(0.9110338655924121 8.501342691556999 0)
(-0.2561504099330519 4.969789180211939 0)
(2.874836405326648 10.59820205878023 0)
(2.097959231481527 10.3221589654334 0)
(0.88708821071067 8.532043840547592 0)
(-0.2744530179139979 3.767528918800435 0)
(1.24670686919985 10.29515272063679 0)
(0.2797807980995533 10.04040657050286 0)
(-0.6790747854084845 8.144603088139272 0)
(-0.8805940381622703 3.267834866444941 0)
(0.1395033462010539 0.8998338753674742 0)
(5.54500962034649 -5.218085068977729 0)
(9.910989171882646 -6.883876449126289 0)
(14.75091255485932 -7.219781348542798 0)
(-2.15989446530054 1.699939485854241 0)
(3.031615090195358 -2.549204282716931 0)
(8.733690268476238 -4.66568936787172 0)
(14.2588947875934 -5.751035412916147 0)
(-2.989853358056866 1.301768231488175 0)
(0.07662863854797601 -1.448081751667186 0)
(6.221440975590327 -3.395380596076874 0)
(13.15664676176481 -4.325316311921357 0)
(-2.639282606436692 1.61136641868113 0)
(-0.9577266376775821 0.2225362705270482 0)
(5.182377050634688 0.2379491646527071 0)
(14.08410703791548 -2.76778663936738 0)
(16.49314754122586 -10.14851774249274 0)
(17.44868486913133 -13.51133643894066 0)
(17.43581099773136 -13.96890049142164 0)
(13.76017192328089 -10.0832244667431 0)
(15.91520820384032 -9.160128920746649 0)
(16.29874835600754 -13.39600445019266 0)
(14.75852195444376 -11.04634897869343 0)
(10.65684441025278 -8.923945571820319 0)
(15.17682552527199 -10.31592024948981 0)
(14.48592986952661 -14.64586980450203 0)
(10.89709448068819 -9.537541893580501 0)
(5.968580749032258 -6.474802150018845 0)
(12.87758914765901 -11.99323183404863 0)
(8.579579959269969 -11.68351895713403 0)
(4.444160947433458 -4.262479646191538 0)
(1.419876151944226 -2.198762008298182 0)
(0.5268960651925509 -1.034019633829629 0)
(-0.01352054089201701 -0.3142512846520021 0)
(-0.6351893070530352 -0.06176457880098864 0)
(-0.9122898733102575 0.03642889974134614 0)
(2.295214307661355 -4.213332521085086 0)
(0.6773584248622592 -2.202765073569041 0)
(-0.7222704853792026 -1.32352911159208 0)
(-1.283726029634501 -0.3691715041908576 0)
(6.264681741047504 -5.489668692289417 0)
(2.657927148733429 -3.867036837702796 0)
(0.1651597470140547 -2.675871737159962 0)
(-0.6187960618626074 -0.8950475028056929 0)
(9.062476302645374 -5.945031095976148 0)
(6.126242697284835 -4.735104090399159 0)
(4.855799923454758 -2.89810042796921 0)
(4.659576358495664 -0.8386869798864296 0)
(-0.9122898733185724 -0.03642889970027972 0)
(-1.283726029658095 0.3691715041858333 0)
(-0.6187960618773806 0.8950475026719502 0)
(4.659576358441985 0.8386869796631681 0)
(-0.6351893070750836 0.06176457880484925 0)
(-0.7222704854409019 1.323529111584999 0)
(0.1651597469728797 2.675871737067399 0)
(4.855799923431339 2.898100427819331 0)
(-0.01352054092351592 0.3142512846526268 0)
(0.6773584247956764 2.202765073555422 0)
(2.657927148656641 3.867036837637291 0)
(6.126242697190316 4.735104090266615 0)
(0.5268960651662157 1.03401963384067 0)
(2.295214307613654 4.213332521092495 0)
(6.264681740978391 5.489668692264737 0)
(9.062476302631712 5.945031095833419 0)
(13.76017192327446 10.08322446677779 0)
(17.43581099769613 13.96890049146673 0)
(17.44868486900051 13.51133643900701 0)
(16.49314754107959 10.14851774262026 0)
(10.65684441023137 8.923945571774865 0)
(14.7585219543863 11.04634897869184 0)
(16.29874835585318 13.39600445016089 0)
(15.91520820368451 9.160128920834728 0)
(5.968580748994014 6.47480215002909 0)
(10.89709448061901 9.537541893613986 0)
(14.48592986938638 14.64586980448113 0)
(15.17682552505027 10.31592024956724 0)
(1.419876151944194 2.198762008295609 0)
(4.444160947446973 4.262479646143807 0)
(8.579579959237671 11.68351895699423 0)
(12.87758914755725 11.99323183396305 0)
(14.08410703772805 2.767786639403092 0)
(5.182377050489952 -0.2379491646921655 0)
(-0.9577266377526782 -0.2225362706058981 0)
(-2.639282606400855 -1.611366418638137 0)
(13.15664676152588 4.32531631201342 0)
(6.221440975368831 3.395380596011774 0)
(0.07662863841156528 1.448081751554904 0)
(-2.989853358053391 -1.301768231479114 0)
(14.25889478741609 5.751035413001394 0)
(8.733690268253142 4.665689367862258 0)
(3.031615090029489 2.549204282514953 0)
(-2.159894465358063 -1.699939485941613 0)
(14.75091255469217 7.219781348658394 0)
(9.910989171663687 6.883876449177731 0)
(5.545009620220668 5.218085068773198 0)
(0.1395033460755513 -0.8998338755039291 0)
(-0.8788737124983851 -6.033902063021016 0)
(0.8014619860298368 -7.545758623622498 0)
(4.056937476177614 -9.57667045696533 0)
(7.044353641746874 -9.730123875573174 0)
(-0.256150409937678 -4.969789180161043 0)
(0.9110338654622137 -8.501342691427507 0)
(3.250934702285118 -10.42966414751733 0)
(5.111068761354056 -10.82504077593392 0)
(-0.2744530179167786 -3.767528918705183 0)
(0.8870882106222453 -8.532043840363295 0)
(2.097959231411105 -10.32215896526096 0)
(2.874836405264727 -10.59820205876109 0)
(-0.8805940381654607 -3.267834866370087 0)
(-0.6790747854382255 -8.144603087958295 0)
(0.2797807980555426 -10.04040657031492 0)
(1.246706869153908 -10.29515272060948 0)
(8.062952466844667 -8.343155515616328 0)
(9.947946749795507 3.05266536287579 0)
(30.17768056466171 2.986312279296466 0)
(26.76974468101717 -5.881212764191392 0)
(5.499889067916617 -10.24539232095236 0)
(6.640468921404111 -2.758010833359607 0)
(25.91208994668315 2.697382806507533 0)
(27.60089181829991 -5.502996460359695 0)
(3.269605783499217 -10.1295284201532 0)
(2.648446117345166 -5.401248660345574 0)
(19.20916286556326 7.434312038479058 0)
(27.22332454201965 -3.222984312077865 0)
(1.572247045832628 -9.691654954469136 0)
(1.133376008834076 -7.925658877208188 0)
(7.669453422462274 6.488367748405829 0)
(16.89871361449321 6.41888746652719 0)
(21.15094453152442 -10.45390912125887 0)
(18.25592059213302 -11.50939516600512 0)
(16.72775867591886 -11.141227729094 0)
(15.71835973737243 -10.18412992200841 0)