/*--------------------------------*- C++ -*----------------------------------*\
  =========                 |
  \\      /  F ield         | OpenFOAM: The Open Source CFD Toolbox
   \\    /   O peration     | Website:  https://openfoam.org
    \\  /    A nd           | Version:  11
     \\/     M anipulation  |
\*---------------------------------------------------------------------------*/
FoamFile
{
    format      ascii;
    class       volScalarField;
    location    "0.0795";
    object      T;
}
// * * * * * * * * * * * * * * * * * * * * * * * * * * * * * * * * * * * * * //

dimensions      [0 0 0 1 0 0 0];

internalField   nonuniform List<scalar> 
880
(
300
300
300
300.0000281220701
300
300
300.0000000000453
300.0003799483586
300
300
299.9999999994936
300.001920840497
300.0000000000001
300
300.0000000003525
299.9986578563817
300
300
299.9999999999999
300.000000000227
300
300
299.9999999999997
300
299.9999998635121
300.0000029675372
300.0103416653102
299.9712601231564
300.6028086503856
303.0042113676143
305.3615677657044
306.5983791885777
300.0000013360473
300.0000024911829
300.0000028847294
300.0000012262727
300.0000484394597
300.0000968872728
300.000135907367
300.000068419876
300.048554716268
300.0678150071054
300.0834228497692
300.0718558013749
307.8972280907541
309.0855426978843
309.8010240933375
310.7261394210944
309.8213362111534
307.4902473641345
305.1417408601818
303.2254844498374
300.1448476827324
300.2065588857291
300.2123673251992
300.137788395998
300.000319753889
300.0005546654169
300.0006628937672
300.000477929369
300.0000085922633
300.0000126315689
300.000013508063
300.0000084325501
300.0000023036434
300.0000002121956
300.0000000039194
300.0000000001066
300.0001925764641
300.0000352044846
300.0000019928248
300.0000000200882
300.0589073176123
300.0146382301222
300.0012993347054
300.000026437057
301.7079913785425
300.6176674927281
300.1079700688601
300.0059961455495
300.0000637899688
299.9999999014998
299.9999999945599
300
300.0000093925549
299.9999998872428
299.999999981261
299.999999998898
299.9982624217459
299.9999818839045
300.0000022921276
300.0000003093018
301.0661178175067
299.9977490823667
299.9995741696063
299.999996380036
299.999990290147
299.9998324852145
300.0210149118211
314.0663046157163
299.9999993236105
300.000103492164
300.1464834514068
326.8721630708666
300.0000147764983
300.0006247965719
300.3709286427129
336.6276481769777
300.0000253501663
300.0011683098214
300.6137100833343
345.381398922817
350.4290151544117
300.7445834453367
300.0014438570784
300.0000326566174
354.0138827782399
300.9466207775016
300.0021174986945
300.0000464170243
356.0267091864379
301.0439542930163
300.0023346988988
300.0000554590616
358.6840377905041
301.3631641996423
300.0038459716097
300.0000921735434
300.0000909440258
300.0037621734028
301.5331088772599
362.7935623062588
300.000121847634
300.0051116839426
301.9033632091438
364.5582114111278
300.0001725403428
300.0066790759259
302.0655493552619
360.2660391275537
300.0000365853209
300.0006928240216
300.9954876704181
343.0499897075159
300.0002493207572
300.022087080741
301.963715802204
325.5592014445415
299.9995288021967
300.008068156487
301.4666322036381
313.1009746688673
299.9993562726075
299.9806759051465
300.3419788084313
306.5813078347125
299.9998664783447
299.9541061314511
299.2477037322546
301.8885436950214
294.945999796955
298.9601689571433
299.9816304885113
299.9999535423007
289.1270470314819
298.9352723804561
299.9864672610198
299.9999643668081
285.75042814459
299.1741068600218
299.9933255108509
299.9999844386089
288.9275558374579
299.2473441655648
299.9929446012493
299.9999831412818
289.0028286498423
299.7229436261319
299.9982458871301
299.9999952805003
289.8399746707285
299.8924098180072
299.9996113721899
299.9999992054871
292.8269757310188
299.9513744636897
299.999874210121
299.999999805241
296.6197308383032
299.9776821643108
299.9999324032777
299.9999998059307
297.7547956102918
299.8929189916074
299.9985543957098
299.9999933118718
297.876911245754
299.8934200254423
299.998555030288
299.9999933127822
297.9671242544371
299.8926302399863
299.9985511591562
299.9999932837104
298.6576998935034
299.898651058785
299.9985426958261
299.9999933175246
296.6197308375961
299.9776821637988
299.999932402411
299.9999998069134
292.8269757305703
299.9513744630426
299.9998742083699
299.9999998054913
289.8399746706729
299.8924098186067
299.9996113724026
299.9999992055562
289.0028286500819
299.722943627862
299.998245887267
299.9999952799685
299.9999535427883
299.9816304910095
298.9601689566913
294.9459997965637
299.9999643683595
299.9864672613684
298.9352723807236
289.1270470312654
299.9999844376814
299.9933255119595
299.1741068598416
285.7504281460484
299.9999831413718
299.9929446018589
299.247344167266
288.9275558371114
301.8885436940297
299.2477037315985
299.9541061290315
299.9998664777752
306.5813078336346
300.3419788073427
299.980675903582
299.9993562696263
313.1009746687836
301.4666322025569
300.0080681568382
299.9995288022894
325.559201444886
301.9637158020042
300.022087080008
300.0002493233142
300.0000909433279
300.0037621749925
301.5331088779106
362.79356230694
300.0001218477431
300.0051116849407
301.9033632095114
364.5582114112451
300.0001725415298
300.0066790759527
302.0655493543605
360.2660391276311
300.0000365874156
300.0006928241048
300.9954876696009
343.0499897073333
358.6840377916386
301.3631641986984
300.0038459735955
300.0000921733256
356.0267091876658
301.0439542975591
300.0023346985328
300.0000554594289
354.0138827777093
300.9466207773049
300.0021175015286
300.0000464165981
350.4290151545616
300.7445834417887
300.001443855793
300.0000326562132
299.9999902911094
299.999832486103
300.021014911898
314.0663046148316
299.9999993229133
300.0001034909683
300.1464834517295
326.8721630705301
300.0000147758639
300.0006247961061
300.3709286430125
336.6276481771922
300.0000253493834
300.0011683109345
300.6137100846303
345.3813989236353
299.9999963798851
300.0000003097292
299.9999999988912
300
299.9995741685494
300.0000022921126
299.9999999821817
299.9999999942879
299.9977490827108
299.9999818841919
299.9999998866249
299.9999999011985
301.0661178175434
299.9982624219144
300.0000093926352
300.0000637900077
299.9999999995873
300.0000000201001
300.0000264377502
300.0059961460407
300.0000000036902
300.0000019924331
300.0012993371288
300.1079700687818
300.0000002127646
300.0000352046147
300.0146382283502
300.6176674926841
300.0000023039113
300.0001925764334
300.0589073191619
301.7079913778649
300.0000085909151
300.000319752737
300.1448476827341
309.821336210851
300.0000126303063
300.0005546654477
300.2065588857596
307.490247363301
300.0000135074561
300.0006628948745
300.2123673249557
305.1417408598473
300.0000084320646
300.0004779302134
300.1377883956253
303.2254844491658
310.7261394212921
300.0718558042901
300.0000684192073
300.0000012256504
309.8010240938216
300.0834228523082
300.0001359071262
300.0000028849898
309.085542699345
300.0678150051431
300.000096887861
300.0000024907719
307.8972280902413
300.0485547101143
300.0000484388083
300.0000013365017
306.5983791891194
299.9712601289776
300
300.0000000002428
305.3615677651486
300.0103416607274
300
300.0000000000001
303.0042113679694
300.0000029672452
300
300
300.6028086501372
299.9999998632748
300
299.9999999999999
300
299.9999999999999
300
300.0000281251143
300.0000000000002
300
300.0000000000153
300.0003799417312
300
300
299.9999999996027
300.0019208401172
300
300
299.9999999999945
299.9986578570269
300.0000308870095
300.0003281576278
300.0024012205007
300.1387249395048
300.0003281733396
300.0000941176082
299.9996899398387
300.5860226668161
300.0024012056306
299.9996899040981
300.2056061113186
304.6328926207412
300.1387249494928
300.5860226704532
304.6328926621374
323.3447515200002
352.2834148189182
332.5174416330821
319.4999082961165
308.3965579460664
348.5305482452511
343.4138593702763
338.6982282554975
329.5450784962981
345.1098386317323
342.9858376947169
341.0607138266993
337.2958218767105
343.0459628444171
342.2199623148254
341.9550812415762
340.1787610862522
343.2257756538399
344.9181914081019
345.4458757058
347.9366738245432
343.0371028392398
344.216978254849
345.0219087838683
348.3868620269355
342.751723462582
343.7490292578215
344.7914554334612
346.6423102855543
342.8516283832055
343.7297400238833
345.1380494138086
343.2067033147732
331.5100725011405
314.1479051760401
306.1628095314593
303.9674735613511
322.9659798261142
307.1682801022222
304.4520752207989
303.8606993303537
312.9495004519866
302.0446974854697
304.500975040771
304.1979569046869
288.7171877352068
293.0613519644313
302.8048619447946
303.4090377792585
302.7887813646773
301.2735018493159
300.3379647997131
300.0416310353114
302.8752225101918
301.4189871666107
300.4165534139478
300.0608249648813
303.416343580736
301.8727622201125
300.6006003676576
300.0941304159007
303.0504131825142
301.4560404746864
300.242077812327
299.9969421000573
300.0014859278381
299.9999836867815
300.0000818553449
320.7972133471291
300.0026461377669
300.0000046750267
300.0000721864723
335.6127050302703
300.0041794483544
300.0000026147418
300.0001247938617
345.0510765670666
299.99603497423
299.9998502341181
300.0001677483424
347.8510563989917
394.6686024407256
409.327856251905
417.4075509273011
425.9802960446978
412.5076734563825
414.7553876567686
416.2500665076234
421.7121065436878
418.9199238980516
411.9999023421477
412.8959562391656
415.3727297206233
429.4664327328859
416.3499822715028
411.4342582547902
413.271197402504
431.1701408403158
433.9662182060801
434.2999390883926
434.6113306847535
425.1830617186837
427.4799063212423
427.8534614829159
427.9180041713302
418.323179354536
420.6172903506699
421.1471986351064
421.1397019042425
416.1910369308166
418.6251085758327
419.2758570729768
419.2758039933128
434.3427793773778
431.5110609815744
420.7800954157024
397.8832571542175
427.5362930958586
425.0043306828748
416.3349200333591
412.0363269163075
420.8898295983292
418.6745144546753
413.1652159418119
421.5168819754137
418.8126697405118
417.319406837765
415.4897191972304
404.554476489408
356.7209094811762
309.2669586703897
234.2292260684347
208.1301737803766
345.1857051510316
272.2379814023953
212.2468764985702
185.5586912217007
306.5707534761794
236.2872031273295
181.7182139257106
159.3615216190575
240.8406579539038
178.8645916865607
174.0922912652907
148.2295516872902
209.2889812621023
208.6360509352117
208.6807128789418
201.6795950149844
182.5864952988438
180.7696711231516
179.195285413538
176.8624026682305
153.3218846860788
152.9291656151774
156.8957571119906
180.8937677445334
141.0410814314012
142.4368512238479
148.7448678035363
184.3548039139803
252.2538229990883
260.7942784408358
264.8861989301705
274.8310262709288
264.2831131679046
266.6875868143016
263.0609282416792
275.2674447013081
262.1026016718499
283.9469665334984
278.2539815298911
285.1831959906708
239.1264015231534
275.1154651473601
286.6364476994142
289.9273852721008
252.0450855250265
214.7124989051984
198.0463002383181
225.4481919885799
245.8888047590255
210.994057634214
156.325100034543
140.0315620839116
241.0096100363743
185.8687202030489
124.1668595122037
112.7802906670907
203.5464283067485
129.275630889422
80.61920851944895
87.30227889116718
105.9820822024271
130.1456898999186
165.3350110476736
189.844777840382
120.2279047796651
146.8746422938099
191.3357519302604
221.5014721867285
162.7683617028754
185.2156989271428
224.2910168465169
254.9641746393636
240.3246891803697
240.2197286668194
256.9629381177393
274.5860534346604
189.8447778404901
221.5014721867536
254.9641746393606
274.5860534346216
165.3350110479015
191.3357519302345
224.2910168466017
256.9629381176806
130.1456898999252
146.8746422937994
185.2156989267815
240.2197286664397
105.9820822024743
120.2279047798145
162.7683617024992
240.3246891796577
225.448191987624
198.0463002377355
214.7124989047445
252.0450855241027
140.0315620836454
156.325100034604
210.9940576343288
245.8888047586006
112.780290667282
124.1668595119341
185.8687202026349
241.0096100361475
87.30227889125314
80.61920851947249
129.2756308893396
203.5464283065363
289.9273852718537
286.636447699437
275.1154651475799
239.126401522447
285.1831959904463
278.2539815298905
283.9469665337639
262.1026016711721
275.2674447011007
263.060928241567
266.6875868145562
264.2831131677702
274.8310262704437
264.8861989300106
260.7942784410501
252.2538229991912
201.6795950143962
208.6807128801778
208.6360509351962
209.2889812614863
176.8624026680226
179.1952854144808
180.7696711234946
182.5864952985282
180.8937677447095
156.8957571125352
152.9291656155755
153.3218846861051
184.3548039141058
148.7448678038096
142.43685122408
141.0410814316318
208.1301737791056
234.229226066623
309.2669586703423
356.7209094812812
185.5586912202688
212.246876497603
272.2379814016468
345.1857051499869
159.3615216181138
181.7182139248266
236.2872031273261
306.5707534761727
148.2295516871855
174.0922912642232
178.8645916859972
240.8406579538679
397.8832571541453
420.7800954162306
431.5110609817722
434.3427793775967
412.0363269161955
416.334920033585
425.0043306832145
427.5362930964079
421.5168819753596
413.1652159417882
418.674514455181
420.8898295989959
404.5544764894161
415.4897191974532
417.3194068382672
418.8126697412406
434.611330684651
434.2999390873545
433.9662182071881
431.1701408405758
427.9180041717726
427.853461482465
427.4799063216238
425.1830617186238
421.1397019047312
421.1471986352861
420.6172903506414
418.3231793545524
419.2758039938983
419.2758570733775
418.6251085757133
416.1910369308185
425.9802960447002
417.4075509270587
409.3278562513613
394.6686024406071
421.7121065449294
416.2500665069049
414.7553876568093
412.5076734561615
415.3727297220486
412.895956238303
411.9999023421452
418.9199238976109
413.2711974032804
411.4342582540453
416.3499822716133
429.4664327323438
320.7972133468688
300.0000818545109
299.9999836867036
300.0014859279707
335.6127050298794
300.0000721857694
300.0000046750887
300.0026461380111
345.0510765666061
300.0001247933627
300.0000026147666
300.0041794487424
347.8510563987832
300.0001677484573
299.9998502340199
299.996034974881
300.0416310354648
300.3379647993036
301.273501849546
302.7887813635505
300.0608249649203
300.4165534138706
301.4189871664402
302.875222509333
300.0941304157949
300.6006003679646
301.8727622195279
303.4163435802055
299.996942099812
300.2420778126598
301.4560404740083
303.0504131818498
303.9674735611251
306.1628095312524
314.1479051754702
331.5100725006665
303.860699330047
304.4520752206153
307.1682801017517
322.9659798258382
304.1979569043257
304.5009750404895
302.044697484997
312.9495004518976
303.4090377787077
302.8048619443394
293.0613519636239
288.7171877351906
347.9366738231481
345.4458757053229
344.9181914098839
343.2257756566084
348.3868620260782
345.0219087838311
344.2169782560222
343.037102840717
346.642310284966
344.7914554333301
343.749029258097
342.7517234632616
343.2067033143804
345.1380494136139
343.7297400240397
342.8516283835353
340.1787610864507
337.2958218764506
329.5450784971912
308.3965579455643
341.9550812415652
341.0607138266756
338.6982282565002
319.4999082962786
342.2199623148738
342.9858376947184
343.4138593713068
332.5174416312793
343.0459628444196
345.1098386312358
348.5305482452865
352.2834148212731
297.7799234615804
299.9711563207047
299.999822782699
299.9999994275469
297.5995542138816
299.956414829206
299.9996355235519
299.9999985499051
298.7665145565695
299.9407368133274
299.9993030272246
299.9999969625591
298.731175596035
299.9063057692101
299.9987380324933
299.9999944113633
299.9999933126734
299.9985543955526
299.8929189913658
297.7547956097562
299.9999933133544
299.9985550311109
299.8934200244038
297.8769112458448
299.9999932828036
299.9985511601515
299.8926302392408
297.967124253608
299.9999933150769
299.9985426969955
299.8986510557804
298.6576998928683
299.9999944108393
299.9999969618065
299.9999985469147
299.9999994247029
299.9987380327527
299.9993030271959
299.9996355231458
299.9998227815573
299.9063057693448
299.940736812521
299.9564148301323
299.9711563198308
298.7311755952318
298.7665145555133
297.5995542136878
297.7799234618489
)
;

boundaryField
{
    back
    {
        type            empty;
    }
    inlet
    {
        type            zeroGradient;
    }
    front
    {
        type            empty;
    }
    top
    {
        type            zeroGradient;
    }
    outlet
    {
        type            fixedValue;
        value           uniform 300;
    }
    bottom
    {
        type            zeroGradient;
    }
    wall
    {
        type            zeroGradient;
    }
}


// ************************************************************************* //
