/*--------------------------------*- C++ -*----------------------------------*\
  =========                 |
  \\      /  F ield         | OpenFOAM: The Open Source CFD Toolbox
   \\    /   O peration     | Website:  https://openfoam.org
    \\  /    A nd           | Version:  11
     \\/     M anipulation  |
\*---------------------------------------------------------------------------*/
FoamFile
{
    format      ascii;
    class       volScalarField;
    location    "0.105";
    object      T;
}
// * * * * * * * * * * * * * * * * * * * * * * * * * * * * * * * * * * * * * //

dimensions      [0 0 0 1 0 0 0];

internalField   nonuniform List<scalar> 
880
(
500
500.0000000000144
500.0000151961714
500.0021410898806
500.0000000000001
500.0000000002174
500.0000524189292
500.0321409257393
500
500.0000000094659
500.0004596368183
500.2415546971214
500.0000000000001
499.9999999696222
500.0009461486177
500.8849295555554
500.0000000000726
499.9999999998353
500.000000003234
500.0000007928366
500.0000000794636
499.9999999487866
500.000001543536
500.0000256073061
500.0106702640999
500.0244939164076
500.1033445170702
499.9358672556721
503.9437017317915
508.6664286401648
512.3336917115222
513.6372466111786
500.0000103247867
500.0001076591577
500.0001653155163
500.0001251438505
500.0004577250407
500.0013498975945
500.0035845698205
500.0031703535526
500.2028611620615
500.4118390862114
500.6716845987365
500.7421296375128
515.508621359365
518.0459577900724
520.1972930825252
522.019443854202
517.9323212880018
514.7471086569442
512.6415607355179
510.1500861523124
501.2568138554981
502.1054359950159
502.1387128881784
501.840066931494
500.0086329174418
500.0230264884038
500.0325593837515
500.0322498922958
500.0004167962153
500.0010869589814
500.0014472484419
500.0012913950798
500.000815547682
500.0003091326489
500.0000611667276
500.0000053952284
500.0253472398917
500.0143380531683
500.0050236216397
500.0009550563136
501.4084577459091
500.9038035905151
500.4356388739727
500.1461100476225
507.6930705340648
505.6423007794044
503.8801323368641
502.239741070445
500.8916566651424
500.0272244491422
500.0000831700414
500.000000287207
500.1303423855786
500.0016155258713
500.0000021225981
499.9999999788128
500.3756236357344
500.0011933672867
500.0000017520599
500.0000001048177
510.9423493877567
500.1205485287097
500.0002483597806
499.9999841862146
500.0000248660934
500.0021484402102
500.7843107131735
545.0964307387484
500.0002293410096
500.0073960072424
501.7534639975399
558.8485289805188
500.0007876741463
500.0166166129471
503.1437640677707
570.1116768298481
500.0017564573714
500.0397734174994
505.1408061725558
580.3506325937557
588.9860191597427
507.1532353658173
500.0571883870842
500.0025927016032
597.7932027059433
509.5921628288909
500.1005178496466
500.0042571958274
604.8161845320431
511.6232771788681
500.1212489356561
500.005284937507
611.209997075406
514.599070664021
500.1965299598483
500.0087248182928
500.0110818916388
500.2546784754252
517.9784192117286
615.4300202110494
500.0185392661412
500.3932739564702
520.3041637018298
609.2680352203989
500.0262674818383
500.3708436995735
516.2029791915916
587.8954386982948
500.0023294490756
500.2425819041654
508.6930539173183
553.6531312347694
500.0294085208244
500.3582041828418
507.6941437092688
523.0688760290966
500.0127883792131
500.1808599267004
505.0481649701031
516.5599644246178
499.9968678667216
500.0834322777113
503.6240434397582
517.4721829060099
499.9930797168679
499.7792655224802
500.0494567848355
514.4843048333711
503.7361982999748
497.4468826305261
499.7109437672632
499.9974740032515
493.2689340884345
496.862116021424
499.8011300408381
499.9985547865963
483.0110668469192
496.5756542191635
499.8807615632887
499.9994050413126
469.2533073536572
496.1708798530335
499.89671286406
499.9995010027672
465.5564420577862
497.3008439977843
499.9556243852891
499.9997728099153
465.1305599570086
498.5038205254537
499.9850693851421
499.9999376668761
467.6491644353751
499.0243017712328
499.9927254248095
499.9999746285656
475.4736085788629
499.5947407037069
499.9975566165646
499.9999872726931
494.1595178167623
499.2997931129121
499.9795021491457
499.9998267304902
495.7136309462936
499.3449886439242
499.9796911085395
499.9998285337116
496.4503365452903
499.3669703385184
499.9795718752908
499.9998303210821
497.7473914992405
499.4459802137342
499.9804301148497
499.9998425317145
475.4736085788564
499.5947407037
499.9975566167257
499.9999872725464
467.6491644353865
499.0243017711747
499.9927254246932
499.9999746284672
465.1305599569658
498.5038205253236
499.985069384916
499.9999376667921
465.5564420578299
497.3008439975035
499.9556243852898
499.9997728098911
499.9974740032056
499.7109437675052
497.4468826310482
503.7361982996612
499.9985547864941
499.8011300408754
496.8621160218761
493.2689340879764
499.9994050414266
499.8807615630063
496.5756542187683
483.0110668466428
499.9995010027754
499.896712864442
496.1708798527555
469.2533073538597
514.484304833444
500.0494567845061
499.7792655223451
499.9930797171691
517.4721829062188
503.6240434397923
500.0834322779762
499.9968678666689
516.5599644246643
505.0481649702749
500.1808599268254
500.0127883792272
523.0688760290698
507.6941437090194
500.3582041822734
500.029408521039
500.0110818914237
500.2546784741561
517.9784192119688
615.4300202113952
500.0185392661912
500.3932739562612
520.304163702183
609.2680352207009
500.0262674815228
500.3708437000332
516.2029791915458
587.8954386981637
500.002329449281
500.2425819040553
508.6930539172926
553.653131234632
611.2099970755513
514.5990706640631
500.1965299619559
500.0087248186896
604.8161845324244
511.6232771787549
500.1212489345356
500.0052849375199
597.793202706197
509.5921628288066
500.1005178499844
500.0042571957856
588.9860191598606
507.1532353659553
500.057188386961
500.0025927016185
500.0000248661552
500.0021484400853
500.7843107127057
545.0964307386449
500.0002293412801
500.0073960082463
501.7534639983011
558.8485289809183
500.0007876743265
500.0166166124812
503.1437640670193
570.1116768293688
500.0017564572242
500.039773417744
505.1408061735108
580.3506325939168
499.9999841862191
500.0000001047453
499.999999978859
500.000000287231
500.0002483595107
500.0000017519539
500.0000021225161
500.0000831699292
500.1205485285493
500.0011933674155
500.0016155257666
500.0272244489868
510.942349387639
500.3756236357792
500.1303423856374
500.891656665168
500.0000053952247
500.0009550562964
500.1461100476866
502.2397410704964
500.0000611667668
500.0050236217892
500.4356388740985
503.8801323371327
500.0003091326492
500.0143380533077
500.9038035903247
505.642300779131
500.0008155476073
500.0253472398813
501.408457745966
507.693070534067
500.0004167961956
500.0086329173496
501.2568138555595
517.932321288161
500.0010869587787
500.0230264885316
502.105435995073
514.7471086569495
500.001447248579
500.0325593835886
502.1387128881375
512.6415607352371
500.0012913950195
500.03224989228
501.840066931663
510.150086152139
522.0194438541567
500.742129637382
500.0031703535991
500.0001251439784
520.1972930824049
500.6716845988561
500.0035845697615
500.0001653155059
518.0459577902183
500.4118390865283
500.0013498972211
500.0001076589251
515.5086213593513
500.2028611620533
500.0004577247784
500.0000103251005
513.6372466110954
499.9358672555994
500.0000256073126
500.000000792991
512.333691711539
500.1033445170331
500.0000015433201
500.0000000032315
508.666428640145
500.0244939164214
499.999999948857
499.9999999998442
503.9437017317077
500.0106702640122
500.0000000793538
500.0000000000528
500.0000000000001
500.0000000000092
500.0000151962037
500.0021410898388
500
500.0000000002129
500.0000524189257
500.0321409252959
500
500.000000009397
500.0004596367982
500.2415546971414
500
499.9999999695445
500.0009461485676
500.8849295553376
500.015927725423
500.1145902271168
500.6202622901394
503.7252788900137
500.1145902272019
500.3498065486594
502.0354354605972
509.8148622344048
500.6202622902983
502.0354354610744
508.0454277685654
522.282989279543
503.7252788906558
509.81486223428
522.2829892781613
541.7730142724157
563.3126602349882
547.0635032149179
537.4430938921013
523.4527356815154
559.6877378750021
555.174694097732
552.3286129441193
543.9890029989831
557.4437276740489
555.4973983284468
554.9622184242193
551.8345533602624
557.4591359517967
556.837681269809
557.1127428257532
555.3892665843047
556.2794858272566
557.0060548215986
557.6611645897456
558.1641310224738
556.3167659045376
556.0675109672004
556.5147702016615
557.2761848595038
556.3085501282178
555.2843099806129
555.5098076298025
555.7986707158898
556.8971931234445
555.0743083505548
555.1466628112486
551.5334249202506
524.9390115800549
507.9987669623727
506.7433692071374
506.0761562959914
512.241599597801
502.8474868946939
507.221451946311
506.8097128199205
498.4162045225688
502.6081715721783
508.7562477875264
508.1925596530413
475.0648267302858
497.3334136074611
506.9304186606663
506.6182585503821
505.0719292752717
504.4169419736624
504.4867316573315
503.3666947771163
505.5734460784224
504.9967697460959
504.5050648740222
503.1264819164276
506.7684469265413
505.9591110444942
504.92360311055
503.3114631961996
505.6332675454089
505.2375441803898
504.5841639278769
502.8100216318197
501.770895976862
500.4297027152195
507.4348295425002
564.8375675372141
501.6789279239142
500.4835416348517
512.7935040348932
578.0524938168307
501.8624879110739
500.5803073957306
520.0377352260625
588.3140010211208
501.4083424496495
500.4857830695107
525.5741749010356
593.7639076733691
641.2168108673068
644.1606638145777
646.8656460604332
649.1932808913336
650.7305284832076
648.4570143308167
646.1996437593473
646.2184905164891
651.2710613673663
648.2989725774412
645.3198429920351
643.2900803094655
656.2696253178201
651.3777125595672
645.5540900763477
642.015598708767
650.7381407528422
655.5395478017987
658.8194573016143
660.9384983230175
646.6223110290596
650.38382103765
653.3966838444617
655.7953659320772
641.7890766704039
644.3436277983959
647.0286217804318
649.8247321140094
639.7644104764656
641.6390092776312
644.1902903684401
647.2004025591501
659.7944942991578
649.9217813355687
630.3376402772773
597.692527280725
655.3745254144295
646.5144234761494
629.5962332841245
626.3098504581949
650.0360450849716
643.9049318362796
633.1530715356363
650.73103937012
647.4759229927635
644.7648333792292
643.8339748852112
636.6013702244159
559.9204833491953
493.1586123027428
383.5836054561508
382.6225627893919
548.3302770588535
437.1431326014742
357.1621896927412
348.5756644918628
491.1610889164264
368.3584261928173
336.3501459224469
329.3804308753046
395.7134577439371
324.9035311367376
340.3371270933863
324.2941582175621
389.6950093074027
395.6027692360985
399.5722555516849
391.6840867546421
353.6864464955564
362.5615852292086
374.3396710822371
383.2326247396236
329.9509292977349
337.601666044976
356.3589256400663
384.1008393671007
320.7394727771423
328.2305273077991
351.2230912466893
390.2843922116305
428.91373189401
421.593646134014
421.4189071293461
428.2089553499488
435.5251793065617
432.1677190387031
424.7447364978188
433.3591205640123
427.2980928374267
440.9734018878116
437.7839983189426
450.8616891987504
408.9084684821698
432.6459348768391
439.2242519314961
470.8865414752696
392.6596944172189
342.4724586609486
354.3441822427134
423.2257171890444
397.253981205045
352.6888652730825
391.7391237130921
397.4119386974652
397.060217570895
401.8327258413268
412.8226108219459
376.8328214598927
380.1626031386381
417.1001010145604
398.3049732491207
373.5132381469027
360.5721258249312
355.6383091045353
352.1506169982939
351.4206225669435
352.6970653611817
350.9262188487714
353.2585351050668
352.7210409196036
379.0664858194532
379.2529736844659
382.9079203334615
386.2210522353571
456.0095642666645
448.9663103499711
437.6427218081975
432.0845141182259
351.420622566944
352.7210409196052
386.2210522353632
432.0845141181866
352.1506169982965
353.2585351050651
382.9079203334776
437.642721808227
355.638309104522
350.9262188487601
379.2529736844739
448.9663103500493
360.5721258249074
352.697065361165
379.0664858194534
456.0095642666973
423.2257171892327
354.3441822428305
342.472458660947
392.6596944171408
397.4119386974547
391.7391237131234
352.6888652730586
397.253981205002
376.8328214598808
412.8226108219304
401.832725841302
397.0602175708945
373.5132381468767
398.3049732491094
417.1001010145348
380.1626031386101
470.8865414752713
439.2242519315674
432.6459348770198
408.9084684825053
450.8616891987404
437.7839983189378
440.9734018879593
427.2980928377218
433.3591205639344
424.7447364977513
432.167719038845
435.5251793068156
428.2089553498751
421.4189071293109
421.5936461341105
428.9137318941994
391.6840867551367
399.5722555520126
395.6027692363717
389.69500930761
383.2326247400713
374.3396710826075
362.5615852294559
353.6864464956469
384.1008393675369
356.3589256404413
337.6016660451208
329.9509292977621
390.2843922121331
351.2230912471231
328.2305273079215
320.7394727771962
382.6225627896878
383.5836054556407
493.1586123029838
559.9204833492801
348.5756644920201
357.1621896925186
437.1431326009975
548.3302770585123
329.380430875415
336.3501459224958
368.3584261930943
491.1610889165718
324.2941582176888
340.3371270934769
324.903531136968
395.7134577441739
597.6925272806027
630.3376402772253
649.921781335539
659.7944942991171
626.3098504581627
629.5962332840937
646.5144234760716
655.3745254143172
650.731039370092
633.1530715355822
643.9049318361506
650.0360450847979
636.6013702244551
643.8339748851354
644.7648333791037
647.4759229925797
660.9384983229556
658.81945730189
655.5395478020188
650.738140753048
655.7953659320031
653.396683844668
650.3838210378333
646.6223110291846
649.8247321139446
647.0286217806038
644.3436277985592
641.7890766704859
647.2004025590879
644.1902903685894
641.6390092778273
639.7644104765927
649.1932808911595
646.8656460602056
644.1606638145814
641.2168108675501
646.2184905163041
646.1996437590564
648.4570143309523
650.7305284833088
643.2900803091915
645.3198429917495
648.2989725776172
651.2710613675013
642.0155987085072
645.5540900760939
651.3777125597749
656.2696253180902
564.8375675374766
507.4348295424831
500.4297027152156
501.770895976701
578.0524938171974
512.793504034743
500.4835416347951
501.67892792357
588.3140010215429
520.0377352257959
500.5803073957453
501.8624879105955
593.7639076735636
525.5741749005513
500.4857830693202
501.4083424492675
503.3666947776706
504.4867316572235
504.4169419732192
505.0719292754184
503.1264819174731
504.505064873404
504.9967697458998
505.5734460784368
503.3114631975792
504.9236031095813
505.9591110446421
506.7684469263581
502.8100216334567
504.5841639266557
505.2375441808654
505.6332675450478
506.0761562958051
506.7433692068419
507.9987669624945
524.9390115802191
506.8097128197419
507.2214519460618
502.8474868948674
512.2415995978947
508.1925596528603
508.7562477873242
502.6081715724047
498.4162045225456
506.6182585501802
506.9304186603828
497.3334136077798
475.0648267303693
558.1641310224824
557.661164589734
557.0060548218413
556.2794858273004
557.276184859437
556.5147702015719
556.0675109674646
556.3167659045457
555.7986707157203
555.5098076296649
555.2843099808259
556.3085501281694
551.5334249199567
555.1466628110735
555.0743083507436
556.8971931233579
555.3892665842295
551.8345533603466
543.9890029991334
523.4527356815623
557.1127428255879
554.9622184243578
552.3286129442
537.4430938922382
556.8376812695901
555.4973983285047
555.1746940977179
547.0635032149422
557.459135951607
557.4437276741488
559.6877378749249
563.3126602347667
484.8010837401119
499.5922228317253
499.9956508786641
499.9999802996988
487.5679393413355
499.5579480139342
499.9941686086083
499.9999658514816
493.1232504355154
499.536827296543
499.9914322127697
499.9999416970288
497.156765013389
499.4971673015131
499.9856880772271
499.9998925865543
499.999826730685
499.9795021490685
499.2997931128837
494.1595178164509
499.9998285336636
499.9796911084888
499.3449886439458
495.7136309462884
499.9998303211606
499.9795718752283
499.3669703384617
496.4503365454976
499.9998425317158
499.9804301149364
499.4459802137062
497.7473914993258
499.9998925864527
499.999941697031
499.9999658515742
499.9999802996212
499.9856880771468
499.9914322126849
499.9941686085098
499.9956508786814
499.497167301531
499.5368272964325
499.5579480140261
499.59222283179
497.156765013298
493.123250435193
487.5679393411088
484.8010837402456
)
;

boundaryField
{
    back
    {
        type            empty;
    }
    inlet
    {
        type            zeroGradient;
    }
    front
    {
        type            empty;
    }
    top
    {
        type            zeroGradient;
    }
    outlet
    {
        type            fixedValue;
        value           uniform 500;
    }
    bottom
    {
        type            zeroGradient;
    }
    wall
    {
        type            zeroGradient;
    }
}


// ************************************************************************* //
