/*--------------------------------*- C++ -*----------------------------------*\
  =========                 |
  \\      /  F ield         | OpenFOAM: The Open Source CFD Toolbox
   \\    /   O peration     | Website:  https://openfoam.org
    \\  /    A nd           | Version:  11
     \\/     M anipulation  |
\*---------------------------------------------------------------------------*/
FoamFile
{
    format      ascii;
    class       volScalarField;
    location    "7.7";
    object      p;
}
// * * * * * * * * * * * * * * * * * * * * * * * * * * * * * * * * * * * * * //

dimensions      [0 2 -2 0 0 0 0];

internalField   nonuniform List<scalar> 
4455
(
140.47713
140.57527
140.77009
141.08475
141.49716
142.07544
142.74516
144.03234
144.3978
140.42316
140.53419
140.7476
141.07405
141.52281
142.13265
142.93628
144.2148
145.11094
140.31708
140.45198
140.68815
141.03487
141.5039
142.14641
142.97892
144.35926
145.34834
140.16375
140.33114
140.59399
140.96226
141.44744
142.12908
143.01581
144.49545
145.70566
139.97273
140.17535
140.46703
140.85658
141.36052
142.07977
143.04205
144.63462
146.14882
139.75152
139.99059
140.31065
140.71924
141.24635
142.00681
143.03639
144.76933
146.57431
139.50782
139.78276
140.12922
140.55379
141.10049
141.90069
142.99541
144.89368
147.02579
139.25165
139.55719
139.92701
140.36509
140.92895
141.76609
142.91564
144.99255
147.48097
138.99159
139.32011
139.70771
140.15759
140.7352
141.60862
142.81253
145.06772
147.9533
138.73464
138.48805
138.26
138.05464
137.87473
137.72255
137.60075
137.51147
137.45878
139.07686
138.83174
138.59179
138.36159
138.14578
137.94819
137.77191
137.61936
137.49012
139.47399
139.22796
138.97833
138.72914
138.48425
138.24752
138.02147
137.80859
137.608
139.92938
139.67977
139.42102
139.15645
138.88756
138.61811
138.35141
138.0913
137.83369
140.51715
140.27044
140.01081
139.74038
139.45798
139.16804
138.87574
138.58953
138.303
141.42612
141.20454
140.95804
140.68915
140.39242
140.07643
139.74389
139.40712
139.06415
142.69095
142.54038
142.36178
142.14345
141.85987
141.53035
141.16576
140.78861
140.40496
145.14371
145.11804
144.97058
144.71354
144.35055
143.91993
143.44201
142.93052
142.37812
148.56279
149.01407
148.89714
148.33072
147.49714
146.53978
145.53617
144.51809
143.49448
137.45351
137.43407
137.3915
137.33649
137.26556
137.18433
137.08312
136.96982
136.83325
137.41144
137.33657
137.24434
137.13486
137.00756
136.8634
136.70129
136.5212
136.32116
137.47606
137.37582
137.27126
137.15717
137.02959
136.88652
136.72665
136.54955
136.35437
137.64563
137.51612
137.393
137.26292
137.11775
136.95446
136.77156
136.56915
136.34721
138.08218
137.94528
137.82926
137.70902
137.57054
137.41031
137.22785
137.02487
136.8032
138.78286
138.61396
138.4764
138.33249
138.16572
137.97223
137.75214
137.51036
137.25336
140.09138
139.90363
139.74961
139.57605
139.36877
139.12887
138.86176
138.57544
138.28132
141.86625
141.41447
140.96026
140.48445
139.98371
139.46196
138.92953
138.40008
137.90201
142.58406
141.76745
140.95123
140.15167
139.37419
138.62663
137.91623
137.24736
136.64498
136.23109
135.83712
135.71787
135.94222
136.47931
137.19792
138.00452
138.8608
139.75237
137.48148
137.1306
136.84142
136.62337
136.47942
136.41389
136.42989
136.55007
136.73946
138.00205
137.74555
137.5008
137.27346
137.06734
136.88636
136.73213
136.60653
136.51013
136.99149
136.73509
136.47596
136.21537
135.95418
135.69333
135.43376
135.17768
134.926
136.57071
136.33319
136.08488
135.82607
135.55605
135.27505
134.98252
134.67917
134.36467
136.10982
135.85902
135.59088
135.30565
135.00304
134.68277
134.34398
133.9865
133.60924
136.1431
135.91574
135.66905
135.40237
135.11483
134.8056
134.47342
134.11727
133.7354
136.10202
135.86217
135.60144
135.31955
135.01634
134.6891
134.3376
133.95798
133.54896
136.66061
136.45139
136.23098
135.99656
135.74632
135.47252
135.1713
134.8368
134.47076
134.06789
133.63038
133.15338
132.63604
132.07404
131.46769
130.80672
130.09479
129.3208
133.10742
132.6361
132.13129
131.5894
131.00638
130.38711
129.72518
129.0153
128.25002
133.32729
132.89112
132.4259
131.92849
131.39856
130.83263
130.22933
129.58251
128.89125
133.21233
132.7943
132.35539
131.89306
131.40736
130.89431
130.35375
129.77944
129.17058
134.04009
133.70466
133.35932
133.00167
132.63253
132.2471
131.84561
131.4205
130.97166
134.68035
134.44115
134.21011
133.98505
133.76634
133.54805
133.33001
133.10214
132.86366
136.44501
136.40965
136.40431
136.42457
136.46987
136.5314
136.60762
136.68726
136.76791
137.00013
137.32206
137.70228
138.13183
138.60678
139.11902
139.66415
140.23308
140.82066
140.67235
141.61429
142.5789
143.56585
144.58181
145.62532
146.70093
147.80337
148.93525
150.08885
141.4143
136.83654
132.60148
130.48889
128.51881
128.14903
127.43452
128.48339
151.26579
142.00715
136.88818
132.31456
129.97177
127.82334
127.35441
126.55981
127.57288
152.45545
142.58062
136.91176
131.98681
129.40745
127.07331
126.49806
125.62267
126.59048
153.65278
143.12553
136.89785
131.61546
128.7951
126.267
125.57789
124.61003
125.51979
154.83071
143.61243
136.82932
131.18044
128.11918
125.39139
124.58388
123.52543
124.36372
155.9761
144.02984
136.69227
130.67635
127.37821
124.44507
123.51498
122.35848
123.10698
156.99451
144.33228
136.46418
130.08848
126.55395
123.41368
122.35943
121.1087
121.7518
157.8481
144.50634
136.12529
129.40511
125.64202
122.29558
121.11411
119.75971
120.29034
158.28895
144.45411
135.63504
128.60319
124.62068
121.07608
119.76557
118.31506
118.73789
117.10569
116.75844
118.28405
119.73153
123.4392
127.62871
134.91636
144.0993
158.25554
115.46467
115.07448
116.6352
118.23508
122.0216
126.36158
133.69166
142.77811
155.34252
113.57635
113.26706
114.83429
116.58331
120.38477
124.81556
132.0587
140.98221
152.80158
111.43388
111.33313
112.88551
114.7733
118.55781
123.05994
130.20827
139.02759
150.49678
109.00723
109.23136
110.78475
112.81081
116.57993
121.16073
128.23246
136.99602
148.15742
106.4552
106.97912
108.53607
110.70403
114.4626
119.13103
126.14389
134.84807
145.70001
103.72517
104.57066
106.14172
108.45029
112.20576
116.95791
123.91947
132.56426
143.14789
100.87711
102.01754
103.58691
106.05171
109.80251
114.63092
121.54782
130.12357
140.5741
97.80911
99.316085
100.86555
103.49701
107.24433
112.13899
119.01702
127.55325
137.96978
135.32623
124.83689
116.33368
109.483
104.52443
100.7921
97.980876
96.462613
94.58634
132.63552
121.99931
113.4992
106.66417
101.63882
97.926043
94.916437
93.454014
91.139748
129.89674
119.01327
110.5219
103.68827
98.590162
94.911722
91.697568
90.299128
87.543085
127.09156
115.89634
107.40021
100.55743
95.379148
91.749399
88.318622
86.995595
83.756352
124.21032
112.61561
104.1399
97.276665
92.018948
88.438261
84.800133
83.552362
79.839357
121.22361
109.19346
100.73973
93.847698
88.506467
84.975529
81.130845
79.95674
75.746668
118.12021
105.59728
97.208547
90.274714
84.861274
81.375457
77.35349
76.24711
71.552337
114.87157
101.85924
93.550994
86.56045
81.081077
77.63629
73.460278
72.405896
67.232702
111.46863
97.944123
89.771052
82.701042
77.177645
73.775394
69.492235
68.477699
62.923525
58.700522
64.413361
65.406103
69.716308
73.049809
78.555958
85.679062
93.605837
107.5255
54.665097
60.236185
61.255398
65.461874
68.693484
74.06281
81.203823
88.602848
102.72782
50.413458
55.9951
57.076307
61.107964
64.228218
69.426215
76.618271
83.530816
97.477509
46.074111
51.751187
52.890289
56.711594
59.716389
64.682918
71.971272
78.398377
91.778576
41.755498
47.522447
48.707738
52.301897
55.163032
59.863224
67.301901
73.416181
85.497728
37.72072
43.365769
44.594179
47.940205
50.630801
54.981075
62.647396
68.612311
78.426166
33.882073
39.305819
40.56909
43.651591
46.132451
50.039076
58.01621
64.335667
70.126267
30.405579
35.410014
36.686844
39.486875
41.751252
45.052511
53.347289
60.728976
60.644407
26.706476
31.736606
32.964195
35.475722
37.556007
40.061008
48.65718
58.219301
50.706738
23.274547
28.333366
29.389455
31.591291
33.419002
34.958068
43.295906
56.94623
43.985935
20.590265
25.206538
25.993845
27.760333
29.411927
30.170452
38.568676
56.703175
40.288835
18.587203
22.290563
22.84668
23.988226
25.598674
25.913562
35.039986
55.37013
41.572551
17.021785
19.575666
19.970834
20.160969
21.81582
21.386196
32.1125
53.030343
52.969299
15.813828
17.046673
17.368302
16.238775
17.942118
16.359547
29.225666
48.845373
51.036677
14.985597
14.701037
15.03639
12.245683
13.903085
10.918132
25.945838
45.749263
46.083551
14.562111
12.542552
12.920699
8.2669002
9.6663142
5.1950211
22.675312
46.204879
46.518394
14.539053
10.615729
11.034583
4.3646141
5.2928462
-0.51851214
20.071684
43.672628
44.276322
14.8947
8.98825
9.3254142
0.61020042
0.78713363
-6.576163
17.840089
41.073772
43.737931
43.433845
40.373834
16.267096
-11.576468
-3.4690591
-2.7365563
7.9238142
7.785275
15.605144
43.241792
39.811529
13.26684
-16.545523
-7.2983162
-5.6004822
6.7961676
6.9921812
16.732443
42.902287
39.043204
9.762924
-21.572839
-11.060392
-8.1706065
5.9920196
6.5922339
18.218591
42.339864
37.104814
5.9731762
-26.186585
-14.714254
-10.490672
5.4440574
6.549951
20.056554
41.591452
35.193372
1.9314351
-30.768382
-18.300279
-12.547226
5.1763384
6.868502
22.162139
40.700724
33.242478
-2.3640803
-35.070359
-21.807589
-14.33584
5.1310229
7.5296358
24.534345
39.871704
31.363294
-6.7372583
-39.398505
-25.234758
-15.801921
5.3570532
8.5470386
27.102618
38.675485
29.527511
-11.021258
-43.367223
-28.493295
-16.89707
5.8245389
9.915781
29.850335
38.062402
28.243284
-15.228024
-47.541612
-31.931717
-17.510608
6.5903919
11.68573
33.044479
37.273776
24.796582
-20.906795
-52.966886
-35.676781
-17.472784
8.472876
15.373669
38.749331
34.820774
16.74375
-37.551215
-64.913587
-39.293091
-14.979236
12.804037
21.836428
46.594486
32.819444
8.4463466
-46.45385
-73.252891
-39.865976
-10.313032
18.627337
29.471596
54.440345
31.822803
-0.6580206
-61.381717
-80.612919
-37.451443
-3.5397389
25.492368
37.742007
61.981586
29.03811
-10.046697
-70.294862
-85.616887
-32.340961
4.2928091
32.630135
46.186269
68.950335
24.727233
-19.166356
-82.488399
-88.580632
-24.928809
13.061956
39.942039
54.570386
74.982995
19.809769
-27.912278
-90.794262
-88.541125
-15.482073
21.956682
47.113488
62.570264
80.069961
14.778794
-36.29941
-99.488708
-85.746598
-4.3470647
30.861771
54.091196
70.012765
84.156735
9.9809861
-44.715407
-104.02328
-78.199008
7.773636
38.921361
60.52567
76.577329
87.263403
17.030521
-27.623111
-98.773336
-74.750608
9.1320611
58.888524
77.231524
89.577288
104.7057
16.934401
-27.849162
-99.826288
-75.452916
8.4706749
59.010415
76.922847
88.684699
104.10715
16.771154
-28.156857
-102.8196
-75.594087
7.061235
58.78689
76.658008
87.792341
103.21253
16.498759
-28.902758
-105.34213
-78.19577
5.0867341
58.098083
76.005138
86.762874
102.2787
16.197735
-29.408712
-107.57809
-81.829652
2.4875979
57.069577
75.073277
85.619407
101.3629
15.77585
-30.502761
-110.4602
-85.919646
-1.3992799
55.638031
73.782328
84.476873
100.4939
15.34311
-31.600836
-113.19646
-89.328975
-4.7413649
53.791988
72.363736
83.27006
99.710979
14.971974
-33.153744
-114.87481
-91.697695
-6.9968063
51.807573
70.862522
81.808097
99.117895
14.727784
-34.799064
-116.01151
-93.333069
-8.0313306
49.893791
69.369995
81.173194
98.105185
9.9670177
-44.755337
-104.07408
-78.197636
7.8063617
38.929094
60.531929
76.579856
87.264398
14.766898
-36.337167
-99.539198
-85.75078
-4.3177968
30.871732
54.098106
70.016242
84.158132
19.800166
-27.947174
-90.849098
-88.552353
-15.45792
21.967996
47.121177
62.574707
80.071918
24.719293
-19.198089
-82.541287
-88.598857
-24.910078
13.073621
39.950269
54.575812
74.985624
29.031244
-10.074617
-70.349279
-85.642118
-32.328212
4.3037969
32.638668
46.192463
68.953689
31.816848
-0.68155776
-61.43317
-80.643637
-37.444744
-3.5305825
25.500541
37.748765
61.985693
32.816461
8.4272324
-46.502641
-73.287268
-39.865735
-10.306771
18.63473
29.478388
54.445092
34.821435
16.729561
-37.597567
-64.949896
-39.298099
-14.976076
12.809799
21.842856
46.599668
37.276258
24.78657
-20.946633
-53.004667
-35.685632
-17.472668
8.4767891
15.379093
38.754619
15.606239
7.7835471
7.9202311
-2.7448079
-3.4830918
-11.600224
16.24839
40.375896
43.440767
16.734254
6.9911477
6.7932074
-5.6083194
-7.3126253
-16.570742
13.245995
39.813436
43.248396
18.221051
6.5919465
5.9897417
-8.1778584
-11.074804
-21.599486
9.7402879
39.042496
42.908137
20.059612
6.5504953
5.442497
-10.497213
-14.728637
-26.214921
5.9484431
37.102113
42.3446
22.165728
6.8698613
5.1755386
-12.552968
-18.314517
-30.79858
1.9046814
35.190036
41.595587
24.538389
7.5317782
5.1310085
-14.340695
-21.821512
-35.102277
-2.3928731
33.237459
40.704311
27.107039
8.5499602
5.357833
-15.805814
-25.248229
-39.432343
-6.7681459
31.357494
39.874826
29.855054
9.9194508
5.8261447
-16.899945
-28.506098
-43.402605
-11.053991
29.520077
38.678472
33.049449
11.6901
6.5928374
-17.512369
-31.942911
-47.578637
-15.263292
28.235146
38.065667
43.745254
41.075886
17.822534
-6.5983749
0.77363889
0.60167193
9.3212955
8.9857711
14.895035
44.284422
43.672554
20.055313
-0.53874085
5.2800165
4.3559196
11.030027
10.612556
14.538765
46.524785
46.207128
22.659833
5.1767185
9.6541771
8.2581387
12.915734
12.538883
14.561417
46.091204
45.751287
25.930996
10.901727
13.89167
12.236947
15.031049
14.696979
14.984142
51.039071
48.846632
29.211921
16.344731
17.931402
16.230165
17.362662
17.042185
15.811537
52.975165
53.031057
32.099807
21.372707
21.805741
20.15261
19.964925
19.570818
17.019089
41.5789
55.370259
35.028118
25.901198
25.589168
23.980201
22.840528
22.285435
18.583883
40.292573
56.701999
38.557617
30.159106
29.40295
27.752592
25.987579
25.200993
20.586376
43.988525
56.943963
43.286441
34.947778
33.410435
31.583779
29.383103
28.327723
23.270582
58.69582
64.408826
65.401591
69.712091
73.046105
78.553411
85.678354
93.606614
107.52624
54.660196
60.231368
61.250541
65.457234
68.689274
74.059754
81.202831
88.603699
102.72884
50.408353
55.990029
57.071105
61.102844
64.223437
69.422532
76.616868
83.531745
97.478834
46.068842
51.745882
52.88477
56.706007
59.711013
64.678497
71.969306
78.399276
91.780282
41.750102
47.516938
48.701936
52.295881
55.157049
59.857975
67.299214
73.41696
85.499806
37.715265
43.360146
44.588136
47.933793
50.624197
54.974909
62.643805
68.612765
78.428655
33.876614
39.300079
40.562848
43.644814
46.125242
50.031908
58.011502
64.335606
70.129304
30.400162
35.404295
36.680482
39.479789
41.743503
45.044302
53.341251
60.728113
60.647845
26.702049
31.730893
32.957782
35.468399
37.547804
40.051747
48.649603
58.217347
50.709847
111.46917
97.944792
89.770509
82.698888
77.174369
73.771541
69.488056
68.473441
62.919065
114.87194
101.85978
93.550538
86.558603
81.078163
77.6328
73.456418
72.401926
67.228504
118.12046
105.59769
97.208153
90.273111
84.858685
81.372294
77.349949
76.243417
71.548412
121.22374
109.19376
100.73937
93.846291
88.504171
84.972636
81.127584
79.953312
75.743011
124.21036
112.61582
104.13955
97.275411
92.016889
88.435616
84.797129
83.549184
79.835956
127.09152
115.89647
107.39987
100.55629
95.377289
91.746991
88.315866
86.992651
83.753207
129.89664
119.01329
110.52154
103.68723
98.588472
94.909519
91.695051
90.296405
87.540179
132.63535
121.99926
113.49883
106.6632
101.63727
97.924006
94.914102
93.451488
91.137066
135.32603
124.83677
116.3333
109.48209
104.52299
100.79023
97.978703
96.460259
94.583859
117.10437
116.7571
118.28281
119.73039
123.43826
127.62795
134.91584
144.09887
158.25522
115.46325
115.07308
116.6339
118.2339
122.02064
126.36082
133.69115
142.77767
155.34215
113.57485
113.26558
114.83293
116.58208
120.38378
124.8148
132.0582
140.98181
152.80121
111.43229
111.33156
112.88406
114.77202
118.55678
123.05918
130.20778
139.02722
150.49648
109.00553
109.2297
110.78321
112.80946
116.57886
121.15995
128.23198
136.99568
148.15712
106.45337
106.97735
108.53446
110.7026
114.46148
119.13024
126.14343
134.84776
145.69972
103.7232
104.56876
106.13999
108.44877
112.20458
116.9571
123.91902
132.56399
143.1476
100.87499
102.01551
103.58504
106.05008
109.80126
114.63008
121.5474
130.12333
140.57383
97.806816
99.313894
100.86354
103.49527
107.243
112.13813
119.01662
127.55307
137.96955
118.73663
120.28915
121.75067
123.10589
124.36269
125.51879
126.58952
127.57196
128.48249
118.31379
119.7585
121.10754
122.35736
123.52435
124.60899
125.62167
126.55884
127.43357
119.76439
121.11297
122.35833
123.51392
124.58285
125.57689
126.49709
127.35347
128.14811
121.07498
122.29451
123.41263
124.44405
125.39039
126.26603
127.07236
127.8224
128.51789
124.61976
125.64111
126.55305
127.37732
128.1183
128.79422
129.40658
129.9709
130.48803
128.60242
129.40434
130.0877
130.67556
131.17965
131.61466
131.98601
132.31375
132.60067
135.63449
136.12472
136.46359
136.69166
136.82869
136.8972
136.91109
136.8875
136.83583
144.45364
144.50586
144.33177
144.02931
143.61188
143.12495
142.58003
142.00653
141.41365
158.28861
157.84776
156.99414
155.97572
154.83031
153.65235
152.455
151.26532
150.08835
129.31994
128.24911
128.89035
129.16967
130.97081
132.86284
136.76719
140.81999
148.93472
130.09395
129.01441
129.58163
129.77855
131.41965
133.10132
136.68652
140.23239
147.80282
130.80591
129.72432
130.22847
130.35288
131.84477
133.32918
136.60687
139.66343
146.70035
131.4669
130.38627
130.8318
130.89345
132.24627
133.54722
136.53064
139.11827
145.62472
132.07327
131.00556
131.39774
131.40652
132.63171
133.76552
136.46909
138.606
144.58117
132.63529
131.5886
131.92769
131.89223
133.00085
133.98422
136.42378
138.13103
143.56518
133.15265
132.13051
132.42512
132.35457
133.35851
134.20928
136.40351
137.70146
142.57821
133.62967
132.63534
132.89036
132.7935
133.70386
134.44033
136.40884
137.32122
141.61357
134.0672
133.10668
133.32654
133.21154
134.03929
134.67953
136.4442
136.99927
140.67159
136.66004
136.10141
136.14249
136.10917
136.57003
136.99076
138.00125
137.48055
136.23007
136.4508
135.86155
135.91511
135.85836
136.3325
136.73434
137.74474
137.12968
135.8361
136.23039
135.60081
135.66841
135.5902
136.08418
136.4752
137.49999
136.84049
135.71689
135.99595
135.3189
135.40172
135.30496
135.82535
136.2146
137.27265
136.62242
135.94129
135.7457
135.01568
135.11416
135.00233
135.55532
135.9534
137.06652
136.47847
136.4784
135.47188
134.68842
134.80491
134.68205
135.27431
135.69254
136.88554
136.41295
137.19704
135.17065
134.3369
134.47272
134.34324
134.98176
135.43295
136.73131
136.42896
138.00366
134.83614
133.95727
134.11655
133.98574
134.6784
135.17687
136.60571
136.54917
138.85998
134.47008
133.54824
133.73467
133.60847
134.36389
134.92518
136.50931
136.73858
139.75158
136.64393
137.90109
138.28054
137.25264
136.80254
136.34658
136.35376
136.32056
136.83269
137.2463
138.39915
138.57467
137.50966
137.02422
136.56854
136.54896
136.52062
136.96927
137.91516
138.92861
138.861
137.75145
137.22722
136.77095
136.72607
136.70072
137.08257
138.62556
139.46104
139.12812
137.97156
137.4097
136.95388
136.88595
136.86284
137.18379
139.37311
139.98279
139.36804
138.16506
137.56994
137.11718
137.02902
137.00701
137.26503
140.15059
140.48354
139.57534
138.33186
137.70843
137.26235
137.15661
137.13432
137.33596
140.95015
140.95937
139.74893
138.47579
137.82869
137.39245
137.27072
137.24381
137.39098
141.76637
141.41361
139.90297
138.61336
137.94473
137.51558
137.37529
137.33605
137.43354
142.58299
141.86541
140.09074
138.78228
138.08164
137.6451
137.47554
137.41091
137.45299
143.49342
142.3773
140.40434
139.06359
138.30247
137.83317
137.60748
137.4896
137.45826
144.51703
142.92972
140.78801
139.40658
138.58902
138.09079
137.80809
137.61885
137.51095
145.53511
143.44123
141.16518
139.74337
138.87525
138.35093
138.02097
137.77141
137.60024
146.53874
143.91917
141.5298
140.07593
139.16757
138.61764
138.24704
137.9477
137.72205
147.49612
144.34983
141.85935
140.39194
139.45752
138.88711
138.48379
138.14531
137.87424
148.32973
144.71286
142.14298
140.6887
139.73995
139.15602
138.72871
138.36113
138.05416
148.89624
144.96995
142.36134
140.95762
140.0104
139.42061
138.97792
138.59136
138.25954
149.01337
145.11749
142.53999
141.20415
140.27006
139.67939
139.22757
138.83133
138.48761
148.56233
145.14324
142.69061
141.42577
140.51681
139.92903
139.47363
139.07648
138.73422
140.47711
140.57525
140.77007
141.08472
141.49714
142.07542
142.74514
144.03233
144.39779
140.42308
140.53412
140.74753
141.07399
141.52275
142.13259
142.93623
144.21475
145.1109
140.31695
140.45185
140.68803
141.03476
141.5038
142.14631
142.97882
144.35917
145.3483
140.16356
140.33097
140.59383
140.96212
141.4473
142.12894
143.01567
144.49533
145.70558
139.9725
140.17514
140.46684
140.85639
141.36034
142.07959
143.04188
144.63444
146.14874
139.75124
139.99034
140.31042
140.71902
141.24613
142.00659
143.03618
144.76911
146.57417
139.5075
139.78247
140.12895
140.55353
141.10024
141.90044
142.99517
144.8934
147.02561
139.2513
139.55687
139.9267
140.3648
140.92866
141.7658
142.91536
144.99221
147.48075
138.99121
139.31976
139.70738
140.15727
140.73488
141.6083
142.81221
145.06732
147.95299
147.28274
147.97868
148.67702
149.49968
150.44371
151.46261
152.55595
153.68762
154.76098
147.9787
148.61958
149.34879
150.20344
151.16671
152.19036
153.26865
154.38026
155.43021
148.67705
149.34881
150.11678
150.99143
151.95396
152.96912
154.02992
155.12454
156.18962
149.49974
150.20349
150.99146
151.86223
152.80888
153.80745
154.85223
155.94541
157.05451
150.44383
151.16682
151.95404
152.80894
153.72764
154.70727
155.74013
156.84716
158.02675
151.46279
152.19055
152.96929
153.80759
154.70736
155.67748
156.71749
157.86591
159.11413
152.55623
153.26895
154.03022
154.85252
155.74036
156.71765
157.77435
158.99174
160.36126
153.68812
154.38077
155.12505
155.94592
156.84765
157.86635
158.9921
160.23482
161.6023
154.76179
155.43104
156.19048
157.0554
158.02767
159.11503
160.3622
161.60295
163.37069
167.69941
164.32176
163.13138
161.30437
159.97091
158.7015
157.63196
156.70276
155.94643
157.78373
158.80964
158.76589
158.69821
158.36337
157.86326
157.2924
156.63376
155.94813
154.18411
154.71997
154.84613
155.06964
155.09112
155.03556
154.91201
154.6799
154.31987
151.80839
152.12236
152.0988
152.27837
152.2912
152.32155
152.29194
152.25568
152.09856
150.04703
150.23152
150.21161
150.29242
150.2685
150.26747
150.23518
150.22531
150.15576
148.44609
148.57084
148.51648
148.60151
148.53828
148.56415
148.4946
148.48104
148.40971
147.02251
147.06375
147.02488
147.04834
147.00096
146.98575
146.93874
146.90463
146.85103
145.65008
145.64338
145.57184
145.58926
145.50585
145.50518
145.4282
145.40167
145.33196
144.34317
144.27546
144.20662
144.1525
144.07865
144.01889
143.9601
143.90743
143.84567
142.45347
141.08249
139.58442
137.85989
135.89668
133.3425
130.29134
126.61427
123.79475
142.53378
141.15359
139.63627
137.8845
135.83359
133.26466
130.08009
126.49919
123.01982
142.55492
141.17486
139.61364
137.84067
135.70389
133.10339
129.81443
126.12767
122.09602
142.63748
141.21744
139.67696
137.83281
135.70112
132.96591
129.60651
125.58703
121.10217
142.66188
141.27108
139.67683
137.86542
135.6491
132.90417
129.3869
125.10514
120.14867
142.76197
141.33562
139.75005
137.90138
135.67656
132.85988
129.27655
124.60237
119.28749
142.79914
141.41029
139.80163
137.99498
135.7145
132.94631
129.2251
124.41057
118.43282
142.88458
141.46305
139.86756
138.02519
135.78153
132.92776
129.23929
124.16868
119.7784
143.0006
141.60087
140.00754
138.21981
135.96711
133.25151
129.42151
124.4767
117.16902
124.33379
126.98113
130.15752
132.41274
133.91974
135.33382
136.70178
138.04786
139.33208
123.17355
126.12516
129.78021
132.16354
133.73819
135.22817
136.67845
138.06381
139.37434
121.79474
125.36288
129.47999
131.91605
133.52198
135.05811
136.55996
137.98572
139.3196
119.95017
124.53288
129.23294
131.73718
133.45128
135.05791
136.61469
138.05168
139.39343
117.62764
123.47342
128.7352
131.27623
133.08819
134.80405
136.4397
137.92902
139.30022
114.87563
123.34415
128.9318
131.3465
133.20722
134.93784
136.56908
138.03982
139.40128
109.31447
121.63325
128.29005
130.7221
132.78483
134.67255
136.39213
137.90499
139.2958
105.27485
122.11155
128.77073
130.9419
132.95849
134.82665
136.51781
138.00777
139.38138
94.61683
120.59141
128.36069
130.58032
132.73885
134.70351
136.43711
137.9366
139.32742
140.58411
141.80399
143.05601
144.32588
145.65641
147.01874
148.45458
149.96437
151.58853
140.62154
141.85205
143.09846
144.38115
145.70887
147.09038
148.53277
150.06461
151.69271
140.58536
141.83363
143.09543
144.39537
145.73359
147.13211
148.58351
150.13353
151.77577
140.6488
141.90427
143.16156
144.46826
145.80516
147.21238
148.66855
150.23251
151.88384
140.57623
141.85144
143.12689
144.44758
145.79783
147.21965
148.69337
150.27637
151.9443
140.66237
141.9303
143.19652
144.51473
145.86153
147.28531
148.75829
150.3459
152.0174
140.57971
141.86786
143.15351
144.48641
145.84486
147.27921
148.76345
150.36371
152.04644
140.65535
141.9329
143.21202
144.53834
145.89466
147.32653
148.81085
150.41092
152.0953
140.61048
141.89853
143.18267
144.51748
145.8754
147.31367
148.79892
150.40518
152.09138
153.32453
155.20549
157.22461
159.39515
161.6983
164.15833
166.7079
169.38248
171.29075
153.45437
155.34562
157.40393
159.61558
162.00662
164.56743
167.27562
170.08232
172.14394
153.56406
155.47887
157.57789
159.83412
162.31122
164.9765
167.83074
170.73358
172.99975
153.69187
155.62214
157.7567
160.04502
162.59364
165.32489
168.30454
171.31818
173.84829
153.77232
155.72217
157.88608
160.20626
162.81178
165.6055
168.71724
171.85837
174.69132
153.85591
155.8165
158.00285
160.34464
162.99841
165.83977
169.08758
172.34892
175.52161
153.90057
155.87111
158.07833
160.43602
163.13165
166.00473
169.37934
172.76422
176.34448
153.95242
155.92586
158.1441
160.50944
163.23616
166.12633
169.61905
173.08207
177.31237
153.95439
155.93402
158.15754
160.53464
163.26816
166.18617
169.73231
173.2844
177.44999
172.22232
165.1135
162.10436
158.98644
155.80281
152.7086
149.72176
146.81673
143.96995
173.38408
165.92248
162.82519
159.57319
156.3135
153.14085
150.13957
147.18838
144.3273
174.48426
166.65851
163.49385
160.16476
156.82956
153.604
150.57385
147.60219
144.72707
175.60153
167.33429
164.08723
160.6379
157.28991
153.994
150.9662
147.9393
145.07348
176.77388
168.18063
164.79916
161.25883
157.8375
154.53163
151.45235
148.43464
145.53303
177.93962
168.74445
165.28098
161.64077
158.21076
154.82005
151.74101
148.6647
145.77101
179.36541
169.81482
166.04527
162.34161
158.86167
155.43921
152.33153
149.24122
146.34023
180.11077
170.09053
166.26901
162.51003
159.02765
155.56221
152.44903
149.33553
146.43174
182.57214
171.72458
167.25647
163.37067
159.83945
156.31979
153.16698
150.02161
147.1054
141.11175
138.24641
135.35712
132.43789
129.47573
126.46139
123.37955
120.22151
116.9787
141.4355
138.57529
135.65867
132.75134
129.7668
126.76376
123.6637
120.51322
117.25305
141.83863
138.97468
136.06863
133.15928
130.18877
127.18843
124.10775
120.96949
117.73215
142.14421
139.29583
136.36389
133.46818
130.4833
127.4929
124.40754
121.27541
118.04265
142.61456
139.74983
136.82361
133.92821
130.94068
127.9671
124.86987
121.77415
118.51498
142.81941
139.96696
137.02698
134.13792
131.1509
128.17414
125.09356
121.98205
118.76648
143.37701
140.53186
137.579
134.70781
131.70489
128.76079
125.65506
122.60026
119.32257
143.46035
140.61251
137.66359
134.7858
131.79525
128.83678
125.75572
122.67364
119.45924
144.11606
141.27287
138.31269
135.45094
132.45097
129.51887
126.42781
123.38985
120.13012
113.25891
108.98276
104.62173
100.08867
95.484337
91.176252
87.088555
81.244131
73.571706
113.58223
109.40014
105.13126
100.72987
96.228377
92.099994
88.393802
83.341546
76.680029
114.10442
110.01442
105.86655
101.54505
97.255473
93.043655
89.602527
84.524896
79.239747
114.48844
110.52084
106.46523
102.25426
98.029188
93.920365
90.768217
87.486073
81.67843
115.02826
111.10124
107.23035
103.0505
99.00871
94.777258
91.971003
87.51498
89.984301
115.32783
111.58123
107.71456
103.7135
99.581346
95.49176
91.956349
91.433543
90.348713
115.9868
112.26847
108.67906
104.69929
100.83592
96.605314
93.366278
87.715488
111.78105
116.1325
112.57165
108.90976
105.14205
101.14623
97.035677
92.312184
89.942247
100.96314
116.93504
113.49662
110.12706
106.48424
102.88131
98.902189
96.394485
78.791306
139.43764
54.22927
40.690183
42.138593
39.788178
37.779589
42.108353
44.618833
45.235745
44.578455
55.441115
40.025248
42.292373
40.492617
40.825177
42.850092
44.847249
45.307508
44.699816
55.796022
39.141443
42.715944
40.370832
39.918204
43.084198
45.026653
45.374991
44.814599
54.07144
37.546785
43.481205
40.421998
41.761173
43.502296
45.174968
45.527897
44.926668
49.400061
35.491032
44.10865
40.613946
41.722635
43.917684
45.343838
45.652505
45.071441
44.1222
36.014891
45.409727
40.263231
42.439093
44.368359
45.460291
45.815985
45.201922
46.448993
48.046308
43.401656
41.02365
42.829702
44.71843
45.594527
45.94986
45.325749
46.47576
32.930281
44.049013
40.473659
43.150843
44.99069
45.671632
46.068979
45.407883
-28.807859
55.669344
41.487344
41.30058
44.044168
45.264505
45.801486
46.137959
45.445404
43.236831
41.713929
39.606483
37.139925
34.849717
31.720847
29.212923
20.655326
24.710759
43.476762
41.927464
39.686052
37.263274
34.832313
31.130139
28.198429
20.773905
25.861329
43.537165
41.862747
39.592642
36.983077
34.36092
30.358657
26.829898
21.031926
25.968764
43.634393
41.932561
39.50503
36.809738
33.961478
29.879548
26.090654
21.173966
27.838409
43.767486
41.97265
39.435889
36.641352
33.557171
29.425114
25.569399
23.146314
29.688669
43.87044
42.045104
39.395288
36.457313
33.212854
29.091997
25.510169
24.968358
31.503412
43.97121
42.055191
39.291552
36.179172
32.807001
28.728964
25.97826
27.097916
34.011155
44.031672
42.089404
39.253132
36.049047
32.582123
28.797527
26.193452
28.386642
35.000498
44.039006
41.958775
38.961868
35.545927
31.956656
28.309684
26.808255
30.791205
37.872471
24.644183
25.190843
25.379231
28.428152
31.169593
34.616713
33.647025
30.776558
27.995086
25.565602
24.790145
24.106877
27.177611
30.863926
34.707632
34.789708
32.88309
31.449463
26.507991
25.09464
24.958662
27.138829
30.591543
34.180042
35.311354
34.737479
34.261832
28.003512
24.736644
24.142417
26.147203