/*--------------------------------*- C++ -*----------------------------------*\
  =========                 |
  \\      /  F ield         | OpenFOAM: The Open Source CFD Toolbox
   \\    /   O peration     | Website:  https://openfoam.org
    \\  /    A nd           | Version:  11
     \\/     M anipulation  |
\*---------------------------------------------------------------------------*/
FoamFile
{
    format      ascii;
    class       volVectorField;
    location    "0.17";
    object      U;
}
// * * * * * * * * * * * * * * * * * * * * * * * * * * * * * * * * * * * * * //

dimensions      [0 1 -1 0 0 0 0];

internalField   nonuniform List<vector> 
880
(
(25 -7.768126373978579e-16 0)
(25 4.670079875853845e-16 0)
(24.99999999968226 -1.581749234376932e-09 0)
(24.99994547561469 1.971939060298553e-06 0)
(25 1.210301178234613e-15 0)
(25 -2.443717491076552e-15 0)
(24.99999999745067 -7.491781433009516e-09 0)
(24.99960921873893 -0.0007851308050111897 0)
(25 0 0)
(25.00000000000001 1.043156773481319e-13 0)
(24.99999997069118 -5.062264358207287e-08 0)
(24.99992748088189 -0.001674925294222211 0)
(25 0 0)
(25.00000000003209 1.772345705908326e-12 0)
(24.99999951800616 -4.337580182264712e-08 0)
(24.99450335915674 -0.02027521835448058 0)
(25 3.657526943559736e-15 0)
(25 -4.919334636003046e-14 0)
(25.00000000003271 -1.41817772306029e-10 0)
(24.99999999927756 3.539512496586158e-09 0)
(25.00000000646181 3.815067626561582e-10 0)
(24.99999992152077 -1.08182521195774e-08 0)
(25.00000078947335 3.210149084391121e-07 0)
(24.9999931840561 -5.471696361179212e-07 0)
(25.00005079827999 -4.204916966669386e-05 0)
(24.99988222993213 8.645389477780906e-05 0)
(24.99571545839524 0.01126408455391163 0)
(25.01279196214709 -0.01807695259089664 0)
(24.79464972023146 -0.02202155468928054 0)
(24.26470889820724 0.3115890794475938 0)
(24.00025092632438 0.7769084845095348 0)
(23.9364398141036 1.078969591287863 0)
(24.99999847347575 -1.477706014557703e-06 0)
(25.00000345666437 2.373170853021542e-05 0)
(24.99996801146094 -7.107629515457385e-05 0)
(24.99996284511513 -3.658146103432674e-05 0)
(24.99995831605326 3.709510536663351e-06 0)
(24.99982251808562 5.513803197256211e-05 0)
(24.9996772847567 0.0005056718169666391 0)
(24.99967063113803 0.0004820751125467599 0)
(24.9781199541151 0.001376139213984809 0)
(24.95570552924707 0.02853326796233937 0)
(24.9451341834027 0.0643616853206303 0)
(24.93997842504015 0.07899216213623246 0)
(23.92726651666942 1.372217459790738 0)
(23.77840114442083 1.789715904611145 0)
(23.90088866676206 1.977786050432042 0)
(23.64994733757115 2.296969084878499 0)
(24.16131195017669 2.664211325133126 0)
(24.6621191228199 2.611675632026925 0)
(25.11499327130579 2.367796029821081 0)
(25.38608136430333 1.979878839023219 0)
(24.90500878955763 0.1445101562220677 0)
(24.84011712441299 0.3087394709664807 0)
(24.88911851722644 0.4833731306564509 0)
(25.01113630003398 0.5066721225091052 0)
(24.99903699271524 0.001475785361164224 0)
(24.996044742701 0.005035782529249192 0)
(24.99290234635669 0.01353906023137362 0)
(24.99519778750071 0.02215487817091982 0)
(24.99990501581755 -8.909528214927524e-05 0)
(24.99970849413426 -0.0002814038438505824 0)
(24.99934792181064 -0.0007277358242016495 0)
(24.99876783551277 -0.001126754093527619 0)
(24.99852032254565 -0.001147688679474419 0)
(24.99847904504585 -0.001018227236209523 0)
(24.99866372839423 -0.0007580083861049012 0)
(24.99906500746784 -0.0004414703741065474 0)
(25.00109752423347 0.02333962812693264 0)
(25.00397398633081 0.02156954672588228 0)
(25.00603240153841 0.0176617762356201 0)
(25.00610785721996 0.01205748096691272 0)
(25.08794695912018 0.4665907468344104 0)
(25.13461039220448 0.4050427099441475 0)
(25.15644297905438 0.3182284163857105 0)
(25.14950948083926 0.2285234415345891 0)
(25.59967474861018 1.5321159643744 0)
(25.73688667842194 1.08019541309173 0)
(25.73963733093807 0.7493151724892674 0)
(25.67666873968588 0.5205152829182959 0)
(25.56728614666897 0.3618729436311708 0)
(25.12056298944668 0.1464626476215496 0)
(25.00425857304378 0.006337398183244638 0)
(24.99953226177492 -0.0001972379753178238 0)
(25.44737261395679 0.2412411470844866 0)
(25.07834453059862 0.0807989939640219 0)
(25.00181851140666 0.002249302284112287 0)
(24.99985227803547 -5.861979864332854e-05 0)
(25.24231150453114 0.1347320385965287 0)
(25.03346544711427 0.02123621051539265 0)
(25.00036178092313 0.0003342249791372323 0)
(24.99997399422804 -6.485674969410967e-06 0)
(24.67685938023996 0.4346282460777882 0)
(24.99909381705039 0.01144850498921687 0)
(25.00004992084938 8.501395571727677e-05 0)
(25.00002604505956 1.503567295369347e-07 0)
(24.99999225993762 -5.959330707844995e-06 0)
(24.99997990672032 1.409690359607869e-05 0)
(24.96810118069704 0.0170894375230753 0)
(21.67069524365911 1.154847077758604 0)
(24.99995749167711 -2.133055940987565e-05 0)
(24.99972292004928 0.0003272329705018324 0)
(24.85038780693854 0.06193542481808079 0)
(19.56195202855726 2.625567834778069 0)
(24.99994715398744 -9.328672136992469e-05 0)
(24.99775420318576 0.001682823599502003 0)
(24.64750934936293 0.2168164189125313 0)
(18.57012995119783 4.217447798312432 0)
(24.99966042025219 -0.0002782410458061471 0)
(24.99627962053407 0.004490066361469231 0)
(24.45992954564769 0.4174436856307083 0)
(18.35209557032261 5.564177942200209 0)
(18.05370942941855 6.92612349149857 0)
(24.20066603592539 0.777500801623723 0)
(24.99059569814886 0.01145081595318463 0)
(24.99946910805815 -0.0006728797764911684 0)
(18.02341637009546 8.011073131191294 0)
(23.95759444235437 1.237123107022518 0)
(24.98572908002526 0.024696058870427 0)
(24.99857036744998 -0.001431442724153897 0)
(17.89569517063161 8.953886186771197 0)
(23.75262172102467 1.740130281385353 0)
(24.97954650848893 0.04101820153739491 0)
(24.99764890161084 -0.002324995079076254 0)
(17.88358611348936 9.630802980508966 0)
(23.46101687956487 2.407435859339189 0)
(24.96698941961169 0.07591191988911385 0)
(24.99606477236362 -0.004032524565659556 0)
(24.99350118684487 -0.005948032020202331 0)
(24.95869349793741 0.1041708248151515 0)
(23.19402545978861 3.002849543157847 0)
(18.04387853493166 10.15527063714569 0)
(24.99064377143853 -0.009539311588616714 0)
(24.92457224201404 0.1766577374346761 0)
(23.08333761368629 3.693416154712196 0)
(18.8272335778913 10.24502282226602 0)
(25.00435358043942 -0.01435532966327592 0)
(24.94249620947031 0.2177882337043506 0)
(23.55055867619157 3.438537187754092 0)
(20.5876423727596 9.539729529516984 0)
(24.9583153085059 -0.01514175020631071 0)
(24.95470148506417 0.1374357507426015 0)
(24.28964452952745 2.655046272637363 0)
(22.76846176936026 7.714665109305503 0)
(24.99107584114616 -0.004781724919853941 0)
(24.96450200647203 0.3512836028014609 0)
(25.17252709213209 2.350347153398157 0)
(26.38535977248462 5.047383402306786 0)
(24.97315534570051 -0.001237845696409796 0)
(25.15625056183056 0.2859056792151033 0)
(26.11055801365484 1.437174607461005 0)
(28.985252979466 2.125445334562096 0)
(24.98477818295948 -0.002776666566986145 0)
(25.21021682283565 0.1381006521564099 0)
(26.23352034512445 0.4445024224226761 0)
(29.8112420612648 -0.1406824861636195 0)
(25.00244194811254 -0.001922261950781873 0)
(25.122470841324 0.01233196644893184 0)
(25.81420405883519 -0.3558086474851662 0)
(27.55310561560707 -1.596327937772257 0)
(23.49765532523731 -2.781377899323805 0)
(25.28047133001397 -0.8947387405951467 0)
(25.03816018451932 -0.05135580925744064 0)
(25.00140300895734 -0.001195321050892962 0)
(20.61007768753558 -4.569582341533566 0)
(24.73239399664402 -1.235660026000402 0)
(24.98823324089966 -0.07130619419180971 0)
(25.00013471445369 -0.001600922039354846 0)
(18.28354140173288 -5.318800410328928 0)
(24.28886066119179 -1.186887158299605 0)
(24.96310482405885 -0.06319504271852272 0)
(24.99957707441105 -0.001213801543747861 0)
(16.27517442310394 -5.036596219416431 0)
(23.83951372092077 -1.159052150431363 0)
(24.9448209179885 -0.06636375643545871 0)
(24.99943324549199 -0.0008415443247137441 0)
(17.07186124052665 -3.308272255235609 0)
(23.91432498567724 -0.6321096840010871 0)
(24.95902382107295 -0.02936648786621228 0)
(24.99974378937391 -0.000259343504683047 0)
(18.72443919462304 -1.287214306665642 0)
(24.22739891162431 -0.3001176545608171 0)
(24.98155529839038 -0.01092690841208332 0)
(24.99992064492574 -7.132110935389579e-05 0)
(20.30963552671668 0.01516834643216117 0)
(24.52325798003776 -0.1323225288144867 0)
(24.99262937710341 -0.004232160376370298 0)
(24.99997626444382 -2.414847413096634e-05 0)
(21.98570399057231 0.2488212140853522 0)
(24.80662541014734 -0.1648745801209537 0)
(24.99943038322509 -0.003240665596952116 0)
(24.99999347358089 -1.354457221527797e-05 0)
(22.27567824589988 -0.2853848877005982 0)
(24.69006832515858 -0.02266049170158355 0)
(24.98412987818401 -0.0004666161977600185 0)
(24.99975452203654 -2.537657004346792e-06 0)
(22.34809840504582 -0.6657416326616156 0)
(24.70248707397462 -0.0536126598237216 0)
(24.98475321942156 -0.001129610781151576 0)
(24.9997573278123 -6.404547109502237e-06 0)
(22.31543637088754 -0.9831659619318727 0)
(24.68486991540366 -0.0894129944368352 0)
(24.9853237340448 -0.002128814299098012 0)
(24.99976877389598 -1.124391745042075e-05 0)
(22.19594526935227 -0.840371012498491 0)
(24.70248146901261 -0.108090734634141 0)
(24.98713494832785 -0.00374584493133009 0)
(24.99978698096549 -3.883344205723832e-05 0)
(21.98570399061542 -0.2488212142236461 0)
(24.80662541020589 0.1648745801620749 0)
(24.9994303833391 0.003240665703438492 0)
(24.99999347336385 1.354495482102247e-05 0)
(20.30963552672166 -0.01516834617782362 0)
(24.52325798009882 0.1323225288888966 0)
(24.99262937736447 0.004232160527397006 0)
(24.99997626440171 2.414822742475679e-05 0)
(18.72443919458442 1.287214306881206 0)
(24.22739891151064 0.3001176547622936 0)
(24.98155529838465 0.01092690868508998 0)
(24.99992064495417 7.132119367535786e-05 0)
(17.07186124040471 3.308272255157003 0)
(23.91432498547253 0.6321096837870226 0)
(24.95902382100618 0.02936648774294118 0)
(24.99974378943521 0.0002593434501782205 0)
(25.00140300873657 0.001195320871112552 0)
(25.03816018443801 0.05135580884922624 0)
(25.28047132997063 0.8947387405172935 0)
(23.49765532527537 2.781377899320731 0)
(25.00013471415801 0.001600922281825531 0)
(24.98823324079717 0.07130619412514615 0)
(24.73239399658524 1.235660025830259 0)
(20.61007768742421 4.569582341458633 0)
(24.9995770745833 0.001213801532206347 0)
(24.96310482387195 0.0631950426097365 0)
(24.28886066117578 1.186887158295997 0)
(18.28354140170823 5.318800410204144 0)
(24.99943324548124 0.0008415442330833113 0)
(24.94482091791071 0.06636375652776558 0)
(23.83951372069395 1.159052150228339 0)
(16.27517442314854 5.036596219443463 0)
(27.55310561582307 1.596327937817896 0)
(25.8142040590365 0.3558086475999386 0)
(25.12247084152686 -0.01233196640664201 0)
(25.00244194838264 0.00192226174978047 0)
(29.8112420615047 0.140682486266201 0)
(26.23352034537774 -0.4445024224162946 0)
(25.21021682318844 -0.1381006519730218 0)
(24.98477818328649 0.002776666680166445 0)
(28.98525297945218 -2.12544533459312 0)
(26.11055801390025 -1.437174607481966 0)
(25.15625056191337 -0.2859056790584666 0)
(24.97315534566421 0.001237846148986298 0)
(26.385359772472 -5.0473834023332 0)
(25.17252709216378 -2.350347153364176 0)
(24.964502006276 -0.3512836023814544 0)
(24.9910758403789 0.004781725223320006 0)
(24.99350118689419 0.005948032121813821 0)
(24.95869349791396 -0.1041708247210981 0)
(23.19402545961039 -3.002849543125748 0)
(18.04387853484163 -10.15527063710888 0)
(24.99064377142048 0.009539311658973927 0)
(24.92457224170981 -0.1766577377239245 0)
(23.08333761357874 -3.693416154616359 0)
(18.82723357783955 -10.24502282218036 0)
(25.0043535774897 0.0143553301904804 0)
(24.94249620960603 -0.2177882337456281 0)
(23.5505586762351 -3.438537187638026 0)
(20.58764237274259 -9.539729529456411 0)
(24.95831531161625 0.01514174905921006 0)
(24.95470148477971 -0.1374357504635101 0)
(24.28964452949637 -2.655046272530233 0)
(22.76846176936498 -7.714665109280822 0)
(17.88358611331702 -9.630802980415448 0)
(23.46101687937959 -2.407435859586304 0)
(24.96698941885359 -0.07591192058702832 0)
(24.99606477236888 0.00403252449926153 0)
(17.89569517040678 -8.95388618663376 0)
(23.75262172103878 -1.740130280946389 0)
(24.97954650949227 -0.04101820097813284 0)
(24.99764890144552 0.002324995045773698 0)
(18.0234163699178 -8.011073131260186 0)
(23.95759444213271 -1.237123107371545 0)
(24.98572907902505 -0.02469605984389122 0)
(24.99857036760131 0.001431442758902982 0)
(18.05370942932779 -6.926123491605972 0)
(24.20066603603296 -0.7775008019147615 0)
(24.99059569842844 -0.01145081571006556 0)
(24.99946910819911 0.000672879769798586 0)
(24.99999226001096 5.959435946243882e-06 0)
(24.99997990653736 -1.409688356571678e-05 0)
(24.96810118072571 -0.01708943746094696 0)
(21.67069524374827 -1.154847077700208 0)
(24.9999574918316 2.133058561802487e-05 0)
(24.99972292032292 -0.0003272328959885954 0)
(24.85038780678425 -0.06193542485699122 0)
(19.56195202870404 -2.625567834710912 0)
(24.99994715420868 9.328671284603048e-05 0)
(24.99775420315621 -0.001682823379812948 0)
(24.64750934924657 -0.2168164189192955 0)
(18.57012995103623 -4.217447798289638 0)
(24.99966042055712 0.0002782410537006948 0)
(24.99627962024337 -0.004490066570563622 0)
(24.45992954579268 -0.4174436854894766 0)
(18.35209557044016 -5.564177942142658 0)
(25.00002604458036 -1.504582913421404e-07 0)
(24.99997399414473 6.485698803931334e-06 0)
(24.99985227803611 5.86197954831828e-05 0)
(24.99953226184592 0.0001972380235769426 0)
(25.00004992112374 -8.501398315330022e-05 0)
(25.00036178087373 -0.0003342249848998338 0)
(25.00181851117625 -0.002249302230248941 0)
(25.00425857320021 -0.006337398184973865 0)
(24.99909381699487 -0.01144850502251727 0)
(25.03346544705692 -0.02123621041441577 0)
(25.07834453078171 -0.08079899397562026 0)
(25.12056298938348 -0.146462647893998 0)
(24.67685938025349 -0.4346282460475335 0)
(25.24231150449751 -0.134732038630871 0)
(25.44737261397049 -0.2412411472044308 0)
(25.56728614667533 -0.3618729434181667 0)
(24.99906500776439 0.0004414703140781646 0)
(25.00610785721501 -0.01205748108016047 0)
(25.14950948068055 -0.2285234414774122 0)
(25.67666873958051 -0.5205152828993794 0)
(24.99866372838677 0.0007580083457034413 0)
(25.00603240160817 -0.01766177625059506 0)
(25.15644297895138 -0.3182284162004992 0)
(25.73963733094657 -0.7493151723611491 0)
(24.99847904486335 0.001018227327176935 0)
(25.00397398632171 -0.02156954682726249 0)
(25.13461039220245 -0.4050427100536169 0)
(25.73688667842815 -1.080195413150089 0)
(24.99852032250814 0.001147688773061203 0)
(25.00109752419042 -0.02333962826736743 0)
(25.08794695911078 -0.4665907466938696 0)
(25.59967474874544 -1.532115964367821 0)
(24.99990501604422 8.909514614387689e-05 0)
(24.99903699287202 -0.001475785506442373 0)
(24.90500878939482 -0.1445101567392373 0)
(24.1613119501552 -2.664211325204686 0)
(24.99970849438161 0.0002814036960741493 0)
(24.99604474280045 -0.005035782476638023 0)
(24.84011712438853 -0.3087394711825918 0)
(24.66211912293994 -2.611675632146654 0)
(24.99934792195703 0.0007277358225056284 0)
(24.99290234616923 -0.01353906008576827 0)
(24.88911851717194 -0.4833731306513824 0)
(25.11499327142765 -2.367796029917312 0)
(24.99876783564826 0.001126754124946571 0)
(24.99519778728925 -0.02215487816748493 0)
(25.01113629995695 -0.5066721224732813 0)
(25.38608136444993 -1.979878839098947 0)
(23.6499473375555 -2.296969084699179 0)
(24.9399784249683 -0.07899216216554981 0)
(24.99967063130671 -0.000482075184048136 0)
(24.99996284566272 3.658171392352894e-05 0)
(23.90088866660397 -1.977786050346463 0)
(24.94513418346481 -0.0643616849659102 0)
(24.99967728490259 -0.0005056719077537698 0)
(24.9999680092761 7.107643233510121e-05 0)
(23.7784011442073 -1.789715904367684 0)
(24.95570552958733 -0.02853326760014551 0)
(24.99982251810528 -5.513793135879362e-05 0)
(25.00000345832947 -2.373205291007943e-05 0)
(23.92726651644362 -1.37221746000515 0)
(24.97811995404059 -0.001376139428276107 0)
(24.99995831611944 -3.709498497643795e-06 0)
(24.9999984733942 1.477715059789272e-06 0)
(23.93643981404866 -1.078969591223597 0)
(25.01279196168372 0.01807695268210434 0)
(24.99999318397688 5.471728910110297e-07 0)
(24.99999999921154 -3.506529319509415e-09 0)
(24.00025092641614 -0.7769084844616743 0)
(24.99571545906943 -0.01126408452048306 0)
(25.00000078945714 -3.210155068465884e-07 0)
(25.00000000004208 1.431545008622699e-10 0)
(24.2647088980841 -0.3115890793775891 0)
(24.99988223001739 -8.645387130854323e-05 0)
(24.99999992150405 1.08189652857146e-08 0)
(25.00000000000001 4.167115601041016e-14 0)
(24.79464971980633 0.02202155460044601 0)
(25.00005079833151 4.204914889680772e-05 0)
(25.0000000064547 -3.812350505007663e-10 0)
(25.00000000000002 -7.751300108760406e-15 0)
(25 1.420908939734042e-15 0)
(25 2.664740036865307e-15 0)
(24.99999999960465 1.599946189095624e-09 0)
(24.99994547586881 -1.971498167470934e-06 0)
(24.99999999999999 -2.843418720158383e-19 0)
(25 5.600864530764189e-15 0)
(24.99999999741317 7.482617583006058e-09 0)
(24.99960921911456 0.0007851307633629322 0)
(25 -1.375618454335966e-15 0)
(25 -1.133875194938144e-13 0)
(24.99999997068058 5.05974660391679e-08 0)
(24.99992748104924 0.00167492541847067 0)
(25 -2.979609126228137e-15 0)
(25.00000000003252 -1.792377607727865e-12 0)
(24.9999995181652 4.333191944506055e-08 0)
(24.99450335972792 0.0202752171353513 0)
(24.99981986831122 5.829383655807331e-11 0)
(24.99950602604195 0.001044894965649432 0)
(24.99834506349476 0.004969313954990479 0)
(24.9585534975719 0.01446526575979927 0)
(24.99950602471699 -0.001044896861341825 0)
(24.99880949706706 -3.168657766878956e-09 0)
(24.9938168513113 0.0005730918717403034 0)
(24.84513376857727 -0.03968109077338283 0)
(24.99834506025679 -0.004969318838213846 0)
(24.9938168497799 -0.0005731001855409355 0)
(24.9204236075223 -1.852039542485719e-09 0)
(24.07078957299599 -0.1926401506449957 0)
(24.95855349306906 -0.01446526222599125 0)
(24.84513376306408 0.03968109397675261 0)
(24.07078957016922 0.1926401620521569 0)
(21.35495200690173 9.386528991742994e-09 0)
(18.98184233826117 2.443114662825946 0)
(20.03103868795836 3.101151345485567 0)
(22.54883384202036 2.304253991000858 0)
(23.93366096827681 1.068862540557895 0)
(19.68651791384421 4.456754262305643 0)
(19.82447803604486 4.567598301585734 0)
(20.76255526649032 4.360747365640337 0)
(22.01632443771485 3.65141532595186 0)
(19.58226307111761 5.653551027086264 0)
(20.60875923903265 4.875472536665322 0)
(21.39208482221493 5.121496359745196 0)
(22.24162444928692 4.835536576741916 0)
(20.04503319433387 5.976270635735619 0)
(21.20676150619129 4.986250592078055 0)
(21.80100016353695 5.176123267385657 0)
(22.31789048490685 4.990283902116849 0)
(22.4353238217141 5.176463612314344 0)
(22.58612652253987 5.33664903254884 0)
(22.77638234141291 5.374792709459471 0)
(22.77387783939266 5.532011605526838 0)
(22.06428522269924 5.324264539738683 0)
(22.37896402078546 5.47201496007582 0)
(22.58983780303202 5.492282816358641 0)
(23.22949615053323 5.812165098184513 0)
(21.60887887704598 5.16783150924735 0)
(22.06651302138911 5.394665035715499 0)
(22.3419720854369 5.488368721620396 0)
(24.61888103806917 6.197523847104922 0)
(20.46661076145543 6.268584844146398 0)
(20.74825193933259 6.304247478769649 0)
(20.86799651283297 5.995697755815197 0)
(26.27316828942269 7.496547930199271 0)
(24.94891866934762 4.022293539734308 0)
(26.77097547569671 1.563448182725179 0)
(26.32849068463031 0.2706980375576054 0)
(26.11023361215992 0.2592064575087328 0)
(26.32850755009578 3.173291066398006 0)
(28.38195304783564 0.4832043041047318 0)
(27.54141238095427 0.01244876720043022 0)
(27.01353714132658 0.1588792201810641 0)
(29.07160474151966 2.492457511475246 0)
(29.89151489291171 -0.05052354309303456 0)
(28.34923179474286 -0.165986939759006 0)
(27.47860747294173 0.05747836661230424 0)
(21.64166961120277 1.451053555246176 0)
(22.28221105326594 0.6393437749415444 0)
(22.64749157256646 0.2525716452399632 0)
(22.68410674970523 -0.01212696892969648 0)
(25.93876941372507 0.2551247554871258 0)
(25.90220076290929 0.1391975246400066 0)
(25.86095152749172 0.01118782057680603 0)
(25.75663965129199 -0.03369479880008558 0)
(26.54179560695863 0.2591064053603374 0)
(26.23062341393484 0.1444206060624369 0)
(26.06850746289351 -0.006497007585361945 0)
(25.90221874990268 -0.05853170417910163 0)
(26.81265013419211 0.08187302050824076 0)
(26.40932274995639 -0.0008719469713389238 0)
(26.17474817280258 -0.09274367667330699 0)
(25.97431732317337 -0.1085137212369339 0)
(22.66098189510202 -0.169137502400972 0)
(22.86361297850037 -0.3041084789467987 0)
(23.26688722955522 -0.4335742957170204 0)
(23.750510652633 -0.5347401666046934 0)
(25.63499869074379 -0.02141457122472566 0)
(25.48541482793228 0.002634713826858538 0)
(25.37138238824791 0.08836376176037049 0)
(21.40813859228312 3.528822528491056 0)
(25.74897133538969 -0.05556493486760365 0)
(25.58224096672252 -0.01503422985170251 0)
(25.43556787160414 0.172561404623424 0)
(18.36714245213465 3.791271022389479 0)
(25.82289402793305 -0.09486389457901676 0)
(25.65861070726308 -0.04637415061021889 0)
(25.33964193280355 0.3135588399113073 0)
(15.2262952417859 2.492444989837943 0)
(24.13071089390527 -0.5380421067180284 0)
(24.60752249663594 -0.3798478722104529 0)
(23.74533994205914 -0.09660563178469721 0)
(9.722484899837642 0.4639557828027836 0)
(14.28418300267233 7.426876500640668 0)
(14.34905948012956 7.527415821285794 0)
(14.47042242542227 8.203587312741027 0)
(15.05836819365168 8.974931218844629 0)
(12.50931522078915 7.637760919230723 0)
(13.6503662129362 7.685593801756754 0)
(14.2861929922248 8.342468927360517 0)
(14.97084843882606 9.140008690674092 0)
(9.975441402773223 6.383728535959015 0)
(11.89956138903191 7.138441299756603 0)
(13.38102646452619 8.25059269618473 0)
(14.51813970370799 9.199886357763935 0)
(5.645176763281091 2.650461098139316 0)
(7.696622299135198 3.852209929942822 0)
(10.41341463349781 5.48678434010218 0)
(12.67567808042338 7.22623515866823 0)
(15.6352519440615 9.850305688643164 0)
(15.93525592902682 10.40536071001751 0)
(16.06549986020696 10.74481824733106 0)
(15.97226149685771 10.76780530795618 0)
(15.62729417627801 9.920995859815745 0)
(15.94524069765802 10.38278406450396 0)
(16.04853835398805 10.65772615692664 0)
(16.04337101735749 10.6864826246396 0)
(15.41055862907209 9.951766362565953 0)
(15.79165129576853 10.38117235077076 0)
(15.95163234417199 10.62800800540505 0)
(15.99405588815523 10.66792811322051 0)
(14.51363064059855 8.872133955861797 0)
(15.06278151784418 10.09495755212186 0)
(15.31069220261779 10.59125679757718 0)
(15.15018882896303 10.69049627452375 0)
(16.09232307116348 10.79703851198274 0)
(16.8705641138498 10.90287475312872 0)
(18.8568434868592 10.80016242826009 0)
(21.2426734071586 9.943811237482285 0)
(16.24755326562237 10.79578100517302 0)
(16.99225640040027 10.95281797744275 0)
(18.62738746234293 10.82646155859273 0)
(21.88892329702334 11.68463038635825 0)
(16.22215045635112 10.82444322240245 0)
(16.88946292379144 10.99515461757784 0)
(18.80919536247041 11.32927047431861 0)
(27.49880903215233 16.73968306366 0)
(15.4678728349075 10.99979753056967 0)
(16.29495230714062 10.87135715211135 0)
(19.22593836528592 11.71682667810111 0)
(38.03054394485707 22.77468078908272 0)
(26.82331359279097 5.454047370055611 0)
(30.5640784528465 -2.670415287670839 0)
(9.948534796442017 -4.750091721391079 0)
(7.129707917641326 1.077334623321579 0)
(27.75025691602469 5.081328672158313 0)
(25.85965060921959 -2.46655777267847 0)
(5.60423038490349 -2.313307614759307 0)
(4.091546482004221 3.690277508322735 0)
(27.39773840048699 3.802789659810854 0)
(18.54154681656565 -6.781158910039814 0)
(2.396466428723784 0.50597051073084 0)
(2.224474053957942 4.215269720020327 0)
(17.41720949661549 -6.576064258387198 0)
(7.336629212152321 -7.060570154294759 0)
(0.2481020406061744 3.120834745708238 0)
(0.2349653317787789 3.566358328370309 0)
(4.348278308559071 1.933442760480961 0)
(2.034333331062991 0.8281527593779786 0)
(0.4210581831054416 -0.8284310465852004 0)
(-1.304145666093762 -0.1847379324188941 0)
(2.850757190766748 4.034293156095921 0)
(1.335443453918046 3.29870009319755 0)
(0.1239537678036856 1.990758376730346 0)
(-0.5993418682259865 1.76143499938645 0)
(1.734209366829338 3.960506372854411 0)
(1.149797272665521 3.615049551981187 0)
(0.7172996999241622 3.483027396022178 0)
(-0.2822286543084987 2.796928740086956 0)
(0.1563802874701934 3.480643619963754 0)
(0.3601029290196719 3.520162844722409 0)
(-0.07178123668155023 3.870513591809124 0)
(-0.8737752642102612 2.788091725629377 0)
(3.882160945811715 -5.173032894384185 0)
(10.47846440261554 -7.244945018295572 0)
(15.03755908938597 -6.022608685580472 0)
(19.46391638516498 -5.442549024426217 0)
(1.272768321628527 -2.538039508549424 0)
(7.955719400155052 -5.202416128316401 0)
(12.99243711309205 -4.973055647315888 0)
(17.83868442717634 -5.303240158160606 0)
(-1.436813556408838 -1.672064564843001 0)
(3.428126093244688 -3.895400149713883 0)
(9.3822526317644 -4.391684106294137 0)
(16.80368433846117 -3.839084085466917 0)
(-1.936113720436686 0.3270570272617935 0)
(1.009780131840321 -0.5048167272022789 0)
(7.721869981188118 0.1389526063593149 0)
(18.72517108701364 -2.245863502523343 0)
(20.52541765139879 -8.897558106160698 0)
(21.47068294361858 -13.38034557493086 0)
(21.18652905537131 -12.12180714488862 0)
(16.61423776331176 -10.7256713070535 0)
(19.00343495575719 -9.206098552675734 0)
(19.18022553332116 -10.79931273628812 0)
(17.17872147174135 -7.076599238395708 0)
(12.26867395148598 -5.456955056905225 0)
(18.50312002241683 -9.039772706489881 0)
(15.08360258010814 -7.565929228579509 0)
(9.871433971778918 -4.768889389937087 0)
(4.782232043730297 -3.050910075996123 0)
(12.793077473726 -10.26510341067 0)
(7.069888811446297 -3.870076894800678 0)
(3.04433695199047 -1.205005372074373 0)
(1.608574702614849 0.6317196599327811 0)
(0.1780615203673273 1.660497542795791 0)
(-0.9710429092313939 1.932384025810711 0)
(-1.700895620758417 1.528451675802184 0)
(-1.796937230962002 0.572423144161145 0)
(2.447017546222651 0.3733454168315912 0)
(-0.05602307022371172 1.095512357910351 0)
(-1.738460668321468 1.051159103940514 0)
(-2.412079320652823 0.3821062032599767 0)
(5.294223931122708 -3.217573516137556 0)
(0.2488628316236443 -1.559505570540724 0)
(-2.274310074210661 -0.9224549093669452 0)
(-2.899758926552879 -0.231792330411165 0)
(11.00371602103841 -5.62603228863696 0)
(6.631632008855798 -3.370002724189999 0)
(4.569364574464134 -2.095902487798557 0)
(4.29640766471646 -0.5748080704871752 0)
(-1.796937230965008 -0.5724231441362717 0)
(-2.41207932066227 -0.3821062032750392 0)
(-2.899758926580549 0.2317923303273232 0)
(4.296407664551801 0.5748080703061743 0)
(-1.70089562075363 -1.528451675796317 0)
(-1.738460668344695 -1.051159103945602 0)
(-2.274310074214307 0.9224549092375454 0)
(4.569364574489746 2.095902487542161 0)
(-0.9710429092350424 -1.932384025820415 0)
(-0.0560230702605107 -1.095512357922146 0)
(0.2488628315915468 1.559505570470776 0)
(6.631632008871743 3.370002724119816 0)
(0.1780615203567328 -1.660497542812016 0)
(2.447017546178789 -0.3733454168530614 0)
(5.294223931073367 3.217573516068653 0)
(11.0037160210379 5.626032288557901 0)
(16.61423776331522 10.72567130697375 0)
(21.18652905539806 12.12180714481558 0)
(21.470682943663 13.38034557486923 0)
(20.52541765145866 8.897558106181775 0)
(12.26867395146311 5.456955056853494 0)
(17.17872147171715 7.076599238363429 0)
(19.18022553327276 10.79931273622173 0)
(19.00343495576999 9.206098552667042 0)
(4.782232043708849 3.05091007595114 0)
(9.871433971742627 4.768889389893079 0)
(15.08360258006047 7.565929228527163 0)
(18.50312002235894 9.039772706474228 0)
(1.608574702606485 -0.6317196599441581 0)
(3.04433695198133 1.205005372038463 0)
(7.069888811447053 3.870076894715257 0)
(12.79307747367348 10.26510341060562 0)
(18.72517108695614 2.245863502523395 0)
(7.721869981134018 -0.1389526063754482 0)
(1.009780131800274 0.5048167271721075 0)
(-1.936113720405819 -0.3270570272134284 0)
(16.8036843384025 3.839084085469889 0)
(9.382252631652515 4.391684106322217 0)
(3.428126093125519 3.895400149649382 0)
(-1.436813556397508 1.672064564885446 0)
(17.83868442715783 5.303240158153361 0)
(12.99243711296746 4.973055647392471 0)
(7.955719400007666 5.202416128204555 0)
(1.272768321580729 2.538039508559741 0)
(19.46391638519099 5.442549024401799 0)
(15.03755908923864 6.022608685703263 0)
(10.4784644024858 7.244945018191404 0)
(3.882160945713968 5.173032894353051 0)
(-1.304145665990374 0.1847379324274724 0)
(0.421058183057115 0.8284310466230256 0)
(2.03433333092506 -0.8281527594208234 0)
(4.348278308540907 -1.933442760645598 0)
(-0.5993418681264587 -1.761434999357736 0)
(0.1239537677725598 -1.990758376625115 0)
(1.335443453806054 -3.298700093208286 0)
(2.850757190764248 -4.034293156260455 0)
(-0.282228654267644 -2.796928740035959 0)
(0.7172996999083282 -3.483027395896415 0)
(1.149797272581751 -3.615049551973862 0)
(1.734209366806751 -3.96050637301063 0)
(-0.8737752641927687 -2.788091725575601 0)
(-0.0717812366690791 -3.870513591704594 0)
(0.3601029289874405 -3.520162844703179 0)
(0.1563802874289167 -3.480643620077973 0)
(7.129707917694173 -1.0773346234697 0)
(9.948534796305227 4.75009172119537 0)
(30.56407845294518 2.670415287662842 0)
(26.82331359284233 -5.454047370053924 0)
(4.09154648209557 -3.690277508498463 0)
(5.604230384974435 2.313307614604456 0)
(25.85965060933377 2.46655777260224 0)
(27.75025691612457 -5.081328672185704 0)
(2.224474054003442 -4.215269720228941 0)
(2.396466428774223 -0.5059705108935009 0)
(18.54154681667614 6.781158910026639 0)
(27.39773840057857 -3.802789659874893 0)
(0.2349653317643498 -3.566358328545021 0)
(0.2481020406405698 -3.120834745903643 0)
(7.336629212244159 7.06057015427792 0)
(17.41720949669302 6.576064258353062 0)
(21.24267340717097 -9.943811237445031 0)
(18.85684348687381 -10.8001624282331 0)
(16.87056411385677 -10.90287475313977 0)
(16.09232307117967 -10.79703851201581 0)
(21.8889232970498 -11.68463038634284 0)