/*--------------------------------*- C++ -*----------------------------------*\
  =========                 |
  \\      /  F ield         | OpenFOAM: The Open Source CFD Toolbox
   \\    /   O peration     | Website:  https://openfoam.org
    \\  /    A nd           | Version:  11
     \\/     M anipulation  |
\*---------------------------------------------------------------------------*/
FoamFile
{
    format      ascii;
    class       volVectorField;
    location    "13.1";
    object      U;
}
// * * * * * * * * * * * * * * * * * * * * * * * * * * * * * * * * * * * * * //

dimensions      [0 1 -1 0 0 0 0];

internalField   nonuniform List<vector> 
5472
(
(10.047595 2.4512206 1.6530641e-18)
(10.237899 2.4457255 -1.7212981e-18)
(10.416361 2.4664472 -1.7347548e-18)
(10.606655 2.4310788 -1.761685e-18)
(10.787469 2.4030061 5.4629573e-18)
(10.943102 2.3649918 -3.6520132e-20)
(11.117119 2.2985081 -2.8783551e-18)
(11.288409 2.2261182 1.0027103e-18)
(11.441816 2.1369939 0)
(11.587072 2.0331444 0)
(11.728378 1.9217078 0)
(11.840071 1.7968147 -3.1050854e-18)
(11.965819 1.6574458 1.5937425e-18)
(12.062057 1.5222718 -2.3643955e-20)
(12.166493 1.354179 1.0717378e-18)
(12.218455 1.2032968 -5.513309e-19)
(12.302047 1.0348068 -8.2282221e-19)
(12.320927 0.88356251 2.8258449e-19)
(12.374406 0.7040904 0)
(10.026685 2.2495394 -1.5116578e-18)
(10.186406 2.2492951 3.1180437e-18)
(10.359128 2.2799106 -1.6083188e-18)
(10.541522 2.2465913 -1.6140217e-18)
(10.70559 2.2266161 2.4241311e-20)
(10.851166 2.1877329 0)
(11.044072 2.1323892 1.7258582e-18)
(11.188371 2.0677071 -3.5164042e-18)
(11.336123 1.993534 4.5350499e-18)
(11.490775 1.9007124 9.2417002e-19)
(11.61309 1.8070363 0)
(11.75344 1.6883549 1.9147877e-18)
(11.870302 1.558569 0)
(11.972113 1.4287607 4.829876e-19)
(12.068279 1.2824749 -4.9746956e-19)
(12.129881 1.1405079 0)
(12.202027 0.99869067 0)
(12.238827 0.85112781 -2.4859819e-19)
(12.280256 0.70187138 0)
(10.055479 2.0644034 0)
(10.216112 2.0999599 1.4198143e-18)
(10.378339 2.1263292 1.4532685e-18)
(10.509394 2.1012578 0)
(10.65939 2.1141022 -1.9740943e-20)
(10.837133 2.0759626 -2.7199822e-20)
(10.986417 2.0469504 -1.5930056e-18)
(11.118319 1.9926512 0)
(11.277158 1.9244095 -1.6301863e-18)
(11.406951 1.8545744 -4.1682494e-18)
(11.54332 1.7637647 1.3386738e-20)
(11.679739 1.6546386 -8.4217165e-19)
(11.778866 1.5414057 -8.6765911e-19)
(11.876267 1.4295891 1.7784088e-18)
(11.970879 1.2867417 1.3389274e-18)
(12.028586 1.1652158 4.5112913e-19)
(12.110151 1.0185962 2.2474944e-19)
(12.139806 0.87540906 -3.394573e-19)
(12.191572 0.73227566 1.1306194e-19)
(10.036075 1.9127422 0)
(10.177499 1.9289713 -1.2815024e-18)
(10.310107 1.9489306 -1.3102902e-18)
(10.43027 1.9544117 2.6674382e-18)
(10.62121 1.9543506 -1.4026731e-18)
(10.735062 1.9223544 0)
(10.877034 1.9091121 -1.4400489e-18)
(11.031003 1.8451039 1.4488599e-18)
(11.177332 1.8023113 -1.5002468e-18)
(11.32151 1.7274363 -1.9494973e-20)
(11.452436 1.6483612 -1.5465112e-18)
(11.574991 1.5528608 0)
(11.66939 1.4497847 0)
(11.790504 1.3322357 -7.9143159e-19)
(11.871312 1.2069523 -7.9799641e-19)
(11.953507 1.0862723 0)
(12.02654 0.93848395 -2.0250606e-19)
(12.069867 0.81901933 1.0268786e-19)
(12.122022 0.66774078 2.0401475e-19)
(10.072665 1.7326907 0)
(10.160084 1.784435 0)
(10.303328 1.8074835 0)
(10.444381 1.8206857 -2.4168188e-18)
(10.572155 1.8380914 1.25842e-18)
(10.677556 1.8246007 -3.7992556e-18)
(10.846305 1.807531 5.1920014e-18)
(10.967303 1.7614408 -2.6442444e-18)
(11.108652 1.7346266 3.5460458e-21)
(11.228187 1.6659837 1.3587864e-18)
(11.347402 1.6171291 1.3786956e-18)
(11.469829 1.5221087 -2.8126766e-18)
(11.573984 1.4298608 2.1401662e-18)
(11.692026 1.3257405 -7.2316905e-19)
(11.767 1.2121361 0)
(11.867307 1.0868237 7.332223e-19)
(11.917102 0.95781651 -3.6792352e-19)
(11.974523 0.83186898 1.8256941e-19)
(12.001883 0.69003979 -1.8162661e-19)
(10.016674 1.6058102 0)
(10.146341 1.6276131 -4.1937287e-18)
(10.282 1.6605211 2.1647895e-18)
(10.373235 1.7005491 2.205871e-18)
(10.515748 1.6977352 1.1202789e-18)
(10.628847 1.6950407 -1.1372781e-18)
(10.787368 1.673867 2.3607832e-18)
(10.883998 1.651061 1.1847384e-18)
(11.038496 1.6216399 2.4093184e-18)
(11.153845 1.560772 -2.4670914e-18)
(11.29611 1.512937 1.7968053e-20)
(11.41656 1.4204969 2.53436e-18)
(11.529261 1.3504561 0)
(11.626812 1.2370284 -6.5025631e-19)
(11.714429 1.1398491 6.4731241e-19)
(11.788411 1.0190208 -1.6327991e-18)
(11.845797 0.90853487 6.5528075e-19)
(11.905263 0.77833906 -1.6385984e-19)
(11.933823 0.65748889 4.5694798e-22)
(10.049174 1.4414452 3.7207293e-18)
(10.179328 1.5007882 3.7893142e-18)
(10.238398 1.5443726 0)
(10.369395 1.5565991 -6.4611855e-21)
(10.47415 1.5615465 -4.0557336e-18)
(10.587668 1.58601 4.162219e-18)
(10.716793 1.5693263 0)
(10.810894 1.5675589 -1.0800294e-18)
(10.97188 1.5289863 -4.357289e-18)
(11.062761 1.5027579 2.236044e-18)
(11.209554 1.4454456 1.1174615e-18)
(11.295823 1.3789861 -1.1463402e-18)
(11.414152 1.3109165 0)
(11.499143 1.2091496 5.7610798e-19)
(11.592785 1.1247631 0)
(11.674662 1.0019528 -5.8403731e-19)
(11.745761 0.90063814 8.8345226e-19)
(11.804214 0.77056622 9.0781813e-22)
(11.842613 0.6600682 -9.8291251e-22)
(10.036307 1.3228222 1.6667217e-18)
(10.154229 1.3505511 -3.4101894e-18)
(10.233233 1.3990652 -3.4711106e-18)
(10.365158 1.4384241 3.5750555e-18)
(10.430426 1.4509965 -1.834127e-18)
(10.563813 1.4566877 -1.8557439e-18)
(10.650623 1.4554621 0)
(10.77061 1.460087 2.8826296e-18)
(10.908804 1.4224166 -1.4034323e-20)
(10.995038 1.4042149 -2.9813219e-18)
(11.152298 1.3533704 3.0476001e-18)
(11.222517 1.3078707 0)
(11.375071 1.2304735 0)
(11.428848 1.1504845 1.0332847e-18)
(11.565276 1.0537808 -5.3062112e-19)
(11.610503 0.95301367 -1.0497403e-18)
(11.705118 0.85264946 2.6592534e-19)
(11.734828 0.73979785 2.6732985e-19)
(11.791003 0.63001585 6.5070948e-20)
(10.037088 1.1891051 -1.4957451e-18)
(10.139983 1.2274054 4.5798808e-18)
(10.192165 1.2835991 -4.7181009e-18)
(10.308276 1.2942965 3.2043954e-18)
(10.374425 1.3365524 0)
(10.506311 1.3553416 1.6620185e-18)
(10.575298 1.348537 -1.713025e-18)
(10.717212 1.3559915 0)
(10.795999 1.3335459 8.730625e-19)
(10.930551 1.3254897 -1.8059251e-18)
(11.037867 1.2760547 -8.9925879e-19)
(11.144031 1.2377312 -9.8778575e-21)
(11.263949 1.1613961 -2.7712437e-18)
(11.331214 1.1113169 4.7679831e-19)
(11.45391 1.0071888 -4.6032238e-19)
(11.488562 0.93045381 9.4138256e-19)
(11.59342 0.81878754 -4.680053e-19)
(11.617972 0.72513616 2.3969409e-19)
(11.699094 0.607404 2.3438393e-19)
(10.059698 1.0586374 -2.6920612e-18)
(10.147993 1.1039799 0)
(10.214567 1.1541089 1.4031235e-18)
(10.323368 1.1879114 -4.2927052e-18)
(10.380917 1.2243147 1.4772588e-18)
(10.499196 1.228248 -1.5000402e-18)
(10.568971 1.2555288 1.5164276e-18)
(10.7064 1.2586779 -1.5597343e-18)
(10.776895 1.2442926 0)
(10.920348 1.2371154 7.9424518e-19)
(10.984535 1.1925327 0)
(11.119358 1.174524 8.1155934e-19)
(11.187207 1.1005462 -7.2498012e-23)
(11.300059 1.0547294 -4.1144937e-19)
(11.38223 0.95220463 4.1375644e-19)
(11.456715 0.89531432 4.1603201e-19)
(11.525909 0.77427311 -2.8673951e-21)
(11.570512 0.70000832 -6.2748271e-19)
(11.622591 0.57409512 0)
(10.066872 0.92684051 0)
(10.125187 0.97693462 1.2298691e-18)
(10.187939 1.0458542 0)
(10.266015 1.0726076 1.2721625e-18)
(10.325945 1.1126642 -3.9369662e-18)
(10.428179 1.1173854 4.0222152e-18)
(10.48416 1.1444791 -1.3445062e-18)
(10.602842 1.1496019 4.1720736e-18)
(10.672512 1.1686705 0)
(10.807848 1.1480822 7.1442556e-19)
(10.877504 1.1345656 0)
(11.011048 1.0920681 -1.4464579e-18)
(11.073574 1.0419995 2.931903e-18)
(11.197595 0.9939256 -8.2899516e-21)
(11.260231 0.90811392 -3.7221987e-19)
(11.356123 0.84924477 0)
(11.410707 0.74410198 0)
(11.474965 0.67249703 0)
(11.515072 0.55421859 -4.6547878e-20)
(10.080109 0.81951717 4.2781299e-18)
(10.11909 0.87490994 -5.5042581e-18)
(10.20639 0.91772429 2.2369963e-18)
(10.25563 0.96827925 -8.4562407e-21)
(10.333217 1.0114531 0)
(10.41354 1.0336926 -2.3757708e-18)
(10.480391 1.0575796 1.2286049e-18)
(10.598129 1.0523339 -1.2304473e-18)
(10.669614 1.0679894 0)
(10.79354 1.0542311 -6.3150818e-19)
(10.861769 1.054635 1.2747216e-18)
(10.984379 1.0158081 -1.3620844e-20)
(11.045365 0.99106224 -1.3094602e-18)
(11.164035 0.9302942 -2.6142257e-18)
(11.211947 0.87516334 2.3048412e-18)
(11.320363 0.80238946 -1.3198657e-18)
(11.352579 0.71868601 8.2873464e-19)
(11.430306 0.64044555 1.6590769e-19)
(11.440275 0.54051746 4.0853958e-20)
(10.063214 0.71013723 -6.7067875e-18)
(10.108653 0.76510447 3.9287213e-18)
(10.168903 0.80914857 0)
(10.212266 0.84699167 -5.0932988e-18)
(10.299175 0.87635133 4.1832179e-18)
(10.346529 0.9198829 1.063543e-18)
(10.426781 0.94400888 3.2340624e-18)
(10.504602 0.96366962 -2.2045479e-18)
(10.581204 0.97684321 -2.7724219e-18)
(10.683166 0.97680095 1.6990156e-18)
(10.759843 0.98107805 2.2646389e-18)
(10.878843 0.94304899 -3.4503278e-18)
(10.94174 0.92246539 2.3116406e-18)
(11.059679 0.85907839 -5.8921657e-19)
(11.114785 0.817589 2.880331e-19)
(11.22791 0.74175022 -4.3042063e-21)
(11.264956 0.68695684 -7.3261603e-19)
(11.360649 0.59895252 -1.4546047e-19)
(11.374369 0.52467632 -3.6573184e-20)
(10.082961 0.62615132 2.5659623e-18)
(10.12371 0.67884129 3.4785926e-18)
(10.178394 0.71388492 -3.5714522e-18)
(10.227655 0.76408598 9.0933834e-19)
(10.295254 0.79762619 -2.764826e-18)
(10.340765 0.83998342 2.8441039e-18)
(10.426598 0.86138881 9.5333663e-19)
(10.488179 0.88237914 -4.8705196e-18)
(10.580833 0.8886829 3.4504342e-18)
(10.653178 0.89823261 -1.5086202e-18)
(10.754772 0.89266535 0)
(10.831925 0.88828757 -5.1020608e-19)
(10.911028 0.86963796 -1.5329414e-18)
(11.002565 0.82101598 5.2533442e-19)
(11.056322 0.7766669 1.5525876e-18)
(11.146396 0.69981561 5.1540857e-19)
(11.183823 0.64902702 -1.0353187e-18)
(11.264883 0.55991024 2.6051171e-19)
(11.288165 0.50684545 2.8989927e-19)
(10.052164 0.52267369 -3.7880472e-18)
(10.095936 0.56220642 3.1067354e-18)
(10.134771 0.61206114 0)
(10.179352 0.65094615 -8.0605853e-19)
(10.229576 0.68820316 3.2790463e-18)
(10.277002 0.73229658 -6.6915832e-18)
(10.352104 0.76001814 8.7550729e-19)
(10.418239 0.79386057 3.4699328e-18)
(10.506131 0.79917933 2.6261518e-18)
(10.578274 0.80791593 -4.4289042e-19)
(10.67911 0.8007179 0)
(10.747772 0.80276194 2.2384196e-18)
(10.863597 0.78024424 -9.1284911e-19)
(10.937926 0.76026304 9.0851707e-19)
(11.026644 0.71674642 -1.3708591e-18)
(11.090736 0.66426283 -2.2914832e-19)
(11.152627 0.60060375 0)
(11.204209 0.52704561 0)
(11.246519 0.46172868 -2.8528387e-20)
(10.086557 0.45002352 6.5293615e-19)
(10.121061 0.49347169 -6.2023726e-18)
(10.159675 0.53749884 2.7999388e-18)
(10.205914 0.56932091 -3.5811237e-18)
(10.252208 0.60468913 -7.2721284e-19)
(10.307131 0.63828607 0)
(10.359469 0.6742815 -3.7489743e-18)
(10.418385 0.71711702 2.2996612e-18)
(10.48396 0.73603744 -7.7353773e-19)
(10.551309 0.74800488 -1.8555013e-21)
(10.627389 0.7398549 0)
(10.690798 0.73807836 0)
(10.786499 0.7147055 -3.9763803e-19)
(10.852418 0.70833043 -3.991696e-19)
(10.950266 0.66395611 2.0010002e-19)
(11.009251 0.6276437 1.2046837e-18)
(11.089715 0.56491108 -8.0756704e-19)
(11.126756 0.50994482 1.0096282e-19)
(11.192114 0.43472455 2.4923383e-20)
(10.051939 0.35955482 4.1717193e-18)
(10.080361 0.40515414 -4.2750401e-18)
(10.111379 0.44757525 0)
(10.145883 0.48717098 6.3223148e-19)
(10.19135 0.52080278 0)
(10.243147 0.54874799 6.549111e-19)
(10.296858 0.57978172 6.6488403e-19)
(10.369433 0.61091538 0)
(10.437989 0.63853895 3.3939639e-18)
(10.520389 0.6573367 -2.4185931e-18)
(10.587291 0.66406815 1.7306515e-18)
(10.665909 0.66249071 -1.4032735e-18)
(10.739278 0.64407752 1.4001134e-18)
(10.812444 0.63444561 -1.0471764e-20)
(10.89099 0.59726326 -1.4195082e-18)
(10.954125 0.56819734 -1.7634337e-19)
(11.026473 0.51265312 -1.7767416e-19)
(11.07013 0.46414833 -8.8116907e-20)
(11.134429 0.39092957 0)
(10.090825 0.28789406 4.760947e-18)
(10.111605 0.33106216 0)
(10.147405 0.3655782 0)
(10.178821 0.40643836 5.5925112e-19)
(10.209832 0.44446599 0)
(10.243375 0.4808297 -5.7674515e-19)
(10.28556 0.51114231 -5.8478417e-19)
(10.335547 0.54211501 -2.3647346e-18)
(10.389817 0.56845066 2.4062588e-18)
(10.459627 0.586776 0)
(10.522541 0.59925571 -2.7382563e-18)
(10.603488 0.60231875 2.1593068e-18)
(10.667547 0.59598247 1.2309887e-18)
(10.749524 0.58646102 -2.4798111e-18)
(10.816006 0.55750658 2.4855463e-18)
(10.890318 0.52743693 -1.8681583e-18)
(10.953182 0.47938507 6.2272105e-19)
(11.012611 0.43263527 0)
(11.066357 0.36962914 0)
(10.052814 0.22891793 7.4878372e-18)
(10.064408 0.26724067 -3.8177174e-18)
(10.105412 0.29261551 3.8736009e-18)
(10.127781 0.32905632 -4.4448983e-18)
(10.168019 0.35538292 -3.9999467e-18)
(10.211768 0.3976319 4.076157e-18)
(10.258542 0.42713395 2.0560234e-18)
(10.310659 0.46093288 -1.1322167e-20)
(10.365106 0.48442023 -2.114795e-18)
(10.425347 0.50248433 0)
(10.487491 0.51759432 0)
(10.55927 0.5230019 2.6915559e-19)
(10.629182 0.51922199 0)
(10.706301 0.51076245 1.0841838e-18)
(10.768252 0.49078774 -1.0933774e-18)
(10.845482 0.46406846 -5.4404253e-19)
(10.897571 0.42599435 6.827741e-19)
(10.964942 0.38053467 -3.4037751e-19)
(11.006028 0.33163882 2.718179e-19)
(10.06645 0.17784223 0)
(10.084925 0.20834336 0)
(10.105724 0.23539339 3.4163204e-18)
(10.121628 0.26666382 -3.4815192e-18)
(10.156973 0.29440517 3.9633821e-18)
(10.185548 0.32688645 -4.0327219e-18)
(10.230861 0.35898206 0)
(10.276976 0.39764371 4.5861532e-19)
(10.334971 0.42181703 1.8460322e-18)
(10.390385 0.44538331 -1.8725445e-18)
(10.45111 0.45912577 1.8752605e-18)
(10.515134 0.46832488 -1.1941147e-20)
(10.581209 0.47077904 -3.7998257e-18)
(10.65231 0.46539138 1.9114554e-18)
(10.714907 0.44581752 0)
(10.786944 0.42238502 -9.5274073e-19)
(10.843678 0.38712209 1.4936798e-18)
(10.906585 0.34494677 -6.5675415e-19)
(10.951804 0.30162446 2.3793558e-19)
(10.043503 0.13266381 1.1295529e-17)
(10.072687 0.153408 -5.9360171e-18)
(10.085667 0.17824966 0)
(10.114714 0.20255083 -3.8243574e-19)
(10.133751 0.22834348 -3.8754253e-19)
(10.167505 0.25390824 3.9261032e-19)
(10.202439 0.28209997 0)
(10.248201 0.31106759 -4.0142601e-19)
(10.300728 0.33702259 3.2370815e-18)
(10.352232 0.36145763 -3.2804084e-18)
(10.41809 0.38062447 0)
(10.476264 0.39353095 0)
(10.544099 0.39894112 2.0812315e-19)
(10.610367 0.39746321 1.043508e-19)
(10.677275 0.38582496 -1.0452099e-19)
(10.742487 0.36582233 0)
(10.801539 0.33776966 -4.6860387e-19)
(10.856444 0.30330464 4.1781541e-19)
(10.902842 0.26357371 0)
(10.043945 0.097917121 -1.0279871e-17)
(10.057454 0.11487062 1.0766225e-17)
(10.072834 0.13084598 -1.2754315e-20)
(10.094015 0.15337419 -5.0456215e-18)
(10.116295 0.17875954 0)
(10.147713 0.20346537 2.7522331e-18)
(10.177606 0.23304277 -5.7506039e-18)
(10.223538 0.25578918 2.8222485e-18)
(10.259032 0.28160925 0)
(10.317325 0.29899797 -2.8552271e-18)
(10.366221 0.31926287 2.8878824e-18)
(10.432045 0.33366929 1.4428995e-18)
(10.495117 0.34025558 -1.4555598e-18)
(10.56298 0.33992646 1.2694245e-18)
(10.629269 0.33064987 -1.3702539e-18)
(10.693377 0.31340223 0)
(10.757484 0.28873138 -4.5622325e-20)
(10.813205 0.2572805 -1.3607905e-19)
(10.866646 0.22249946 1.9283411e-19)
(10.045102 0.071634712 2.8259587e-19)
(10.056586 0.083654895 -5.7363954e-19)
(10.072673 0.095524385 4.6488813e-18)
(10.086593 0.10476866 2.833415e-19)
(10.11219 0.12030559 -3.1218052e-19)
(10.131135 0.14160357 -4.8395137e-18)
(10.166603 0.16293333 1.5246352e-19)
(10.201426 0.19111185 2.6131524e-18)
(10.239269 0.21320404 -2.4895916e-18)
(10.289781 0.23368376 -1.5650526e-19)
(10.332368 0.25192948 0)
(10.396035 0.26547404 2.6783934e-18)
(10.450378 0.27829931 -2.6998924e-18)
(10.520739 0.28042438 -1.1873258e-18)
(10.581625 0.28112119 8.6118321e-20)
(10.648388 0.26581765 1.9083305e-18)
(10.706771 0.2509155 -5.9690901e-19)
(10.763094 0.22413084 -5.9407629e-20)
(10.811072 0.19624302 -9.8507864e-21)
(10.024058 0.049405478 0)
(10.035873 0.058666931 2.5176887e-19)
(10.048524 0.068378948 4.079335e-18)
(10.064729 0.079243864 -4.5273908e-18)
(10.079573 0.089778724 4.3089133e-18)
(10.100408 0.10415852 -4.2355915e-18)
(10.130228 0.12021685 1.3357752e-19)
(10.162683 0.13826352 -1.3447663e-19)
(10.208878 0.15658098 2.0289955e-18)
(10.253819 0.17253399 -2.0515936e-18)
(10.309018 0.18801196 2.0508968e-18)
(10.367108 0.19938091 -2.2761261e-18)
(10.429279 0.2064126 0)
(10.495014 0.20864032 1.1025912e-18)
(10.557909 0.2048894 -1.2472113e-18)
(10.625436 0.19497388 5.5175973e-19)
(10.683792 0.18002278 -5.1910165e-19)
(10.742125 0.15901681 -2.4100615e-19)
(10.786601 0.13173348 2.7953586e-19)
(10.024517 0.027489936 -7.5566009e-21)
(10.032756 0.035338936 -7.0729136e-18)
(10.044967 0.03915381 1.1190279e-19)
(10.063126 0.049107549 -1.3183371e-22)
(10.076734 0.055250909 1.1434447e-19)
(10.09958 0.064506719 0)
(10.120227 0.075139618 3.7259934e-18)
(10.148214 0.089444712 -3.8858997e-18)
(10.183425 0.10471518 1.1821078e-19)
(10.218749 0.12016875 -1.8410356e-18)
(10.265682 0.13617074 3.8864671e-18)
(10.314705 0.14865054 -3.840041e-18)
(10.373723 0.16089461 1.9293218e-18)
(10.440693 0.16668599 0)
(10.507764 0.17286518 -9.3056899e-19)
(10.57702 0.16795041 9.6460349e-19)
(10.640002 0.16296538 -1.4953795e-20)
(10.698227 0.150376 3.5196119e-23)
(10.749703 0.13174403 -3.7272793e-21)
(10.00845 0.015485775 6.164231e-18)
(10.016059 0.018007222 -6.1886888e-18)
(10.02781 0.02105262 6.1735898e-18)
(10.040634 0.025137955 9.8948095e-20)
(10.057295 0.02863426 0)
(10.076705 0.032621821 0)
(10.098623 0.037975382 -5.0731145e-20)
(10.128432 0.042552319 -3.2222301e-18)
(10.161526 0.048551134 3.3571548e-18)
(10.203433 0.05427335 3.2813234e-18)
(10.251267 0.059488023 -1.5972364e-18)
(10.304279 0.065108209 -1.7500203e-18)
(10.36511 0.067259113 0)
(10.427277 0.066481633 2.6167509e-20)
(10.49596 0.064900864 2.6095128e-20)
(10.564949 0.061400473 8.1977793e-19)
(10.630212 0.060025412 -8.4825735e-19)
(10.688193 0.050626559 1.882217e-19)
(10.738884 0.037007755 -2.0752655e-19)
(10.007054 0.004104732 -4.1536631e-20)
(10.0119 0.0063208476 5.3575222e-18)
(10.019893 0.0094178731 -5.4949375e-21)
(10.030935 0.01292301 -7.7078073e-21)
(10.045206 0.01685493 -5.5383582e-18)
(10.063128 0.021128005 0)
(10.085541 0.025685933 2.7650975e-18)
(10.113275 0.030363123 -2.7919794e-18)
(10.146994 0.034758699 -4.4391532e-20)
(10.187141 0.038529636 -2.2287232e-20)
(10.233579 0.041368775 -2.235404e-20)
(10.286622 0.043088411 2.2396863e-20)
(10.342852 0.044709078 0)
(10.399373 0.047808865 1.4150187e-18)
(10.457696 0.054324509 -1.4490342e-18)
(10.517066 0.052427019 -7.1003516e-19)
(10.581347 0.066389884 7.2438771e-19)
(10.648504 0.059146093 3.6581641e-19)
(10.692664 0.057858638 -3.5986165e-19)
(12.389655 0.57943881 -1.3407586e-19)
(12.393243 0.39868 -5.3793396e-19)
(12.380382 0.27654893 5.2503502e-19)
(12.350588 0.12049874 0)
(12.322748 0.015199912 -9.7789604e-19)
(12.270377 -0.12867596 -1.8922456e-18)
(12.222587 -0.21208457 0)
(12.164242 -0.33599657 -2.4978824e-20)
(12.079518 -0.41163886 3.2342739e-18)
(12.005022 -0.54092857 1.5529664e-18)
(11.866742 -0.59747993 -1.4594127e-18)
(11.786739 -0.71459052 2.7831682e-18)
(11.615519 -0.76048031 -2.6025524e-18)
(11.525815 -0.83647234 0)
(11.36511 -0.88896808 1.2036341e-18)
(11.238889 -0.94244684 -1.1155552e-18)
(11.050753 -0.97764042 -2.1887487e-18)
(10.838138 -0.9969 2.0528759e-18)
(10.60708 -0.98548365 -9.8455808e-19)
(12.291354 0.55275168 -1.162991e-19)
(12.302771 0.38306598 6.9479987e-19)
(12.283946 0.24433622 -4.5525324e-19)
(12.265721 0.08731362 0)
(12.222871 -0.028116697 -8.6348548e-19)
(12.171735 -0.17327419 2.483106e-18)
(12.108433 -0.2646511 0)
(12.035449 -0.38300548 0)
(11.952777 -0.45037643 0)
(11.867301 -0.55451358 0)
(11.741418 -0.60290407 2.619412e-18)
(11.62455 -0.68267253 -3.7562978e-18)
(11.464603 -0.70776608 -3.6223323e-18)
(11.335889 -0.74685333 2.2589745e-18)
(11.164335 -0.7417782 -2.1770656e-18)
(11.0456 -0.76043082 2.1166009e-18)
(10.906875 -0.69845983 -7.1916037e-21)
(10.705021 -0.70155523 -1.9041536e-18)
(10.561543 -0.57927222 1.8814282e-18)
(12.199331 0.57577466 0)
(12.217789 0.41720232 -4.0600642e-19)
(12.19953 0.26582188 -7.9477396e-19)
(12.183787 0.11397914 -4.1362183e-21)
(12.134262 -0.010530089 -8.4124697e-21)
(12.085002 -0.14812199 1.4793776e-18)
(12.011642 -0.24645311 -2.8141409e-18)
(11.927837 -0.35717182 1.3399386e-18)
(11.84374 -0.43311373 2.2227758e-20)
(11.740454 -0.52051681 0)
(11.638586 -0.56648996 3.5705511e-18)
(11.515992 -0.61143885 1.7710837e-20)
(11.380879 -0.631902 2.1747371e-18)
(11.234408 -0.62209677 2.1112229e-18)
(11.072334 -0.60725917 3.0059766e-18)
(10.927291 -0.56124285 -3.7923408e-18)
(10.786031 -0.48422127 -4.7013964e-20)
(10.617793 -0.40966537 3.5217974e-18)
(10.541235 -0.24113457 1.7774875e-18)
(12.129054 0.52400125 3.5283193e-19)
(12.148434 0.36903763 -7.0402931e-19)
(12.114925 0.21687422 1.0369964e-18)
(12.089025 0.07877079 0)
(12.035038 -0.045930961 1.9808868e-18)
(11.973109 -0.1737149 -3.202391e-18)
(11.896381 -0.26719436 2.4855904e-18)
(11.812309 -0.35872507 -4.211617e-21)
(11.709155 -0.42167922 2.3727384e-20)
(11.600649 -0.49102904 -1.1234847e-18)
(11.50362 -0.51922607 0)
(11.388493 -0.54354408 -1.0148025e-18)
(11.271301 -0.53469523 1.0201118e-18)
(11.165801 -0.50250696 -1.8736164e-18)
(11.018446 -0.45932621 0)
(10.909618 -0.37104655 0)
(10.771708 -0.26578486 -1.6714397e-18)
(10.659101 -0.12286234 0)
(10.603191 0.077362444 1.5941466e-18)
(12.032024 0.5572511 3.0611074e-19)
(12.035273 0.38911479 -3.0420398e-19)
(12.021617 0.24466815 4.354511e-21)
(11.991624 0.10199163 -5.9065485e-19)
(11.939297 -0.017935306 5.6850548e-19)
(11.868478 -0.14146685 -1.7956668e-21)
(11.800824 -0.2270773 -1.0886879e-18)
(11.712544 -0.31265763 0)
(11.617492 -0.36744271 -2.0555492e-18)
(11.51204 -0.41962254 9.8310552e-19)
(11.404147 -0.42578446 0)
(11.30288 -0.43289498 0)
(11.206252 -0.39411459 -1.762632e-18)
(11.109319 -0.35575079 -1.7311273e-18)
(11.027834 -0.26582828 1.6662921e-18)
(10.940068 -0.15553841 3.2167544e-18)
(10.89028 -0.026691724 1.5979702e-18)
(10.818023 0.16281319 -1.4493325e-18)
(10.860092 0.36480975 -9.7967767e-21)
(11.977738 0.5090188 0)
(11.969228 0.35516685 2.6584406e-19)
(11.96519 0.21420058 -1.3067493e-18)
(11.917638 0.079569045 5.1538845e-19)
(11.860457 -0.042598127 1.5168501e-18)
(11.791497 -0.14694231 -9.9896451e-19)
(11.703361 -0.22841912 -1.9446028e-18)
(11.609412 -0.29221534 1.8647816e-18)
(11.521326 -0.33261676 -9.3733463e-19)
(11.415367 -0.35757283 1.7546365e-18)
(11.320404 -0.35460321 0)
(11.231238 -0.33115082 0)
(11.156361 -0.27499883 -1.612417e-18)
(11.089369 -0.20393553 4.6489307e-18)
(11.066339 -0.09073478 -5.9397396e-18)
(11.015809 0.014546955 2.8485186e-18)
(11.06126 0.18227874 -5.5490187e-18)
(11.056487 0.3493925 1.3167455e-18)
(11.227204 0.56688123 2.5554181e-18)
(11.877592 0.50378507 5.7955929e-20)
(11.883279 0.37427239 2.3164691e-19)
(11.873443 0.21599952 -4.5326934e-19)
(11.832529 0.097334458 0)
(11.786501 -0.029955822 -8.8867342e-19)
(11.724063 -0.11791071 2.6043751e-18)
(11.636928 -0.19834562 -1.6851455e-18)
(11.561508 -0.24693735 8.3524326e-19)
(11.473311 -0.28091828 -1.6301693e-18)
(11.385063 -0.2844519 4.7303333e-18)
(11.306022 -0.27343338 -3.0256232e-18)
(11.225197 -0.224977 0)
(11.181048 -0.17167579 1.4206791e-18)
(11.145713 -0.068382231 2.7875291e-18)
(11.160688 0.012701816 -3.9762119e-18)
(11.187104 0.15178502 3.8766586e-18)
(11.282661 0.2784277 -3.7137284e-18)
(11.388296 0.40211163 -2.4075271e-18)
(11.652548 0.5777288 -1.1702119e-18)
(11.797997 0.484699 1.5016362e-19)
(11.819247 0.35734926 1.9972831e-19)
(11.777716 0.19844471 -3.9389385e-19)
(11.763431 0.088534632 0)
(11.695283 -0.035728615 1.5400129e-18)
(11.633148 -0.10847625 -7.6359986e-19)
(11.551263 -0.18418557 0)
(11.4718 -0.22001911 -1.4592731e-18)
(11.399658 -0.23963472 7.1850032e-19)
(11.322266 -0.23210362 0)
(11.266133 -0.20541148 -1.3628584e-18)
(11.227024 -0.14536469 1.3221484e-18)
(11.224055 -0.09498257 1.2794662e-18)
(11.231233 0.0080446583 -2.4796508e-18)
(11.286567 0.0571145 2.3600309e-18)
(11.38854 0.19272306 -1.141341e-18)
(11.524929 0.2010991 -1.0978572e-18)
(11.747082 0.31712895 -1.049833e-18)
(11.995927 0.265271 -1.0017168e-18)
(11.701589 0.48493989 3.4636362e-19)
(11.757603 0.33851707 -1.7151189e-19)
(11.714026 0.19389731 0)
(11.713039 0.08703142 0)
(11.634375 -0.026829014 -1.3430292e-18)
(11.587743 -0.09233791 1.3254719e-18)
(11.504153 -0.15738158 0)
(11.436963 -0.18167486 6.3688248e-19)
(11.374538 -0.19160556 -6.2422468e-19)
(11.30814 -0.17464387 0)
(11.280021 -0.1465815 1.190843e-18)
(11.275081 -0.096052493 1.1020336e-20)
(11.301319 -0.062782011 8.3125264e-21)
(11.360395 0.022081118 0)
(11.440718 0.030320207 -4.2245347e-18)
(11.606763 0.100274 4.035293e-18)
(11.731397 0.020141383 4.8614425e-18)
(11.998659 0.039000624 -6.4933274e-18)
(12.174348 -0.19523283 4.4442442e-18)
(11.623097 0.48008198 0)
(11.659187 0.31779432 1.8207784e-21)
(11.615839 0.20701279 0)
(11.610202 0.084187707 0)
(11.530553 -0.016939218 5.8132969e-19)
(11.497405 -0.075569386 7.4054443e-21)
(11.422236 -0.14200461 -5.7486178e-19)
(11.373518 -0.1492919 -1.7030265e-18)
(11.317986 -0.15745116 2.1930941e-18)
(11.291394 -0.13966051 0)
(11.29283 -0.12245365 -1.0567381e-18)
(11.31147 -0.084791729 -6.1749064e-18)
(11.356364 -0.071856747 2.9666842e-18)
(11.463801 -0.024867859 0)
(11.54235 -0.075791963 -3.7204088e-18)
(11.742539 -0.099441267 4.4533045e-18)
(11.816979 -0.23227458 -3.4207154e-18)
(12.07192 -0.35815803 4.0871556e-18)
(12.084512 -0.66505593 0)
(11.558588 0.46120961 -2.6005915e-19)
(11.592686 0.28735342 1.3043911e-19)
(11.581574 0.20081057 0)
(11.572035 0.066977272 -1.0313995e-18)
(11.503821 -0.00157196 1.525393e-18)
(11.465472 -0.074913266 -5.0153919e-19)
(11.397396 -0.12140847 -1.5162093e-18)
(11.361663 -0.1251386 3.4486953e-18)
(11.320458 -0.14152512 -1.9089221e-18)
(11.316357 -0.13323954 0)
(11.326875 -0.12570678 9.1227176e-19)
(11.375641 -0.10107181 5.4121542e-18)
(11.423717 -0.12699912 -3.4866017e-18)
(11.553351 -0.15233333 0)
(11.606761 -0.24072371 0)
(11.793382 -0.36020606 -1.5710055e-18)
(11.79087 -0.52047605 7.5285161e-19)
(11.952016 -0.74601465 -2.1632613e-18)
(11.806175 -1.0374422 0)
(11.497254 0.4411442 -2.2520933e-19)
(11.482412 0.28657772 6.7508918e-19)
(11.510651 0.19700443 -6.7140551e-19)
(11.476795 0.069339124 0)
(11.438849 0.010379088 1.3426622e-18)
(11.389685 -0.074244216 -1.7471831e-18)
(11.336611 -0.099393758 0)
(11.314471 -0.12153424 8.637555e-19)
(11.299823 -0.13889038 8.3960958e-19)
(11.310766 -0.13479394 0)
(11.331938 -0.14465263 0)
(11.403913 -0.16874594 -7.8812124e-19)
(11.446352 -0.22127833 -2.310746e-18)
(11.572794 -0.31854998 -1.0434589e-20)
(11.579136 -0.42980126 2.1491472e-18)
(11.702625 -0.61137029 1.3825293e-18)
(11.633296 -0.77643119 -6.657901e-19)
(11.681513 -1.0291484 1.2765593e-18)
(11.432343 -1.2499348 0)
(11.457556 0.40451413 0)
(11.428998 0.27578992 -7.7976151e-19)
(11.470725 0.17402456 1.5501907e-18)
(11.414361 0.064900278 -1.1577583e-18)
(11.408369 0.0060244992 0)
(11.347503 -0.069246555 0)
(11.332495 -0.095813673 0)
(11.298283 -0.13804998 -7.46905e-19)
(11.305045 -0.14734369 -7.3380725e-19)
(11.315475 -0.17466754 0)
(11.350838 -0.19858973 -7.1068873e-19)
(11.404596 -0.27806747 -6.9277712e-19)
(11.439363 -0.34261199 -6.721299e-19)
(11.512717 -0.50057674 2.6085481e-18)
(11.478439 -0.60808503 -2.5177636e-18)
(11.513706 -0.83145174 -6.0840049e-19)
(11.37733 -0.95350862 3.5205326e-18)
(11.32196 -1.1935953 -5.6470549e-18)
(11.013968 -1.2938169 3.2640919e-18)
(11.372856 0.38181469 -4.2309157e-20)
(11.362059 0.28719051 8.4522226e-20)
(11.407243 0.15427162 8.4109218e-19)
(11.348054 0.071809148 -2.0165882e-18)
(11.363043 -0.0052020668 9.9205982e-19)
(11.298033 -0.065439027 0)
(11.304785 -0.10137999 0)
(11.274463 -0.14544039 6.5121926e-19)
(11.299298 -0.16624429 -2.5685325e-18)
(11.300181 -0.22231101 -6.5515759e-19)
(11.341193 -0.26531827 6.0143751e-19)
(11.365062 -0.37860989 3.0151776e-18)
(11.382204 -0.4603162 5.8853564e-19)
(11.379616 -0.64513017 0)
(11.310878 -0.73323207 1.6598435e-18)
(11.245726 -0.95674429 0)
(11.083437 -1.0189405 -3.1112279e-18)
(10.970959 -1.196695 9.0007529e-18)
(10.665068 -1.2200767 -7.738563e-18)
(11.307241 0.35158647 7.2824192e-20)
(11.308171 0.26312319 -7.241461e-20)
(11.342061 0.12528985 0)
(11.297447 0.067132178 -8.771138e-19)
(11.312823 -0.019564181 2.7518909e-19)
(11.24847 -0.075264646 1.1458811e-18)
(11.268072 -0.12487296 0)
(11.230962 -0.17320951 -2.8339566e-18)
(11.263313 -0.21104472 1.6593968e-18)
(11.24759 -0.28204447 -2.0215238e-21)
(11.292128 -0.35658298 0)
(11.260877 -0.48275473 0)
(11.253471 -0.5725571 -5.1362743e-19)
(11.174438 -0.74525486 0)
(11.087023 -0.81115752 1.5246294e-21)
(10.928057 -0.99919008 9.4297798e-19)
(10.766333 -0.98725679 -2.7442693e-18)
(10.588099 -1.12071 7.0836251e-18)
(10.313194 -1.0302905 -3.4322209e-18)
(11.221015 0.35181421 2.2051129e-19)
(11.266971 0.23538318 -1.8839693e-19)
(11.273224 0.12524784 0)
(11.265658 0.065009098 0)
(11.266822 -0.038530804 0)
(11.23354 -0.077865657 0)
(11.250473 -0.14637544 -1.9941647e-18)
(11.212694 -0.19338397 1.9537577e-18)
(11.248373 -0.25786803 2.4295876e-18)
(11.205116 -0.33261519 -9.5044781e-19)
(11.230632 -0.43249781 0)
(11.155139 -0.54324825 3.6861056e-18)
(11.125555 -0.64032074 -6.730468e-18)
(10.985391 -0.77218107 3.4949466e-18)
(10.88366 -0.81434175 -4.2611064e-18)
(10.671527 -0.92919974 2.4826887e-18)
(10.518179 -0.85914746 -8.0465521e-19)
(10.289771 -0.93594697 -7.8313514e-19)
(10.075785 -0.75001204 7.5820548e-19)
(11.160846 0.32271533 2.1748918e-19)
(11.21892 0.19963301 -7.0692508e-19)
(11.201469 0.12212164 4.3320288e-19)
(11.223994 0.027661769 -8.7168357e-19)
(11.185843 -0.049652269 8.6258758e-19)
(11.184896 -0.096890963 0)
(11.167545 -0.18230229 -4.3105972e-19)
(11.156971 -0.22075985 1.7110076e-18)
(11.160929 -0.32097175 -1.678281e-18)
(11.107995 -0.37512153 -4.1509966e-19)
(11.101001 -0.49789085 -3.274295e-18)
(10.97728 -0.58229485 3.1980275e-18)
(10.913202 -0.67328492 -3.9132235e-19)
(10.730836 -0.74720199 2.2989882e-18)
(10.626559 -0.75097338 -2.2349531e-18)
(10.399742 -0.7816229 0)
(10.291209 -0.68071828 -5.6780995e-18)
(10.068949 -0.68323492 6.2009896e-18)
(9.9282004 -0.45261506 0)
(11.111899 0.30400661 -3.7538991e-19)