/*--------------------------------*- C++ -*----------------------------------*\
  =========                 |
  \\      /  F ield         | OpenFOAM: The Open Source CFD Toolbox
   \\    /   O peration     | Website:  https://openfoam.org
    \\  /    A nd           | Version:  11
     \\/     M anipulation  |
\*---------------------------------------------------------------------------*/
FoamFile
{
    format      ascii;
    class       surfaceScalarField;
    location    "9";
    object      phi;
}
// * * * * * * * * * * * * * * * * * * * * * * * * * * * * * * * * * * * * * //

dimensions      [0 3 -1 0 0 0 0];

internalField   nonuniform List<scalar> 
8667
(
15.883718
1.9145577
-0.02049777
13.982123
1.9209754
-0.019380963
12.079555
1.9136567
-0.011087931
10.172486
1.8520594
0.055009014
8.2757132
1.7653802
0.13139275
6.388062
1.6014908
0.28616034
4.5291764
1.3864435
0.47244215
2.7105045
1.0564758
0.76219603
0.56368529
1.1817448
0.96507441
15.883514
3.8088221
13.978116
3.8263736
12.075042
3.8167304
10.164107
3.7629948
8.2631999
3.666287
6.3776244
3.4870664
4.5126838
3.251384
2.7145133
2.8546464
2.3113738
0.9668248
15.883992
5.7026078
13.979458
5.7309079
12.068535
5.7276537
10.158577
5.6729521
8.2485885
5.5762758
6.3618651
5.3737899
4.5010659
5.1121832
2.7031541
4.6525581
4.0779721
0.93655575
15.883501
7.5968845
13.976034
7.6383749
12.065762
7.6379257
10.156189
7.5825251
8.244093
7.4883722
6.3509217
7.2669612
4.4787143
6.9843905
2.69013
6.4411424
5.8255313
0.94257075
15.883965
9.4906958
13.978271
9.5440688
12.066394
9.549802
10.156687
9.4922329
8.2381972
9.4068617
6.3391861
9.1659723
4.4600554
8.8635212
2.6802026
8.2209952
7.5664684
0.93926556
15.885689
11.382785
13.979255
11.450503
12.065218
11.463839
10.152957
11.404494
8.236406
11.323412
6.3278907
11.074487
4.4429763
10.748436
2.6573555
10.006616
9.272272
0.95155183
15.886519
13.274044
13.983289
13.353734
12.070544
13.376584
10.154164
13.320874
8.2342242
13.243352
6.3193429
12.989369
4.424836
12.642942
2.6439538
11.787498
10.968796
0.94742964
15.888325
15.163497
13.987706
15.254353
12.075283
15.289007
10.155109
15.241048
8.231734
15.166727
6.3122682
14.908835
4.4082531
14.546958
2.6173758
13.578376
12.659853
0.9263187
15.89045
17.050825
13.99231
17.152493
12.080782
17.200534
10.158486
17.163344
8.22985
17.095363
6.3060763
16.832608
4.3905992
16.462435
2.599534
15.369441
14.341462
0.91792573
18.874804
15.953798
20.69574
15.956842
22.513138
15.960386
24.328138
15.96278
26.139667
15.966231
27.948192
15.969255
29.755116
15.970856
31.555711
15.977185
15.975028
33.358464
18.988756
14.117535
20.820645
14.124953
22.648654
14.132377
24.470189
14.141245
26.287948
14.148472
28.097166
14.160036
29.902955
14.165067
31.705164
14.174976
14.176446
33.503746
19.053761
12.264309
20.90564
12.273074
22.757283
12.280735
24.605428
12.2931
26.451852
12.302048
28.293691
12.318197
30.132232
12.326527
31.967559
12.339649
12.347608
33.796396
19.030396
10.397257
20.899672
10.403798
22.769805
10.410602
24.642016
10.420889
26.51253
10.431534
28.384365
10.446361
30.249438
10.461454
32.111941
10.477146
10.495121
33.964428
18.971319
8.5213011
20.856484
8.5186325
22.744407
8.5226788
24.640416
8.5248802
26.537119
8.5348312
28.444399
8.5390809
30.353631
8.5522224
32.275504
8.555273
8.5717961
34.19883
18.70192
6.6519895
20.584573
6.6359794
22.475355
6.6318965
24.380089
6.6201462
26.289848
6.6250728
28.209233
6.6196959
30.128509
6.6329458
32.049449
6.6343326
6.6501032
33.971142
18.322736
4.7916877
20.207855
4.7508609
22.1139
4.7258519
24.051253
4.6827926
26.012093
4.6642329
27.995711
4.6360779
29.999368
4.6292887
32.018038
4.6156627
4.6173516
34.05079
17.101651
3.0594771
18.907815
2.9446972
20.77711
2.8565565
22.70115
2.7587528
24.660889
2.7044939
26.660825
2.6361418
28.679473
2.6106411
30.721979
2.5731566
2.5720367
32.767294
15.952567
1.4483718
17.793715
1.1035496
19.929181
0.72109049
22.187325
0.500608
24.492067
0.39975191
26.841212
0.28699753
29.196324
0.25552897
31.561245
0.20823492
33.922786
0.21049594
33.256538
0.10192588
33.157508
0.099030031
33.064948
0.092559129
32.973709
0.091239158
32.890095
0.083614512
32.807483
0.082612208
32.732559
0.074923831
32.657527
0.075031409
0.066472035
32.591055
33.426459
0.17921297
33.351048
0.17444062
33.280165
0.16344233
33.209309
0.16209529
33.143243
0.14968019
33.077403
0.14845304
33.01675
0.13557636
32.956096
0.13568579
0.12291271
32.899655
33.721321
0.25428838
33.650721
0.24503976
33.576708
0.23745617
33.508021
0.23078197
33.433342
0.22435874
33.365029
0.21676646
33.291265
0.20934045
33.227028
0.19992227
0.19325908
33.156682
33.885615
0.33310071
33.810965
0.31969018
33.73467
0.31375172
33.663696
0.30175536
33.59103
0.29702495
33.525289
0.28250703
33.456709
0.2779206
33.396751
0.25988009
0.25599512
33.334015
34.113193
0.41873706
34.030533
0.40235009
33.950196
0.39408918
33.871975
0.37997595
33.796524
0.37247623
33.724174
0.35485703
33.654719
0.3473751
33.588837
0.32576286
0.31937405
33.525458
33.898034
0.49184557
33.831122
0.46926216
33.768089
0.45712219
33.710869
0.43719577
33.656483
0.42686178
33.607464
0.40387676
33.559753
0.39508597
33.515265
0.37025075
0.36176261
33.472876
33.993731
0.54890454
33.946997
0.5159958
33.903729
0.50038983
33.866623
0.47430182
33.829785
0.46370008
33.793837
0.43982468
33.757215
0.43170838
33.716976
0.41048926
0.40619978
33.672539
32.850717
0.46548124
32.937291
0.4294224
33.031525
0.40615536
33.124032
0.38179517
33.227802
0.35993
33.319072
0.34855484
33.40497
0.34581046
33.463335
0.35212424
0.37831544
33.491219
34.219247
0.16902096
34.478014
0.1706552
34.699128
0.18504139
34.870287
0.21063572
34.984918
0.24529862
35.021233
0.31224007
34.995427
0.3716171
34.886919
0.46063136
34.748666
0.51656885
34.675026
0.56199576
-0.48835552
34.440872
0.54109389
-0.30694035
34.143911
0.5120212
-0.21506033
33.824143
0.49733514
-0.17756644
33.494213
0.47907032
-0.14914044
33.164638
0.46645972
-0.13688485
32.823524
0.45607414
-0.11496047
32.477646
0.45230983
-0.1064312
0.44141819
32.13691
-0.10068248
33.591502
0.46171303
33.65762
0.47497548
33.685971
0.48367013
33.692477
0.49082964
33.674324
0.49722342
33.637699
0.50308407
33.584768
0.50900555
33.522259
0.51481891
0.52205604
33.441621
33.733236
0.40101651
33.794219
0.41399246
33.843326
0.43456248
33.888294
0.44586166
33.920371
0.46514684
33.947885
0.47557016
33.962215
0.49467494
33.971203
0.50583082
0.52609693
33.967163
33.547553
0.32633999
33.625292
0.33625316
33.699203
0.36065202
33.775291
0.36977284
33.846163
0.3942752
33.918403
0.40333003
33.984235
0.42884293
34.051547
0.43851924
0.46557667
34.112067
33.586366
0.26543192
33.650939
0.27168017
33.717129
0.29446214
33.78649
0.30041174
33.855768
0.32499745
33.92766
0.33143713
33.998501
0.35800209
34.072766
0.36425457
0.39300308
34.14534
33.404189
0.19525781
33.47428
0.2015894
33.549939
0.21880323
33.628883
0.2214683
33.710471
0.24340871
33.796808
0.24510029
33.885475
0.26933567
33.978763
0.27096631
0.29885515
34.072911
33.223541
0.12839869
33.28419
0.14094018
33.357826
0.14516722
33.424607
0.1546881
33.505595
0.16242013
33.580113
0.17058248
33.66899
0.18045867
33.753049
0.18690688
0.2015966
33.850308
32.970024
0.058029397
33.043043
0.067921512
33.120014
0.068196491
33.196444
0.078258082
33.280984
0.077879691
33.363945
0.0876214
33.455959
0.08844524
33.546102
0.096763935
0.10064573
33.647052
32.649085
32.717006
32.785203
32.863461
32.941341
33.028962
33.117407
33.214171
33.314817
33.420864
-0.10604751
33.536125
-0.11526048
33.65121
-0.11508522
33.78153
-0.13032035
33.909423
-0.1278928
34.054557
-0.14513371
34.198342
-0.14378529
34.360292
-0.16194968
-0.16220177
34.522494
33.745767
-0.20476203
33.856369
-0.22586225
33.965628
-0.2243443
34.088363
-0.25305592
34.21015
-0.24967984
34.34677
-0.28175298
34.482499
-0.27951474
34.636321
-0.315772
-0.31382469
34.787944
33.946086
-0.30054048
34.051842
-0.33161771
34.161093
-0.33359588
34.276541
-0.36850365
34.39781
-0.37094877
34.525791
-0.40973421
34.658868
-0.41259093
34.799766
-0.45667036
-0.4597022
34.945643
34.172212
-0.39984193
34.271964
-0.43136952
34.377509
-0.43914089
34.482554
-0.47354846
34.59444
-0.48283519
34.705823
-0.52111712
34.825548
-0.5323162
34.945253
-0.57637447
-0.58971697
35.075267
34.222029
-0.4765316
34.295869
-0.50520888
34.374458
-0.51773041
34.450269
-0.54935972
34.533027
-0.56559331
34.614258
-0.60234753
34.704681
-0.6227393
34.794875
-0.66656862
-0.691315
34.896473
34.175737
-0.54020187
34.232985
-0.56245631
34.295753
-0.58049832
34.352659
-0.60626561
34.416197
-0.62913199
34.474414
-0.66056401
34.541138
-0.68946326
34.603499
-0.72893012
-0.76365534
34.675839
33.961824
-0.53486284
33.944967
-0.54560003
33.931214
-0.56674487
33.905875
-0.58092717
33.885591
-0.6088474
33.856142
-0.63111515
33.83171
-0.66503152
33.800796
-0.6980157
-0.74434754
33.781488
33.35266
-0.44590189
33.252874
-0.44581383
33.139754
-0.45362529
33.015227
-0.4563998
32.889015
-0.4826353
32.743637
-0.48573681
32.604307
-0.52570223
32.448202
-0.54191036
-0.58860577
32.29246
31.78319
-0.09218192
31.447076
-0.10969953
31.100237
-0.10678701
30.758812
-0.11497496
30.418438
-0.14226062
30.06829
-0.13558884
29.714316
-0.17172835
29.355058
-0.18265244
28.980286
-0.21383375
0.61279427
28.61858
-0.25108865
0.78552665
32.119728
0.81464499
33.75237
0.74434436
34.74614
0.64109996
34.999718
0.50916553
35.207202
0.35394819
35.100861
0.18244397
34.959449
34.704938
0.68237986
28.238826
-0.30262562
0.83817009
31.963938
0.85333422
33.737206
0.7728909
34.826583
0.65579604
35.116812
0.51144456
35.351553
0.35091252
35.261393
0.18228032
35.128081
34.887218
0.7295032
27.830674
-0.32135092
0.90192487
31.791516
0.9190478
33.720083
0.83644481
34.909186
0.71577394
35.237483
0.56713273
35.500194
0.39553263
35.432993
0.20412716
35.319486
35.091345
0.79966568
27.467866
-0.43685777
0.96124244
31.629939
0.96148741
33.719838
0.8674225
35.003251
0.73068735
35.374218
0.56775029
35.663131
0.39203064
35.608713
0.20559277
35.505924
35.296938
0.87413786
27.048431
-0.45470282
1.0445454
31.459532
1.0429766
33.721407
0.94226172
35.103966
0.79959239
35.516888
0.6296136
35.83311
0.44041342
35.797913
0.22895912
35.717378
35.525897
0.97583609
26.68155
-0.60895579
1.1094507
31.325917
1.0886008
33.742256
0.9735244
35.219042
0.8130147
35.677397
0.62735032
36.018775
0.4339543
35.991309
0.22960907
35.921724
35.755506
1.084615
26.29267
-0.69573436
1.2214694
31.189063
1.1878941
33.775832
1.060896
35.346041
0.89110308
35.84719
0.69566371
36.214214
0.48808705
36.198885
0.2561123
36.153698
36.011618
1.2209978
25.991721
-0.92004903
1.2919637
31.118097
1.2362701
33.831525
1.0894956
35.492815
0.90093106
36.035755
0.68919019
36.425955
0.47701851
36.411057
0.25409119
36.376626
36.26571
1.3700208
25.560372
-0.93867136
1.4397346
31.048383
1.3619454
33.909314
1.1986769
35.656084
0.99465181
36.23978
0.76734072
36.653266
0.53652818
36.64187
0.28194907
36.631205
36.547659
0.092576892
36.455082
0.23041493
36.493367
0.3679935
36.504291
0.4910551
36.530204
0.60047343
36.130362
0.68786339
35.568694
0.75377372
33.843404
0.7017409
31.100416
26.00569
0.25642239
0.080297842
36.374784
0.18902577
36.384639
0.30638927
36.386928
0.42156527
36.415028
0.51939871
36.032528
0.59650469
35.491588
0.62066141
33.819247
0.5549221
31.166155
26.32724
0.23337229
0.092495993
36.282288
0.22271531
36.25442
0.34942395
36.260219
0.45571648
36.308736
0.54263213
35.945613
0.59121698
35.443003
0.61997365
33.790491
0.51871184
31.267417
26.487862
0.35809018
0.079511806
36.202776
0.18219168
36.15174
0.29438907
36.148022
0.40245316
36.200672
0.47877145
35.869294
0.52475125
35.397023
0.53445603
33.780786
0.42616915
31.375704
26.530187
0.38384389
0.098011793
36.104764
0.22767235
36.022079
0.34051279
36.035181
0.43063928
36.110545
0.49975265
35.800181
0.52581669
35.370959
0.54770711
33.758896
0.42950468
31.493906
26.586088
0.3736031
0.086368275
36.018396
0.1908445
35.917603
0.30606836
35.919957
0.40791696
36.008697
0.46742896
35.740669
0.488826
35.349562
0.46677208
33.780949
0.37144397
31.589234
26.57885
0.37868215
0.11194766
35.906448
0.24803984
35.781511
0.35900885
35.808988
0.44449779
35.923208
0.49632025
35.688846
0.49494414
35.350938
0.4872545
33.788639
0.41381784
31.662671
26.637886
0.3547822
0.10118924
35.805259
0.21720927
35.665491
0.34024329
35.685954
0.44282293
35.820628
0.49177717
35.639892
0.48448115
35.358234
0.42069798
33.852422
0.36396848
31.719401
26.610072
0.39178242
0.13682741
35.668432
0.28657101
35.515747
0.40308883
35.569436
0.4921924
35.731525
0.53490142
35.597183
0.51292776
35.380208
0.46314309
33.902207
0.38725305
31.795291
26.675618
0.32170713
-0.32344796
26.63434
0.36472576
-0.40924803
31.881091
-0.52077449
34.013733
-0.55834715
35.41778
-0.51923111
35.558067
-0.40820844
35.620502
-0.27015053
35.431379
-0.12921928
35.374816
35.539212
-0.36340343
26.703897
0.2938463
-0.48896199
32.006649
-0.58806598
34.112837
-0.62441064
35.454125
-0.58596218
35.519619
-0.48069924
35.515239
-0.34458981
35.295269
-0.16988231
35.200108
35.36933
-0.32645594
26.676549
0.35380365
-0.45943391
32.139627
-0.62566901
34.279073
-0.67337815
35.501834
-0.63420339
35.480444
-0.50481876
35.385854
-0.34622941
35.13668
-0.17241194
35.026291
35.196918
-0.39923889
26.782079
0.29370952
-0.57668016
32.317069
-0.73320558
34.435598
-0.76735906
35.535988
-0.71717513
35.43026
-0.5866965
35.255376
-0.42252666
34.97251
-0.21398553
34.81775
34.982933
-0.39239207
26.812994
0.36147636
-0.58443347
32.50911
-0.80824666
34.659411
-0.84639963
35.574141
-0.7938025
35.377663
-0.63483937
35.096413
-0.43995214
34.777623
-0.22543628
34.603234
34.757496
-0.49677406
26.996276
0.31349266
-0.73723995
32.749576
-0.94697792
34.869149
-0.9668491
35.594012
-0.89240384
35.303218
-0.72210964
34.926118
-0.51728836
34.572801
-0.26689124
34.352837
34.490605
-0.52241957
27.137754
0.38094093
-0.78665444
33.013811
-1.0592893
35.141784
-1.0752392
35.609962
-0.98990731
35.217886
-0.78595219
34.722163
-0.54625537
34.333105
-0.28277816
34.08936
34.207827
-0.66548417
27.45586
0.34737814
-0.98561215
33.333939
-1.2371592
35.393331
-1.2205456
35.593348
-1.1003977
35.097738
-0.87682609
34.498592
-0.62052522
34.076804
-0.32301964
33.791854
33.884807
-0.72663337
27.747277
0.43521651
-1.0813709
33.688676
-1.3804392
35.692399
-1.3476893
35.560598
-1.207521
34.95757
-0.94884759
34.239918
-0.65627809
33.784234
-0.34161873
33.477195
33.543189
0.49253246
33.050656
0.95379614
33.015931
1.389702
33.348328
1.8004187
33.829201
2.1045523
34.653436
2.2731938
35.391957
2.0126045
35.952988
1.4275236
34.273757
28.630927
0.54387401
0.51458484
32.536071
0.99947734
32.531038
1.4739197
32.873886
1.9300727
33.373048
2.2768404
34.306668
2.5098586
35.158939
2.2579815
36.204866
1.6438314
34.887908
29.46893
0.80582853
0.53666055
31.999411
1.0471189
32.02058
1.5533391
32.367666
2.052619
32.873769
2.4753454
33.883942
2.7843422
34.849942
2.6789116
36.310296
2.027829
35.53899
30.85528
0.64147865
0.54956104
31.44985
1.0831728
31.486968
1.6251896
31.825649
2.1640392
32.334919
2.618178
33.429803
3.0140347
34.454085
2.9922622
36.332069
2.4756433
36.055609
32.418467
0.91245636
0.55572371
30.894126
1.1113978
30.931294
1.6781644
31.258882
2.2635014
31.749582
2.7991546
32.89415
3.2932084
33.960031
3.4592188
36.166058
3.0055693
36.509259
34.321799
1.1022369
0.55253706
30.341589
1.1273768
30.356454
1.725133
30.661126
2.338728
31.135987
2.9081595
32.324718
3.4803616
33.387829
3.7763385
35.870081
3.5624301
36.723167
36.370703
1.5135268
0.54282715
29.798762
1.1310617
29.76822
1.7533946
30.038793
2.4149173
30.474464
3.0771436
31.662492
3.7057244
32.759248
4.1852589
35.390547
4.1981689
36.710257
37.982928
2.5859434
0.52453661
29.274225
1.1246598
29.168097
1.765726
29.397727
2.441726
29.798464
3.1334778
30.97074
3.8209885
32.071738
4.3618169
34.849718
4.7754326
36.296641
39.321111
3.4372496
0.51290634
28.761319
1.1017339
28.579269
1.7537512
28.74571
2.4885864
29.063629
3.2487453
30.210581
4.0022139
31.318269
4.7823808
34.069552
5.695672
35.38335
40.280441
4.736342
-0.96082511
29.722144
-1.8070048
29.425449
-2.6218979
29.560603
-3.4717742
29.913506
-4.4899879
31.228795
-5.8492065
32.677488
-7.6167661
35.837111
-10.117662
37.884246
43.155805
-12.993026
-0.97997029
30.702114
-1.8331512
30.27863
-2.6309684
30.35842
-3.4328622
30.715399
-4.4261904
32.222123
-5.8486969
34.099994
-7.7863696
37.774784
-10.27719
40.375067
44.725979
-11.847364
-1.044968
31.747082
-1.8747318
31.108394
-2.6328892
31.116577
-3.3952232
31.477733
-4.373728
33.200628
-5.8464694
35.572736
-7.9448059
39.87312
-10.046694
42.476955
41.118686
-6.4394011
-1.0710984
32.818181
-1.9092218
31.946517
-2.649227
31.856583
-3.3462182
32.174725
-4.31554
34.16995
-5.8503228
37.107518
-7.9149734
41.937771
-9.5337167
44.095699
32.393736
-0.80876735
-1.1644221
33.982603
-1.9662077
32.748302
-2.663089
32.553464
-3.3098943
32.82153
-4.2368843
35.09694
-5.7597987
38.630433
-7.6858684
43.863841
-8.9645106
45.374341
23.442681
-0.01345542
-1.2154987
35.198102
-2.0209693
33.553773
-2.7046428
33.237137
-3.2596787
33.376566
-4.1374457
35.974707
-5.6958058
40.188793
-7.5075029
45.675538
-8.2290845
46.095922
15.208048
0.0055488273
-1.3234332
36.521535
-2.1123828
34.342723
-2.7408661
33.865621
-3.2356874
33.871387
-4.0422564
36.781276
-5.5314051
41.677941
-7.261835
47.405968
-7.6449031
46.478991
7.6713427
-0.10819819
-1.3646476
37.886182
-2.1897708
35.167846
-2.8090554
34.484905
-3.1867025
34.249034
-3.9266873
37.521261
-5.3803034
43.131558
-7.0034118
49.029076
-6.1537316
45.62931
1.2350814
0.28252973
-1.4967302
39.382913
-2.3186427
35.989758
-2.8725253
35.038788
-3.1796534
34.556162
-3.8398761
38.181483
-5.1144557
44.406137
-6.3874927
50.302113
-3.1715178
42.413335
-3.0119082
1.0754719
1.3438274
-4.9271508
0.57141514
2.8216813
40.935481
2.0568696
51.066925
1.524286
44.938721
1.5086317
38.197138
1.7093151
34.355479
1.5480998
35.200003
1.092608
36.44525
40.475521
1.212273
-6.5547803
0.41535657
2.567502
39.580253
1.8578118
51.776615
1.4695058
45.327027
1.5721488
38.094495
1.8185662
34.109062
1.6988307
35.319739
1.2270488
36.917032
41.702569
0.97862122
-8.298676
0.76527443
2.3676038
38.19127
1.7137018
52.430517
1.3787854
45.661943
1.59758
37.8757
1.9500457
33.756596
1.8132306
35.456554
1.261836
37.468427
42.964405
0.79169289
-9.9476701
0.85730118
2.1137864
36.869176
1.5167199
53.027583
1.3370483
45.841615
1.7015426
37.511206
2.0891076
33.369031
1.979787
35.565874
1.3701259
38.078088
44.334531
0.68345653
-11.468005
0.83687822
1.9405676
35.612065
1.3932459
53.574905
1.2609694
45.973891
1.7601656
37.01201
2.2554237
32.873773
2.0986541
35.722644
1.4146106
38.762131
45.749142
0.61589535
-12.758384
0.67448335
1.6715811
34.55638
1.1789116
54.067575
1.2302326
45.92257
1.906156
36.336086
2.4148637
32.365065
2.2709535
35.866554
1.5224911
39.510594
47.271633
0.51941294
-13.489734
0.21193739
1.4942035
33.581589
1.0539535
54.507825
1.1545953
45.821929
1.9919804
35.498701
2.6068913
31.750154
2.3959924
36.077453
1.5400064
40.36658
48.811639
0.44482315
-13.400718
-0.53383868
1.2204499
32.805962
0.85453932
54.873735
1.1589859
45.517482
2.1760695
34.481617
2.7817532
31.14447
2.5615257
36.297681
1.6175106
41.310595
50.42915
0.31358415
-13.379621
-0.33468196
1.0020197
32.117527
0.70392796
55.171827
1.0616681
45.159742
2.2659533
33.277332
2.9828335
30.42759
2.6791784
36.601336
1.6171594
42.372614
52.046309
-1.0817909
-10.495841
-1.8019884
-5.3411206
36.376857
-5.9274408
55.758147
-2.0950985
41.3274
2.628144
28.55409
4.7900717
28.265663
4.6290657
36.762342
2.7321736
44.269506
54.778483
-1.8851037
-6.8540314
-1.756706
-6.0991152
40.590868
-6.2842235
55.943255
-1.3277201
36.370896
4.4094016
22.816968
6.2339419
26.441122
4.9852668
38.011017
2.3351168
46.919656
57.1136
-2.8081852
-2.9961972
-1.0496489
-6.5918276
44.37451
-5.8637284
55.215156
0.39127874
30.115889
6.1493263
17.05892
6.7316363
25.858812
4.9868973
39.755756
2.1634491
49.743104
59.277049
-3.20809
1.1790263
-0.96713347
-6.9499185
48.116339
-5.2000678
53.465306
2.259712
22.656109
7.675262
11.64337
7.5539354
25.980139
4.7762068
42.533484
1.4508328
53.068478
60.727882
-4.0659808
6.2167471
-0.97173998
-7.5701208
51.620479
-4.7767591
50.671944
3.0168992
14.862451
8.1406645
6.519605
7.2467112
26.874092
4.0333357
45.74686
0.93803256
56.163781
61.665914
-4.3946463
11.533234
-0.92184038
-7.4390173
54.66485
-3.9237378
47.156664
3.6329821
7.305731
8.3726688
1.7799183
7.2305086
28.016252
3.3019506
49.675418
0.040507772
59.425224
61.706422
-5.259173
17.104767
-0.31236017
-7.664853
57.07053
-2.8096202
42.301432
4.5763063
-0.080195509
8.4205911
-2.0643664
6.3310883
30.105755
2.034188
53.972318
-0.48568635
61.945098
61.220736
-5.4349817
22.017501
0.52224788
-7.7223279
59.357876
-1.8848184
36.463922
5.9327887
-7.8978026
8.5655892
-4.697167
5.7540483
32.917296
1.0987161
58.62765
-1.1518763
64.195691
60.068859
-6.3736994
1.3577272
27.033473
-7.7460288
60.730205
-0.46833473
29.186228
6.5185518
-14.884689
7.7409601
-5.9195752
4.1006334
36.557623
-0.74487557
63.473159
-1.6893929
65.140208
58.379467
-1.0517701
-38.29445
0.46915315
38.877067
0.036654374
-44.911663
43.823239
2.5597565
11.418461
-13.941563
4.5133628
44.940274
-46.89388
5.4108881
59.827128
-60.724653
5.6151545
59.749858
-59.954124
7.1660582
38.384262
-39.935166
9.0974172
-7.3630967
5.4317377
-26.428891
25.168894
-1.1551401
-37.627303
0.48799343
-0.2144025
-45.852401
2.27693
8.9271287
4.2274222
42.989782
5.1672721
58.887278
5.5343575
59.382772
7.5758763
36.342743
10.015752
-9.8029728
-27.864796
-1.2647047
-36.871331
0.50873253
-0.43580849
-46.681297
2.0437334
6.4475867
3.9328197
41.100695
4.9166268
57.903471
5.4845546
58.814845
8.1617843
33.665513
11.20436
-12.845548
-29.496143
-1.3696185
-36.03458
0.53286799
-0.60376571
-47.44715
1.8556516
3.9881695
3.7081388
39.248208
4.7759019
56.835707
5.5986684
57.992078
8.9909737
30.273208
12.584385
-16.43896
-31.32338
-1.4895046
-35.096514
0.55143856
-0.82470345
-48.111951
1.6419809
1.5214852
3.5199021
37.370287
4.6474907
55.708119
5.858871
56.780698
10.079802
26.052277
14.116001
-20.475159
-33.321299
-1.6088696
-34.055067
0.56742282
-1.0400921
-48.680728
1.4549151
-0.97352202
3.3352253
35.489977
4.5263577
54.516986
6.2521479
55.054908
11.416492
20.887933
15.869376
-24.928043
-35.469086
-1.7356996
-32.89895
0.57958238
-1.2361937
-49.180234
1.34004
-3.5497557
3.2069553
33.623061
4.4966756
53.227266
6.9053607
52.646223
13.032079
14.761214
17.747245
-29.643209
-37.726578
-1.8317535
-31.646472
0.57927583
-1.3819772
-49.63001
1.3490112
-6.2807441
3.1998333
31.772239
4.5892766
51.837823
7.7925363
49.442963
14.827871
7.7258793
19.633228
-34.448566
-40.079584
-1.8687976
0.58592418
-30.363599
-1.4323663
-50.066442
1.3681895
-9.0812999
3.1866304
29.953798
4.7371991
50.287254
8.888456
45.291706
16.740591
-0.1262558
21.456892
-39.164866
-42.489527
2.5708045
35.783338
-4.16727
-34.186872
-1.9653952
-5.7650653
10.301264
-8.2497862
-76.762612
83.047005
-8.8328688
-83.697197
84.28028
-7.5195167
-69.372275
68.058923
-4.642216
-51.228041
48.35074
-1.649483
-38.346294
35.353561
1.2290901
-27.271677
24.393104
-25.582609
26.811699
3.1979122
37.013807
-4.428381
-0.78418941
-1.7829637
-6.995079
-70.551723
-8.4573331
-82.234943
-8.0428342
-69.786774
-5.7391042
-53.531771
-3.1809851
-40.904413
0.30210594
-30.754768
-25.280503
3.2987552
38.055439
-4.3403871
-0.57158491
2.0873764
-6.4272521
-64.696055
-8.0979272
-80.564268
-7.5246752
-70.360026
-5.5035101
-55.552936
-3.6894377
-42.718485
-0.54186844
-33.902337
-25.822371
3.718881
38.381042
-4.0444846
0.27632615
5.5299313
-5.3607616
-59.058967
-7.7246361
-78.200394
-7.8719548
-70.212707
-6.0105741
-57.414317
-3.8574766
-44.871583
-0.85018781
-36.909626
-26.672559
3.8006084
37.920375
-3.3399411
0.59184847
8.7386913
-4.6883282
-53.778791
-7.0462848
-75.842437
-7.2116948
-70.047297
-5.860996
-58.765015
-4.0888302
-46.643749
-1.5602151
-39.438241
-28.232774
3.9654149
36.166817
-2.2118565
1.3492766
11.35483
-3.6087885
-48.820725
-6.5738358
-72.87739
-7.3309026
-69.290231
-6.1717091
-59.924209
-4.3517661
-48.463692
-1.9509505
-41.839057
-30.183725
3.9935515
32.794899
-0.62163313
1.8273017
13.521079
-2.7907096
-44.202714
-5.599464
-70.068635
-6.5110205
-68.378674
-5.9360991
-60.49913
-4.5204303
-49.87936
-2.6058819
-43.753605
-32.789607
3.9081034
28.775663
0.11113313
2.4739757
14.955207
-1.5082551
-40.220483
-4.8612291
-66.715661
-6.2931545
-66.946749
-5.6962135
-61.096071
-4.1532181
-51.422356
-2.4617689
-45.445054
-35.251376
3.5671853
25.778222
-0.5697436
2.965938
15.556455
-0.40825813
-36.846287
-3.6026456
-63.521274
-5.1057746
-65.44362
-5.2949402
-60.906906
-4.2362448
-52.481051
-2.5399704
-47.141329
-37.791346
0.150689
40.75549
-40.906179
-0.19663534
46.184725
-45.8374
-0.86795892
48.402426
-47.731103
-1.9797398
52.469429
-51.357648
-3.3434194
53.919116
-52.555436
-4.5966278
53.324928
-52.07172
-4.3232296
44.090211
-44.363609
-1.3191076
6.5173206
-9.5214427
-16.641799
14.730617
0.59207417
0.22302677
40.532464
-0.074576251
46.482328
-0.70909919
49.036949
-1.8230433
53.583373
-3.2162801
55.312353
-4.4784753
54.587124
-4.0626358
43.674372
-1.0706244
3.5253093
-18.419039
0.70661618
0.24810263
40.284361
0.021054325
46.709376
-0.59503323
49.653037
-1.6916042
54.679944
-3.1001213
56.72087
-4.3859568
55.872959
-3.7870985
43.075514
-0.81728446
0.55549537
-20.049547
0.81322345
0.32114183
39.963219
0.12618008
46.904338
-0.43907169
50.218289
-1.5353019
55.776174
-2.9667896
58.152358
-4.234335
57.140505
-3.4733284
42.314507
-0.56802821
-2.3498047
-21.48451
0.86693499
0.3383814
39.624838
0.21141817
47.031301
-0.33194027
50.761647
-1.3997875
56.844021
-2.8405406
59.593111
-4.1400004
58.439964
-3.1755358
41.350043
-0.32193775
-5.2034025
-22.722214
0.91576531
0.41029937
39.214538
0.31211206
47.129488
-0.17736557
51.251125
-1.2362288
57.902884
-2.6881262
61.045008
-3.9615204
59.713359
-2.8652765
40.253799
-0.12475037
-7.9439288
-23.748962
0.90199785
0.42337583
38.791163
0.38353523
47.169329
-0.074529047
51.709189
-1.0960964
58.924452
-2.5621111
62.511023
-3.8476694
60.998917
-2.6211718
39.027302
0.028925618
-10.594026
-24.532235
0.81219928
0.49456903
38.296594
0.48808936
47.175808
0.073842825
52.123436
-0.94274116
59.941036
-2.3831555
63.951437
-3.6471585
62.26292
-2.5254169
37.905561
0.022208222
-13.141651
-25.452344
0.94231816
0.50524762
0.53972727
0.18211167
-0.78375824
-2.2759406
-3.5342945
-2.4750204
-0.060217068
0.26566051
2.592999
11.151531
0.98608712
7.8987898
-14.827233
8.3691099
-44.83393
6.549523
-50.252133
4.4621471
-50.46806
2.6165842
-49.512085
1.3562129
-46.470731
0.3743448
-44.855532
-40.531835
3.5112219
6.9802423
0.66006668
8.6671859
-19.983197
8.5131787
-44.679922
6.573532
-48.312486
4.55157
-48.446098
2.7701918
-47.730707
1.4868828
-45.187422
0.45551166
-43.824161
-40.076323
4.3585924
1.9842254
0.63742451
9.2822391
-24.906844
8.5891254
-43.986809
6.6568717
-46.380233
4.6741656
-46.463392
2.8844155
-45.940957
1.5921746
-43.895181
0.51097867
-42.742965
-39.565344
5.8800202
-3.9457672
0.049972385
9.8256222
-28.852446
8.5873178
-42.748504
6.6288799
-44.421795
4.7431503
-44.577663
3.0260606
-44.223867
1.7194408
-42.588562
0.5967506
-41.620275
-38.968594
8.1990184
-11.785888
-0.35889764
9.9826663
-30.636094
8.5061067
-41.271945
6.685386
-42.601074
4.8587913
-42.751068
3.1358858
-42.500961
1.8125738
-41.26525
0.65540559
-40.463107
-38.313188
9.0672038
-20.062637
-0.7904552
9.9441999
-31.51309
8.4309262
-39.758671
6.6259093
-40.796057
4.8900787
-41.015237
3.2437949
-40.854677
1.9295539
-39.951009
0.74059019
-39.274143
-37.572598
9.5451726
-26.890381
-2.7174277
9.9168023
-31.88472
8.3458748
-38.187743
6.6335448
-39.083727
4.9736562
-39.355349
3.3388329
-39.219854
2.0025145
-38.61469
0.79169773
-38.063326
-36.7809
10.001022
-29.029386
-7.8620173
9.8004105
-31.684108
8.2466969
-36.63403
6.5805848
-37.417615
4.9962018
-37.770966
3.4308461
-37.654498
2.0981043
-37.281948
0.86974471
-36.834967
-35.911155
10.156707
-29.258943
-9.9271499
9.6196689
-31.14707
8.1564304
-35.170791
6.5823032
-35.843488
5.0476783
-36.236341
3.5100796
-36.1169
2.159609
-35.931478
0.91905319
-35.594411
-34.992102
0.28148753
39.521596
-39.803084
0.48688082
38.85947
-39.064863
0.66225823
38.543057
-38.718434
0.77718776
38.013871
-38.128801
0.79998492
37.311803
-37.3346
0.75288341
35.729478
-35.682377
0.64476552
33.625321
-33.517203
0.50515164
29.622841
-29.483227
25.116924
-25.095177
0.48340437
0.35131061
39.170285
0.60429413
38.606487
0.77409602
38.373255
0.8786875
37.90928
0.90060589
37.289884
0.81473245
35.815352
0.64629663
33.793757
0.45937121
29.809767
25.200913
0.37538239
0.40378884
38.766497
0.68832643
38.321949
0.93009635
38.131485
1.090841
37.748535
1.142186
37.238539
1.0907975
35.86674
0.93676274
33.947792
0.72984808
30.016681
25.384345
0.54641582
0.48000488
38.286492
0.81492599
37.987028
1.0556691
37.890742
1.2198251
37.584379
1.2723533
37.186011
1.1977338
35.94136
1.0063938
34.139132
0.74553195
30.277543
25.666364
0.46351297
0.53452298
37.751969
0.91151427
37.610037
1.2257674
37.576489
1.4497156
37.360431
1.553441
37.082286
1.5141453
35.980655
1.342234
34.311043
1.078983
30.540794
26.112901
0.6324464
0.59432446
37.157644
1.0351605
37.169201
1.3648527
37.246797
1.6038823
37.121401
1.714352
36.971816
1.665414
36.029593
1.4738156
34.502642
1.2034303
30.811179
26.773569
0.542762
0.65901928
36.498625
1.1371203
36.6911
1.5324623
36.851455
1.8309993
36.822865
2.0209321
36.781883
2.0196574
36.030868
1.8415475
34.680752
1.6542861
30.998441
27.648817
0.77903862
0.72002922
35.778596
1.2519253
36.159204
1.6693489
36.434031
1.981827
36.510386
2.1958281
36.567882
2.2225479
36.004148
1.9880927
34.915207
1.8591755
31.127358
28.58964
0.91835263
0.78649357
1.3512864
1.8538398
2.2473264
2.578868
2.7395282
2.4839438
2.4642315
1.794928
-0.025936936
-25.271077
0.20183699
0.011109611
-29.520274
-0.054394205
-33.4517
-0.11166276
-35.625108
-0.15754537
-37.288717
-0.17223064
-38.114116
-0.16077783
-38.729887
-0.10164379
-39.123997
-39.904727
-0.097299593
-25.46138
0.28760274
-0.049355363
-29.568218
-0.066570685
-33.434484
-0.08499289
-35.606686
-0.11797716
-37.255733
-0.097633664
-38.134459
-0.066525985
-38.760995
-0.044377108
-39.146146
-39.949104
0.014986243
-25.682502
0.20613601