/*--------------------------------*- C++ -*----------------------------------*\
  =========                 |
  \\      /  F ield         | OpenFOAM: The Open Source CFD Toolbox
   \\    /   O peration     | Website:  https://openfoam.org
    \\  /    A nd           | Version:  11
     \\/     M anipulation  |
\*---------------------------------------------------------------------------*/
FoamFile
{
    format      ascii;
    class       surfaceScalarField;
    location    "0.301";
    object      phi;
}
// * * * * * * * * * * * * * * * * * * * * * * * * * * * * * * * * * * * * * //

dimensions      [0 3 -1 0 0 0 0];

internalField   nonuniform List<scalar> 
1652
(
2.843686947071611
0.8895636090847454
4.440892098500626e-16
1.95412333799325
0.889563608876347
3.499422973618493e-13
1.064559753988
0.8895633927478943
5.988542994828094e-13
0.8895612303339899
4.242828310907498e-12
0.1749994508523647
2.84368694707674
1.779127218162465
1.954123337971891
1.779127218335316
1.064559805700123
1.779125924575546
1.778987944946156
0.1750717272577819
2.843686947090738
2.668690827246923
1.95412333766936
2.668690827801462
1.064559754619946
2.668690592639229
2.666902991452245
0.1758041320438973
2.843686947092915
3.558254436314459
1.954123334968524
3.558254445132105
1.064558719520936
3.558249443375344
3.546065649967553
0.1800029705294739
4.41865202548693
2.87285296705431
5.279049614656242
2.87285296694781
6.139447216586077
2.872852955642359
2.87285423572003
6.999842350007037
4.418652030541477
2.012455434331098
5.279049595785752
2.012455355173073
6.139447459997974
2.012455160198859
2.012433422847485
6.999802232210887
4.418643694728895
1.152072976186127
5.279023107457337
1.152044970278444
6.139984376328846
1.151414142966477
1.152530986516442
7.0002534437659
4.422576999067547
0.2564715657581236
5.438333083513804
0.1076424564212638
6.513148045709492
0.03596198397208017
7.597904111995516
0.01601214892494085
6.941497019692195
0.05840242664392192
6.883186287230726
0.05835872024630762
6.824810433137454
0.05829553179805058
0.05826386567746034
6.766483740088129
6.941481402553054
0.1171858442429629
6.88332905972664
0.1164199765932081
6.82541702616549
0.1159424487129297
0.1154248981782227
6.767824830589862
6.952814779366376
0.159377857237113
6.910751916257421
0.150782649829273
6.87600505307944
0.1388191740940632
0.1263443494249637
6.850164069323199
7.708123818521456
0.007719545930152227
7.796801048099106
0.01022948196236884
7.877081589752344
0.00576642903729363
7.935713728907406
0.008427536422383253
7.937819494834605
0.1132472640227561
-0.1558083260493534
7.804868674114442
0.1535730027920048
-0.0516014883474919
7.656481581271467
0.1408866954993734
-0.01371619199945412
0.1316523054056641
7.527170810023018
-0.01105977968950633
6.931449258105416
0.004583648485290359
7.038094808881912
0.01322095541795376
7.115832425678958
0.02472397074317212
0.03856896727600734
7.169336033505256
6.770504960187902
0.0002721667913204717
6.778289174595305
0.0008471582107476561
6.791898016402826
0.0023639480447466
0.005151083842244497
6.810456996176481
6.766561614888123
6.766758771662128
6.767332640038515
6.76888189218086
6.771866584487878
-0.009274945344563634
6.774181496193675
-0.01351676808389501
6.774741278427651
-0.01688422426574876
-0.01871013973122282
6.774386986100891
6.832531829422879
-0.05318037394526176
6.854616462879559
-0.05992217577022818
6.876442200878137
-0.0625502672793693
-0.06237428120796673
6.895832250317182
7.202255478985356
-0.1220971759763969
7.217559413683182
-0.109106365140282
7.228018725717642
-0.09605350778801403
-0.08077676419208513
7.224976268830178
7.415532853077679
-0.01055675623680935
7.343986874447548
-0.008023518299820898
7.289585858998527
-0.005379397282091414
7.246550173472611
-0.004519411949326702
0.06904473491834362
7.205936792264695
-0.003942436876103905
0.05772930589072944
7.208852357079174
0.01865471722982481
6.899495451622949
6.77217657594245
0.04960963299646026
7.188152039944705
0.00048256316070866
0.05339791632360857
7.181813015391929
0.01733009058528712
6.893352138279687
6.769462703092888
0.04119180004191197
7.277148712263473
-0.08438019883961262
0.04290916776061493
7.15678755621307
0.01470225786296131
6.876858465639391
6.767121144376904
0.0429704095533141
7.551987126325008
-0.2880824394933169
0.02561563625931107
7.145029906364304
0.01015260431320841
6.853212970617605
6.762442318477674
0.1508843041256563
6.60672972370339
0.3037325950384137
6.667922348205476
0.4065561538214486
6.963734366252827
7.592630232225799
0.1659050156582969
0.1536010903116094
6.451964509677205
0.3012465664155141
6.490160451468208
0.2792957985253355
6.824912669677803
7.30251808898729
0.1844182235788561
0.1535734522074763
6.29784611591662
0.2920889210541234
6.325667985943304
0.1712288745344689
6.705213679000548
6.983591567743697
0.127596128578033
0.1516331562489164
6.144342678994528
0.2702439469483721
6.173916996447729
0.04438412727249119
6.589544925529905
6.594538042472946
0.08926954285328215
0.07701674909588585
6.115600889987507
0.09347866694364704
-0.2293578409396514
6.479726641749314
-0.1470524721505452
6.036149517396961
5.991519364907854
0.1827458840494076
5.610617274192103
0.059911022090674
-0.1470488702940315
6.330317915620386
-0.1344745467043071
5.917205182060609
5.842466747125313
0.3035650018450129
5.150781317289797
-0.0006686671108852016
-0.02062343387509313
6.11107080758301
-0.111160161115977
5.810404913832508
5.698367677529044
0.3602196372814435
4.723994600203528
-0.02330014623619647
0.1603879735257953
5.868182687844845
-0.06132290528530593
5.716252361852633
5.568469387130856
0.03172954001118433
5.406227808408016
-0.2708642947504127
5.536902793983859
-0.3269147979451293
5.538837568606128
4.482537962317059
-0.006539095873703271
-0.0584251416242495
5.263991392412917
-0.2773981629327706
5.322853354654161
-0.1700835796265595
5.323884889498582
4.380935283492545
0.01501461533242032
-0.07158833664964759
5.117668544133306
-0.1798490081961239
5.098241717300473
-0.01160804617427769
5.114882929962548
4.350393699228471
0.1135858181383014
-0.03364193185604647
4.923182616939417
-0.05961531542838527
4.855701771764016
0.1815291160868417
4.9018535894867
4.300044242675746
0.3386787803742446
-0.5730054023670581
5.252062240862871
-1.077890761751366
5.226938672762715
-1.308622487261449
5.179582242891082
4.352433202127898
-1.269713791388413
-0.5276497364741055
5.58187243671684
-0.9228391263256952
5.559719395736212
-1.127003680227753
5.438218769614018
3.676147546697584
-0.3760025794287182
-0.4665944298764454
5.902263373218197
-0.7949553101890925
5.896197824697849
-0.9167595252828125
5.638566001579769
2.852650823225782
-0.03605113684674265
-0.411317666500666
6.211852975109903
-0.732501592410526
6.216713798541299
-0.6801730166419715
5.775804039843091
2.275950393304177
-0.02049090122955815
0.274023933804716
2.225724047039418
-0.01485479961159567
0.3593951967392129
5.900307365133318
0.2110987475727237
6.355096217180554
6.354593162562955
0.2758832046524862
2.221960331925084
-0.01461209320918679
0.3361541067259586
6.03480425537373
0.1871306126521814
6.527360488064247
6.496129453227327
0.2657818962165734
2.107681169979323
-0.009356669104871968
0.3150018170242744
6.145677963693977
0.1664177225189257
6.709641453016732
6.637841009816578
0.2288417809563361
2.001710281633174
-0.001596514157808145
0.2865594617715805
6.267123939801579
0.1698433703153406
6.859292111950635
6.792487637823096
-0.3373560994589475
2.59843401433345
-0.02619265618347405
-0.1399776033319871
6.418902699687653
-0.0113886078111145
6.76036295253593
6.768687610420958
-0.3661089314203067
3.327926284386769
0.02332550139577261
-0.113269469288017
6.512467770034306
-0.008371200719877292
6.732884386543626
6.766316033717495
-0.3318321317793171
3.96228141280085
0.08352559519977039
-0.08000024988230559
6.48570674702363
-0.005121402851108403
6.730029587558244
6.765664301219797
-0.2875213383853798
0.1516045073849835
4.414047042352582
-0.06013772962851616
6.424634868092979
-0.002594727516812334
6.729985288328134
6.765977858197917
0.5898701644364164
-0.2616033995828879
-0.02131607586884042
-4.816591570033779e-12
1.822433722116862
-0.6256530594880152
5.181322038083636e-11
2.842664658781114
-0.849498137539368
-3.640021617457023e-11
-0.8740124762915653
3.777813617489301e-10
0.6118951165216617
-0.5462674322528076
-0.02268512869114419
1.810279881361542
-1.299725771061011
2.841226598297039
-1.698302617023477
-1.748019242759141
0.6300959468970515
-0.9296467367606267
-0.02304414221573104
1.79652109288799
-2.027204670755757
2.839384886672556
-2.55249513478222
-2.622001528086627
0.66056018378324
-0.02319083008229346
-1.51751389902889
1.789772733249859
-2.860553736806151
2.838430889653598
-3.409001136475419
-3.496223431513945
-0.2875213383873476
-3.962281412814397
0.1516045073847709
4.414047042363713
-0.06013772963091335
-6.48570674700024
6.424634868086774
-0.002594727577106992
-6.730029587550399
6.729985288311721
-6.765664301297294
6.765977858236365
-0.331832131789814
-3.327926284397189
0.08352559520101548
-0.08000024991390275
-6.512467769992398
-0.005121402849476819
-6.73288438664137
-6.766316033824689
-0.3661089314288434
-2.598434014349539
0.02332550139628888
-0.1132694692897096
-6.41890269965416
-0.008371200785238786
-6.760362952519057
-6.768687610424237
-0.3373560994608361
-2.001710281641741
-0.02619265618428848
-0.1399776033104581
-6.267123939800246
-0.01138860774618955
-6.859292112016355
-6.792487637864832
-0.2110987475533199
6.354593162748523
-6.211852975272096
-0.3593951967096345
6.355096217238681
-6.216713798545111
-0.2740239337946198
5.900307365099435
-5.775804039803659
2.225724046999292
-2.275950393263844
-0.01485479961217991
-0.1871306126470563
6.496129453376962
-0.3361541067062177
6.527360488124093
-0.2758832046439622
6.034804255330685
2.221960331899562
-0.01461209320945118
-0.1664177225430186
6.637841009914138
-0.3150018170146082
6.709641453060375
-0.2657818962074123
6.145677963650916
2.107681169966797
-0.009356669104745648
-0.1698433703038795
-0.286559461759575
-0.2288417809532259
-0.001596514158573432
0.6801730166419498
-2.852650823200502
-0.02049090122888669
0.7325015924081559
-5.638566001529524
0.4113176664776421
-5.896197824713384
-5.90226337327586
0.9167595252870306
-3.676147546672959
-0.03605113684577425
0.7949553101913793
-5.438218769544954
0.4665944298653023
-5.559719395807583
-5.581872436529573
1.127003680235221
-4.352433202091612
-0.3760025794255829
0.9228391263493363
-5.179582242820842
0.5276497365351525
-5.226938672817618
-5.252062240093269
1.308622487276097
-4.300044242637585
-1.269713791386013
1.077890761789215
-4.901853589458527
0.5730054024052236
-4.855701771817367
-4.923182616903747
0.03172954001689932
5.406227808500201
-5.568469387263081
-0.2708642947681259
5.536902794002402
-5.71625236181433
-0.326914797950539
5.538837568545651
-5.868182687743281
4.482537962324767
-4.723994600268449
-0.006539095852881482
-0.05842514166015478
5.26399139251102
-0.2773981629135169
5.322853354628386
-0.1700835796295006
5.32388488944411
4.380935283441049
0.01501461534797188
-0.071588336567458
5.117668545339148
-0.1798490081368064
5.098241717328098
-0.0116080461718342
5.11488292994666
4.350393699183702
0.1135858181367215
-0.03364193177277131
-0.05961531544093979
0.1815291160842905
0.3386787803691893
0.3602196373166617
-5.150781317312727
-0.02330014622387355
0.1603879735946411
-6.111070807555951
-0.06132290525670192
-5.81040491383671
-5.698367677624907
0.3035650018542811
-5.610617274098923
-0.0006686671199310767
-0.02062343383955889
-6.330317915648912
-0.1111601611029601
-5.917205182121382
-5.842466747166627
0.1827458840441903
-6.115600889841471
0.05991102207337828
-0.1470488703043507
-6.479726641708962
-0.1344745467033049
-6.036149517408501
-5.99151936489345
0.07701674913438084
-6.594538042516144
0.09347866697813856
-0.2293578409256822
-6.589544925528063
-0.1470524721423101
-6.173916996609359
-6.144342678905673
0.1508843041490113
6.6067297235349
-6.76244231837454
0.3037325950704325
6.667922348200682
-6.853212970607083
0.4065561538200718
6.96373436626631
-7.145029906345401
7.592630232253693
-7.551987126336181
0.1659050156567248
0.1536010902658133
6.451964509562204
0.3012465663687759
6.490160451345585
0.2792957985224375
6.824912669642456
7.302518088912582
0.1844182235692461
0.1535734522032878
6.297846115794715
0.2920889210401277
6.325667986048048
0.1712288745791518
6.705213679123355
6.983591567850075
0.1275961285837802
0.1516331562447802
0.2702439469566895
0.04438412724909613
0.08926954284129296
-6.767121144489408
-0.0101526043026795
-6.769462703106944
-0.01470225785786872
-6.77217657591313
-0.01733009060108381
-0.0186547172449778
-6.774386986054806
-6.876858465655721
-0.0256156362817842
-6.893352138261416
-0.04290916775162978
-6.899495451606064
-0.05339791633682445
-0.05772930590686765
-6.89583225037874
-7.156787556203572
-0.04297040956036302
-7.181813015400074
-0.04119180004324374
-7.208852357123115
-0.04960963299730203
-0.06904473490778407
-7.224976268879007
-7.277148712275646
-0.2880824394908061
-7.188152039947628
-0.08438019883463349
-7.205936792261302
0.0004825631609415848
-7.246550173456269
-0.003942436875393696
-0.01871013974535907
-6.774741278374472
-0.06237428121491395
-6.876442201082774
-0.08077676418881397
-7.228018725753581
-7.289585858943338
-0.004519411947293162
-0.0168842242913797
-6.774181496132138
-0.06255026729161206
-6.854616463195125
-0.0960535077808839
-7.217559413670485
-7.343986874341486
-0.005379397280699305
-0.01351676810925662
-6.771866584397853
-0.05992217578131764
-6.832531829688316
-0.1091063651317536
-7.202255478885951
-7.415532852944634
-0.008023518296995824
-0.00927494534777995
-6.768881892037015
-0.05318037396253505
-6.810456996158497
-0.1220971759690485
-7.169336033373774
-7.527170809870791
-0.01055675623350344
-0.0002721668119084475
6.766561615532307
-6.766483740984686
-0.004583648492349934
6.770504960243721
-6.767824831046013
-0.113247264020905
6.93144925812777
-6.850164069392255
7.937819494814327
-7.93571372897967
-0.1558083260450921
-0.0008471582815708922
6.76675877174458
-0.0132209554051359
6.778289174155881
-0.1535730028013381
7.038094808856558
7.804868674016308
-0.05160148835032735
-0.002363948062608978
6.767332639833097
-0.02472397071274723
6.791898015982775
-0.140886695501393
7.115832425581286
7.656481581129219
-0.01371619200068114
-0.005151083819723512
-0.03856896728655657
-0.1316523054077529
-0.01105977968820371
-0.1263443494234722
-7.877081589894387
0.008427536420099302
-0.1154248981932411
-6.876005053150156
-0.05826386574376063
-6.825417026474794
-6.824810434013866
-0.1388191741119696
-7.796801048237564
0.005766429041681898
-0.1159424486442375
-6.91075191630542
-0.05829553201130389
-6.883329059209184
-6.883186290271118
-0.1507826498494497
-7.708123818594779
0.01022948196433149
-0.1164199767172428
-6.952814779346157
-0.05835872007807252
-6.941481402389985
-6.941497019701578
-0.1593778572434609
-7.597904112033134
0.007719545911852865
-0.1171858442700591
-7.000253443674621
-0.05840242666893103
-6.999802232131461
-6.999842350019774
-1.152530986519927
-6.513148045718133
0.0160121489220294
-2.012433422852465
-6.139984376305365
-2.872854235727801
-6.139447460025706
-6.139447216582848
-1.151414142955996
-5.438333083511706
0.03596198395499461
-2.012455160186999
-5.279023107446915
-2.872852955641904
-5.279049595801074
-5.279049614653924
-1.152044970274473
-4.422576999048591
0.1076424564010442
-2.012455355165991
-4.418643694726701
-2.872852966949497
-4.418652030547303
-4.418652025486267
-1.152072976189265
-3.546065649979402
0.2564715657786698
-2.012455434327169
-3.558249443380558
-2.872852967057004
-3.558254445131882
-3.558254436315324
2.843686947076677
0.8895636090796775
1.954123338000148
0.8895636088735426
1.064559753993453
0.8895633927520483
0.8895612303497586
0.1749994508500966
2.843686947077597
1.779127218156558
1.954123337972768
1.77912721833196
1.064559805699173
1.779125924578902
1.778987944959927
0.1750717272542646
2.843686947089467
2.668690827242346
1.95412333766727
2.668690827798839
1.06455975461667
2.66869059264698
2.66690299147302
0.1758041320478345
2.843686947088577
1.954123334961846
1.064558719514948
0.1800029704937547
0.1749985209582807
0.1749985209560117
0.1749464778617771
0.1751055496716359
0.174735549110584
0.1759261754313952
0.1800455625559061
0.1743942770302243
0.175105549673944
0.1749464778607241
0.1750826636427319
0.1750826636425834
0.1749633027061012
0.1759171242773721
0.1781455625866936
0.176385103003092
0.1759261754293578
0.1747355491068271
0.1759171242740683
0.1749633027065813
0.1757775617521171
0.1757775617574326
0.1739456997818665
0.1791699281048332
0.1800455625933307
0.174394277026097
0.1781455626254489
0.1763851030035037
0.1739456998266143
0.1791699281066106
0.1734851556076926
0.1734851556336308
-0.07454186680385888
0.246354048894925
-0.1361608281613659
0.2389362948768926
-0.2046789908889874
0.2430524487413561
0.2246027687412407
-0.009039686490039167
0.2540426268138972
-0.03234290292618247
0.2604618503027976
-0.06107738091226134
0.2699232914173416
0.2691920632442396
0.00204782570412454
0.2504388751893311
-0.01050491634405837
0.2712570309761319
-0.02214903155562764
0.2794075350878133
0.2806774323641926
-8.196064199972319e-05
0.2488088608934196
-0.007848363475323472
0.2769732281670372
-0.01176808399289941
0.2813846721991078
0.2826005614609653
0.2812129024268991
0.007545102797748116
0.2810724697161426
0.008742907503487829
0.2796592507962466
0.005982667891653637
0.006336071751912142
0.2808116088130658
0.2808251088844778
0.006661529152315437
0.2808437445537868
0.007074559372794997
0.28050395601064
0.005193918529229291
-0.001021520186341163
0.287024856145465
0.2782351114972242
0.004054724008467736
0.278974139260813
0.004759086291779679
0.2796919925236573
0.00340949304325161
-0.02497266435994433
0.3027594520325314
0.251442485257219
0.2546585876155922
0.2570681960405382
0.2312331538195272
0.2561900674171395
-0.1313781562295224
0.2287075544814156
-0.02429647106287508
0.2199203698917251
-0.004851227731838437
-0.008798526030440734
0.2182692666151129
0.2507594554313906
-0.09534480203844842
0.2329806119478814
-0.006795771995350752
0.2280914979416749
9.110345045515444e-05
-0.004446035531679216
0.2246441305344952
0.2572618116345017
-0.05021809851401249
0.2426850243304217
0.007437695795567301
0.2360454742912879
0.006757896753957437
0.001479624502682464
0.2311009294823934
0.1803664154941118
0.1873181883972758
0.1941444538726225
0.1966490319535951
0.2181658318166294
-0.009282609510751716
0.2194909338077357
-0.007593104760257985
0.2222107616502267
-0.005843240736038535
-0.004571111563615171
0.2248427174296072
0.2227331529327675
-0.005980565093348045
0.2223328875808733
-0.005248265013377662
0.22323686328793
-0.004392441721788765
-0.002234264815852927
0.2244585425096766
0.2273943284305126
-0.0007241400180937885
0.2252385097323563
-0.001237798714306793
0.2244941761899998
-0.001251385984221032
-0.0008359374725578905
0.2240428077732997
0.1974943290888463
0.198148839356239
0.1993368515641308
0.2008477234557799
0.2279313173286507
-0.004326182710604531
0.2311829928712626
-0.000121223492463407
0.2561732779641142
-0.1181627442890143
-0.2641318134750115
0.2342007467755883
0.226830906688187
-0.004026374725849602
0.2300869361588277
-0.0006679197960186567
0.2476129941642926
-0.1467674208982054
-0.1773735367471659
0.1659312971796943
0.2246750677448475
-0.002592820762739312
0.2277457346215022
-0.001359867424130468
0.1825703296973926
-0.1092899253657819
-0.08177097234833119
0.09361039732223073
0.2003743483617696
0.2007568091059561
0.08087544549872377
0.006272516430477659
0.2582384840502827
0.1438189269887329
0.2622582211194674
0.1761434802639418
0.2672452104515284
0.1182200345259453
0.07458092179378384
0.276186763492845
0.2222381024567942
0.09389384831147096
0.2518618993247183
0.1440754420074917
0.2651646573827238
0.1007410086695881
0.06025518177101929
0.2744527171346575
0.1609914425993672
0.03353024575987595
0.222876612085637
0.08020431713254927
0.2518791521330579
0.0677807522499394
0.04355182268468227
0.264598798224622
0.0495743979048493
0.1286825096167191
0.1928681077699509
0.2328873831341595
0.2820236133090629
0.07441882539862421
0.2815506541239505
0.05086577658446334
0.2676037824492673
0.011101503319212
-0.01779948764908312
0.2651463958842385
0.28205694100909
0.05363063694648385
0.2834753870939148
0.04105783309572175
0.2768772353735593
0.01624536579269731
-0.01090099396767985
0.2721055313360202
0.2733836196131236
0.03224503113364252
0.280559549362622
0.02517221603513919
0.2811191606313245
0.01295159889915365
-0.003508397324567647
0.2765773296556602
0.2527119997336678
0.2699373196778211
0.2815475447009393
0.2833493474597899
0.276386724534386
-0.008001420698432682
0.2871618921774516
0.01519161850811634
0.3146434865877162
0.09553588970557814
0.2582643436369334
0.3940877967523112
0.2782360121429528
-0.005916805851806428
0.2889259468737795
0.01453033184927155
0.3152342218674467
0.07731483080062695
0.1712047555797405
0.4019415984634331
0.2810651603317413
-0.002530887496310474
0.2907234006217966
0.0131563567661942
0.3171048146434318
0.05716885078354206
0.03294751968304366
0.4569155216107496
0.2888958733997771
0.3107745102800438
0.3744263687144901
0.4085862686792194
0.1820750944575316
-1.060206988842975
0.01497565648038974
-0.2097399179917592
-0.002838299137047013
-0.01837609667201168
-0.01477157819351621
-0.00627158832681783
0.1239032484432028
-0.7809656647534836
0.003870591538177198
-0.09047365556628742
-0.005258945863077154
-0.009272884904384613
-0.009292982605127635
-0.00876628097854152
0.06526507656392821
-0.3878437263954426
-0.001288666748169316
-0.02518148171389199
-0.007009632038063143
-0.003952050218973711
-0.005284675484335002
-0.009419939042508837
0.02138352163124833
-0.005227965275414658
-0.008199080236306997
-0.0104149702189983
-0.007663751217881579
-0.010917228564138
-0.01035704745446255
-0.009822148374336051
-0.01239831871017866
-0.005615483918611771
0.0003309192413250527
-0.01140025323578081
-0.01005220411974937
-0.007793520138564757
-0.0116603131491016
-0.00610155720889999
-0.01195855818682805
-0.003000272604115107
0.001629419976510137
-0.009882329825510966
-0.01054778524122619
-0.004393580665905894
-0.01127248232909533
-0.003177498172362771
-0.01090092218607227
-0.0005490478578983604
0.001717676152129449
-0.007190424952356233
-0.01205229590892809
-0.01233618988263267
-0.009468145610479366
-0.003558650373478295
-0.006471602514068871
-0.02452299596309311
0.018975711798474
0.006937953271881181
0.05781050934472923
0.05531935613020646
0.1245618183624983
0.09357718032328106
-0.009086718294161278
-0.01864990855352009
0.006617097780005743
-0.001094469434908707
0.04283084638301243
0.02839932428642135
0.09134862531495702
0.08524922070791345
-0.009316797238960029
-0.01053771816233492
-0.00168911299365062
-0.001897889493163871
0.02638140363676578
0.007318918474797514
0.05246378471886731
0.07132442337879685
-0.009294370655319028
-0.005049669648613652
0.008339890792679661
0.0656942062384334
0.08519055406443957
-0.05120683280896553
0.06180433300008975
0.07523172384561598
-0.03595805931388204
0.04123451343428298
0.06372283987291619
-0.03998834590989632
0.04234949099071097
-0.0396805229299363
0.04910356984856658
0.04879313728348209
0.0727244210790074
-0.03481511863437333
0.06412685718932515
-0.02897230907419598
0.05226009187824401
-0.03320692960765524
-0.02726742739904173
0.03494785071890832
0.06190744671622837
-0.0225766538477854
0.05199616046377244
-0.02076164780018285
0.03472334554982331
-0.01953839466252536
-0.008987291297250514
0.01398180214446385
0.04427701155670372
0.02239580410831433
0.002127497813235762
-0.00856198845260233
-0.01056844304383985
0.001514246473268012
-0.00925945608327617
-0.001289584558377421
-0.005341200531501944
-0.003027843179095668
-0.004302115979341162
-4.381564555622219e-13
0.00522963668762521
0.01002721795319174
0.0005816104896134919
0.003986989449577559
-0.0005658964788871138
-0.001042176601651734
-0.003748216368362155
-4.674108322610948e-13
0.02589472582066044
0.01802429277875593
0.01640186341339475
0.01320066099875444
0.007507606930489172
0.007955144024957717
0.004145421522044546
-4.901148931146793e-13
0.043821840533672
0.03402738842358433
0.0184950283292658
-6.272135588680783e-13
-0.004302115979386352
0.005341200530652145
-0.003748216368421639
0.0005658964778892314
0.004145421521665901
-0.00750760693117835
-0.0184950283297623
0.0213160758678248
-0.00302784317911136
0.009259456082463306
-0.001042176601722251
-0.0005816104905635028
0.007955144024683666
-0.01640186341385345
-0.03402738842334488
0.02268512869020679
-0.00128958455840741
0.01056844304321451
0.003986989449550029
-0.005229636688463483
0.01320066099871089
-0.02589472582111987
-0.04382184053311328
0.02304414221543787
0.001514246473278472
0.008561988452183082
0.01002721795313326
-0.01398180214510695
0.01802429277871482
-0.03494785071933813
-0.04910356984786389
0.02319083008216516
-0.06372283987202695
-0.03968052292934131
0.04879313728304494
-0.07523172384487725
-0.03998834590899888
0.04234949098945247
-0.08519055406379618
-0.03595805931301746
0.04123451343273333
-0.05120683280787969
-0.09357718032266721
0.06180433299881287
-0.05226009187837639
-0.02726742739876375
-0.06412685718917178
-0.03320692960731617
-0.07272442107871631
-0.02897230907387634
-0.03481511863357778
-0.0852492207075254
-0.03472334554988369
-0.008987291297309935
-0.05199616046350052
-0.01953839466238453
-0.061907446716017
-0.02076164779998579
-0.0225766538472611
-0.07132442337849776
-0.002127497813289102
-0.02239580410783951
-0.04427701155619848
-0.06569420623746428
-0.008339890791847646
-0.05246378471903128
0.005049669648927863
-0.007318918474452804
0.009294370655395274
0.001897889493394214
0.01053771816268237
0.003558650373297592
-0.0263814036364578
-0.09134862531555007
0.001689112994255424
-0.02839932428671429
0.00931679723909665
0.001094469435296508
0.01864990855417145
0.007190424952121761
-0.04283084638314069
-0.1245618183629848
-0.006617097779786436
-0.05531935613115632
0.009086718294389947
-0.0069379532718023
0.02452299596392363
0.009882329825431916
-0.05781050934494956
-0.01897571179852006
0.006471602514345452
0.01140025323572585
0.01239831871022298
0.0003309192405111447
0.01035704745448609
-0.005615483918493848
0.007663751217753107
-0.009822148374371179
-0.01091722856412241
0.006271588326599805
0.01195855818659824
0.001629419975675173
0.01166031314899851
-0.003000272604116651
0.01005220411968474
-0.006101557208791445
-0.00779352013838786
0.008766280978442243
0.01090092218572442
0.001717676151565137
0.01127248232887738
-0.0005490478578423427
0.01054778524113729
-0.003177498172295543
-0.004393580665830564
0.009419939042426162
0.009468145609981569
0.01233618988241508
0.01205229590881648
0.01041497021892216
0.002838299137091413
-0.01477157819335644
-0.01497565647978367
-0.01837609667166853
-0.1820750944554909
-0.2097399179897695
-1.060206988837789
-0.3940877967505443
0.005258945863016558
-0.009292982605246492
-0.003870591537971873
-0.009272884904185543
-0.1239032484412427
-0.0904736555659346
-0.7809656647481317
-0.4019415984587456
0.007009632038132318
-0.00528467548440927
0.001288666748272251
-0.003952050218916691
-0.06526507656359043
-0.02518148171373663
-0.3878437263928916
-0.4569155216068432
0.008199080236127466
0.005227965275360978
-0.02138352163097146
-0.4085862686760348
-0.3146434865828415
0.2582643436311689
-0.2871618921759759
0.09553588970435734
-0.2763867245343313
0.01519161852015305
-0.008001420680112226
-0.2651463958850437
-0.3152342218615701
0.1712047555774038
-0.2889259468727928
0.07731483079969037
-0.2782360121434003
0.01453033185850183
-0.005916805840805228
-0.2721055313347275
-0.317104814639169
0.03294751968183485
-0.2907234006212215
0.05716885078390921
-0.281065160330608
0.01315635677065552
-0.00253088749278696
-0.2765773296532349
-0.3744263687112127
-0.3107745102787942
-0.2888958733990258
-0.2833493474587712
-0.2676037824483248
-0.01779948763371286
-0.2815506541178691
0.01110150330981119
-0.2820236133113487
0.05086577657336033
0.07441882542770362
-0.2761867634922636
-0.2768772353715135
-0.01090099396032618
-0.2834753870906082
0.01624536578787117
-0.2820569410115289
0.04105783308703603
0.05363063696977843
-0.2744527171349018
-0.2811191606299245
-0.003508397326238089
-0.2805595493627544
0.01295159889657704
-0.2733836196187187
0.02517221603050435
0.03224503114626898
-0.2645987982253717
-0.2815475446968702
-0.2699373196773521
-0.2527119997402937
-0.2328873831335224
-0.2672452104518005
0.07458092178439191
-0.2622582211148755
0.1182200345272376
-0.2582384840483296
0.176143480253025
0.1438189269924603
-0.2342007467794081
-0.2651646573828891
0.06025518176506062
-0.2518618993228394
0.1007410086692954
-0.2222381024605212
0.1440754419995424
0.09389384831532466
-0.1659312971830141
-0.251879152132797
0.04355182268194913
-0.2228766120849625
0.06778075224935964
-0.1609914426030851
0.08020431712941423
0.03353024576204533
-0.09361039732533122
-0.1928681077677013
-0.1286825096158915
-0.04957439790755205
-0.006272516430414654
-0.2561732779646285
-0.2641318134751618
-0.2311829928721485
-0.1181627442846376
-0.2279313173291566
-0.0001212234928738565
-0.004326182710090221
-0.2248427174290611
-0.2476129941654737
-0.1773735367484601
-0.2300869361598499
-0.1467674208949376
-0.2268309066888298
-0.0006679197968318396
-0.004026374727399973
-0.2244585425058757
-0.1825703297002364
-0.08177097234892927
-0.2277457346219911
-0.1092899253650563
-0.2246750677437575
-0.001359867425234806
-0.00259282076405698
-0.2240428077753334
-0.08087544549759373
-0.2007568091050343
-0.2003743483614505
-0.2008477234555755
-0.2222107616484478
-0.004571111556600727
-0.2194909338047092
-0.005843240735005195
-0.2181658318126932
-0.007593104757904867
-0.009282609507793416
-0.2182692666110695
-0.2232368632854857
-0.002234264819360399
-0.2223328875776598
-0.004392441721067675
-0.2227331529287545
-0.005248265011597919
-0.005980565091827317
-0.2246441305300241
-0.2244941761891306
-0.0008359374742393788
-0.225238509729276
-0.001251385984443187
-0.2273943284259004
-0.001237798713948912
-0.0007241400175114765
-0.2311009294777559
-0.1993368515626981
-0.1981488393544753