/*--------------------------------*- C++ -*----------------------------------*\
  =========                 |
  \\      /  F ield         | OpenFOAM: The Open Source CFD Toolbox
   \\    /   O peration     | Website:  https://openfoam.org
    \\  /    A nd           | Version:  11
     \\/     M anipulation  |
\*---------------------------------------------------------------------------*/
FoamFile
{
    format      ascii;
    class       volVectorField;
    location    "0.775";
    object      U;
}
// * * * * * * * * * * * * * * * * * * * * * * * * * * * * * * * * * * * * * //

dimensions      [0 1 -1 0 0 0 0];

internalField   nonuniform List<vector> 
4455
(
(99.983002 0.031225667 0)
(99.883609 0.030112544 -1.039549e-18)
(99.696374 0.12019171 3.5815178e-18)
(99.405229 0.067154761 2.6032668e-20)
(98.930258 0.22791694 3.414728e-18)
(98.405605 0.14591775 -1.294493e-17)
(97.561638 0.44280138 5.770415e-18)
(96.588704 0.23529061 0)
(95.02014 0.91684315 -3.6059043e-17)
(100.00349 0.079369576 -6.7513077e-18)
(99.893135 0.12185802 6.5966462e-18)
(99.693696 0.26758383 -8.1494947e-18)
(99.393167 0.23226004 1.3659824e-17)
(98.886124 0.39493748 -2.6357046e-17)
(98.349119 0.28425785 2.8975023e-17)
(97.40004 0.42666428 -2.8109911e-18)
(96.441622 0.17464726 4.1024269e-18)
(94.548018 -0.0082539313 1.5713674e-16)
(100.01692 0.10521382 -7.0386703e-18)
(99.927172 0.22889759 8.9319682e-18)
(99.689467 0.39423202 7.9782534e-18)
(99.403509 0.44548879 -7.9667968e-18)
(98.854737 0.58526603 3.5156741e-17)
(98.320722 0.57818882 -2.0014643e-17)
(97.346132 0.69711548 2.555699e-18)
(96.283613 0.24895565 -5.8471219e-17)
(94.41137 0.55721497 -1.1139576e-16)
(100.01956 0.13213046 5.9887503e-20)
(99.952727 0.31622315 -1.0327538e-18)
(99.701207 0.53824743 1.8866645e-17)
(99.410967 0.61499949 2.6068778e-18)
(98.88297 0.84537046 4.1808879e-21)
(98.275426 0.78626466 -3.8227323e-18)
(97.283014 1.1767993 4.3077102e-17)
(96.059791 0.50703523 1.1701978e-16)
(94.034359 1.2892421 9.3430548e-17)
(100.04103 0.17386466 1.3604233e-17)
(99.966763 0.37213036 -1.5276303e-17)
(99.729002 0.68282259 1.9450758e-17)
(99.418532 0.76738595 2.9340838e-20)
(98.918564 1.099639 -2.4038349e-17)
(98.271468 1.0157665 -7.4506307e-18)
(97.218921 1.4324112 -3.3962532e-17)
(95.909354 0.71903138 -5.509358e-17)
(93.675911 1.5866798 -2.7669962e-16)
(100.04719 0.19381508 0)
(99.995615 0.43749297 0)
(99.761052 0.80097184 -3.3964175e-17)
(99.446346 0.92347917 -3.9213626e-17)
(98.975596 1.3270058 0)
(98.306704 1.33201 -5.3723903e-17)
(97.160214 1.8548151 -4.5892437e-18)
(95.654923 1.0736811 -3.3444745e-18)
(93.1355 2.1692627 3.4304253e-16)
(100.07824 0.2191021 0)
(99.993262 0.46755453 -9.1432825e-19)
(99.813172 0.91945808 1.0291415e-18)
(99.481509 1.0541991 3.8327401e-17)
(99.026192 1.5110188 -2.859326e-18)
(98.348918 1.5304447 1.1435021e-16)
(97.19651 2.1288431 0)
(95.522507 1.3342995 0)
(92.718575 2.7225939 1.5959292e-16)
(100.09419 0.23305585 2.5327567e-17)
(100.02019 0.50092227 0)
(99.836752 0.99448282 0)
(99.560146 1.2198817 0)
(99.113806 1.7424201 0)
(98.401096 1.84962 -5.7069451e-17)
(97.151845 2.5497239 -6.1917367e-17)
(95.335748 1.7406035 9.1632541e-17)
(92.141947 3.416466 2.7249972e-18)
(100.11656 0.23778051 -2.4940385e-17)
(100.03745 0.5199199 -8.7345217e-19)
(99.878824 1.0423171 -1.000835e-18)
(99.593418 1.2854191 2.2514836e-18)
(99.222084 1.875636 8.7751098e-17)
(98.51044 2.0187814 1.001201e-16)
(97.259963 2.8522062 1.969966e-16)
(95.180495 2.0935261 -8.9917175e-17)
(91.685886 4.0624096 -2.7480151e-16)
(100.12383 0.23759383 0)
(100.13457 0.22791936 4.5732522e-17)
(100.13275 0.21336857 -4.5369472e-17)
(100.13004 0.19099746 4.3170499e-17)
(100.12548 0.16636739 -4.2200308e-17)
(100.11171 0.13669814 8.3818191e-17)
(100.09582 0.10520728 -8.1370652e-17)
(100.07915 0.071902351 0)
(100.03677 0.029161262 0)
(100.07051 0.53869239 0)
(100.08607 0.53908649 7.9641287e-19)
(100.11589 0.53286213 0)
(100.12688 0.51211002 2.2559676e-18)
(100.14492 0.48211041 4.5748228e-17)
(100.16397 0.44474516 -1.3636065e-16)
(100.15978 0.39267787 8.8186731e-17)
(100.18669 0.34490836 -1.3402663e-18)
(100.14624 0.23400849 8.4478537e-17)
(99.92878 1.1139234 5.8477919e-17)
(99.985256 1.1529743 -1.1500679e-16)
(100.03907 1.169834 1.0935215e-16)
(100.10891 1.1664748 -3.6396643e-18)
(100.14392 1.1366418 -5.1279657e-17)
(100.22728 1.1057517 -1.5546098e-18)
(100.245 1.0305279 0)
(100.34122 0.98073432 2.9048441e-18)
(100.33895 0.81149006 -1.4052232e-18)
(99.681082 1.41884 6.145937e-17)
(99.765587 1.5205855 -1.2466953e-16)
(99.849607 1.5877941 1.1808088e-16)
(99.972642 1.6449185 -5.7111916e-17)
(100.0437 1.6483303 -3.566283e-18)
(100.18372 1.670401 1.6992665e-18)
(100.24577 1.6162495 0)
(100.4057 1.6016584 -1.5843923e-18)
(100.42479 1.4365559 9.5066511e-17)
(99.293743 2.080302 -7.0483377e-17)
(99.474106 2.2872636 0)
(99.551576 2.4298408 -6.4378996e-17)
(99.760151 2.5831496 6.6372988e-17)
(99.850937 2.6523408 -5.9369767e-17)
(100.06976 2.760211 6.1341566e-17)
(100.17448 2.7590432 0)
(100.41104 2.8352591 0)
(100.4972 2.6914135 3.3868014e-18)
(98.574219 2.3007069 -8.7329171e-17)
(98.752292 2.6276435 -8.2912032e-17)
(98.851751 2.8523833 7.9703529e-17)
(99.058132 3.1508466 7.5715328e-17)
(99.203672 3.2939687 -7.2996193e-17)
(99.43546 3.5636354 0)
(99.619696 3.6095598 1.3295041e-16)
(99.872532 3.852814 -1.0685827e-18)
(100.03374 3.7466925 -2.4593442e-16)
(97.243895 3.2259811 -1.0431991e-16)
(97.44314 3.8223046 0)
(97.542646 4.096121 0)
(97.81915 4.6197438 2.8889784e-18)
(98.028625 4.8079316 0)
(98.367095 5.3326454 0)
(98.666182 5.4508469 0)
(99.054782 5.9663744 0)
(99.350904 5.9491523 0)
(95.070518 2.5684102 4.2544397e-18)
(94.894429 3.5264757 0)
(94.997645 4.1378137 3.8226894e-18)
(94.987549 5.173321 -6.9592221e-18)
(95.371984 5.6601702 -1.0397342e-16)
(95.577457 6.56881 -9.7324044e-17)
(96.101299 6.8808995 1.8813257e-16)
(96.435625 7.6419759 1.7915788e-16)
(97.009765 7.7908326 -1.6954518e-16)
(90.858145 4.9044902 5.2313856e-16)
(90.34073 6.9527116 -3.236129e-16)
(90.171037 8.2681459 2.9996801e-16)
(90.711276 10.339558 -2.8534538e-16)
(91.328216 11.345667 -3.9639461e-16)
(92.371481 12.977058 7.3544875e-16)
(93.181442 13.608213 -4.6222546e-16)
(94.372882 14.906879 -2.1317474e-16)
(95.112615 15.155145 2.0056404e-16)
(100.05468 0.045971013 -1.1093639e-19)
(100.08359 0.064669345 1.1373391e-16)
(100.12863 0.089803883 -1.401368e-19)
(100.1881 0.11798025 -1.1447004e-16)
(100.26082 0.14747782 1.1162899e-19)
(100.34867 0.1778139 1.1466757e-16)
(100.45228 0.20945271 -1.1522588e-16)
(100.57349 0.24176756 -1.117612e-19)
(100.72438 0.28407422 -5.7522425e-17)
(100.21058 0.2630371 -1.2124948e-16)
(100.2533 0.35598836 1.217716e-16)
(100.36322 0.36548914 -1.2182672e-16)
(100.43778 0.4885388 0)
(100.58885 0.48506319 1.2208533e-16)
(100.69647 0.63425374 -2.6311084e-19)
(100.88482 0.61430455 -2.0718257e-19)
(101.02784 0.78643404 -1.2205965e-16)
(101.25937 0.7459279 6.0916857e-17)
(100.47314 0.88475542 1.2915408e-16)
(100.51414 1.0583817 -1.2967881e-16)
(100.682 1.106547 -1.2998687e-16)
(100.7361 1.2913353 1.3028338e-16)
(100.92711 1.3371021 -1.3067072e-16)
(101.0006 1.5477146 1.3022219e-16)
(101.22863 1.5923078 -1.3065154e-16)
(101.32712 1.839292 4.2368662e-19)
(101.59972 1.8767641 1.3036247e-16)
(100.61077 1.5563151 -1.3901431e-16)
(100.63985 1.7970106 -5.4413633e-19)
(100.84407 1.8920001 5.4902348e-19)
(100.87104 2.1334548 0)
(101.0937 2.2263017 -3.9873526e-21)
(101.14224 2.4989114 -1.3932544e-16)
(101.40612 2.5910459 1.4163016e-16)
(101.48444 2.9081502 5.4989533e-19)
(101.79997 2.9894611 5.492354e-19)
(100.73932 2.8741554 -5.8842145e-19)
(100.75811 3.1928427 -1.5152648e-16)
(100.98945 3.3417227 -8.0940146e-20)
(100.98363 3.6347756 1.5251657e-16)
(101.22859 3.7760464 1.5271102e-16)
(101.24998 4.1029756 -1.5347552e-16)
(101.54236 4.2419526 -5.9320319e-19)
(101.59792 4.6180837 -5.9292033e-19)
(101.94972 4.7435745 -5.9245465e-19)
(100.33262 3.9952485 1.6765014e-16)
(100.32579 4.3978299 0)
(100.6017 4.6026641 0)
(100.56805 4.9750064 1.6708622e-16)
(100.86437 5.1662628 -1.693208e-16)
(100.86712 5.5757028 -1.685942e-16)
(101.21548 5.7587399 3.3670837e-16)
(101.25815 6.2137823 -1.0973322e-18)
(101.66498 6.3748949 -3.3613661e-16)
(99.722191 6.3923084 -7.5140489e-19)
(99.776178 6.8690323 0)
(100.04194 7.1649821 7.4829926e-19)
(100.06806 7.5499778 1.886683e-16)
(100.36391 7.8098957 -1.8983104e-16)
(100.44926 8.1755191 1.8867173e-16)
(100.80094 8.4193383 -1.890852e-16)
(100.93935 8.7622728 -7.3579798e-19)
(101.32525 8.9789875 1.8718459e-16)
(97.411504 8.3637482 -2.1438008e-16)
(97.866222 8.9708408 2.1720288e-16)
(98.252261 9.3800689 -2.1456574e-16)
(98.737748 9.8857818 2.1348076e-16)
(99.160498 10.198687 -2.0883128e-16)
(99.68211 10.6151 1.9270849e-18)
(100.12642 10.837373 2.0972896e-16)
(100.64512 11.154893 1.6058435e-18)
(101.05872 11.264726 1.0199858e-16)
(96.238085 16.077179 0)
(96.716254 16.537889 -2.3786377e-16)
(97.763618 17.15917 4.8800579e-18)
(98.251899 17.357647 5.6917127e-18)
(99.32307 17.661572 4.6015742e-16)
(99.823868 17.472252 -2.2838765e-16)
(101.02659 17.251303 -2.2202266e-16)
(101.4323 16.478177 2.2305039e-16)
(102.82972 15.439908 1.0973047e-16)
(102.95036 14.177346 -1.2805952e-16)
(103.59627 12.871982 0)
(103.46412 12.062077 1.259943e-16)
(103.59575 11.209996 -1.259816e-16)
(102.90146 10.653142 0)
(102.56749 9.9014155 0)
(101.50196 9.3894168 0)
(100.9723 8.778894 -1.3813014e-16)
(99.775591 8.4575542 1.3813117e-16)
(101.47964 11.45504 -1.1618265e-16)
(101.77044 11.576161 0)
(102.08722 11.636657 0)
(102.28335 11.660476 0)
(102.4407 11.638545 0)
(102.48122 11.656115 0)
(102.43669 11.660195 0)
(102.34995 11.738529 1.1230295e-16)
(102.12352 11.747914 -2.2613496e-16)
(101.47607 9.2713919 -1.488008e-18)
(101.83012 9.5503533 -2.0435033e-16)
(101.957 9.7902733 0)
(102.2898 10.041383 -1.0012497e-16)
(102.37278 10.265183 1.0012487e-16)
(102.66067 10.484294 0)
(102.67877 10.693362 0)
(102.91096 10.913096 0)
(102.84752 11.136579 0)
(101.70156 6.8320259 1.803027e-16)
(102.12744 7.0632522 0)
(102.16872 7.5073818 8.8278959e-17)
(102.59785 7.7296256 -1.7592536e-16)
(102.63902 8.1706585 8.7641607e-17)
(103.06913 8.3941756 0)
(103.09881 8.8403685 0)
(103.53111 9.0809245 0)
(103.53642 9.5416965 8.4520002e-17)
(102.01393 5.1566787 0)
(102.40365 5.3086572 1.5834873e-16)
(102.48006 5.7448377 -2.3694877e-16)
(102.89996 5.8956471 7.8595269e-17)
(102.98721 6.3496139 7.7352858e-17)
(103.43367 6.5053376 -6.5404992e-19)
(103.52565 6.9793094 -1.5272155e-16)
(103.99921 7.1481014 1.5135338e-16)
(104.08907 7.6470505 -7.5327552e-17)
(101.8956 3.3474765 0)
(102.25654 3.4442093 7.1638344e-17)
(102.37577 3.8355183 -7.1640571e-17)
(102.7793 3.9259805 0)
(102.92343 4.3476873 -1.3977334e-16)
(103.36954 4.4339534 1.3977475e-16)
(103.53701 4.888271 6.8525583e-17)
(104.02874 4.9739081 -1.3631232e-16)
(104.21685 5.4649115 6.7785255e-17)
(101.71663 2.1612801 0)
(102.03256 2.2060938 0)
(102.17398 2.5272263 0)
(102.53518 2.5673054 -6.4760133e-17)
(102.70394 2.9250791 1.2896724e-16)
(103.11252 2.9600543 -1.278209e-16)
(103.31086 3.3572723 6.3613019e-17)
(103.77185 3.3869623 -6.2295791e-17)
(104.00168 3.827411 1.2386146e-16)
(101.43043 0.9442916 -1.2317841e-16)
(101.7097 0.89781319 4.2801342e-19)
(101.91601 1.1334117 6.0968641e-17)
(102.23949 1.0719908 -6.0003487e-17)
(102.48384 1.3389686 6.0003568e-17)
(102.85342 1.25904 0)
(103.13858 1.5561238 5.8254879e-17)
(103.56005 1.4558518 -1.158331e-16)
(103.88844 1.7896254 5.7578859e-17)
(100.81681 0.33919762 3.0033626e-19)
(101.04733 0.34745915 5.7963409e-17)
(101.19595 0.47580948 5.7306693e-17)
(101.49656 0.47889614 -5.7306699e-17)
(101.679 0.59452139 0)
(102.01135 0.60788605 0)
(102.22929 0.73088334 -5.5534321e-17)
(102.63208 0.73766933 1.1051409e-16)
(102.91077 0.85163947 -5.4979752e-17)
(103.36804 0.87881724 0)
(103.70741 1.0230581 -5.2975719e-17)
(104.24122 1.0442647 7.9138113e-19)
(104.66046 1.174144 8.6017884e-19)
(105.26528 1.2237529 9.3014436e-19)
(105.75783 1.3674045 5.0394011e-17)
(106.45026 1.4135788 4.8294087e-17)
(107.04183 1.5663229 -4.8294089e-17)
(107.82107 1.6332261 0)
(104.37357 1.670906 0)
(104.75203 2.0507037 0)
(105.30293 1.9116301 -5.4340421e-17)
(105.72892 2.3396905 9.593632e-19)
(106.35742 2.1837838 1.0301195e-18)
(106.84136 2.6724457 5.2351406e-17)
(107.55259 2.4972282 5.0076436e-17)
(108.09341 3.0503384 -5.0074551e-17)
(108.90211 2.8577424 0)
(104.52193 3.8536644 -6.156596e-17)
(104.78446 4.3446439 0)
(105.36889 4.3689036 0)
(105.66585 4.9153302 -5.8119507e-17)
(106.32378 4.9402362 1.1522722e-16)
(106.6577 5.5532649 -1.077563e-18)
(107.39563 5.5807375 -1.1493192e-18)
(107.77116 6.2684178 -5.4880604e-17)
(108.60207 6.2984905 0)
(104.75774 5.5552609 -6.6182104e-17)
(104.96327 6.0890807 6.6181305e-17)
(105.55754 6.1904925 0)
(105.77788 6.7753201 0)
(106.43193 6.8946105 6.2436998e-17)
(106.66674 7.5426663 -6.2436193e-17)
(107.38981 7.6856052 6.0244528e-17)
(107.64205 8.4115796 -3.0719144e-17)
(108.4475 8.5815059 -2.9523453e-17)
(104.59136 7.838772 -7.3881516e-17)
(104.67262 8.371243 7.3879244e-17)
(105.20785 8.5968123 0)
(105.27553 9.17631 0)
(105.85182 9.4465173 0)
(105.90345 10.091646 0)
(106.53362 10.415547 0)
(106.57027 11.148237 0)
(107.27166 11.531789 0)
(103.97201 9.8176734 -8.4519967e-17)
(103.93994 10.303172 8.3345399e-17)
(104.38036 10.63567 -8.333926e-17)
(104.30067 11.161717 8.222285e-17)
(104.75223 11.565528 -8.2213334e-17)
(104.61934 12.157228 0)
(105.09977 12.641726 0)
(104.9141 13.329703 0)
(105.4507 13.902579 0)
(103.02463 11.401303 0)
(102.88047 11.644395 -9.7947416e-17)
(103.01655 11.995717 9.7914349e-17)
(102.76594 12.295473 0)
(102.89438 12.755313 9.8207806e-17)
(102.52885 13.146075 -9.8216293e-17)
(102.68237 13.738236 0)
(102.20074 14.254905 4.9432641e-17)
(102.40984 14.989694 -9.8973241e-17)
(101.95516 11.942383 1.135753e-16)
(101.50711 12.069982 1.1549778e-16)
(101.27906 12.357398 -1.1552443e-16)
(100.65268 12.623389 1.1807891e-16)
(100.37567 13.015626 -2.3765762e-16)
(99.585859 13.447129 2.4071123e-16)
(99.274275 13.960339 -2.4397122e-16)
(98.335751 14.588883 1.2281826e-16)
(98.008664 15.242997 0)
(99.157266 8.0505702 -1.4487242e-16)
(97.874068 7.9213668 1.4487327e-16)
(97.188811 7.6962288 0)
(95.824518 7.7401634 0)
(95.073376 7.6876982 0)
(93.605946 7.9126025 0)
(92.781978 8.0482286 0)
(91.192532 8.487801 -8.5504581e-17)
(90.268891 8.8543057 8.5503212e-17)
(88.553839 9.5692919 8.9646075e-17)
(96.938092 16.106567 0)
(101.82372 15.68148 4.9554162e-17)
(105.21943 14.718483 0)
(107.2989 12.375117 0)
(108.72464 9.4034591 0)
(109.02774 7.0751423 2.5462938e-17)
(109.51288 3.4909652 2.3010004e-17)
(108.51411 1.7932617 2.2222989e-17)
(87.523482 10.232973 -8.9644117e-17)
(96.622245 16.923695 0)
(102.10564 16.537163 0)
(105.84329 15.383403 3.893235e-17)
(108.09252 12.820701 0)
(109.62999 9.6009438 -2.7474291e-17)
(109.96361 7.1063781 -5.0169706e-17)
(110.43098 3.2790324 -4.5244973e-17)
(109.41454 1.8799698 -4.3695239e-17)
(85.679604 11.319644 0)
(95.444334 18.069493 0)
(101.45742 17.494889 4.9689841e-17)
(105.58109 16.359433 -3.8933487e-17)
(108.12081 13.797642 0)
(109.94398 10.537908 2.7474075e-17)
(110.44975 7.9825358 2.4706618e-17)
(111.116 4.0012819 2.2234488e-17)
(110.22216 2.0430383 2.1472244e-17)
(84.545698 12.385052 9.5997107e-17)
(95.17782 19.071605 0)
(101.81526 18.458736 -9.93223e-17)
(106.32638 17.113781 0)
(109.02951 14.302621 0)
(110.96912 10.758755 -2.5834874e-17)
(111.50473 8.0088524 -2.3021069e-17)
(112.15913 3.7682588 0)
(111.24881 2.1382094 -1.9778728e-17)
(82.596515 13.993419 -9.5997085e-17)
(93.933095 20.556107 -6.7144585e-17)
(101.14265 19.714204 4.963089e-17)
(106.05852 18.283983 0)
(109.07572 15.435245 0)
(111.33702 11.828844 2.5834794e-17)
(112.06637 8.9964433 2.3021282e-17)
(112.9358 4.5967854 0)
(112.19306 2.3153738 1.9778725e-17)
(81.393891 15.606629 0)
(93.77362 21.762888 6.7143458e-17)
(101.61122 20.788972 -4.9235329e-17)
(106.94411 19.097508 0)
(110.12265 15.989327 0)
(112.50424 12.064818 -2.390886e-17)
(113.25408 9.0099277 -2.1068238e-17)
(114.12088 4.3375425 0)
(113.35488 2.4372799 -1.7798509e-17)
(79.45113 17.968248 0)
(92.52652 23.652713 0)
(100.96774 22.381424 4.9235272e-17)
(106.7486 20.521133 -1.7950945e-17)
(110.21381 17.30034 -1.421965e-17)
(112.94597 13.282504 3.5318688e-17)
(113.90916 10.117696 3.1057145e-17)
(114.99787 5.2806578 0)
(114.44549 2.618168 2.6145403e-17)
(78.367772 20.333015 0)
(92.569851 25.0633 -3.4017242e-17)
(101.5989 23.551694 0)
(107.76996 21.362847 1.7944038e-17)
(111.41009 17.874297 1.4213027e-17)
(114.27308 13.520023 -5.9163302e-19)
(115.23905 10.102555 -1.9383234e-17)
(116.34122 4.9868143 0)
(115.75025 2.7549909 -8.3468973e-18)
(76.760149 23.793264 -5.1375925e-17)
(91.425617 27.488593 3.4009027e-17)
(101.05202 25.623688 0)
(107.71712 23.153786 0)
(111.63282 19.503437 0)
(114.84073 14.97305 -2.0985463e-17)
(116.05338 11.393187 6.4080843e-19)
(117.29337 6.025234 0)
(116.98014 2.9207767 0)
(118.63344 3.0743568 0)
(118.83218 5.737215 0)
(117.51118 11.217115 1.6700593e-19)
(116.2629 15.028382 1.0640451e-17)
(112.98017 19.851301 0)
(108.93624 23.817844 -2.2931079e-18)
(102.04213 26.662071 -6.7362437e-19)
(92.007377 28.967752 -2.8035452e-17)
(76.3008 26.981804 9.522241e-17)
(120.198 3.1804193 -2.9171861e-18)
(119.88504 6.6475033 -4.2767441e-19)
(118.50968 12.44259 4.3987747e-18)
(117.0857 16.428139 -8.2831816e-20)
(113.59047 21.458909 -5.0736406e-18)
(109.25729 25.646573 7.6069218e-18)
(102.04737 28.945976 -3.1700837e-18)
(91.712029 31.954123 3.5801793e-17)
(76.361055 31.725546 -4.8190783e-17)
(121.79974 3.2684789 5.4897662e-18)
(121.66841 6.3650461 0)
(120.28139 12.260853 6.9627065e-18)
(118.69867 16.402552 -3.9651904e-18)
(115.25691 21.684375 5.064445e-18)
(110.90527 26.172043 -1.410598e-17)
(103.85069 29.802333 -1.3547628e-17)
(93.823865 33.136158 7.9383977e-18)
(79.582097 33.486874 1.5932546e-18)
(123.51567 3.3583008 -2.5726482e-18)
(122.80264 7.2081563 -3.3572371e-19)
(121.41006 13.485524 -2.9434707e-18)
(119.74206 17.934725 4.5547512e-18)
(116.15903 23.457528 1.8741507e-18)
(111.57327 28.169784 7.3508175e-18)
(104.34938 32.227299 1.0657603e-17)
(94.22256 36.017396 4.3433979e-18)
(80.239419 37.537542 -4.9737124e-18)
(125.35475 3.4528983 4.0798755e-19)
(124.85399 6.9448709 -4.5775598e-19)
(123.45972 13.299415 -3.5598345e-19)
(121.55785 17.77451 1.1507137e-18)
(118.09291 23.517713 -1.8265813e-18)
(113.53847 28.5192 -2.3046906e-18)
(106.54585 32.878517 -2.8454303e-18)
(96.71058 36.973023 3.2132674e-18)
(82.94361 38.810996 -6.3064222e-18)
(127.3018 3.5474533 -4.1279295e-19)
(126.12016 7.8170332 4.63309e-19)
(124.70907 14.474681 -2.948605e-19)
(122.82813 19.399858 -3.9719615e-20)
(119.23132 25.375851 -4.547116e-19)
(114.45188 30.594825 1.5933908e-18)
(107.29563 35.334811 -2.7035888e-18)
(97.323019 39.810013 3.0604219e-18)
(83.679189 42.394082 0)
(129.33984 3.6317933 -1.3505132e-19)
(128.40889 7.5372981 -1.5761616e-19)
(127.00383 14.273267 -1.4088043e-19)
(124.8171 19.086384 -3.4570339e-19)
(121.32919 25.27459 -4.2449709e-19)
(116.58147 30.772782 1.6429784e-18)
(109.61072 35.791482 -4.3832168e-18)
(99.854773 40.537855 6.7850503e-18)
(86.383184 43.254691 -4.5052849e-18)
(131.46814 3.7028313 9.9345319e-20)
(129.83837 8.4132544 9.8875898e-20)
(128.37119 15.36122 4.681915e-19)
(126.30953 20.769365 8.1567205e-19)
(122.69631 27.174583 1.2671593e-18)
(117.74888 32.891032 -4.9968708e-19)
(110.63254 38.251665 -2.3672626e-18)
(100.7613 43.335561 -1.0218774e-18)
(87.44014 46.500827 -5.2688494e-18)
(133.68681 3.7499375 7.7994853e-19)
(132.28174 8.1139755 -1.0010885e-19)
(130.90028 15.130116 -3.1089653e-19)
(128.44444 20.291293 -5.7720782e-19)
(124.91975 26.89521 1.4094241e-18)
(120.02301 32.870003 1.6899066e-18)
(113.06754 38.48255 -1.014248e-17)
(103.4261 43.819965 2.4742012e-18)
(90.170923 47.048839 9.8367346e-18)
(91.475248 50.069052 -9.0760816e-18)
(104.62628 46.573311 3.2926282e-18)
(114.39489 40.923235 1.3460947e-17)
(121.47367 35.002683 -1.3753296e-18)
(126.5402 28.808467 -4.8577514e-19)
(130.15942 22.005562 -2.5105679e-19)
(132.41616 16.124694 -8.8652028e-20)
(133.92003 8.9695189 6.1383548e-20)
(135.99817 3.7776281 -2.2726845e-18)
(94.180388 50.405711 3.2807936e-17)
(107.42809 46.826164 1.9538033e-18)
(116.95768 40.900488 -1.6482101e-17)
(123.88767 34.750926 -1.76618e-19)
(128.87563 28.318343 -8.040086e-19)
(132.42462 21.349806 5.6033051e-20)
(135.12658 15.834436 3.372108e-18)
(136.47274 8.6703377 0)
(138.39647 3.784048 1.4824974e-18)
(95.664047 53.275567 -4.1770849e-17)
(108.89385 49.53756 1.9864055e-17)
(118.59365 43.293377 7.8424039e-18)
(125.62511 36.861505 -4.7115621e-20)
(130.77162 30.208746 -1.6998033e-18)
(134.29979 23.036019 1.1744041e-19)
(136.84369 16.681137 1.2052312e-18)
(138.2407 9.4386179 -5.0685679e-18)
(140.87422 3.7740944 -6.1537976e-18)
(98.318475 53.422124 -7.3971916e-18)
(111.80759 49.566773 6.814501e-19)
(121.25248 43.000219 -1.1365836e-18)
(128.14788 36.361601 0)
(133.19919 29.476071 1.8996942e-18)
(136.74484 22.258606 0)
(139.68824 16.290631 -4.6838821e-18)
(140.95718 9.1607385 1.2056686e-17)
(143.41861 3.7349067 -1.6994362e-18)
(100.05389 56.190189 -2.5859248e-18)
(113.52606 52.210469 -1.1796687e-17)
(123.19905 45.309992 8.124291e-19)
(130.16188 38.410878 0)
(135.36913 31.299234 6.6758271e-18)
(138.72556 23.820523 -7.6571596e-18)
(141.54365 16.984849 -4.391379e-19)
(142.8152 9.8275172 -1.5938068e-17)
(146.02151 3.6729824 8.0237779e-18)
(102.71048 56.121971 -2.6447239e-17)
(116.56859 52.043994 -5.7998507e-18)
(125.91128 44.726392 -7.8701213e-19)
(132.76151 37.651176 2.8842033e-19)
(137.85185 30.310447 2.8922179e-18)
(141.35271 22.945111 1.8038403e-17)
(144.5048 16.494355 -5.6521569e-19)
(145.65634 9.5365614 8.9415106e-18)
(148.66862 3.579594 0)
(104.80954 58.811782 1.8238184e-17)
(118.55493 54.523824 8.0186927e-18)
(128.1727 46.903756 -7.9712593e-19)
(134.9919 39.576937 6.34377e-19)
(140.27114 32.021953 -8.1964193e-18)
(143.44806 24.334317 -1.0798058e-17)
(146.46302 17.011991 -7.8299018e-19)
(147.58573 10.097318 7.1745953e-19)
(151.34772 3.4622138 0)
(107.51115 58.505825 0)
(121.75217 54.211044 4.091164e-19)
(130.94031 45.994635 -3.4870689e-19)
(137.72588 38.589327 2.3514706e-17)
(142.78816 30.768847 6.9517385e-19)
(146.2043 23.329709 -2.8831901e-17)
(149.49361 16.384698 3.0373448e-17)
(150.51492 9.7405133 -2.9759168e-17)
(154.03006 3.3080611 -3.2020296e-17)
(110.0601 61.115059 2.1857497e-17)
(124.02847 56.424425 -1.2163867e-17)
(133.38084 47.974743 8.0458029e-19)
(140.03812 40.32156 -2.4813703e-17)
(145.34713 32.334824 1.0605853e-18)
(148.39725 24.507033 2.9308397e-17)
(151.4775 16.697462 -3.2770536e-17)
(152.51449 10.212183 3.1162147e-17)
(156.69152 3.1410187 -3.9391858e-18)
(159.52354 2.9110989 3.6045289e-17)
(155.4803 9.7583369 -3.7891368e-17)
(154.54696 15.92174 0)
(151.28644 23.333113 2.1719613e-18)
(147.9868 30.803169 -4.1238227e-17)
(143.03937 39.095335 -3.5767565e-17)
(136.39666 46.72727 0)
(127.58823 55.871908 -9.5235501e-18)
(113.06941 60.482512 -2.107577e-17)
(162.05728 2.6068927 0)
(157.56917 10.017535 3.9212315e-17)
(156.55858 15.954232 0)
(153.65977 24.159709 2.5497884e-18)
(150.83538 32.032918 8.2742971e-17)
(145.68947 40.487148 3.8923647e-17)
(139.34692 48.348334 -4.0364349e-17)
(130.65325 57.867687 2.0788258e-17)
(117.09086 63.362686 -4.6520252e-18)
(164.46551 2.2313752 0)
(160.5434 9.3402645 0)
(159.60989 15.035192 5.1598769e-17)
(156.65546 22.728091 0)
(153.61831 30.232106 -4.6884146e-17)
(148.9383 38.957363 5.1830321e-17)
(142.64602 46.670964 3.6719905e-17)
(134.70745 56.803932 2.7170751e-18)
(120.71646 62.092973 -1.4610344e-17)
(166.83288 1.8015682 0)
(162.61231 9.4472168 0)
(161.5659 14.855037 -5.2669871e-17)
(159.06022 23.245085 -5.5486197e-17)
(156.53723 31.122131 -6.1228486e-17)
(151.64643 40.018928 -5.7089482e-17)
(145.64722 47.807026 0)
(137.99842 58.151996 -5.5475697e-17)
(125.77696 64.523773 1.9097736e-17)
(169.06254 1.3634046 -8.6090164e-19)
(165.48064 8.6826289 9.4696334e-19)
(164.52592 13.771715 0)
(162.0062 21.567441 -5.7249697e-18)
(159.28465 29.085896 1.3542508e-16)
(154.94508 38.244169 -4.3771415e-18)
(148.93602 45.805725 -6.7293706e-17)
(141.85602 56.591982 6.0751141e-17)
(129.77893 62.775665 -6.0060647e-17)
(171.11691 0.91703048 9.4020007e-19)
(167.40482 8.6706027 -1.0359812e-18)
(166.37333 13.398258 0)
(164.33364 21.78992 7.181621e-17)
(162.20008 29.638177 -8.0116063e-17)
(157.65613 38.997368 4.9983064e-18)
(151.81758 46.588354 6.9602607e-17)
(144.97019 57.287915 0)
(135.7415 64.362675 5.9919748e-17)
(172.98085 0.47133839 -1.0197636e-18)
(170.08742 7.794716 -7.0263858e-17)
(169.14795 12.163337 2.2587266e-18)
(167.12141 19.885182 -7.8588645e-17)
(164.8379 27.361724 -9.2010237e-17)
(160.94712 37.015589 0)
(154.92489 44.4526 0)
(148.22533 55.21338 9.3492991e-17)
(140.59243 61.949375 0)
(174.75637 -0.048050847 0)
(171.75456 7.6381415 7.2862447e-17)
(170.80211 11.636766 0)
(169.27764 19.834595 8.8150189e-17)
(167.6581 27.549473 8.3123908e-17)
(163.64406 37.466578 -1.0281368e-16)
(157.57483 45.14515 0)
(150.6827 55.255723 -1.0386217e-16)
(147.36121 62.354886 1.5188984e-16)
(175.7027 -0.50761974 0)
(174.16242 6.660587 0)
(173.32358 10.294393 2.6797786e-18)
(171.81373 17.711416 2.7962934e-18)
(170.39503 24.68283 -6.4701452e-18)
(166.97489 35.212912 1.0613202e-16)
(160.95006 42.867993 0)
(153.09396 52.341852 0)
(151.88197 59.387721 -1.5163204e-16)
(177.27014 -0.71510843 2.4772887e-18)
(175.43579 6.498678 -1.0111677e-19)
(174.73347 9.6503341 -9.3165004e-17)
(173.72122 17.475794 0)
(172.43318 25.184661 0)
(169.55549 35.443625 6.3135042e-18)
(163.07142 44.838684 1.0553895e-16)
(153.63267 53.671013 -3.3402261e-18)
(157.0886 59.419453 0)
(178.723 -1.1927697 2.4918849e-18)
(177.49697 6.1607465 -8.5474438e-20)
(177.03881 9.4791196 8.4322609e-17)
(175.99627 17.56152 0)
(175.0379 25.17962 0)
(172.50434 36.727875 -6.5083299e-18)
(164.08325 46.720452 -3.2472239e-16)
(153.06403 55.233234 3.298736e-18)
(150.981 58.263967 -2.887071e-16)
(179.59798 -1.2161627 0)
(178.4713 5.908288 -1.6994813e-16)
(178.20845 8.7348954 0)
(177.72427 17.114607 -5.9888451e-18)
(176.94861 25.669764 6.53847e-18)
(174.15624 37.374525 6.6314392e-18)
(166.56005 48.775532 4.3657233e-16)
(149.52738 56.853396 -3.2702572e-18)
(134.26568 57.124092 2.7331473e-16)
(180.42346 -1.4182461 -1.5973887e-16)
(180.22023 5.2885548 1.6196923e-16)
(180.25635 8.4148797 -1.8301697e-16)
(179.86741 17.102301 -1.9783161e-16)
(179.25894 25.590751 2.2299239e-16)
(176.77677 38.978376 -2.3578911e-16)
(166.95683 50.532657 -2.2663242e-16)
(145.63987 56.625767 -1.7469234e-16)
(113.85421 67.848347 0)
(180.80999 -1.5498889 3.1691368e-16)
(180.98899 4.8513372 -1.6905896e-16)
(181.14374 7.6275981 1.7704554e-16)
(181.48406 16.399969 -8.2394765e-18)
(181.16888 26.091994 -2.1482774e-16)
(178.13754 39.704462 -6.3436673e-18)
(167.12801 52.549224 0)
(139.70178 60.962384 1.684689e-16)
(80.570547 76.95144 0)
(181.21884 -1.604978 -3.0840102e-16)
(182.45971 3.9224027 1.6147885e-16)
(182.90384 7.1896828 -1.8737804e-16)
(183.64113 16.185763 1.9842856e-16)
(183.36187 25.830888 6.763184e-18)
(180.98704 40.989847 2.2216456e-16)
(165.45323 55.377242 -2.235305e-16)
(128.89285 57.791045 -1.8330078e-16)
(21.893222 21.352468 2.0046188e-16)
(181.21859 -1.9479414 1.5281458e-16)
(183.02353 3.293316 -5.1473122e-18)
(183.50178 6.3736792 1.789262e-16)
(185.22514 15.086363 -6.2471836e-18)
(185.33552 26.150857 6.7392219e-18)
(182.19398 41.632941 2.4935772e-16)
(161.85045 55.557971 4.429695e-16)
(104.14909 50.58668 1.7191582e-16)
(-4.4609262 14.131649 -1.9003093e-16)
(181.0276 -2.1352019 2.3227269e-18)
(184.2811 2.0777306 -2.5074195e-18)
(184.9419 5.8092163 -1.7836911e-16)
(187.43614 14.559602 -2.0302462e-16)
(187.29927 25.711958 2.2486808e-16)
(184.34354 42.166159 -4.9329986e-16)
(155.89632 57.198727 -4.4159216e-16)
(79.115184 46.164518 -1.7510381e-16)
(-5.1503722 22.831045 1.8806048e-16)
(180.63598 -2.3277262 -1.4062294e-16)
(184.56432 1.339961 2.5494246e-18)
(185.2415 4.971875 -5.5264727e-18)
(188.93313 13.03842 1.968877e-16)
(189.12643 25.743421 -2.1047844e-16)
(184.25633 43.072696 2.4397887e-16)
(145.20239 57.11221 2.1117719e-16)
(47.679515 26.155122 1.6453285e-16)
(-10.862936 26.586915 -1.7912548e-16)
(-12.587977 26.961193 -3.0313322e-16)
(26.056298 16.151028 -1.9606599e-18)
(134.9844 56.111866 5.2950116e-18)
(184.35335 42.550798 -4.4579032e-18)
(190.54438 25.264573 0)
(190.93086 12.270044 3.4311167e-18)
(186.3266 4.2733874 3.6994311e-16)
(185.52084 -0.037568653 1.7288461e-16)
(180.04065 -2.5237536 2.7697253e-16)
(-13.787857 27.491284 2.9399313e-16)
(15.165638 11.80607 0)
(123.92125 55.509605 0)
(184.03109 42.118865 6.6999455e-16)
(192.18287 23.734923 0)
(192.07466 9.8666811 -4.6634592e-16)
(186.35273 3.0233755 -5.6759577e-16)
(185.38781 -0.90770845 -1.6392189e-16)
(179.23528 -2.6827926 1.3207603e-16)
(-14.246535 27.548865 2.3164627e-18)
(13.85008 19.114752 -1.8656067e-18)
(113.22342 51.281598 0)
(183.38392 41.344147 -6.5966139e-16)
(193.22189 23.101896 0)
(193.70232 8.9085648 4.6171483e-16)
(187.10812 2.1981542 3.6685793e-16)
(185.92309 -2.297295 3.830791e-18)
(178.24037 -2.8075482 -2.6618271e-16)
(-15.066634 28.573507 5.5515903e-16)
(18.981487 30.636951 -5.0662774e-16)
(104.36407 51.049141 3.9737288e-18)
(182.2684 40.485679 0)
(194.47578 21.271575 -5.6514215e-16)
(194.44559 6.4416446 0)
(186.83273 0.92943904 -2.8351069e-18)
(185.3681 -3.1596335 3.7713092e-18)
(177.06863 -2.9036497 -1.0726019e-18)
(-15.547122 29.488406 -5.3341642e-16)
(21.78765 40.183421 -2.1509045e-17)
(97.029677 48.038634 6.3882672e-16)
(180.68895 39.694833 -4.8193632e-18)
(195.14821 20.44416 -1.5728893e-17)
(195.69319 5.3647315 0)
(187.26458 0.016377798 -3.6186126e-16)
(185.51516 -4.5001447 0)
(175.74446 -2.9752473 0)
(-16.081537 31.011477 2.2025729e-18)
(22.290733 45.007235 4.866514e-16)
(90.124305 49.025021 -1.2541183e-15)
(178.87605 38.355236 7.279814e-16)
(195.95753 18.354468 5.5995183e-16)
(196.00265 2.8856747 4.7687194e-16)
(186.70098 -1.2741295 3.5071026e-16)
(184.57107 -5.3286022 3.6187266e-18)
(174.2796 -3.0219951 -2.2991462e-16)
(-16.025094 32.189794 2.1742519e-18)
(20.285783 48.905227 -5.1007499e-16)
(82.47419 45.313946 6.2911378e-16)
(176.1278 37.642083 -7.1361002e-16)
(196.26937 17.310408 4.2650633e-18)