/*--------------------------------*- C++ -*----------------------------------*\
  =========                 |
  \\      /  F ield         | OpenFOAM: The Open Source CFD Toolbox
   \\    /   O peration     | Website:  https://openfoam.org
    \\  /    A nd           | Version:  11
     \\/     M anipulation  |
\*---------------------------------------------------------------------------*/
FoamFile
{
    format      ascii;
    class       volVectorField;
    location    "15.3";
    object      U;
}
// * * * * * * * * * * * * * * * * * * * * * * * * * * * * * * * * * * * * * //

dimensions      [0 1 -1 0 0 0 0];

internalField   nonuniform List<vector> 
5472
(
(10.105349 2.4562543 1.6117548e-18)
(10.289252 2.4444146 -1.6782923e-18)
(10.477028 2.4585815 -1.6867385e-18)
(10.648963 2.4419271 -1.7089808e-18)
(10.846634 2.3986043 5.2953109e-18)
(11.027463 2.3475813 -3.8839388e-20)
(11.187246 2.2794944 -2.7798169e-18)
(11.352838 2.1976449 9.695064e-19)
(11.509298 2.1010318 0)
(11.648804 2.000935 0)
(11.803058 1.8736506 0)
(11.916245 1.7582421 -2.9633329e-18)
(12.04635 1.6072272 1.5190594e-18)
(12.125065 1.4679646 -2.5341959e-20)
(12.229812 1.2925183 1.0155355e-18)
(12.297496 1.1464618 -5.2302935e-19)
(12.351522 0.93775611 -7.7801785e-19)
(12.407478 0.79940701 2.6791988e-19)
(12.420352 0.59053238 0)
(10.081821 2.2450615 -1.4750579e-18)
(10.239106 2.2457462 3.0399088e-18)
(10.414826 2.2621029 -1.5666329e-18)
(10.57887 2.2359318 -1.5675393e-18)
(10.765191 2.2165381 2.5920198e-20)
(10.920671 2.1684079 0)
(11.079608 2.1164415 1.6662263e-18)
(11.257575 2.0407012 -3.3894557e-18)
(11.399082 1.9577107 4.3700948e-18)
(11.55344 1.8634062 8.8852322e-19)
(11.690368 1.7521411 0)
(11.809282 1.6456723 1.8340006e-18)
(11.929947 1.5108667 0)
(12.023593 1.3778535 4.6029279e-19)
(12.124222 1.2239726 -4.7382013e-19)
(12.194628 1.0750997 0)
(12.265543 0.90811534 0)
(12.305261 0.76435026 -2.3521759e-19)
(12.334448 0.59261679 0)
(10.101622 2.0709256 0)
(10.239661 2.0869899 1.3863811e-18)
(10.427797 2.1169644 1.4165378e-18)
(10.587771 2.0958725 0)
(10.728727 2.0934635 -2.1085029e-20)
(10.874939 2.0595394 -2.895296e-20)
(11.047343 2.0165157 -1.5432166e-18)
(11.195223 1.9634691 0)
(11.3297 1.8908061 -1.5697284e-18)
(11.479013 1.8092113 -4.0100237e-18)
(11.604791 1.7112396 1.4511822e-20)
(11.719936 1.6186047 -8.0486719e-19)
(11.85218 1.4856786 -8.2958115e-19)
(11.937278 1.3681205 1.7005283e-18)
(12.042584 1.22489 1.2770663e-18)
(12.103928 1.0854308 4.2992666e-19)
(12.171856 0.93803405 2.1350058e-19)
(12.204344 0.78565164 -3.2234694e-19)
(12.239646 0.6266224 1.0728185e-19)
(10.076618 1.8935665 0)
(10.203702 1.9324941 -1.2513266e-18)
(10.380279 1.941678 -1.2771733e-18)
(10.475587 1.9380768 2.5952603e-18)
(10.634301 1.9495776 -1.3664472e-18)
(10.798066 1.9073136 0)
(10.938606 1.8887017 -1.3960975e-18)
(11.078007 1.8222156 1.4003208e-18)
(11.216571 1.7693919 -1.4491709e-18)
(11.367422 1.6905744 -2.085857e-20)
(11.48343 1.606554 -1.4880633e-18)
(11.628948 1.5066293 0)
(11.736148 1.3922139 0)
(11.829012 1.2870564 -7.5677041e-19)
(11.927575 1.1421739 -7.6190482e-19)
(11.990775 1.020091 0)
(12.068077 0.86647386 -1.9276902e-19)
(12.102644 0.72139299 9.7863929e-20)
(12.148726 0.57370231 1.9401492e-19)
(10.109244 1.7326513 0)
(10.229085 1.7605195 0)
(10.346124 1.7902747 0)
(10.463902 1.8146158 -2.3536078e-18)
(10.646403 1.8109505 1.225845e-18)
(10.74508 1.7990008 -3.6902256e-18)
(10.889624 1.7883452 5.0370139e-18)
(11.024255 1.7360839 -2.5610929e-18)
(11.164233 1.7040004 3.6954891e-21)
(11.30608 1.6301366 1.3106425e-18)
(11.421659 1.5601431 1.3274632e-18)
(11.547145 1.4749926 -2.7050769e-18)
(11.630597 1.3833612 2.0555046e-18)
(11.740289 1.2719093 -6.9380344e-19)
(11.820872 1.1502487 0)
(11.899722 1.0296332 7.0132486e-19)
(11.96319 0.88005329 -3.5148102e-19)
(12.013977 0.75080178 1.7392293e-19)
(12.048588 0.59688751 -1.7284207e-19)
(10.075269 1.5783261 0)
(10.162906 1.6337222 -4.1004493e-18)
(10.302455 1.6488383 2.1156127e-18)
(10.419408 1.6824789 2.1523493e-18)
(10.556675 1.6808904 1.0906805e-18)
(10.647719 1.6803575 -1.105038e-18)
(10.813892 1.6552359 2.2944124e-18)
(10.931823 1.6197023 1.1480125e-18)
(11.078269 1.5891167 2.3308222e-18)
(11.197096 1.5223342 -2.384874e-18)
(11.325701 1.4753855 1.9490534e-20)
(11.440656 1.3807104 2.4414395e-18)
(11.556499 1.297344 0)
(11.669194 1.1881606 -6.2487036e-19)
(11.751909 1.0835525 6.2051292e-19)
(11.841657 0.95346508 -1.5628305e-18)
(11.891634 0.82946422 6.2642046e-19)
(11.949533 0.69376064 -1.5642862e-19)
(11.97132 0.55736205 5.2164208e-22)
(10.062101 1.4259667 3.64034e-18)
(10.210852 1.4584549 3.7014674e-18)
(10.299093 1.5049206 0)
(10.407882 1.5521822 -6.9884541e-21)
(10.52178 1.5480834 -3.9535809e-18)
(10.621491 1.562747 4.0544294e-18)
(10.775881 1.5361403 0)
(10.858568 1.5358663 -1.0490604e-18)
(11.011367 1.5003037 -4.2222811e-18)
(11.108555 1.4577951 2.1659631e-18)
(11.24878 1.4069892 1.0789142e-18)
(11.352811 1.3289349 -1.1067989e-18)
(11.462704 1.2635935 0)
(11.553693 1.1566261 5.5361652e-19)
(11.637307 1.0648432 0)
(11.712514 0.94247177 -5.5979859e-19)
(11.76735 0.83415187 8.4645124e-19)
(11.823016 0.69303611 9.6684875e-22)
(11.854716 0.57875467 -1.0668394e-21)
(10.072322 1.2978904 1.6340667e-18)
(10.177058 1.3477549 -3.3397933e-18)
(10.237312 1.3817976 -3.3897862e-18)
(10.377927 1.3999783 3.4894561e-18)
(10.461405 1.4235763 -1.7912604e-18)
(10.582818 1.4494679 -1.807787e-18)
(10.702221 1.4299701 0)
(10.788936 1.4295357 2.7996469e-18)
(10.945623 1.3958823 -1.4963248e-20)
(11.024991 1.3690995 -2.8875562e-18)
(11.185048 1.3099864 2.9503086e-18)
(11.253583 1.2571585 0)
(11.399218 1.1796679 0)
(11.463795 1.0976927 9.9466248e-19)
(11.576423 1.0082904 -5.1144957e-19)
(11.63746 0.89633866 -1.0086211e-18)
(11.718609 0.78588152 2.556032e-19)
(11.761818 0.65385485 2.5685342e-19)
(11.80885 0.54887844 6.2255128e-20)
(10.060768 1.154632 -1.46644e-18)
(10.171473 1.1886607 4.4855333e-18)
(10.232114 1.2568627 -4.6209759e-18)
(10.346488 1.2868572 3.1336088e-18)
(10.406523 1.3017121 0)
(10.536316 1.3241879 1.618925e-18)
(10.606289 1.323875 -1.6704706e-18)
(10.74762 1.33187 0)
(10.845714 1.3014765 8.4780673e-19)
(10.957625 1.2915937 -1.7543486e-18)
(11.082435 1.235406 -8.7069279e-19)
(11.162412 1.2063534 -1.0739065e-20)
(11.299596 1.1148217 -2.6774641e-18)
(11.357972 1.0540667 4.6143765e-19)
(11.479989 0.95607181 -4.4264404e-19)
(11.523564 0.87049237 9.064139e-19)
(11.615996 0.75882537 -4.4964453e-19)
(11.635181 0.64825926 2.3088001e-19)
(11.693589 0.53518507 2.2496119e-19)
(10.073884 1.0308424 -2.64454e-18)
(10.163945 1.0729722 0)
(10.221842 1.1241188 1.37384e-18)
(10.339973 1.1520804 -4.198023e-18)
(10.405573 1.204459 1.4455087e-18)
(10.523697 1.2119144 -1.4652656e-18)
(10.589452 1.2147968 1.4773288e-18)
(10.724245 1.2257906 -1.5195688e-18)
(10.796176 1.2109951 0)
(10.943191 1.209965 7.7102414e-19)
(11.020531 1.1551069 0)
(11.143485 1.1309849 7.8559532e-19)
(11.232397 1.0484692 -1.2874916e-22)
(11.315754 1.0105099 -3.9710527e-19)
(11.406811 0.90229247 3.9888893e-19)
(11.469778 0.83762354 4.0069211e-19)
(11.551981 0.71861325 -3.1219483e-21)
(11.578503 0.63403762 -6.0357144e-19)
(11.63988 0.50680343 0)
(10.084963 0.91107812 0)
(10.149197 0.94380903 1.2067653e-18)
(10.212015 1.0045778 0)
(10.297227 1.0385728 1.2438255e-18)
(10.3453 1.0828118 -3.8509873e-18)
(10.453861 1.098694 3.9303714e-18)
(10.514798 1.1267389 -1.3103407e-18)
(10.633355 1.1162404 4.0701473e-18)
(10.699129 1.1255464 0)
(10.829153 1.1087509 6.9513363e-19)
(10.902217 1.0911856 0)
(11.031328 1.0646903 -1.4017548e-18)
(11.104317 0.99870729 2.8394157e-18)
(11.208518 0.95445789 -8.927756e-21)
(11.282764 0.86108779 -3.5987537e-19)
(11.363288 0.79605073 0)
(11.425523 0.68330596 0)
(11.472152 0.60993398 0)
(11.518838 0.48360079 -4.4847417e-20)
(10.099697 0.79420167 4.2022089e-18)
(10.132916 0.85472455 -5.4037155e-18)
(10.211837 0.89436125 2.1925139e-18)
(10.277698 0.92711572 -9.443941e-21)
(10.341083 0.96720041 0)
(10.437189 0.99172555 -2.3214757e-18)
(10.494055 1.0314339 1.2015756e-18)
(10.608388 1.0370516 -1.19997e-18)
(10.677929 1.0456983 0)
(10.808031 1.0196783 -6.1433874e-19)
(10.877225 1.0126445 1.2383674e-18)
(11.006474 0.97169708 -1.4828029e-20)
(11.066497 0.93981738 -1.2708729e-18)
(11.184371 0.8884463 -2.5315915e-18)
(11.231502 0.82319631 2.229757e-18)
(11.328653 0.75811654 -1.2755807e-18)
(11.368032 0.66405331 8.0057011e-19)
(11.43718 0.58586031 1.6016742e-19)
(11.456188 0.47527201 3.9361282e-20)
(10.081238 0.69166355 -6.5896959e-18)
(10.122826 0.74149389 3.8590408e-18)
(10.195602 0.78256697 0)
(10.228271 0.83068992 -4.9904673e-18)
(10.309225 0.85067938 4.0986448e-18)
(10.373214 0.88045911 1.0408904e-18)
(10.44358 0.90815287 3.1600458e-18)
(10.530748 0.92762924 -2.1536134e-18)
(10.599615 0.9481999 -2.7032497e-18)
(10.706021 0.93578586 1.6563388e-18)
(10.770038 0.94241703 2.2016938e-18)
(10.889179 0.90779369 -3.3527138e-18)
(10.952251 0.88683025 2.2446442e-18)
(11.070886 0.82581856 -5.7247344e-19)
(11.117234 0.77770428 2.7852378e-19)
(11.223167 0.69563746 -4.6912056e-21)
(11.253771 0.62783602 -7.0848104e-19)
(11.34177 0.54060697 -1.404287e-19)
(11.356311 0.45924033 -3.5343702e-20)
(10.102799 0.6014886 2.525973e-18)
(10.137752 0.65597394 3.4162722e-18)
(10.189234 0.69064067 -3.5072469e-18)
(10.233706 0.73601445 8.921577e-19)
(10.309985 0.76546138 -2.7079979e-18)
(10.35569 0.80397613 2.7864691e-18)
(10.437476 0.82882371 9.3178763e-19)
(10.499013 0.85770935 -4.7587539e-18)
(10.594971 0.86483305 3.3670834e-18)
(10.667343 0.86981119 -1.4718401e-18)
(10.755003 0.85845298 0)
(10.854803 0.83385353 -4.9654476e-19)
(10.921043 0.82206345 -1.4894502e-18)
(11.024867 0.77909436 5.1123368e-19)
(11.074396 0.74674214 1.5054868e-18)
(11.164308 0.66586002 4.9898749e-19)
(11.191233 0.60952036 -1.0024375e-18)
(11.261187 0.50944774 2.5227322e-19)
(11.268749 0.4450165 2.805373e-19)
(10.062799 0.50517459 -3.7208851e-18)
(10.106382 0.54418739 3.0549927e-18)
(10.151522 0.58840659 0)
(10.194431 0.63008781 -7.908208e-19)
(10.250971 0.65939337 3.2139076e-18)
(10.294406 0.69788958 -6.5538101e-18)
(10.361603 0.72101581 8.5966242e-19)
(10.42294 0.7585691 3.3949753e-18)
(10.514592 0.77566963 2.566021e-18)
(10.578496 0.78991863 -4.3229737e-19)
(10.68467 0.77269892 0)
(10.748443 0.76386381 2.1784974e-18)
(10.844213 0.73664223 -8.8893132e-19)
(10.928961 0.710543 8.8293609e-19)
(11.015637 0.67477169 -1.3313397e-18)
(11.092849 0.62331588 -2.2241744e-19)
(11.148488 0.56777379 0)
(11.20693 0.48482369 0)
(11.224913 0.42220495 -2.7644853e-20)
(10.098464 0.42618723 6.3918637e-19)
(10.133941 0.47116287 -6.0993016e-18)
(10.169093 0.51833444 2.7499446e-18)
(10.214222 0.55307278 -3.5175652e-18)
(10.259749 0.58506617 -7.1316342e-19)
(10.316753 0.61500651 0)
(10.374857 0.63578114 -3.6688213e-18)
(10.435837 0.67174119 2.251376e-18)
(10.503475 0.6983755 -7.56389e-19)
(10.564982 0.724167 -2.0798903e-21)
(10.650789 0.71753553 0)
(10.704667 0.7161729 0)
(10.794115 0.68008157 -3.8700362e-19)
(10.851635 0.66300572 -3.8810894e-19)
(10.940765 0.62278526 1.9437275e-19)
(10.995429 0.58713538 1.1696751e-18)
(11.076769 0.52637787 -7.8401799e-19)
(11.114688 0.47096068 9.7985521e-20)
(11.166804 0.3985237 2.4151464e-20)
(10.065119 0.34470891 4.1082732e-18)
(10.093665 0.38394777 -4.2056405e-18)
(10.126076 0.42301164 0)
(10.159478 0.46349791 6.2084966e-19)
(10.197494 0.50219763 0)
(10.250901 0.53211749 6.4242323e-19)
(10.299608 0.55880125 6.5160913e-19)
(10.367326 0.58174789 0)
(10.429681 0.6042792 3.3185047e-18)
(10.512806 0.6243295 -2.3650645e-18)
(10.588148 0.63088522 1.6892198e-18)
(10.665182 0.63820782 -1.3694459e-18)
(10.745554 0.61578446 1.3638996e-18)
(10.811979 0.60143869 -1.1419692e-20)
(10.889629 0.56190989 -1.3815631e-18)
(10.942844 0.53040069 -1.7134342e-19)
(11.016826 0.47465501 -1.7269879e-19)
(11.049694 0.43184994 -8.5518334e-20)
(11.110762 0.35782021 0)
(10.09888 0.28177047 4.6927661e-18)
(10.121162 0.3177709 0)
(10.154424 0.34957862 0)
(10.190375 0.38453934 5.495882e-19)
(10.227239 0.41686107 0)
(10.264242 0.45532763 -5.6576745e-19)
(10.304603 0.48799951 -5.7323105e-19)
(10.355913 0.51638356 -2.315796e-18)
(10.401822 0.54145289 2.356461e-18)
(10.467524 0.55806342 0)
(10.523468 0.56832476 -2.6744187e-18)
(10.602866 0.57384059 2.1089881e-18)
(10.668191 0.56409922 1.2002085e-18)
(10.744539 0.55456362 -2.4167972e-18)
(10.809979 0.52593088 2.4204664e-18)
(10.875159 0.49659965 -1.8181635e-18)
(10.936438 0.44820004 6.0564298e-19)
(10.984144 0.4057936 0)
(11.038953 0.33910172 0)
(10.068428 0.22380158 7.3740287e-18)
(10.076233 0.26042849 -3.7583677e-18)
(10.110028 0.28386161 3.80888e-18)
(10.137036 0.31716091 -4.3708093e-18)
(10.170389 0.33849854 -3.9277403e-18)
(10.213091 0.37360914 4.0030034e-18)
(10.261068 0.4033882 2.016121e-18)
(10.315269 0.43586929 -1.2754286e-20)
(10.370206 0.46251989 -2.0720732e-18)
(10.43074 0.47904692 0)
(10.489428 0.49079049 0)
(10.558745 0.49785432 2.6285225e-19)
(10.622587 0.49338929 0)
(10.701677 0.48303314 1.0570253e-18)
(10.757849 0.46182696 -1.0659886e-18)
(10.831769 0.43448694 -5.2973298e-19)
(10.880136 0.39861388 6.6471295e-19)
(10.939143 0.35569929 -3.3120545e-19)
(10.980144 0.30222532 2.6446645e-19)
(10.08203 0.17801905 0)
(10.097878 0.20353595 0)
(10.123124 0.22783331 3.3605125e-18)
(10.137512 0.25590314 -3.4246472e-18)
(10.169111 0.28188806 3.8941043e-18)
(10.197296 0.31017274 -3.9619543e-18)
(10.238427 0.33448876 0)
(10.281335 0.37030025 4.4989404e-19)
(10.335372 0.39704781 1.8083247e-18)
(10.392181 0.42067979 -1.8342957e-18)
(10.451237 0.43589159 1.8339486e-18)
(10.515316 0.44454511 -1.3070154e-20)
(10.577462 0.44445255 -3.711889e-18)
(10.648571 0.44037596 1.8664998e-18)
(10.705286 0.42258769 0)
(10.772113 0.39851016 -9.2846475e-19)
(10.823011 0.36678605 1.455425e-18)
(10.882253 0.32499779 -6.3971817e-19)
(10.920031 0.27903512 2.3171365e-19)
(10.051593 0.13793591 1.1125157e-17)
(10.077568 0.15382232 -5.844272e-18)
(10.094138 0.17510177 0)
(10.123819 0.19635786 -3.7627548e-19)
(10.145647 0.21994095 -3.8093395e-19)
(10.177221 0.24331918 3.8567112e-19)
(10.211995 0.26819558 0)
(10.251635 0.29350804 -3.9379206e-19)
(10.303552 0.31600204 3.1726367e-18)
(10.350934 0.33739672 -3.2151016e-18)
(10.413634 0.35574977 0)
(10.473513 0.36992358 0)
(10.537143 0.3756938 2.0349122e-19)
(10.601788 0.37447014 1.0195503e-19)
(10.665187 0.36459678 -1.0205301e-19)
(10.727561 0.34567381 0)
(10.782883 0.31842875 -4.5682324e-19)
(10.8352 0.28653367 4.0732362e-19)
(10.876722 0.24448483 0)
(10.054694 0.10776182 -1.0130772e-17)
(10.069145 0.12105664 1.0605877e-17)
(10.084444 0.13353251 -1.526431e-20)
(10.105211 0.14890481 -4.9669327e-18)
(10.125495 0.17097053 0)
(10.15789 0.19178718 2.7044108e-18)
(10.184576 0.22006865 -5.6488614e-18)
(10.23166 0.24181243 2.7713829e-18)
(10.265268 0.26643409 0)
(10.318813 0.28302246 -2.797693e-18)
(10.366914 0.29816802 2.8296909e-18)
(10.426545 0.31208588 1.4117548e-18)
(10.488239 0.31944935 -1.4240399e-18)
(10.551707 0.31978632 1.2401574e-18)
(10.615539 0.31210978 -1.3387834e-18)
(10.674775 0.29607955 0)
(10.734986 0.27340604 -4.4528316e-20)
(10.787023 0.24353659 -1.3270919e-19)
(10.835975 0.20761675 1.8808697e-19)
(10.052668 0.078208999 2.7853539e-19)
(10.064682 0.08918945 -5.6523192e-19)
(10.083571 0.10225519 4.5774998e-18)
(10.096168 0.11105041 2.7651999e-19)
(10.122672 0.11984545 -3.0980542e-19)
(10.14239 0.13681288 -4.7600504e-18)
(10.173379 0.15299899 1.4979667e-19)
(10.211155 0.17671358 2.5654194e-18)
(10.244344 0.19936694 -2.4440339e-18)
(10.294884 0.21848425 -1.5350733e-19)
(10.334325 0.23667242 0)
(10.393231 0.24822835 2.6219796e-18)
(10.444442 0.26097245 -2.6428454e-18)
(10.509483 0.26256581 -1.1607905e-18)
(10.569084 0.26519648 8.4936109e-20)
(10.631253 0.25253429 1.864234e-18)
(10.687037 0.23778364 -5.8294328e-19)
(10.740398 0.21456848 -5.7977145e-20)
(10.783513 0.18363938 -9.6105925e-21)
(10.030094 0.055141222 0)
(10.042737 0.063394395 2.4810633e-19)
(10.056418 0.072136605 4.0179182e-18)
(10.074914 0.08293899 -4.4591141e-18)
(10.092354 0.092084089 4.239661e-18)
(10.110943 0.10351011 -4.1675503e-18)
(10.139909 0.11660554 1.3134335e-19)
(10.168696 0.13099027 -1.3209067e-19)
(10.211288 0.14726672 1.9912584e-18)
(10.25482 0.16122139 -2.0135942e-18)
(10.306237 0.17486869 2.0098806e-18)
(10.362583 0.18552175 -2.2306193e-18)
(10.420931 0.19184414 0)
(10.484141 0.19421671 1.0783479e-18)
(10.542191 0.19179837 -1.2197492e-18)
(10.60665 0.18344226 5.3908175e-19)
(10.662398 0.1697253 -5.0717344e-19)
(10.719414 0.15196931 -2.3534221e-19)
(10.761784 0.12553422 2.7296986e-19)
(10.028679 0.031309448 -8.9672818e-21)
(10.03882 0.039440822 -6.9729555e-18)
(10.050134 0.043214487 1.1028354e-19)
(10.070603 0.052033586 -1.626873e-22)
(10.085899 0.058679487 1.1255532e-19)
(10.108859 0.066588599 0)
(10.13195 0.075065338 3.6632932e-18)
(10.157577 0.086553526 -3.8204464e-18)
(10.192384 0.099738399 1.1608151e-19)
(10.225615 0.11286336 -1.8063112e-18)
(10.26841 0.12775617 3.8117667e-18)
(10.314598 0.1388046 -3.7633827e-18)
(10.367015 0.15080192 1.8900905e-18)
(10.429755 0.15522984 0)
(10.492938 0.16185514 -9.1006617e-19)
(10.558194 0.1586656 9.4333832e-19)
(10.619062 0.15301975 -1.4605201e-20)
(10.67437 0.14385019 3.9602161e-23)
(10.723055 0.12434259 -3.6404502e-21)
(10.010563 0.017841226 6.0790002e-18)
(10.018652 0.020794563 -6.1007062e-18)
(10.032149 0.023479306 6.0858514e-18)
(10.047175 0.026781889 9.7478681e-20)
(10.065017 0.029811788 0)
(10.086639 0.032574205 0)
(10.108896 0.037117992 -4.9874986e-20)
(10.138156 0.040812277 -3.1669224e-18)
(10.170218 0.045215352 3.2995109e-18)
(10.208721 0.050269059 3.220532e-18)
(10.2538 0.0543379 -1.5687875e-18)
(10.302176 0.059382772 -1.7163914e-18)
(10.358904 0.062229736 0)
(10.416852 0.061440899 2.5626323e-20)
(10.479674 0.060034925 2.5529584e-20)
(10.545311 0.055456309 8.0151403e-19)
(10.608573 0.054597813 -8.2936575e-19)
(10.664794 0.048706403 1.8393366e-19)
(10.713233 0.03467756 -2.0279977e-19)
(10.008199 0.0047350845 -4.096593e-20)
(10.013721 0.0072894623 5.282637e-18)
(10.022797 0.010970546 -6.5569037e-21)
(10.035105 0.014975335 -9.1971196e-21)
(10.050701 0.019160264 -5.4581363e-18)
(10.069842 0.023478261 0)
(10.093131 0.027875319 2.721263e-18)
(10.121239 0.03229724 -2.747745e-18)
(10.154614 0.036397654 -4.3629591e-20)
(10.193652 0.039762478 -2.1889129e-20)
(10.238271 0.042179611 -2.193849e-20)
(10.28848 0.0433195 2.1964188e-20)
(10.342664 0.043995416 0)
(10.395953 0.04521626 1.3843202e-18)
(10.450579 0.050795788 -1.4174841e-18)
(10.505976 0.047765044 -6.9413571e-19)
(10.560903 0.059480924 7.0852744e-19)
(10.627785 0.057318957 3.5755568e-19)
(10.66689 0.051750662 -3.5164444e-19)
(12.460295 0.45501959 -1.2606589e-19)
(12.452339 0.26723255 -5.0629031e-19)
(12.434341 0.13672438 4.9420419e-19)
(12.401332 -0.043969899 0)
(12.338144 -0.15705045 -9.1841343e-19)
(12.300584 -0.32204549 -1.7796068e-18)
(12.203117 -0.4157988 0)
(12.156405 -0.56699914 -2.7333584e-20)
(12.03429 -0.64688786 3.0432426e-18)
(11.977125 -0.78199499 1.4648456e-18)
(11.832441 -0.86967302 -1.3790835e-18)
(11.705623 -0.97481425 2.6282962e-18)
(11.566315 -1.0682563 -2.4601808e-18)
(11.373599 -1.1274813 0)
(11.235083 -1.2377719 1.1456308e-18)
(11.049393 -1.2616296 -1.0569635e-18)
(10.848301 -1.3679352 -2.0819326e-18)
(10.65841 -1.3713276 1.9542021e-18)
(10.330641 -1.4211381 -9.3557353e-19)
(12.350263 0.4414191 -1.097622e-19)
(12.342705 0.25157469 6.5562011e-19)
(12.328369 0.1112786 -4.2972877e-19)
(12.292915 -0.072810088 0)
(12.234122 -0.19437523 -8.147961e-19)
(12.183801 -0.3586337 2.3432316e-18)
(12.080086 -0.45401107 0)
(12.016133 -0.60591681 0)
(11.875873 -0.67601664 0)
(11.806072 -0.80090795 0)
(11.647099 -0.85587411 2.4805958e-18)
(11.533749 -0.94769116 -3.5686436e-18)
(11.349911 -0.99139366 -3.45106e-18)
(11.177088 -1.046262 2.1511429e-18)
(10.99832 -1.0642325 -2.0774015e-18)
(10.807356 -1.089581 2.0298964e-18)
(10.645854 -1.0834554 -1.0901012e-20)
(10.454731 -1.0596024 -1.8247575e-18)
(10.215511 -1.0246782 1.8134661e-18)
(12.247195 0.47110292 0)
(12.245378 0.29033861 -3.8469674e-19)
(12.218329 0.14462385 -7.5184791e-19)
(12.179033 -0.031180347 -3.9208687e-21)
(12.125993 -0.16572055 -8.9518866e-21)
(12.057417 -0.322976 1.4027576e-18)
(11.971044 -0.43155417 -2.6657084e-18)
(11.880381 -0.56607165 1.2685684e-18)
(11.751104 -0.64520375 2.412783e-20)
(11.650084 -0.74790196 0)
(11.506252 -0.80387761 3.4004309e-18)
(11.377181 -0.86501304 1.8564427e-20)
(11.21338 -0.88854725 2.0788113e-18)
(11.039268 -0.91758975 2.0268414e-18)
(10.858374 -0.88843686 2.8842525e-18)
(10.633171 -0.88832605 -3.6402338e-18)
(10.495148 -0.80186353 -4.9756122e-20)
(10.261705 -0.75189094 3.3958463e-18)
(10.125025 -0.63120119 1.7284287e-18)
(12.159816 0.41505822 3.3482689e-19)
(12.167576 0.24664101 -6.68205e-19)
(12.144191 0.094588463 9.8379098e-19)
(12.103115 -0.071979338 0)
(12.037116 -0.20439999 1.8787441e-18)
(11.956583 -0.34430768 -3.0393408e-18)
(11.861096 -0.45182845 2.3621562e-18)
(11.748561 -0.5643347 -5.3057893e-21)
(11.633066 -0.63377792 2.6448187e-20)
(11.50003 -0.70177775 -1.0744314e-18)
(11.353131 -0.74792825 0)
(11.228802 -0.76904556 -9.7030543e-19)
(11.062041 -0.7822073 9.8588231e-19)
(10.926407 -0.75952016 -1.7987311e-18)
(10.753257 -0.70256928 0)
(10.572732 -0.65713422 0)
(10.426028 -0.5234696 -1.6141306e-18)
(10.208642 -0.43902998 0)
(10.129229 -0.23117878 1.5495481e-18)
(12.062712 0.44547405 2.9111223e-19)
(12.058811 0.27442078 -2.8930156e-19)
(12.031127 0.12200151 4.8438659e-21)
(11.979754 -0.043690506 -5.6116764e-19)
(11.920156 -0.17127397 5.3989256e-19)
(11.833338 -0.30552551 -2.4925321e-21)
(11.73025 -0.40494997 -1.0371743e-18)
(11.621172 -0.5051926 0)
(11.506316 -0.55751155 -1.9655243e-18)
(11.380296 -0.61529728 9.4017938e-19)
(11.244188 -0.63354419 0)
(11.111657 -0.63839209 0)
(10.966681 -0.61727845 -1.696296e-18)
(10.846374 -0.55914565 -1.6768453e-18)
(10.707304 -0.49619339 1.6181746e-18)
(10.574243 -0.3822152 3.1276668e-18)
(10.469407 -0.24205037 1.5659177e-18)
(10.306892 -0.096203716 -1.4074911e-18)
(10.294119 0.14972521 -1.6932912e-20)
(11.993755 0.41506154 0)
(11.984124 0.24585982 2.5355042e-19)
(11.956658 0.092883351 -1.2449111e-18)
(11.910994 -0.058377549 4.9166023e-19)
(11.839887 -0.18535954 1.4464106e-18)
(11.741747 -0.30340777 -9.5584919e-19)
(11.641077 -0.39205103 -1.8606521e-18)
(11.513628 -0.47099978 1.7842806e-18)
(11.388638 -0.50922836 -9.0288454e-19)
(11.264577 -0.54079795 1.6854902e-18)
(11.130863 -0.53131031 0)
(10.999561 -0.51827996 0)
(10.888383 -0.45081297 -1.5643621e-18)
(10.766247 -0.38752527 4.5139084e-18)
(10.702573 -0.26854127 -5.7749639e-18)
(10.593654 -0.13487224 2.7758999e-18)
(10.580174 0.018218635 -5.4304989e-18)
(10.468395 0.21571346 1.2919419e-18)
(10.56479 0.45534138 2.5139276e-18)
(11.883241 0.41570893 5.5413065e-20)
(11.877774 0.26235967 2.214343e-19)
(11.858577 0.099798494 -4.3280157e-19)
(11.812487 -0.038780403 0)
(11.73201 -0.16436851 -8.5065942e-19)
(11.652134 -0.26666555 2.493404e-18)
(11.549656 -0.3514477 -1.6144685e-18)
(11.432613 -0.40623952 8.0345716e-19)
(11.32152 -0.43930308 -1.5711095e-18)
(11.201769 -0.43969905 4.5659605e-18)
(11.093477 -0.42348091 -2.9226872e-18)
(10.976539 -0.37412188 0)
(10.885707 -0.3049868 1.3783306e-18)
(10.789603 -0.20636007 2.7208907e-18)
(10.762334 -0.069966546 -3.8800448e-18)
(10.70442 0.059308925 3.8057063e-18)
(10.761264 0.25879972 -3.6536639e-18)
(10.745071 0.43758748 -2.3839168e-18)
(10.934878 0.67817483 -1.1718094e-18)
(11.818382 0.39092009 1.4373794e-19)
(11.829135 0.25417289 1.9105238e-19)
(11.780548 0.087227253 -3.7685959e-19)
(11.725438 -0.033217311 0)
(11.646453 -0.15704106 1.4758544e-18)
(11.555546 -0.24636952 -7.3375356e-19)
(11.453363 -0.31736297 0)
(11.337085 -0.35856288 -1.4057831e-18)
(11.232527 -0.37643739 6.9478333e-19)
(11.125566 -0.35702018 0)
(11.036101 -0.33121844 -1.3245904e-18)
(10.944445 -0.25023562 1.2886346e-18)
(10.896319 -0.18138685 1.2508387e-18)
(10.851732 -0.0413433 -2.4302753e-18)
(10.860339 0.05931984 2.3156887e-18)
(10.883348 0.22969979 -1.122518e-18)
(10.984922 0.3640687 -1.0875005e-18)
(11.086933 0.52069921 -1.0446517e-18)
(11.378982 0.69384752 -1.0014658e-18)
(11.693605 0.39383402 3.3208719e-19)
(11.726254 0.251474 -1.6433283e-19)
(11.683114 0.088494222 0)
(11.656563 -0.025745584 0)
(11.578541 -0.14347621 -1.2900336e-18)
(11.494734 -0.21974493 1.2752348e-18)
(11.399107 -0.2761109 0)
(11.287142 -0.30180518 6.1441627e-19)
(11.200303 -0.30473147 -6.0361609e-19)
(11.106451 -0.27224093 0)
(11.029818 -0.23076633 1.1573967e-18)
(10.973749 -0.1392104 1.4277191e-20)
(10.962929 -0.071700163 1.1612415e-20)
(10.974644 0.06272413 0)
(11.02867 0.13148919 -4.1716666e-18)
(11.130064 0.29857751 3.9847242e-18)
(11.273396 0.31543688 4.8384678e-18)
(11.474487 0.46309772 -6.4872242e-18)
(11.765116 0.4184566 4.4447713e-18)
(11.636986 0.39016283 0)
(11.654584 0.23247351 2.0242386e-21)
(11.595294 0.096297159 0)
(11.564197 -0.0080177807 0)
(11.469673 -0.12426857 5.5902001e-19)
(11.390739 -0.18180455 8.4211761e-21)
(11.295515 -0.23591233 -5.5618162e-19)
(11.209973 -0.24882801 -1.6517291e-18)
(11.132394 -0.24049827 2.1270067e-18)
(11.060944 -0.19527141 0)
(11.023543 -0.14741778 -1.0367052e-18)
(11.013683 -0.064067101 -6.0665052e-18)
(11.034867 -0.01009547 2.9118556e-18)
(11.101105 0.10010726 0)
(11.185131 0.1332101 -3.6875859e-18)
(11.364618 0.22697937 4.4160184e-18)
(11.499868 0.16114017 -3.4129731e-18)
(11.777717 0.19775929 4.08107e-18)
(11.964459 -0.039054205 0)
(11.531472 0.3894824 -2.5024556e-19)
(11.55604 0.21250987 1.2564779e-19)
(11.523274 0.10416044 0)
(11.504489 -0.016827528 -9.9462492e-19)
(11.42595 -0.10519636 1.4715451e-18)
(11.356078 -0.15448843 -4.8429067e-19)
(11.263837 -0.20427638 -1.4717547e-18)
(11.194817 -0.20037734 3.352032e-18)
(11.126277 -0.18146182 -1.8703386e-18)
(11.081346 -0.13962879 0)
(11.071917 -0.10008823 9.0365883e-19)
(11.095207 -0.033432057 5.3441708e-18)
(11.137917 0.003364991 -3.4310385e-18)
(11.251089 0.062369584 0)
(11.340718 0.048847462 0)
(11.553343 0.029480969 -1.5606542e-18)
(11.641081 -0.087597378 7.4894649e-19)
(11.906296 -0.20761208 -2.1556569e-18)
(11.910257 -0.50873892 0)
(11.493481 0.3781761 -2.1706344e-19)
(11.470091 0.21323463 6.5084691e-19)
(11.448149 0.11496131 -6.4760668e-19)
(11.411535 -0.011101039 0)
(11.346891 -0.071996285 1.3001277e-18)
(11.28492 -0.13435741 -1.6909405e-18)
(11.202185 -0.16475515 0)
(11.141029 -0.1566361 8.4197548e-19)
(11.099112 -0.13688883 8.3106564e-19)
(11.090689 -0.10933681 0)
(11.103663 -0.077803984 0)
(11.157261 -0.03809316 -7.7662352e-19)
(11.215951 -0.030407957 -2.2844855e-18)
(11.357534 -0.042382417 -1.7163492e-20)
(11.427205 -0.10963374 2.1282806e-18)
(11.617598 -0.22457538 1.3727983e-18)
(11.635796 -0.3702897 -6.6204746e-19)
(11.809533 -0.59341858 1.2693947e-18)
(11.659285 -0.88862226 0)
(11.431365 0.35509285 0)
(11.404867 0.21216011 -7.5308628e-19)
(11.413032 0.10686447 1.4974383e-18)
(11.3485 -0.0092389899 -1.1195243e-18)
(11.308486 -0.060564639 0)
(11.234449 -0.11901846 0)
(11.186891 -0.12745207 0)
(11.131434 -0.13470059 -7.2763551e-19)
(11.113936 -0.12104121 -7.1767105e-19)
(11.119703 -0.10831535 0)
(11.149181 -0.086282439 -6.9758336e-19)
(11.213735 -0.095896072 -6.8317691e-19)
(11.275412 -0.11922084 -6.6381363e-19)
(11.403582 -0.2077983 2.5839119e-18)
(11.433507 -0.30381818 -2.4931356e-18)
(11.557103 -0.49304064 -6.0377697e-19)
(11.50423 -0.62917035 3.4901256e-18)
(11.553156 -0.89815618 -5.5963121e-18)
(11.29756 -1.092025 3.23414e-18)
(11.339897 0.32850939 -4.0943341e-20)
(11.319016 0.22664313 8.1788543e-20)
(11.347989 0.10236485 8.1405775e-19)
(11.276235 0.010748747 -1.9548287e-18)
(11.25848 -0.049475828 9.6203502e-19)
(11.18665 -0.098754521 0)
(11.157792 -0.1043823 0)
(11.122573 -0.12124893 6.3474952e-19)
(11.125069 -0.11625477 -2.4983392e-18)
(11.138129 -0.12159019 -6.4460521e-19)
(11.18344 -0.12041793 5.845007e-19)
(11.240848 -0.17696031 2.9710626e-18)
(11.296307 -0.22890106 5.8172071e-19)
(11.370901 -0.37791843 0)
(11.359878 -0.47789459 1.6441102e-18)
(11.385681 -0.69602582 0)
(11.267689 -0.81141999 -3.081502e-18)
(11.2204 -1.0367188 8.9166442e-18)
(10.939438 -1.139001 -7.6634135e-18)
(11.285376 0.30339141 7.049864e-20)
(11.266051 0.21465465 -7.0072364e-20)
(11.287747 0.079960367 0)
(11.221637 0.012806251 -8.5231033e-19)
(11.212267 -0.049418149 2.6499429e-19)
(11.143327 -0.08538789 1.1144262e-18)
(11.1306 -0.10235538 0)
(11.103314 -0.13083778 -2.7654927e-18)
(11.115225 -0.13235266 1.6116384e-18)
(11.123705 -0.15791309 -2.5402979e-21)
(11.180616 -0.18744911 0)
(11.206508 -0.28502352 0)
(11.240867 -0.36124289 -5.0774905e-19)
(11.237103 -0.53115547 0)
(11.195142 -0.62004255 1.1158863e-21)
(11.120095 -0.83233497 9.3364932e-19)
(10.971526 -0.8831649 -2.717441e-18)
(10.846403 -1.0629237 7.0113536e-18)
(10.543567 -1.0617387 -3.3976205e-18)
(11.198533 0.30864848 2.1381288e-19)
(11.21576 0.20389937 -1.8260633e-19)
(11.219908 0.080580117 0)
(11.180615 0.032079263 0)
(11.171937 -0.04638301 0)
(11.119617 -0.077941067 0)
(11.126689 -0.10609186 -1.9520057e-18)
(11.10217 -0.13832914 1.9018023e-18)
(11.126475 -0.15676509 2.3752e-18)
(11.122144 -0.20020768 -9.30863e-19)
(11.176826 -0.2654369 0)
(11.153329 -0.375139 3.6402078e-18)
(11.164534 -0.46709127 -6.6535806e-18)
(11.09204 -0.62104789 3.4565334e-18)
(11.022391 -0.69109597 -4.2166797e-18)
(10.872071 -0.86078256 2.4566283e-18)
(10.722473 -0.83780792 -7.9654273e-19)
(10.525818 -0.96807006 -7.7555704e-19)
(10.260829 -0.8446622 7.5108389e-19)
(11.130796 0.28742052 2.1112541e-19)
(11.177996 0.16724937 -6.864973e-19)
(11.148846 0.087563812 4.2081121e-19)
(11.147044 0.015966878 -8.49023e-19)
(11.107057 -0.056115158 8.4014969e-19)
(11.082318 -0.07612806 0)
(11.072952 -0.12848461 -4.2193447e-19)
(11.056924 -0.15420879 1.6769504e-18)
(11.086585 -0.20124391 -1.6449426e-18)
(11.059988 -0.25427909 -4.0837386e-19)
(11.096268 -0.3479951 -3.2283572e-18)
(11.027321 -0.44545305 3.1561151e-18)
(10.999635 -0.54436365 -3.8680967e-19)
(10.859686 -0.66332667 2.2745641e-18)
(10.769739 -0.70139817 -2.2111272e-18)
(10.572529 -0.79066714 0)
(10.450733 -0.71987078 -5.6256234e-18)
(10.242974 -0.77149748 6.1421043e-18)
(10.058665 -0.58049939 0)
(11.074754 0.2753185 -3.6484092e-19)