/*--------------------------------*- C++ -*----------------------------------*\
  =========                 |
  \\      /  F ield         | OpenFOAM: The Open Source CFD Toolbox
   \\    /   O peration     | Website:  https://openfoam.org
    \\  /    A nd           | Version:  11
     \\/     M anipulation  |
\*---------------------------------------------------------------------------*/
FoamFile
{
    format      ascii;
    class       volVectorField;
    location    "0.234";
    object      U;
}
// * * * * * * * * * * * * * * * * * * * * * * * * * * * * * * * * * * * * * //

dimensions      [0 1 -1 0 0 0 0];

internalField   nonuniform List<vector> 
880
(
(25 -4.270914484066452e-16 0)
(24.99999999995813 1.420487446618691e-11 0)
(24.99999997252822 -4.408726636152886e-08 0)
(24.99980097987523 1.295517393982822e-05 0)
(24.99999999999999 -1.708874340682782e-15 0)
(25.00000000014773 -2.01808387870226e-10 0)
(24.99999986712184 -1.198742335513973e-07 0)
(24.9993652566864 -0.001021188514655131 0)
(24.99999999999999 -1.063140339491718e-15 0)
(24.99999999915031 2.604401350867335e-09 0)
(24.99999848199663 -1.609852558278284e-06 0)
(24.9994167591605 -0.001721908242452222 0)
(24.99999999999999 9.504096893014608e-16 0)
(25.00000002605098 -1.452693983373809e-10 0)
(24.999986728199 5.614804222949989e-06 0)
(24.98239428757972 -0.04910077146874769 0)
(24.99999999999999 -1.581652023076327e-15 0)
(25 -4.815600553992097e-13 0)
(24.99999999985334 -9.797787572133955e-11 0)
(25.00000134361462 3.755437429916292e-07 0)
(25.00000041073513 -4.337979231816941e-08 0)
(24.99999943407322 7.106216008074562e-08 0)
(24.99999660125932 6.852376233613828e-06 0)
(24.99996201406607 8.020056376046195e-06 0)
(25.00018290479433 -0.0001602612340144084 0)
(24.99969286699341 0.0001754043674036185 0)
(24.99033147805069 0.01472602050426017 0)
(25.01447896137739 -0.02032123596314927 0)
(24.72748120308156 -0.1488625834355032 0)
(24.06169091745333 0.2170421044006317 0)
(23.67737699833592 0.7904095537383908 0)
(23.56174010825723 1.162062202498936 0)
(24.99998861100187 -1.089879347840815e-06 0)
(24.99999175271825 0.0001629474659127322 0)
(24.99993690035953 -0.0002177416635311475 0)
(24.99990901736174 -0.000198246280638327 0)
(24.99998188979725 -5.37301498140688e-05 0)
(24.99962671682649 5.22921758446358e-05 0)
(24.99886464183495 0.0009332870952385138 0)
(24.99867093659374 0.001132385016674097 0)
(24.97196433431592 -0.009007746044690877 0)
(24.93010122919301 0.02609199817066496 0)
(24.88936799259017 0.08483396052565603 0)
(24.85741036362889 0.1224348589155135 0)
(23.5352528247616 1.504613068843958 0)
(23.32453344569995 1.955766445768684 0)
(23.33198483266862 2.265491681602751 0)
(23.1891593571081 2.532530087487237 0)
(23.58372912941452 3.068078214181408 0)
(24.15029031449232 3.061239237441729 0)
(24.67162512008133 2.893160125277464 0)
(25.039736458363 2.597684858016976 0)
(24.76713293307565 0.2377773006978402 0)
(24.66878006954835 0.4413322509698014 0)
(24.68128864342492 0.6885112539326411 0)
(24.79422803162052 0.8470095816601625 0)
(24.99570403513404 0.003768371703544167 0)
(24.98601526654493 0.01150833676943799 0)
(24.97123297266554 0.0322921186439501 0)
(24.96121679132817 0.06779165252868791 0)
(24.99968610693162 -0.0003785619521778782 0)
(24.99882830144771 -0.00111311368594914 0)
(24.99705140074072 -0.002981048671891097 0)
(24.99498452091723 -0.006113255265211942 0)
(24.99164988022613 -0.008712254885754176 0)
(24.98938870561162 -0.008952680838933512 0)
(24.98851116406953 -0.00818091939163881 0)
(24.98882204783933 -0.006901744964095612 0)
(24.96754024712838 0.1036919679277553 0)
(24.99215042675195 0.1224461724606227 0)
(25.01577479761819 0.117392043468417 0)
(25.0276547999314 0.1056554531232077 0)
(24.94001143843244 0.87732847708105 0)
(25.09797425594223 0.827916444747288 0)
(25.18985239430837 0.7598396280725113 0)
(25.25913937967402 0.6811872249642371 0)
(25.26508377396344 2.251802644058379 0)
(25.39280506041609 1.883084027741969 0)
(25.51353419593551 1.515858126456343 0)
(25.71173862553726 1.150020253164685 0)
(25.80532732559988 0.8372963599132773 0)
(25.29919183594817 0.5720544579951981 0)
(25.03526415004275 0.08622202621257305 0)
(24.99003556919669 -0.005233745242798717 0)
(25.83861288686527 0.5695894370417208 0)
(25.30096111000445 0.4637375482170388 0)
(25.03527109391998 0.06454847067163658 0)
(24.99212785824232 -0.00351928395427615 0)
(25.72269669279556 0.4509239096149321 0)
(25.2809461136834 0.3438950935722937 0)
(25.03039568407261 0.04294416438851637 0)
(24.99468378824939 -0.002026871029191536 0)
(24.9000356087282 0.8358063958520101 0)
(25.23618835687708 0.1922046438113665 0)
(25.02315747656358 0.01968015623016051 0)
(24.99739649472371 -0.000828791174972529 0)
(24.99907867876136 -0.0003170140575110023 0)
(25.00775968877014 0.005068522244562933 0)
(25.02538098965578 0.1449143186432448 0)
(21.08370737678459 1.697887827009653 0)
(24.99954292397857 -0.000166763051860532 0)
(25.00060503753972 0.002587752189996068 0)
(24.71123769208307 0.2041077068487261 0)
(18.00093950054164 3.240212565981763 0)
(24.99947826075492 -0.0004715784246104579 0)
(24.99250554005496 0.006398678487367628 0)
(24.19855740169813 0.4587500035668592 0)
(16.87801035687086 4.914472680080735 0)
(24.99856910432362 -0.00145053153607572 0)
(24.97751765804117 0.02121713217917158 0)
(23.64897517569634 0.9587131857816917 0)
(16.38564805736936 6.378736286665873 0)
(16.08875779119132 7.618348883335192 0)
(23.08698181006026 1.651559794649626 0)
(24.95513307522736 0.05152632282216459 0)
(24.99584696209372 -0.003729500702673944 0)
(16.00924271221056 8.731577070711198 0)
(22.47148480676484 2.598191042020814 0)
(24.9015374296772 0.130888320587414 0)
(24.99144455807074 -0.009216376676353855 0)
(15.92776974146948 9.767287752359824 0)
(21.88965621201693 3.692165574371166 0)
(24.84087816296167 0.2476362341425205 0)
(24.98087825314095 -0.01759208417049129 0)
(16.20197468746489 10.50548836721011 0)
(21.3757496705537 4.89676921503697 0)
(24.70285543822643 0.5063305488561008 0)
(24.96408784528059 -0.03438990022136169 0)
(24.93265403199153 -0.05891896251532559 0)
(24.56597490970182 0.8420364731015963 0)
(20.92824285930446 6.259262943378307 0)
(16.73909197182659 10.93956544753281 0)
(24.88848096323827 -0.09476138489509858 0)
(24.35809172123297 1.454071120742984 0)
(21.62818895975733 6.873979019807811 0)
(17.96849305734762 10.83092867142042 0)
(25.00615171363242 -0.09144869062018955 0)
(24.64738151074051 1.559013820029455 0)
(22.87241549868798 6.332072527763043 0)
(20.03932158209034 10.17145119592544 0)
(24.75136207700387 -0.192774379438941 0)
(24.82900009439134 1.201745803190837 0)
(24.15947637799596 5.036510976910028 0)
(22.82651684005718 8.491979584482534 0)
(24.7647395241461 -0.0750117417337957 0)
(25.0396979487434 1.447839233210169 0)
(25.54509497399972 4.018015634666968 0)
(26.53924105748268 5.78658187331199 0)
(24.89630532424306 0.04189217619007191 0)
(25.45632904886449 1.100000692622739 0)
(26.84883552365575 2.656017979157326 0)
(29.35399542490839 2.58260568615906 0)
(24.93732919304539 -0.002647074401207514 0)
(25.60783887495784 0.6501178756424931 0)
(27.35540983016281 1.292574100780671 0)
(30.74096620158269 -0.9744054238687686 0)
(25.00933268359775 -0.01099481083342601 0)
(25.51531507887384 0.3042867366639943 0)
(27.27362571052828 0.2331582766097977 0)
(31.97347722751143 -2.560166203773243 0)
(27.96707365900048 -2.02997313483757 0)
(26.69486957116162 -0.4373426312745164 0)
(25.35848155522193 0.05789749468364713 0)
(25.03061500953157 -0.01269291681264487 0)
(25.06815054858544 -1.817935103139551 0)
(26.08636781739438 -1.171752126617685 0)
(25.21478486378131 -0.1270728524358569 0)
(25.02061208879974 -0.007009528899951696 0)
(22.05646888976325 -3.326192487309738 0)
(25.37660141365183 -1.813885700692017 0)
(25.08900625558481 -0.1930065141870009 0)
(25.0072310510307 -0.005530893806611001 0)
(17.90375659809477 -4.501048267794046 0)
(24.5386421294692 -2.249481941740277 0)
(24.96393671226232 -0.2306868807752024 0)
(25.00153646740602 -0.00738329350835857 0)
(16.15308458029214 -5.549490376608315 0)
(23.81336697763647 -1.899064468026336 0)
(24.89724854141121 -0.1452495089774097 0)
(24.99807834269039 -0.004399764542600061 0)
(17.00651725263937 -5.447947907523383 0)
(23.68082712312222 -1.286568004808212 0)
(24.90825807684667 -0.08159357892518379 0)
(24.99858189136571 -0.001367907848543281 0)
(18.19835166615774 -3.262530645016806 0)
(23.89394874973571 -0.6473974328065618 0)
(24.9417886002301 -0.0329816726367724 0)
(24.99946292174033 -0.0004306117403597388 0)
(20.29404395146317 -2.549360429670304 0)
(24.32941456743264 -0.4830399593535044 0)
(24.98571542659988 -0.02662442190551062 0)
(24.99982574172347 -0.0002324946937174396 0)
(20.54175618485971 0.2937773796768027 0)
(24.22191688746769 -0.01939089713339397 0)
(24.92806421144466 -0.002229413897963507 0)
(24.99743818817282 -5.261756417454825e-05 0)
(20.26426060304559 1.242643942694766 0)
(24.16481270425033 -0.01553794561572929 0)
(24.9283852148256 -0.006202341318075869 0)
(24.99762891590915 -0.0001879201520410735 0)
(19.85771394181225 1.32269084973613 0)
(24.07149822827632 -0.03297432064159813 0)
(24.92755931616609 -0.01098055678222104 0)
(24.99798181824282 -0.0002979802391695163 0)
(19.71566757138692 1.317829701809743 0)
(24.02706133284642 -0.049757254376869 0)
(24.93077910384408 -0.01274743507659028 0)
(24.99838479221254 -0.0003742730137777358 0)
(20.29404395139363 2.549360429800381 0)
(24.32941456745023 0.4830399593197388 0)
(24.98571542660204 0.02662442196393575 0)
(24.99982574159941 0.0002324951449957241 0)
(18.19835166603413 3.262530645213314 0)
(23.89394874973389 0.6473974328656846 0)
(24.94178860040777 0.03298167297330526 0)
(24.99946292175536 0.0004306113029685299 0)
(17.0065172525883 5.447947907625817 0)
(23.68082712311307 1.286568004850531 0)
(24.90825807687911 0.08159357927111265 0)
(24.99858189144257 0.001367908190820899 0)
(16.15308458020222 5.549490376648793 0)
(23.81336697747441 1.899064467825258 0)
(24.89724854135306 0.1452495088364279 0)
(24.99807834274423 0.004399764351108041 0)
(25.03061500915889 0.0126929167264423 0)
(25.35848155526281 -0.0578974949802618 0)
(26.69486957132283 0.4373426312817638 0)
(27.96707365916777 2.029973134745203 0)
(25.02061208866953 0.007009528964343517 0)
(25.2147848638085 0.1270728522388302 0)
(26.08636781742361 1.171752126389259 0)
(25.06815054862752 1.817935103006323 0)
(25.00723105110184 0.005530893926733478 0)
(25.08900625550293 0.1930065138858265 0)
(25.37660141369197 1.813885700754753 0)
(22.05646888978806 3.326192487186608 0)
(25.00153646742261 0.007383293400934975 0)
(24.96393671219085 0.2306868807529979 0)
(24.53864212917382 2.249481941503704 0)
(17.90375659803349 4.501048267770729 0)
(31.97347722784025 2.560166204099856 0)
(27.27362571075899 -0.2331582765769875 0)
(25.51531507910187 -0.3042867363485071 0)
(25.00933268373001 0.01099481099946814 0)
(30.74096620160927 0.9744054238750403 0)
(27.35540983028313 -1.292574100654005 0)
(25.60783887486616 -0.6501178755005649 0)
(24.93732919284943 0.002647075404031271 0)
(29.35399542486304 -2.582605686190886 0)
(26.84883552364775 -2.656017978874102 0)
(25.45632904845924 -1.100000692156957 0)
(24.89630532329916 -0.04189217460514062 0)
(26.53924105747117 -5.786581873234247 0)
(25.54509497391627 -4.018015634572949 0)
(25.03969794823509 -1.447839232806449 0)
(24.76473953107085 0.07501173636432075 0)
(24.93265403194491 0.05891896256489391 0)
(24.56597490983458 -0.8420364731330896 0)
(20.92824285915668 -6.259262943237545 0)
(16.73909197170929 -10.93956544746397 0)
(24.88848096323552 0.09476138496457139 0)
(24.35809172074899 -1.454071121105567 0)
(21.62818895976874 -6.873979019726336 0)
(17.96849305733823 -10.83092867127437 0)
(25.00615171089864 0.09144869262536212 0)
(24.64738151104947 -1.559013819800271 0)
(22.87241549896417 -6.332072527949005 0)
(20.03932158211338 -10.17145119587613 0)
(24.75136207379682 0.1927743803212866 0)
(24.82900009505152 -1.201745803383446 0)
(24.15947637790451 -5.036510977209272 0)
(22.82651684004486 -8.491979584488712 0)
(16.2019746871811 -10.50548836722097 0)
(21.37574967031088 -4.896769215104024 0)
(24.7028554377255 -0.5063305491043716 0)
(24.96408784515907 0.03438990024390787 0)
(15.92776974115073 -9.767287752595958 0)
(21.88965621168737 -3.692165574817929 0)
(24.84087816307025 -0.2476362342215344 0)
(24.98087825315272 0.01759208418863157 0)
(16.00924271230837 -8.73157707078904 0)
(22.47148480646214 -2.598191042463911 0)
(24.90153742871419 -0.1308883217668139 0)
(24.99144455832498 0.009216376788813499 0)
(16.08875779134872 -7.618348883156981 0)
(23.0869818107973 -1.65155979396429 0)
(24.95513307648806 -0.05152632186337727 0)
(24.99584696229392 0.003729500642245412 0)
(24.99907867849043 0.0003170139688817478 0)
(25.00775968905292 -0.005068522251198894 0)
(25.02538098968066 -0.1449143186217133 0)
(21.08370737680687 -1.69788782695831 0)
(24.99954292404167 0.0001667630850334071 0)
(25.00060503731916 -0.002587752267959815 0)
(24.71123769200662 -0.2041077068880771 0)
(18.00093950063748 -3.24021256597092 0)
(24.99947826091381 0.0004715784116659546 0)
(24.9925055406687 -0.006398677609966169 0)
(24.19855740177692 -0.4587500034019498 0)
(16.87801035682247 -4.9144726800478 0)
(24.99856910479175 0.001450531615003899 0)
(24.97751765682872 -0.02121713335365638 0)
(23.64897517521832 -0.9587131863917053 0)
(16.38564805706172 -6.378736286683896 0)
(24.99739649421928 0.0008287909386891138 0)
(24.99468378825639 0.002026871414843839 0)
(24.99212785820717 0.003519283850063659 0)
(24.99003556941362 0.005233745248229138 0)
(25.02315747687859 -0.0196801563085036 0)
(25.03039568387436 -0.04294416438088036 0)
(25.03527109393851 -0.06454847062610551 0)
(25.03526415008866 -0.08622202641856826 0)
(25.23618835689974 -0.1922046439087438 0)
(25.28094611373042 -0.3438950935014768 0)
(25.30096110996686 -0.4637375484472669 0)
(25.29919183585796 -0.572054458005999 0)
(24.90003560875041 -0.8358063958123094 0)
(25.72269669283155 -0.4509239095794498 0)
(25.83861288686895 -0.569589437030559 0)
(25.80532732563356 -0.8372963597838291 0)
(24.98882204796211 0.006901744884444115 0)
(25.0276547999463 -0.1056554532327117 0)
(25.25913937965412 -0.6811872247515501 0)
(25.71173862545912 -1.150020253139554 0)
(24.9885111640386 0.00818091948212344 0)
(25.01577479758138 -0.1173920435484628 0)
(25.18985239425331 -0.7598396281074637 0)
(25.51353419593336 -1.515858126462552 0)
(24.98938870547289 0.008952680988870766 0)
(24.99215042663555 -0.122446172564866 0)
(25.09797425596489 -0.8279164448143798 0)
(25.3928050604616 -1.883084027779114 0)
(24.99164988017618 0.008712254987354649 0)
(24.9675402471046 -0.1036919680590886 0)
(24.94001143854543 -0.8773284770501735 0)
(25.26508377405527 -2.251802644098261 0)
(24.99968610647914 0.0003785611115187886 0)
(24.9957040353294 -0.003768371792775511 0)
(24.76713293292383 -0.2377773007141888 0)
(23.58372912927771 -3.068078214068092 0)
(24.99882830183184 0.001113114489730378 0)
(24.98601526674602 -0.01150833713960726 0)
(24.66878006945634 -0.441332251218283 0)
(24.15029031447661 -3.061239237448431 0)
(24.9970514009822 0.002981049451432565 0)
(24.97123297284961 -0.03229211891818824 0)
(24.681288643421 -0.6885112541717532 0)
(24.67162512016308 -2.893160125325864 0)
(24.99498452085049 0.006113255401858923 0)
(24.96121679135407 -0.06779165267031964 0)
(24.79422803166196 -0.8470095818680841 0)
(25.03973645842051 -2.597684858076001 0)
(23.18915935710115 -2.532530087201044 0)
(24.85741036351343 -0.1224348583629906 0)
(24.99867093687543 -0.001132384607144067 0)
(24.9999090154152 0.00019824418575149 0)
(23.33198483218175 -2.26549168158876 0)
(24.88936799221947 -0.08483396015502087 0)
(24.99886464216405 -0.0009332865144648834 0)
(24.99993689757949 0.0002177370016315854 0)
(23.32453344549828 -1.95576644553285 0)
(24.93010122890041 -0.02609199828765073 0)
(24.99962671669805 -5.229231031675356e-05 0)
(24.99999175760188 -0.0001629421736257391 0)
(23.53525282466973 -1.504613068930994 0)
(24.97196433451976 0.00900774565721839 0)
(24.99998188985746 5.373024359081804e-05 0)
(24.99998861090726 1.08989079096738e-06 0)
(23.56174010852027 -1.162062202245666 0)
(25.01447896167398 0.02032123627656101 0)
(24.9999620139293 -8.020063077877866e-06 0)
(25.00000134357385 -3.75491957035411e-07 0)
(23.67737699833187 -0.7904095541409876 0)
(24.99033147835334 -0.01472602039080746 0)
(24.99999660124227 -6.852365200500198e-06 0)
(24.99999999985794 9.514255411234e-11 0)
(24.06169091713842 -0.217042104789183 0)
(24.99969286705827 -0.0001754043602263663 0)
(24.99999943405826 -7.105703289748677e-08 0)
(25.00000000000002 4.170601177657006e-13 0)
(24.72748120323214 0.1488625837894968 0)
(25.00018290482354 0.0001602611901218567 0)
(25.00000041073064 4.338531965092796e-08 0)
(25 -1.515650268024869e-15 0)
(25 -6.702248969194183e-16 0)
(24.99999999995364 -1.579470676230711e-11 0)
(24.99999997247406 4.411393717184362e-08 0)
(24.99980097994828 -1.295504768152003e-05 0)
(24.99999999999999 1.250941755799982e-15 0)
(25.00000000015979 2.009502674283585e-10 0)
(24.99999986709674 1.198563242112743e-07 0)
(24.99936525692927 0.001021188521974426 0)
(25 -1.800952704779225e-15 0)
(24.99999999915704 -2.6048546835892e-09 0)
(24.99999848200849 1.609819099253528e-06 0)
(24.99941675917784 0.001721908727493841 0)
(25 1.633346232294402e-16 0)
(25.00000002606233 1.446577350021831e-10 0)
(24.99998672832803 -5.61484815114996e-06 0)
(24.98239428832139 0.04910077021337322 0)
(24.99956630823502 -2.273389326138744e-12 0)
(24.99883622876858 0.00152957847098992 0)
(24.99762926498485 0.008905428792676199 0)
(24.94218087929868 0.0669391654092107 0)
(24.99883622847697 -0.00152957865022887 0)
(24.99732768155232 -2.478966037717564e-10 0)
(24.98847795381606 0.004692361234010472 0)
(24.81431792227839 0.007754930234098701 0)
(24.99762926475972 -0.008905428494384929 0)
(24.98847795378612 -0.004692361097820559 0)
(24.89297648281494 5.11949304554588e-10 0)
(23.91453810271973 -0.1791073659040361 0)
(24.94218087857774 -0.06693916588253686 0)
(24.81431792151464 -0.007754930899447715 0)
(23.91453810139962 0.179107365865446 0)
(21.00182911451373 -3.612525748797869e-10 0)
(18.63609327700865 2.391614700607163 0)
(19.72929163249677 3.044903312318101 0)
(22.28815016935545 2.283740189297133 0)
(23.77029609107097 1.022352026906778 0)
(19.58710047956871 4.455986953223951 0)
(19.67904617631925 4.516303484442176 0)
(20.54326430036478 4.289243343626589 0)
(21.80373108776384 3.610983111979795 0)
(19.08495933816008 5.45676284865697 0)
(20.32377962428332 4.822781666490926 0)
(21.0459878607901 5.028352151354725 0)
(21.76479456892973 4.738444467941135 0)
(19.19090212589597 6.100379066583348 0)
(20.80445546660882 5.019143879219741 0)
(21.34950581291243 5.207588789643608 0)
(21.74769395124732 5.006611510906384 0)
(21.9562935285442 5.15141629768345 0)
(22.0726975619077 5.23890285316495 0)
(22.17164725586317 5.339884255320674 0)
(22.23196567201106 5.379015432739231 0)
(21.70660240263066 5.271189298043141 0)
(21.95482177786504 5.326982123220115 0)
(22.05538256593293 5.397390248434329 0)
(22.64296368821864 5.672310432007298 0)
(21.32022116166355 5.111617991958732 0)
(21.73364115995024 5.221470834232067 0)
(21.88020407298172 5.329386512570148 0)
(23.95065055530828 6.048241916701524 0)
(19.48600827541758 6.174429196034622 0)
(20.11444254010474 6.246380390063942 0)
(20.42881978162094 6.200088110358875 0)
(25.53901556284293 7.425809137197702 0)
(24.56360050170171 3.821902438743232 0)
(26.30941936697756 1.483961816532019 0)
(26.06096840154978 0.2654152244911704 0)
(25.79687763148284 0.2701790646484357 0)
(25.90178103072248 2.97132890858651 0)
(27.94374000574451 0.4565708805294049 0)
(27.36242372412669 -0.04548802202393946 0)
(26.87781109222558 0.1341126126834778 0)
(28.60529559991973 2.296954446406218 0)
(29.42288332279632 -0.03544421742700523 0)
(28.11927980489424 -0.1753010372628495 0)
(27.49458653374201 0.01631746094953028 0)
(21.57840207372651 1.359704013036463 0)
(22.1837387878331 0.5705134816151525 0)
(22.6864986418252 0.09988390371987661 0)
(23.18671633757348 0.09466226551922818 0)
(25.72306182811161 0.296877711154977 0)
(25.66591770475479 0.2735761266034063 0)
(25.63452751859723 0.1901495411879989 0)
(25.70246430732801 0.03138528863304607 0)
(26.50677981971002 0.2743935937999864 0)
(26.1721527441066 0.2780009040021822 0)
(25.90394070767719 0.1543359931942321 0)
(25.80582954250711 0.05014887679506407 0)
(26.95576407498131 0.1134653011700075 0)
(26.43939105429178 0.1275206001473912 0)
(26.01651309599074 0.02372868796320987 0)
(25.73986332178897 0.02248244238208065 0)
(23.10948984773529 -0.1087718834018071 0)
(22.95358918230651 -0.3370871188319847 0)
(22.87750097566545 -0.2756372672558199 0)
(22.79803047101034 -0.2179118334050074 0)
(25.77813026605905 -0.08039647849790485 0)
(25.81060311305992 -0.1789673895214196 0)
(25.70521096708616 0.3152031092552842 0)
(19.98326472556566 4.253267763862304 0)
(25.80599601612628 -0.04287381338048746 0)
(25.83366086129743 -0.1702984903562928 0)
(25.47764638679962 0.9791240692419557 0)
(15.93847489307573 4.230202619124602 0)
(25.64960069252378 -0.01266506962258193 0)
(25.74898565966238 -0.1207581844751362 0)
(24.34981174032923 1.509770174696713 0)
(12.01101105450694 2.26916121854272 0)
(22.82613789973706 -0.3738565519926813 0)
(23.56813993060721 -0.4374153815658405 0)
(19.56014836660379 -0.04028415503137887 0)
(5.499545525761805 0.8615695091083972 0)
(13.54690217808026 7.014207664926817 0)
(13.35887951365235 6.929377185451999 0)
(13.653913438474 7.625806917730586 0)
(14.17691570464728 8.427088067349208 0)
(11.71916687810539 6.996123532448761 0)
(12.79489937951155 6.955122982087636 0)
(13.45378686125313 7.727702519329151 0)
(14.08958421466029 8.555456940854642 0)
(8.804943182981383 5.185134774263755 0)
(10.99129668014023 6.114778133044991 0)
(12.51299601602547 7.517814070332938 0)
(13.53930576509882 8.554096788651373 0)
(3.612620457681867 2.359921542615373 0)
(6.034039175643851 3.713285987521403 0)
(8.979897923323273 5.055052250003687 0)
(11.57279942327235 6.165725290812685 0)
(14.76958166664418 9.02558269365673 0)
(15.37564704410179 9.431663995364159 0)
(15.89418903373693 9.486686657200716 0)
(15.85657310322096 9.661980738258812 0)
(14.69476088121128 9.156475003459672 0)
(15.23799544312851 9.555628903027175 0)
(15.9058072763078 9.778699193555971 0)
(16.10426864354236 9.911203265885304 0)
(14.34535616390147 9.204896960918905 0)
(14.97028813357842 9.642597958860794 0)
(15.65522622193721 10.01860375433811 0)
(16.02314672788021 10.20932584979615 0)
(13.30082215522365 7.406887663824884 0)
(14.45839940289985 8.728978359514334 0)
(15.24839553865094 9.899103612427727 0)
(15.36091652175107 10.356339359251 0)
(15.71946592826042 10.04700038804209 0)
(16.69373781811941 11.03861601234938 0)
(18.20303287126266 11.35586993666672 0)
(21.09023376016934 10.36947644380301 0)
(15.8000623362694 10.10955407115987 0)
(16.46833517952598 10.78349726989109 0)
(17.97795556884448 11.19420000059534 0)
(21.50889081280457 12.04966604712792 0)
(15.84544140421876 10.28124831535873 0)
(16.40940683434127 10.58272033447803 0)
(18.41135590094789 11.55928761175256 0)
(27.30188518522393 16.9196855211342 0)
(15.34587208552308 10.71137254106626 0)
(16.25603542367092 10.64040262715456 0)
(19.1203679169452 11.77021245429735 0)
(37.57303390280589 22.6478533775051 0)
(26.69745142793885 5.664062315272678 0)
(30.2589129610104 -3.093023994428135 0)
(10.09297412458061 -3.229340667185769 0)
(8.028275371438401 7.855363086214398 0)
(27.50204045460994 5.428856300829782 0)
(26.03997156044237 -2.698860843874672 0)
(6.679201044832579 2.509722797074572 0)
(5.373978869338783 9.881599177642853 0)
(27.23304607353833 3.224855009186664 0)
(19.37294022875579 -7.408786394724013 0)
(2.705128098485467 5.097691223629445 0)
(3.15220188630585 9.718203166041695 0)
(17.04500159335352 -6.516754747703327 0)
(7.832958062911914 -6.738972017063714 0)
(1.1056200142129 7.656879959990172 0)
(1.673220698954202 9.241283757402087 0)
(6.881241069959707 9.067652662136437 0)
(3.930953112227582 8.746684568942655 0)
(0.7626938586846678 6.558130043209435 0)
(-0.9680371644447382 5.433398505037275 0)
(4.950501150683564 10.26352192054816 0)
(3.17259309395739 9.73399244049908 0)
(0.8936963915676984 7.825842861514974 0)
(-0.3214608697099824 4.700431685092288 0)
(2.838411560703942 10.02269688608162 0)
(2.100959856134186 9.708312286312248 0)
(0.8764694601448439 8.141720367059488 0)
(-0.3226447027134083 3.686373140358278 0)
(1.232721594258076 9.657782278019649 0)
(0.3135136119177384 9.458946276297123 0)
(-0.6713521873009419 7.846094718743542 0)
(-0.9414479370408135 3.209930351931285 0)
(0.5436825269057833 0.449472631508184 0)
(5.84439330977866 -5.719653861208807 0)
(10.27596966738767 -7.033808369165787 0)
(15.0844715547464 -7.196836953509299 0)
(-1.936174028938743 1.392089557439789 0)
(3.435477685446538 -2.95435284702538 0)
(9.128179560375681 -4.860893503590176 0)
(14.58082064582683 -5.767383123761728 0)
(-2.92876937288289 1.15481640179854 0)
(0.4023146851259422 -1.596426288969794 0)
(6.598174950138914 -3.530315677445411 0)
(13.51884940521582 -4.266754812405352 0)
(-2.730974441300331 1.50711530306282 0)
(-0.7878851765216762 0.1008024079304855 0)
(5.400861023722369 0.1675619210923993 0)
(14.38857540813015 -2.789430241192191 0)
(16.80994022825343 -10.12692536397489 0)
(17.69283022489268 -13.34688004189377 0)
(17.66894302947701 -13.92988039519086 0)
(13.76580616137956 -10.07778260510459 0)
(16.18063806194025 -9.139886983195344 0)
(16.3861778820452 -13.01026674291764 0)
(14.80636766157198 -10.92908066246604 0)
(10.60198524252304 -8.607014622973574 0)
(15.49721368231464 -10.30189307479354 0)
(14.55726255702435 -14.19587767064462 0)
(10.83610462654633 -9.106259757446475 0)
(5.77028891453619 -6.395972040029169 0)
(13.06769343256235 -12.08386759037693 0)
(8.267693348335433 -11.36412918319341 0)
(4.299809366241342 -4.193456956629197 0)
(1.412836049000335 -2.264540537517928 0)
(0.597353501993558 -0.9745545178717622 0)
(0.02586784069273106 -0.1376271466109369 0)
(-0.6123666560578143 0.1152168177044991 0)
(-0.9088806947825377 0.1069121027387312 0)
(2.311299013689768 -4.044125091349844 0)
(0.7220487703839856 -1.904401702787314 0)
(-0.6222191388367067 -1.093244861527324 0)
(-1.167502442363866 -0.2773105901298156 0)
(6.146378505550769 -5.1763149900145 0)
(2.468363870749871 -3.653630773270456 0)
(0.01999589521204338 -2.511146645555973 0)
(-0.7025177461582091 -0.8381952962585871 0)
(8.983228967624042 -5.769358520716966 0)
(6.110045316095147 -4.571493338043132 0)
(4.823308201325946 -2.740140099479122 0)
(4.627525398701425 -0.7831671650150525 0)
(-0.908880694789107 -0.1069121027091247 0)
(-1.167502442393304 0.2773105901264321 0)
(-0.7025177461726898 0.8381952961271851 0)
(4.627525398653415 0.7831671647874779 0)
(-0.612366656079831 -0.1152168176995095 0)
(-0.6222191388936216 1.093244861507942 0)
(0.01999589517631457 2.511146645455424 0)
(4.823308201309075 2.740140099301232 0)
(0.0258678406632389 0.1376271466013425 0)
(0.7220487703178785 1.904401702762392 0)
(2.468363870679117 3.653630773195691 0)
(6.11004531602824 4.571493337885603 0)
(0.5973535019706171 0.9745545178643539 0)
(2.311299013640824 4.044125091336589 0)
(6.146378505478823 5.176314989979645 0)
(8.983228967608543 5.769358520584563 0)
(13.76580616134611 10.07778260508606 0)
(17.66894302942012 13.92988039519554 0)
(17.69283022477941 13.34688004195235 0)
(16.8099402281216 10.12692536411097 0)
(10.60198524248895 8.607014622922039 0)
(14.80636766152368 10.92908066245354 0)
(16.38617788190405 13.01026674289754 0)
(16.18063806179554 9.139886983290269 0)
(5.770288914494031 6.395972040024412 0)
(10.83610462648563 9.106259757461995 0)
(14.55726255691344 14.19587767059254 0)
(15.49721368211652 10.30189307485599 0)
(1.412836048998656 2.264540537510556 0)
(4.29980936626118 4.193456956609339 0)
(8.267693348327441 11.36412918309989 0)
(13.06769343246603 12.08386759031654 0)
(14.38857540793509 2.789430241209498 0)
(5.400861023582212 -0.1675619211388887 0)
(-0.7878851765992566 -0.1008024080105261 0)
(-2.730974441271057 -1.507115303021919 0)
(13.51884940500722 4.266754812505233 0)
(6.598174949920634 3.530315677402749 0)
(0.4023146849832802 1.59642628886278 0)
(-2.928769372888337 -1.154816401770227 0)
(14.58082064566589 5.767383123862835 0)
(9.128179560156934 4.860893503608693 0)
(3.435477685276495 2.954352846821126 0)
(-1.936174029001672 -1.3920895575014 0)
(15.08447155459301 7.196836953635508 0)
(10.27596966717192 7.033808369250165 0)
(5.844393309644792 5.719653861003519 0)
(0.5436825267832442 -0.4494726316377666 0)
(-0.9680371644586638 -5.433398505133597 0)
(0.7626938585452043 -6.558130043175999 0)
(3.930953112089961 -8.746684568988345 0)
(6.881241069899109 -9.067652662299515 0)
(-0.3214608697534325 -4.700431685035539 0)
(0.8936963914198693 -7.825842861372621 0)
(3.172593093810925 -9.733992440401865 0)
(4.950501150613262 -10.26352192058833 0)
(-0.3226447027251965 -3.68637314027364 0)
(0.8764694600530818 -8.141720366868789 0)
(2.100959856059477 -9.708312286140464 0)
(2.838411560640602 -10.0226968860814 0)
(-0.9414479370463917 -3.209930351854393 0)
(-0.6713521873252848 -7.846094718561871 0)
(0.3135136118754775 -9.458946276115389 0)
(1.232721594211586 -9.657782278003847 0)
(8.028275371438164 -7.855363086417045 0)
(10.0929741243872 3.229340666873744 0)
(30.25891296112892 3.093023994521445 0)
(26.69745142800151 -5.664062315147316 0)
(5.373978869378524 -9.88159917776319 0)
(6.679201044818257 -2.509722797356106 0)
(26.03997156052581 2.698860843836642 0)
(27.502040454626 -5.428856300762614 0)
(3.152201886340181 -9.718203166158874 0)
(2.705128098497668 -5.097691223930739 0)
(19.37294022883729 7.408786394554587 0)
(27.23304607357471 -3.224855009335294 0)
(1.673220698956344 -9.241283757542039 0)
(1.105620014293437 -7.656879960247339 0)
(7.832958063125423 6.738972017121751 0)
(17.04500159357287 6.51675474775478 0)
(21.09023376023237 -10.36947644374454 0)
(18.20303287125108 -11.35586993652185 0)
(16.69373781808218 -11.03861601230038 0)
(15.71946592814052 -10.04700038802147 0)
(21.50889081282495 -12.04966604713912 0)