/*--------------------------------*- C++ -*----------------------------------*\
  =========                 |
  \\      /  F ield         | OpenFOAM: The Open Source CFD Toolbox
   \\    /   O peration     | Website:  https://openfoam.org
    \\  /    A nd           | Version:  11
     \\/     M anipulation  |
\*---------------------------------------------------------------------------*/
FoamFile
{
    format      ascii;
    class       volScalarField;
    location    "0.244";
    object      rho;
}
// * * * * * * * * * * * * * * * * * * * * * * * * * * * * * * * * * * * * * //

dimensions      [0 0 0 0 0 0 0];

internalField   nonuniform List<scalar> 
880
(
0.3733250556165154
0.3733250556179677
0.373325057266448
0.3733366016357822
0.3733250556165155
0.37332505560908
0.373325059741217
0.3733487560179528
0.3733250556165155
0.3733250556079533
0.3733250672379391
0.373419179453413
0.3733250556165154
0.3733250550953066
0.3733253322625983
0.3741642345234564
0.3733250556165155
0.3733250556165155
0.3733250555025693
0.3733250844889222
0.3733250601611608
0.3733250527364875
0.3733251028127288
0.3733247094712864
0.37332379803557
0.3733271075453773
0.3734693214932117
0.3730550016364986
0.3825253599930112
0.396100548067746
0.403974905007854
0.4070391269448108
0.3733250990841179
0.3733276157103779
0.3733277513042618
0.37332824552674
0.3733267919297216
0.3733362229600902
0.3733495231633404
0.3733599854034853
0.3742486784460879
0.3750105917236519
0.3758603410021319
0.3768300223226148
0.4115145022522232
0.4169209273099507
0.4221239850685716
0.4307117353203936
0.4255104397471749
0.4138123571681235
0.4026263847073183
0.3952601462581167
0.3799882397427207
0.3847419197218758
0.3866045931410329
0.3874617099665267
0.3734421890643729
0.373730509992198
0.3741800933493966
0.3746650685494249
0.3733358463637398
0.3733610782193574
0.3734222867145269
0.3735314122835094
0.3736305674602882
0.3736732454600674
0.3736585252360395
0.3736048773326849
0.3751238093293555
0.3755429072786621
0.3757433402167634
0.3755650335540269
0.3879487810214698
0.3881651305419709
0.3878143918620124
0.3867442830415
0.3920359161558713
0.3903252910614795
0.3888919260814852
0.3892982677695723
0.3906289770576165
0.3856859562931929
0.3752923064771259
0.3735320739851433
0.3911772191774455
0.3843766919099212
0.3749633636212568
0.3734577622015631
0.3909218071610143
0.3825654476322095
0.3745664492319506
0.3733951078536348
0.4101017137531186
0.3813506162534251
0.3740982381367892
0.3733491515780475
0.3733225292940489
0.3736450086202464
0.380392089206602
0.5006481766715142
0.373323931708704
0.3734652210283934
0.3855234256125106
0.5850129221846166
0.3733364335952477
0.3736181731998046
0.3961488236507089
0.616180529555445
0.3733733516259671
0.3740122424022848
0.4099334311894626
0.634717113705672
0.6503993944595561
0.4297212151876131
0.375075136338484
0.3734532905479808
0.6638655632395543
0.4543064035399795
0.3768771950813856
0.3736377043006649
0.66924300511523
0.4825341168388179
0.3803484652900754
0.3739690915688505
0.6675314880510127
0.5159966786450889
0.3863349774107186
0.3746279867702349
0.3756979441313048
0.3955731534893831
0.5409579702510358
0.6618175771339244
0.3776148986828364
0.4065065792977955
0.5461929170183193
0.6246425334342826
0.3800500446202251
0.40631752994697
0.5136961298358239
0.5676098947084045
0.3780478954069283
0.3974440844545029
0.4747509415796747
0.5003878684643207
0.3780123819830036
0.4008458427949816
0.4316798463466514
0.3996425782787243
0.3795868069141067
0.3895280611664
0.3853270275250315
0.2808959148339062
0.3776263739094916
0.3807097570384246
0.3581242748384147
0.1924568336389536
0.3755831760282804
0.3754562374293253
0.3380307193175179
0.1316503684722676
0.1321205673092571
0.3338527385502962
0.3736499539881493
0.3741877703297513
0.1305332808937804
0.327639687183562
0.3726785948626124
0.3734608938231855
0.1336253547385628
0.3255018201816017
0.3713344248039088
0.3733857700632554
0.1285351041900709
0.3202862237229766
0.3696937532386097
0.373269910791974
0.1626930694048059
0.3315487476121002
0.3699469716368657
0.3732600925401181
0.1974942765880026
0.3397867688635744
0.3708829209305423
0.3732845191066129
0.2203162766534164
0.344935207126769
0.3716935947876066
0.373304474876068
0.2418127286121881
0.3529197912655936
0.372746801894851
0.373318158837652
0.2660710502152657
0.3532302391531891
0.3714763602420693
0.3732613341739406
0.259426469372535
0.3514330751036668
0.371456301955298
0.3732649762152785
0.2528964386490142
0.3485679399343679
0.3713692537152057
0.3732701243066921
0.2491381747897012
0.3466036964696626
0.3713491657450027
0.3732779128539068
0.2418127286121625
0.3529197912640082
0.3727468018938398
0.3733181588298522
0.2203162766527906
0.3449352071252899
0.3716935947790126
0.3733044748745151
0.1974942765861607
0.339786768861985
0.370882920925979
0.3732845191108011
0.1626930694045237
0.3315487476153023
0.3699469716370294
0.3732600925371933
0.3741877703392832
0.3736499539947382
0.333852738547486
0.1321205673072905
0.3734608938254062
0.3726785948700339
0.327639687184636
0.1305332808931684
0.3733857700600942
0.371334424811062
0.3255018201818174
0.1336253547383045
0.3732699107928651
0.3696937532408816
0.3202862237302967
0.1285351041899781
0.1316503684694894
0.3380307193124982
0.3754562374272999
0.3755831760263245
0.1924568336386237
0.3581242748352239
0.3807097570299268
0.3776263739028313
0.2808959148351658
0.3853270275227632
0.3895280611655486
0.3795868069209953
0.3996425782790258
0.4316798463446435
0.4008458427948017
0.3780123819919898
0.3756979441319496
0.3955731534993503
0.5409579702570759
0.6618175771321541
0.377614898683287
0.4065065793021748
0.5461929170170624
0.6246425334359378
0.3800500446424809
0.406317529946767
0.5136961298278275
0.5676098947099396
0.3780478953716139
0.3974440844504473
0.4747509415778242
0.5003878684634605
0.6675314880481695
0.5159966786459492
0.3863349774155164
0.3746279867749306
0.6692430051183181
0.4825341168404302
0.3803484652858948
0.3739690915732258
0.6638655632487631
0.4543064035430096
0.3768771950929085
0.3736377043017702
0.6503993944617265
0.429721215192475
0.375075136334776
0.3734532905465825
0.3733225292910025
0.3736450086256548
0.3803920892066062
0.5006481766694488
0.373323931705159
0.373465221026351
0.3855234256112837
0.5850129221812784
0.3733364335920841
0.3736181732029836
0.3961488236618617
0.6161805295640553
0.3733733516230588
0.374012242398974
0.4099334311782276
0.6347171136986388
0.373349151580499
0.3733951078569194
0.3734577622012515
0.3735320739825865
0.3740982381297644
0.3745664492367232
0.3749633636223745
0.375292306474537
0.3813506162525886
0.3825654476318759
0.3843766919076538
0.3856859562938343
0.4101017137528596
0.3909218071611443
0.3911772191792986
0.3906289770610933
0.3736048773284307
0.3755650335528257
0.3867442830446063
0.3892982677712457
0.3736585252375205
0.3757433402163309
0.3878143918611464
0.3888919260816037
0.3736732454626281
0.3755429072801729
0.3881651305426825
0.3903252910602482
0.3736305674602763
0.3751238093343182
0.387948781025109
0.3920359161530438
0.3733358463589105
0.3734421890514691
0.3799882397381926
0.4255104397459691
0.3733610782040757
0.3737305099886094
0.3847419197183337
0.413812357163467
0.3734222867043365
0.3741800933580189
0.3866045931429866
0.4026263847027053
0.3735314122774031
0.3746650685598907
0.3874617099716027
0.3952601462521769
0.4307117353224824
0.3768300223219921
0.3733599853905805
0.3733282455424965
0.422123985069613
0.3758603410038857
0.3733495231573417
0.3733277513264988
0.416920927310645
0.3750105917227146
0.3733362229690645
0.3733276156986051
0.4115145022463685
0.3742486784431241
0.3733267919280586
0.3733250990863013
0.4070391269494977
0.3730550016371283
0.3733247094722856
0.3733250844909568
0.403974905012193
0.3734693214857501
0.3733251028128627
0.3733250555024678
0.3961005480714413
0.3733271075441541
0.3733250527367479
0.3733250556165152
0.3825253599955515
0.373323798035507
0.3733250601612891
0.3733250556165152
0.3733250556165155
0.3733250556180673
0.3733250572671373
0.373336601635401
0.3733250556165152
0.3733250556088426
0.3733250597411582
0.3733487560138852
0.3733250556165154
0.3733250556078226
0.3733250672372201
0.3734191794597253
0.3733250556165154
0.3733250550950941
0.3733253322602585
0.3741642345020665
0.3733495239178032
0.3733935001026467
0.3736217314250105
0.375920786223102
0.3733935001048473
0.3734606720671539
0.3738112115010698
0.379835611220993
0.3736217314199791
0.3738112114946037
0.376019129034552
0.4015128117649275
0.3759207862461535
0.3798356112495223
0.4015128118114267
0.4605621762737378
0.5394652541414118
0.4846153865290027
0.4539244655172666
0.4175216719481023
0.5275031957939023
0.5153469249020494
0.5159668275219361
0.4910526441511418
0.5253157798085254
0.5221885498755973
0.5228176803438114
0.5134741353344621
0.5256347347602147
0.5248980566263858
0.5254318519007347
0.5199929689115728
0.5163329708020986
0.511445106021656
0.5091405273029376
0.5112483925964366
0.5201030503261296
0.5134876741711604
0.5109857647509218
0.5127315283058691
0.520615509223129
0.5140170513554094
0.5116809470867695
0.5136901762844187
0.5210824383339248
0.5141377448500236
0.5115111685531433
0.5032625972351976
0.4415602060828006
0.3705591472658771
0.3484459997913568
0.3458996091264154
0.4129793974544173
0.3491106524427333
0.3415755960278711
0.3424042780385863
0.384534640127506
0.3446668301452511
0.3447814116855455
0.3449173537121059
0.3335701361875563
0.3319466886258803
0.3408135926177017
0.3425856393299212
0.3488275504092766
0.3534515357379007
0.3582444978908499
0.3631155051428117
0.346158508813069
0.3509430381397665
0.3558025709132639
0.3609981843515192
0.3472957584034613
0.3513422316976674
0.3537172522809924
0.3594127600436267
0.3450934277938376
0.3490752133498095
0.3533433296453588
0.3592343035852131
0.3685255043595361
0.3727587287901457
0.397119439791809
0.5338247331845547
0.3666728939264116
0.3714296796676861
0.4079542892652342
0.5659356366715368
0.3649620796246321
0.3704822663775475
0.4190578365507711
0.5766969859486056
0.3646708963334139
0.3702867956974268
0.4215047068527309
0.5833196022842013
0.7812228221559742
0.8020386238780118
0.7859083744952401
0.7618205802707263
0.8000580107504914
0.8045192270683601
0.7894917260771849
0.7638373800973342
0.782150123708249
0.7996411413246536
0.7907350952157227
0.7663658646918949
0.7780536661201971
0.8011884815705532
0.7933864283980047
0.7696304045615449
0.7428444400939473
0.7352149793412195
0.7448121736190286
0.733952822530185
0.7438518689027828
0.7362532695101539
0.7451845738577682
0.7442735063078004
0.744220941648039
0.7339760320649036
0.7439797533143588
0.7504013066630614
0.7480322382428027
0.7376156869137069
0.7472974710757145
0.7568035471353659
0.7257891257277056
0.6710133729258527
0.607727385227141
0.5224658035793096
0.7356286637369095
0.6841835237947053
0.6167526488968484
0.5321978626791597
0.7449317846849977
0.6978994618105567
0.6217629710615898
0.5337784428614061
0.7486196783870509
0.7096051651216012
0.62971203109902
0.6252883090799504
0.3282463501611536
0.07890805862795915
0.0152426237321806
0.0163309611467676
0.2673803077483413
0.05236686896684819
0.01972952625415733
0.02381990491803519
0.2047022232914212
0.03162337334865615
0.01998816196273211
0.02909220660997076
0.1484081094496347
0.01530038525699366
0.02148995754131843
0.02847113234809857
0.02235087046965332
0.02886415310887188
0.03965396347359487
0.055699852965593
0.03110601737772305
0.03916828107974746
0.05020336573741033
0.06546458432319539
0.03733018329386394
0.04639764317927478
0.05879761639708732
0.07493784026228591
0.04074737094272956
0.05244769536276772
0.0670088011513212
0.08266779276843118
0.07779486053479787
0.1075377944681882
0.1317355030278824
0.1542107265017814
0.08201245705785397
0.1088534908032827
0.1326862787831151
0.1580050537145848
0.08546471144762878
0.1083063798501052
0.1288903309377734
0.1491017754644496
0.08195127113967757
0.1027167030945006
0.1211363131169171
0.1462247129355106
0.1236597623663176
0.09650168785463804
0.08861398664787778
0.101888768802027
0.1207160943675803
0.08794077546875208
0.09103817227190047
0.09190276291392516
0.1012979787027489
0.07284248791575162
0.08294143013581248
0.09044839769029266
0.07881252384983492
0.06430744646624906
0.07758156456711596
0.08885636600321713
0.1014526965263013
0.1067510545129321
0.1069874965392741
0.1064783198019973
0.1031312119677075
0.1086670717373473
0.1071163456052855
0.1049589404635772
0.09867141290570464
0.1017081577634384
0.1011465379372959
0.1004585624701026
0.1184282371516387
0.116049136409785
0.1092409843065633
0.1041330067545636
0.1064783198020254
0.1049589404635417
0.1004585624701976
0.1041330067548015
0.1069874965392713
0.107116345605379
0.1011465379375774
0.1092409843073836
0.1067510545131524
0.1086670717376958
0.1017081577639455
0.1160491364103568
0.1014526965266595
0.1031312119682425
0.09867141290619108
0.1184282371524996
0.1018887688021928
0.08861398664803948
0.09650168785514447
0.1236597623665738
0.09190276291448203
0.09103817227252119
0.08794077546949966
0.1207160943679414
0.09044839769091646
0.08294143013647728
0.07284248791645732
0.1012979787033089
0.08885636600355022
0.07758156456735806
0.06430744646672512
0.07881252385010794
0.1462247129352778
0.1211363131153304
0.1027167030927327
0.08195127113870229
0.1491017754649519
0.1288903309369198
0.1083063798482304
0.0854647114464023
0.1580050537150202
0.1326862787824981
0.1088534908014128
0.082012457056265
0.1542107265020804
0.1317355030272664
0.1075377944666368
0.07779486053315753
0.0556998529649137
0.03965396347343413
0.02886415310853811
0.02235087046920155
0.06546458432249005
0.05020336573727575
0.03916828107962677
0.0311060173773369
0.07493784026159227
0.05879761639711607
0.04639764317931887
0.03733018329351445
0.08266779276768953
0.06700880115129185
0.05244769536282498
0.04074737094242178
0.01633096114661028
0.01524262373194451
0.078908058628164
0.328246350164034
0.02381990491797866
0.01972952625397923
0.05236686896723206
0.2673803077516195
0.02909220660987434
0.01998816196261599
0.03162337334890052
0.2047022232936108
0.02847113234682369
0.02148995754086828
0.01530038525699996
0.1484081094509885
0.5224658035829305
0.6077273852342482
0.6710133729279439
0.7257891257258233
0.5321978626840674
0.6167526489029684
0.6841835237966022
0.7356286637376064
0.5337784428663304
0.6217629710677111
0.6978994618127157
0.7449317846893844
0.625288309085528
0.6297120311068357
0.7096051651294151
0.7486196783878224
0.7339528225331036
0.7448121736247987
0.7352149793444265
0.7428444400932198
0.7442735063122971
0.7451845738677516
0.7362532695142479
0.7438518689008896
0.7504013066703038
0.7439797533260601
0.7339760320693602
0.7442209416459294
0.7568035471425647
0.7472974710872706
0.7376156869175334
0.7480322382400202
0.7618205802735174
0.7859083744975036
0.8020386238777913
0.7812228221536263
0.7638373801001417
0.7894917260795286
0.8045192270688954
0.8000580107495965
0.76636586469627
0.7907350952175027
0.7996411413254043
0.7821501237087439
0.7696304045657338
0.7933864283997627
0.8011884815715166
0.7780536661234908
0.533824733182623
0.397119439789053
0.3727587287936633
0.3685255043641599
0.565935636669712
0.4079542892611386
0.3714296796715131
0.3666728939315333
0.5766969859476713
0.419057836545967
0.3704822663807613
0.3649620796291729
0.5833196022819541
0.4215047068481672
0.3702867957012257
0.3646708963384748
0.3631155051450257
0.3582444978909424
0.3534515357359272
0.3488275504058599
0.3609981843536592
0.3558025709128975
0.3509430381376349
0.3461585088095319
0.3594127600454189
0.3537172522809807
0.351342231695575
0.3472957583999983
0.3592343035871406
0.3533433296452033
0.3490752133478768
0.3450934277903298
0.3458996091219541
0.3484459997871561
0.3705591472615964
0.4415602060807906
0.3424042780341045
0.3415755960232263
0.3491106524391089
0.4129793974532348
0.3449173537076579
0.3447814116806228
0.3446668301410705
0.3845346401271832
0.3425856393251977
0.3408135926131457
0.3319466886227434
0.3335701361912494
0.5112483925907456
0.5091405272972171
0.5114451060192432
0.5163329707982578
0.5127315282989624
0.5109857647452311
0.5134876741669661
0.5201030503219986
0.5136901762770162
0.5116809470826736
0.5140170513524309
0.5206155092189992
0.503262597224553
0.5115111685492689
0.5141377448464605
0.521082438326033
0.519992968935814
0.5134741353610437
0.4910526441673883
0.4175216719440939
0.52543185191574
0.522817680356418
0.5159668275365276
0.4539244655116602
0.524898056627502
0.5221885498760819
0.5153469249185433
0.4846153865256074
0.5256347347537934
0.5253157797988469
0.5275031958025043
0.5394652541430794
0.2491567620921734
0.3529360987891119
0.3722620010182295
0.3733089444109257
0.2445686983814357
0.3506398762148171
0.3717837724275929
0.3732951086574442
0.2456570432922818
0.3485158681481506
0.371527560396206
0.3732881557610716
0.2445032706529799
0.3467508469873655
0.3714033739760332
0.373283780197958
0.3732613341644897
0.3714763602465218
0.3532302391548647
0.2660710502115202
0.3732649762099899
0.3714563019609781
0.3514330751111922
0.2594264693716902
0.3732701243036988
0.3713692537165759
0.3485679399389325
0.2528964386514331
0.3732779128471619
0.3713491657476859
0.3466036964677024
0.2491381747919178
0.3732837801881919
0.3732881557570144
0.3732951086550324
0.3733089444015557
0.3714033739799857
0.3715275603974987
0.3717837724274098
0.3722620010209691
0.3467508469833932
0.3485158681433209
0.3506398762138922
0.3529360987879811
0.2445032706529741
0.2456570432914519
0.2445686983800964
0.2491567620906899
)
;

boundaryField
{
    back
    {
        type            empty;
    }
    inlet
    {
        type            calculated;
        value           nonuniform List<scalar> 
16
(
0.3733250556165154
0.3733250556165155
0.3733250556165155
0.3733250556165154
0.3733250556165155
0.3733250556165155
0.3733250555025693
0.3733250844889222
0.3733250844909568
0.3733250555024678
0.3733250556165152
0.3733250556165152
0.3733250556165155
0.3733250556165152
0.3733250556165154
0.3733250556165154
)
;
    }
    front
    {
        type            empty;
    }
    top
    {
        type            calculated;
        value           nonuniform List<scalar> 
40
(
0.3733250990841178
0.373327615710378
0.3733277513042618
0.37332824552674
0.3733358463637398
0.3733610782193574
0.3734222867145269
0.3735314122835094
0.3736305674602882
0.3736732454600674
0.3736585252360395
0.3736048773326849
0.3735320739851433
0.3734577622015631
0.3733951078536348
0.3733491515780475
0.3733225292940489
0.373323931708704
0.3733364335952477
0.3733733516259671
0.3734532905479808
0.3736377043006649
0.3739690915688505
0.3746279867702349
0.3756979441313048
0.3776148986828364
0.3800500446202251
0.3780478954069283
0.3780123819830035
0.3795868069141067
0.3776263739094916
0.3755831760282804
0.3741877703297513
0.3734608938231855
0.3733857700632554
0.373269910791974
0.3732600925401181
0.3732845191066129
0.373304474876068
0.373318158837652
)
;
    }
    outlet
    {
        type            calculated;
        value           uniform 0.3733250556165154;
    }
    bottom
    {
        type            calculated;
        value           nonuniform List<scalar> 
40
(
0.3733181588298522
0.373304474874515
0.3732845191108011
0.3732600925371933
0.3741877703392832
0.3734608938254062
0.3733857700600942
0.3732699107928651
0.3755831760263245
0.3776263739028312
0.3795868069209953
0.3780123819919898
0.3756979441319496
0.377614898683287
0.3800500446424809
0.3780478953716139
0.3746279867749306
0.3739690915732258
0.3736377043017702
0.3734532905465825
0.3733225292910025
0.3733239317051589
0.3733364335920841
0.3733733516230587
0.373349151580499
0.3733951078569194
0.3734577622012515
0.3735320739825865
0.3736048773284306
0.3736585252375205
0.3736732454626281
0.3736305674602763
0.3733358463589105
0.3733610782040757
0.3734222867043365
0.3735314122774031
0.3733282455424965
0.3733277513264988
0.3733276156986051
0.3733250990863013
)
;
    }
    wall
    {
        type            calculated;
        value           nonuniform List<scalar> 
104
(
0.5394652541414118
0.5275031957939023
0.5253157798085254
0.5256347347602147
0.5210824383339248
0.5141377448500236
0.5115111685531433
0.5032625972351976
0.3335701361875563
0.3319466886258803
0.3408135926177017
0.3425856393299212
0.3450934277938376
0.3490752133498095
0.3533433296453588
0.3592343035852131
0.3646708963334139
0.3702867956974268
0.4215047068527309
0.5833196022842013
0.7780536661201971
0.8011884815705532
0.7933864283980047
0.7696304045615449
0.7480322382428027
0.7376156869137069
0.7472974710757145
0.7568035471353659
0.7486196783870509
0.7096051651216012
0.62971203109902
0.6252883090799504
0.1484081094496347
0.01530038525699366
0.02148995754131843
0.02847113234809857
0.04074737094272956
0.05244769536276772
0.0670088011513212
0.08266779276843117
0.08195127113967757
0.1027167030945006
0.1211363131169171
0.1462247129355106
0.07881252384983492
0.06430744646624906
0.07758156456711596
0.08885636600321713
0.1014526965263013
0.1067510545129321
0.1069874965392741
0.1064783198019973
0.1064783198020254
0.1069874965392713
0.1067510545131524
0.1014526965266595
0.08885636600355022
0.07758156456735806
0.06430744646672512
0.07881252385010794
0.1462247129352778
0.1211363131153304
0.1027167030927327
0.08195127113870229
0.08266779276768953
0.06700880115129185
0.05244769536282498
0.04074737094242178
0.02847113234682369
0.02148995754086828
0.01530038525699996
0.1484081094509885
0.625288309085528
0.6297120311068357
0.7096051651294151
0.7486196783878224
0.7568035471425647
0.7472974710872706
0.7376156869175334
0.7480322382400202
0.7696304045657338
0.7933864283997627
0.8011884815715166
0.7780536661234908
0.5833196022819541
0.4215047068481672
0.3702867957012257
0.3646708963384748
0.3592343035871406
0.3533433296452033
0.3490752133478768
0.3450934277903298
0.3425856393251977
0.3408135926131457
0.3319466886227434
0.3335701361912494
0.503262597224553
0.5115111685492689
0.5141377448464605
0.521082438326033
0.5256347347537934
0.5253157797988469
0.5275031958025043
0.5394652541430794
)
;
    }
}


// ************************************************************************* //
