/*--------------------------------*- C++ -*----------------------------------*\
  =========                 |
  \\      /  F ield         | OpenFOAM: The Open Source CFD Toolbox
   \\    /   O peration     | Website:  https://openfoam.org
    \\  /    A nd           | Version:  11
     \\/     M anipulation  |
\*---------------------------------------------------------------------------*/
FoamFile
{
    format      ascii;
    class       volScalarField;
    location    "0.3588";
    object      T;
}
// * * * * * * * * * * * * * * * * * * * * * * * * * * * * * * * * * * * * * //

dimensions      [0 0 0 1 0 0 0];

internalField   nonuniform List<scalar> 
880
(
500.0000000000027
500.0000002886467
500.0239019473848
503.3326851681768
500.0000000004407
500.0000008471952
500.0297158554451
504.8767995884755
500.0000000016356
500.0000033010684
500.0551072891543
506.7033463294171
500.0000000210925
500.0000144786267
500.1143518580896
509.4138172522669
499.9999999008492
500.0000000734066
500.0000100718197
500.0001634833555
500.0000666431836
500.0002544031472
500.001610280656
500.0023484470959
500.262538590127
500.433520902666
500.7169442717337
500.9576211095984
514.9013811212112
521.0943365367237
526.3537768871148
529.008357417075
500.0004093405699
500.0033733061339
500.0127541482191
500.0396164266089
500.0227218599664
500.0981895762229
500.1997600975588
500.420422746207
502.4110243708963
503.6919879836669
505.2771118640658
507.2187989808126
531.2375515609356
533.8802390851082
534.3772771629217
533.1549669745181
522.8347751872194
517.6370121165218
515.4460355717149
513.9727842699849
511.0342094326761
512.6495988525048
513.5642603792199
513.6952088543915
501.1736842015147
502.0542190696388
502.9999727850088
503.7567931380622
500.1405813155448
500.3394073441314
500.6392615083116
501.0607943240238
501.5526960848634
502.0434490206191
502.5271022661609
502.8765309357407
504.3816500692105
504.7370262880252
504.9389212285763
504.8891280623485
513.057313109152
512.1617633886653
510.98365796785
509.7471242682392
512.2207497455979
511.037127975458
510.2812036236157
509.5189060423592
508.9344020869714
508.8775916603338
504.7493639995607
503.0816322760227
519.098174493918
508.0355266585591
504.3796085308803
503.0410279875535
571.0305645525159
510.4100936921465
503.9205543786077
502.5884335809664
620.1760099092317
523.8169337162132
504.7668052453989
502.4334482559957
502.3735455191374
506.044153742916
539.5757168407048
637.3444992260106
501.4988785194658
508.5507464125849
556.1651931571224
635.1407565270092
501.8733033925556
514.3666675986434
576.4496148847589
636.1837041680928
503.2959837196973
524.7367153226481
594.6157221847635
633.4685223873339
628.3746217067725
604.7407377196322
539.6389095896304
506.4356694485629
621.8787858178238
607.4502767012144
554.8140485004733
512.0785132800871
614.5652302953897
605.3043570452548
566.8531824035873
521.0277681093306
606.681752865798
594.2928940673067
568.9925203500558
531.917688986411
541.1340321968345
563.5754065422782
579.7943972894692
597.1681235724463
539.6923592212239
552.0188892633786
562.8630280767544
582.2152659420057
535.7155597609493
540.2906142459242
544.5460204314379
560.5890178304745
530.5392774984037
529.8115098864739
525.3420657824283
530.4281604560119
526.6729956115585
520.4322360329041
508.5397710081717
495.5627651284005
520.5304165558388
511.2611911871659
492.0251460856234
459.8721884284142
515.710677244628
506.0083798343129
478.0893656308569
425.0371157407688
511.54665984155
504.5787307922737
477.9057762274193
399.4931596808056
411.1928977307667
487.0257807386356
503.2555740950716
507.7388856230998
478.3132723338475
493.1442952987874
502.4044526490812
505.1425898533635
517.425461700008
495.8244659817918
500.88196796153
503.3343143241936
530.3638041439987
500.5069272387128
500.234291854666
502.2687934203751
539.0147836039082
504.3763745773218
498.9676396309872
500.3810829286028
533.7332818552549
504.3054128334551
497.661067022916
499.2207947523282
525.6147755234614
503.4513019394278
497.2801694709113
499.1984067847465
517.5181447099561
499.0646155178789
497.0867175764238
499.409291101585
479.6123584343671
469.424989405346
488.9935078294207
498.6931788896455
474.0778114840074
471.3097505957963
489.4787615866567
498.692496257022
465.0394728824286
473.4428256560885
490.3686621853238
498.7054160276874
459.3427719858826
476.2774110750199
491.4113955705352
498.7928952428035
517.5181447100344
499.0646155175558
497.0867175768304
499.4092911013209
525.6147755235813
503.4513019388066
497.2801694709396
499.1984067840416
533.7332818552984
504.305412832725
497.6610670217642
499.220794751376
539.0147836039874
504.376374576627
498.9676396307922
500.3810829280498
507.738885623298
503.2555740953704
487.0257807390486
411.1928977297067
505.1425898532728
502.4044526491573
493.1442952994573
478.3132723329698
503.3343143241218
500.8819679615755
495.8244659810022
517.4254616998055
502.2687934201368
500.2342918550178
500.5069272379924
530.3638041443494
399.4931596821228
477.9057762272584
504.5787307923219
511.5466598416832
425.0371157408849
478.0893656308746
506.0083798348014
515.7106772445933
459.8721884285829
492.0251460859362
511.2611911872405
520.5304165559552
495.5627651287188
508.5397710079964
520.4322360325241
526.6729956116668
541.134032196839
563.5754065428724
579.7943972901315
597.168123572884
539.6923592207673
552.0188892630638
562.8630280769365
582.2152659425502
535.7155597601945
540.2906142456649
544.5460204313723
560.5890178308069
530.5392774981888
529.811509886079
525.3420657822555
530.4281604563707
606.6817528661413
594.2928940676952
568.9925203503497
531.9176889873676
614.5652302958069
605.304357045601
566.8531824037085
521.0277681092577
621.8787858183443
607.4502767014453
554.814048500161
512.0785132800395
628.3746217071267
604.7407377200376
539.6389095900663
506.4356694484871
502.3735455190604
506.044153742803
539.5757168405685
637.3444992259482
501.4988785202219
508.5507464130739
556.1651931572267
635.1407565269431
501.8733033935846
514.3666675996511
576.4496148850893
636.183704168045
503.2959837197696
524.7367153224563
594.6157221852545
633.4685223875022
502.4334482557622
502.5884335808416
503.0410279880422
503.0816322761642
504.7668052446099
503.9205543783853
504.3796085306797
504.7493639993563
523.8169337154681
510.4100936920523
508.0355266579936
508.8775916601389
620.1760099088979
571.0305645521148
519.0981744939537
508.9344020868472
502.8765309362099
504.8891280627244
509.7471242687013
509.5189060428904
502.5271022660606
504.938921228967
510.9836579683104
510.281203623856
502.043449020632
504.7370262882485
512.1617633886582
511.0371279748213
501.5526960844246
504.3816500690693
513.057313109466
512.2207497457459
500.140581315049
501.1736842011582
511.0342094332811
522.8347751876009
500.3394073434612
502.0542190692643
512.6495988531815
517.6370121167062
500.6392615085656
502.9999727848677
513.5642603796487
515.4460355709462
501.0607943236226
503.7567931379301
513.6952088549589
513.9727842694755
533.1549669745571
507.2187989809375
500.4204227460991
500.0396164269707
534.3772771630328
505.2771118642651
500.1997600972132
500.0127541481119
533.880239085524
503.6919879836418
500.0981895750239
500.0033733055068
531.237551561069
502.411024370674
500.0227218595642
500.0004093412577
529.0083574168481
500.9576211098887
500.0023484473434
500.0001634841866
526.3537768866267
500.716944271732
500.001610280318
500.0000100722687
521.0943365360503
500.4335209025828
500.0002544027882
500.000000073054
514.9013811206516
500.2625385900664
500.0000666428556
499.9999999013954
500.0000000001753
500.0000002887767
500.0239019473046
503.3326851679496
500.0000000005271
500.0000008469208
500.0297158554347
504.876799588549
500.0000000018922
500.0000033008982
500.0551072892055
506.7033463299424
500.0000000217425
500.0000144784076
500.1143518580823
509.4138172524922
506.2113403554045
508.9102009997983
513.2268464132226
521.8682273580602
508.9102010003182
512.3656118646147
518.7298977676789
531.3019232931244
513.2268464134877
518.7298977677565
528.8513722744597
544.0473752576597
521.8682273581245
531.3019232929636
544.0473752581721
560.2345232183361
577.2230772337002
564.2128433837617
557.3277431501854
544.920588375636
575.4354194568832
571.5237713014898
570.3083633140757
564.6028834553246
575.3780130876562
574.306136104422
573.7433783926916
572.0357526555053
571.9672701872514
571.5311579730471
571.6692530639207
570.9632910251059
567.8843065029786
565.5464051893169
560.4566305915021
553.2903914138593
567.5441631900312
565.1461935005165
560.2360967713424
553.967839340293
567.5608638616141
564.9868608647306
559.9805747203148
554.561900584123
567.623767857577
564.7294632541325
560.1830467938762
550.9734446708036
512.3890055386587
492.8197899993772
489.9649178189115
490.464367172453
501.8355617955564
488.7174418219133
489.9875034585098
491.1132420389932
491.5891739033586
488.8866066786804
491.5773231330206
492.8546494497846
469.9318616929587
484.1344046107132
489.9203018653852
491.6161567350055
490.8102875406144
491.8303059359042
493.3501582701514
494.8616135081197
491.0247244204423
491.5039840887001
492.8823194466964
494.8779289344839
492.3396345706338
492.3632547278757
493.2886181791409
494.7572071558334
491.2716903951693
491.4443788607533
492.7458817774608
494.8613201236196
504.9125183949608
567.3677647752744
639.1057721346574
664.4527111298562
510.7733588379056
580.8738825146223
641.8100294062466
660.1479927289688
516.2221300674944
589.2218722353949
641.781310331745
660.8596665197863
520.0042348037226
597.5109237057663
642.024423220439
661.256409925202
694.2852742156929
681.4869175726659
670.2456562529302
656.9896366219639
702.734295431152
690.0507259317076
676.9766637515664
662.6616111693178
708.719373785521
697.5197871958392
683.0722190590137
668.128130704329
706.6405418029599
701.3395290291508
687.2340610690524
671.9011750542223
643.7729719239693
633.1523099337248
623.2782815140122
618.9732078001553
648.8966662876833
637.324157406342
626.0299152777201
621.0691080459436
654.0438225742971
640.8472567143168
629.6170677263415
623.1902615368557
658.4446556298558
643.840294651027
633.0906423685921
625.6234809508505
615.0648967129712
607.6589537307093
590.9971798195552
565.0216796610142
616.8307092651961
609.2333212703617
593.7978964673772
592.6677088017417
617.8178049036749
610.1334340855169
602.765793341558
620.4254680569824
619.7125389873008
613.9704028680837
616.3258798616855
603.9852110790048
522.5464796438845
460.2412139270668
421.8786641914713
422.3006297500844
512.095682213725
421.9530644516832
305.1611363223303
252.454481224578
468.7500718025842
368.0737344148668
252.1111382599275
231.8788913093894
368.0239642393277
282.610137148684
227.8300259836134
239.6468623469015
373.3077184392948
404.4884826983677
471.2779402896149
523.0563862640986
306.3886823660108
380.6311082576827
441.9084190904544
491.6847534160909
291.7834111113551
351.0179200895396
404.3294813848298
444.9702281909426
298.9868353037261
351.3998496640477
401.9454379471301
430.9373466556976
486.9979885740662
510.289248707265
509.1323693111037
509.5034162608267
435.7287337673432
473.935021827364
492.5585931880579
510.3954045442061
407.2633141266137
432.906102840798
470.4905980659623
514.0475094378924
392.4188225387619
408.2928326379536
445.0612403697173
513.0652091583144
491.6829408749866
470.5120960696298
459.3106840073752
459.5386499994557
495.0364446630923
485.8974088933003
481.9540979150368
475.8503201087214
504.1230814385402
507.3655676976004
501.609170476871
488.645721262628
503.4529570517066
508.6190061022618
498.7151350237964
484.1199390016382
465.9914126324978
450.7049459309493
442.3189520876619
439.9847116268946
471.5897001617964
455.7561827283791
444.4758943524844
441.1204138081497
469.8114922944009
461.3848452311809
452.7281938419634
449.1156368247785
462.7081752332425
460.2875841158933
455.6539507856643
452.5128084095484
439.9847116268592
441.1204138081143
449.1156368248036
452.512808409642
442.3189520874972
444.4758943523202
452.7281938419551
455.6539507859185
450.7049459306386
455.7561827281127
461.3848452311281
460.2875841160812
465.9914126321491
471.5897001615396
469.8114922943305
462.7081752333809
459.5386499996252
459.3106840073967
470.5120960699506
491.6829408752587
475.8503201087333
481.9540979151339
485.8974088935485
495.036444663312
488.6457212625141
501.6091704768735
507.3655676976296
504.1230814386054
484.1199390014179
498.7151350237047
508.6190061021982
503.4529570516755
513.0652091584212
445.0612403701514
408.2928326385618
392.4188225393702
514.0475094379997
470.4905980663399
432.9061028413846
407.2633141272551
510.3954045443787
492.5585931883761
473.935021827901
435.7287337682292
509.5034162609647
509.1323693112921
510.2892487075968
486.997988574879
523.0563862639476
471.2779402895396
404.4884826969552
373.3077184471906
491.6847534160928
441.9084190906676
380.6311082570155
306.3886823661687
444.9702281912437
404.3294813853469
351.0179200893432
291.7834111110471
430.9373466560883
401.9454379477365
351.3998496644222
298.9868353036378
422.3006297707319
421.878664193285
460.2412139271293
522.5464796444002
252.4544812274002
305.1611363224064
421.9530644517636
512.0956822138465
231.8788913095761
252.1111382594437
368.0737344153379
468.7500718028829
239.6468623469407
227.8300259831031
282.6101371491944
368.0239642397635
565.0216796613709
590.9971798199475
607.6589537311747
615.0648967133881
592.667708802129
593.7978964675066
609.2333212706091
616.8307092654874
620.4254680572482
602.7657933415694
610.1334340854883
617.8178049038811
603.9852110792996
616.3258798616171
613.9704028679641
619.7125389874723
618.9732078006687
623.2782815143677
633.1523099338201
643.7729719238426
621.0691080463735
626.0299152779256
637.3241574059641
648.8966662873083
623.1902615371827
629.6170677264378
640.8472567138742
654.0438225739811
625.6234809511672
633.0906423687649
643.8402946509201
658.4446556295244
656.9896366217613
670.2456562526502
681.4869175724072
694.2852742156472
662.661611169014
676.9766637513926
690.0507259313944
702.7342954310337
668.1281307041083
683.0722190586522
697.5197871954039
708.7193737853595
671.9011750540443
687.2340610687775
701.3395290287517
706.6405418027824
664.4527111298439
639.1057721344076
567.3677647752395
504.9125183954301
660.1479927288315
641.8100294059593
580.8738825145192
510.7733588384652
660.8596665195518
641.781310331413
589.2218722351876
516.2221300680735
661.2564099248491
642.0244232200938
597.5109237055456
520.0042348042904
494.8616135087725
493.3501582701991
491.830305935181
490.8102875403556
494.8779289351351
492.8823194464781
491.5039840877378
491.0247244200277
494.7572071564766
493.2886181787075
492.3632547268821
492.3396345701009
494.8613201242491
492.7458817770911
491.4443788596967
491.2716903945873
490.4643671716713
489.9649178182814
492.8197899997506
512.3890055390231
491.1132420382385
489.9875034576783
488.7174418224312
501.8355617958445
492.8546494490138
491.5773231320557
488.8866066791244
491.5891739035735
491.6161567342064
489.9203018642194
484.1344046110848
469.9318616931706
553.2903914140937
560.4566305917534
565.5464051898887
567.8843065028846
553.9678393403522
560.2360967715334
565.146193500988
567.5441631898974
554.5619005841091
559.9805747204816
564.9868608650901
567.5608638613827
550.9734446706257
560.1830467939226
564.7294632543867
567.6237678573449
570.963291024211
572.0357526544146
564.6028834544621
544.9205883757664
571.6692530629156
573.7433783912728
570.3083633124246
557.3277431496555
571.5311579719702
574.3061361027054
571.5237712987546
564.2128433818385
571.9672701862886
575.3780130858381
575.4354194534349
577.2230772300445
505.0265280332877
497.2146601813639
496.8200108399914
499.4895333097783
485.4383465286078
492.0083090583998
495.4027707710024
499.3507550014845
470.4234073486108
486.3879112511724
493.99398188234
499.1540388333391
460.1146087408399
480.4426903986407
492.5190193373348
498.9485374163582
498.6931788892225
488.9935078293991
469.4249894052879
479.6123584344586
498.6924962567049
489.4787615868529
471.3097505957258
474.0778114843588
498.7054160277251
490.368662185657
473.4428256558663
465.0394728827112
498.7928952429721
491.4113955706978
476.2774110748102
459.3427719860053
498.9485374162373
499.1540388331302
499.3507550018131
499.489533309907
492.5190193371319
493.9939818821408
495.402770770736
496.820010840186
480.4426903987245
486.3879112514825
492.0083090589393
497.2146601817369
460.1146087406637
470.4234073483611
485.4383465286161
505.0265280334278
)
;

boundaryField
{
    back
    {
        type            empty;
    }
    inlet
    {
        type            zeroGradient;
    }
    front
    {
        type            empty;
    }
    top
    {
        type            zeroGradient;
    }
    outlet
    {
        type            fixedValue;
        value           uniform 500;
    }
    bottom
    {
        type            zeroGradient;
    }
    wall
    {
        type            zeroGradient;
    }
}


// ************************************************************************* //
