/*--------------------------------*- C++ -*----------------------------------*\
  =========                 |
  \\      /  F ield         | OpenFOAM: The Open Source CFD Toolbox
   \\    /   O peration     | Website:  https://openfoam.org
    \\  /    A nd           | Version:  11
     \\/     M anipulation  |
\*---------------------------------------------------------------------------*/
FoamFile
{
    format      ascii;
    class       volVectorField;
    location    "1.8";
    object      U;
}
// * * * * * * * * * * * * * * * * * * * * * * * * * * * * * * * * * * * * * //

dimensions      [0 1 -1 0 0 0 0];

internalField   nonuniform List<vector> 
4455
(
(9.9985308 0.0032445989 0)
(9.989285 0.0039446045 -1.4304252e-19)
(9.9697521 0.010210335 4.9099098e-19)
(9.9431157 0.0072886892 1.0001823e-21)
(9.8960626 0.019748182 4.6064318e-19)
(9.8485094 0.014596791 -1.7313463e-18)
(9.7578378 0.040080946 7.6905218e-19)
(9.6680035 0.016742895 0)
(9.5238651 0.072189792 -4.6211246e-18)
(10.000595 0.0063164202 -9.3500752e-19)
(9.9909234 0.013269797 9.1091574e-19)
(9.9692896 0.024923327 -1.1196998e-18)
(9.9416848 0.023304435 1.8635977e-18)
(9.8919508 0.034502886 -3.5682048e-18)
(9.8403143 0.027442777 3.8843386e-18)
(9.7397565 0.040032405 -3.6841827e-19)
(9.6538281 0.014072206 5.3767455e-19)
(9.4808469 -0.0021549561 2.0049472e-17)
(10.001144 0.0098846364 -9.7877108e-19)
(9.9925666 0.022862886 1.2361691e-18)
(9.9685365 0.038509929 1.0957889e-18)
(9.9406825 0.041101067 -1.0894109e-18)
(9.8907918 0.058329516 4.7607944e-18)
(9.8377112 0.052869044 -2.6765303e-18)
(9.7381131 0.073649203 3.4580133e-19)
(9.6314176 0.018815195 -7.568275e-18)
(9.4605938 0.061262717 -1.417203e-17)
(10.002091 0.013911194 2.3640839e-21)
(9.9934908 0.029472961 -1.3706447e-19)
(9.9705046 0.054300409 2.6014349e-18)
(9.940649 0.057325578 3.5491162e-19)
(9.892564 0.082629205 -1.3898268e-25)
(9.8331125 0.076215576 -5.1497842e-19)
(9.7303956 0.11698866 5.6806968e-18)
(9.6168479 0.044967912 1.5131485e-17)
(9.4287235 0.1093694 1.1757953e-17)
(10.004203 0.017910413 1.8931896e-18)
(9.9942666 0.035286406 -2.1167106e-18)
(9.9724775 0.067626852 2.6932542e-18)
(9.9418654 0.073982739 1.1032338e-21)
(9.8979952 0.10779413 -3.2652691e-18)
(9.833502 0.098203199 -9.9761501e-19)
(9.7218124 0.14190228 -4.4770876e-18)
(9.5940807 0.064594788 -7.1192848e-18)
(9.3774571 0.14556599 -3.468528e-17)
(10.005669 0.020292262 0)
(9.9960705 0.04142969 0)
(9.9776696 0.079996101 -4.6948121e-18)
(9.9437407 0.088887404 -5.3938938e-18)
(9.9023602 0.13113054 0)
(9.8366253 0.12947901 -7.2245804e-18)
(9.7184535 0.18242297 -6.1073986e-19)
(9.5738093 0.098592831 -4.2341926e-19)
(9.3327777 0.19643347 4.2816057e-17)
(10.008714 0.022147486 0)
(9.9967825 0.046149387 -1.2738129e-19)
(9.9799762 0.090192756 1.4337309e-19)
(9.9494044 0.10398962 5.2720233e-18)
(9.907579 0.1486104 -3.8712349e-19)
(9.8390602 0.14856835 1.5386827e-17)
(9.719585 0.21047369 0)
(9.5566375 0.12634721 0)
(9.2770027 0.2549826 1.9622005e-17)
(10.010215 0.023489533 3.5854803e-18)
(9.9992966 0.049827731 0)
(9.9829807 0.09767818 0)
(9.9557266 0.11917907 0)
(9.9179394 0.17319091 0)
(9.8459291 0.17972201 -7.6820194e-18)
(9.7172515 0.25151973 -8.1979484e-18)
(9.5410721 0.16709724 1.1748486e-17)
(9.2284226 0.31622052 1.1588259e-19)
(10.011672 0.023590417 -3.5306221e-18)
(10.001128 0.052717326 -1.226714e-19)
(9.9876675 0.10334058 -1.3831113e-19)
(9.9606621 0.12703352 3.1366545e-19)
(9.9263509 0.18546601 1.205943e-17)
(9.8549233 0.19781403 1.3557645e-17)
(9.7270404 0.28181614 2.6122744e-17)
(9.5231201 0.20385538 -1.1539283e-17)
(9.1700611 0.38766244 -3.3808709e-17)
(10.013278 0.022883945 0)
(10.013096 0.021936668 6.5635823e-18)
(10.013594 0.020170551 -6.5142005e-18)
(10.012735 0.018293709 6.2458309e-18)
(10.012762 0.016046542 -6.104404e-18)
(10.010665 0.0131369 1.2196573e-17)
(10.010036 0.010137509 -1.1841376e-17)
(10.006699 0.0055995923 0)
(10.00312 0.0015063386 0)
(10.002698 0.053981111 0)
(10.005549 0.054882579 1.1360921e-19)
(10.007262 0.053110344 0)
(10.009451 0.050865268 3.2323282e-19)
(10.011156 0.047786303 6.6036466e-18)
(10.013781 0.044355152 -1.9729858e-17)
(10.013986 0.039503121 1.2773518e-17)
(10.019579 0.035709367 -1.947607e-19)
(10.019058 0.023548542 1.2340777e-17)
(9.992043 0.11017324 8.2372547e-18)
(9.9974986 0.11479278 -1.6235679e-17)
(10.002939 0.11678218 1.5509686e-17)
(10.008702 0.11726896 -4.8411216e-19)
(10.013519 0.11365486 -7.32317e-18)
(10.020049 0.11059824 -2.2264348e-19)
(10.022519 0.10193779 0)
(10.028618 0.096349601 4.2133182e-19)
(10.027119 0.077485705 -2.0505331e-19)
(9.9696905 0.13998081 8.5831461e-18)
(9.9774968 0.15064256 -1.7439222e-17)
(9.9872388 0.15691198 1.6599909e-17)
(9.9979149 0.16349783 -8.0452055e-18)
(10.005999 0.16356187 -5.0349943e-19)
(10.019792 0.1667177 2.4333738e-19)
(10.027292 0.16212977 0)
(10.045791 0.16243243 -2.2928546e-19)
(10.048215 0.14827771 1.3817799e-17)
(9.9367815 0.20610029 -9.6846346e-18)
(9.9506631 0.22562162 0)
(9.9607121 0.23953852 -8.9698073e-18)
(9.9792549 0.25266364 9.24958e-18)
(9.9879493 0.26025103 -8.3594935e-18)
(10.008575 0.26897753 8.638515e-18)
(10.017642 0.26869735 0)
(10.039009 0.27361383 0)
(10.047755 0.25663254 4.8886481e-19)
(9.862778 0.22412252 -1.1827672e-17)
(9.8794997 0.25795919 -1.131623e-17)
(9.8886845 0.27953459 1.0878302e-17)
(9.9108687 0.30950077 1.0432237e-17)
(9.9245454 0.32362451 -1.0057491e-17)
(9.9490451 0.35121801 0)
(9.9687262 0.35553077 1.8632842e-17)
(9.9936379 0.38133641 -4.4599421e-20)
(10.022766 0.36640753 -3.4773164e-17)
(9.7274569 0.3172849 -1.3840172e-17)
(9.744621 0.37626557 0)
(9.7577435 0.40094785 0)
(9.7804716 0.45429529 3.7932225e-19)
(9.8084147 0.470688 0)
(9.8341292 0.52474555 0)
(9.8706814 0.53297993 0)
(9.8987045 0.58450731 0)
(9.9386414 0.57461077 0)
(9.5152703 0.2514559 5.2994906e-19)
(9.4935215 0.34687736 0)
(9.5058764 0.40732413 4.7532483e-19)
(9.5042748 0.51054257 -8.9140972e-19)
(9.5452928 0.5584529 -1.3507637e-17)
(9.5669704 0.6508067 -1.2817513e-17)
(9.6225549 0.68133724 2.4610553e-17)
(9.6599803 0.76048705 2.3792209e-17)
(9.7197397 0.77396951 -2.2506163e-17)
(9.1025439 0.46729948 6.3361728e-17)
(9.0272351 0.68275545 -3.9275532e-17)
(9.0326534 0.81279282 3.6477849e-17)
(9.0670007 1.0350501 -3.4453237e-17)
(9.1539999 1.1258234 -4.9004288e-17)
(9.233233 1.3043564 9.2224017e-17)
(9.3367145 1.3542022 -5.8261682e-17)
(9.4323675 1.4974288 -2.77706e-17)
(9.5239099 1.5047778 2.610878e-17)
(10.003906 -8.2292867e-05 -1.6261289e-20)
(10.007897 8.3965102e-05 1.6716973e-17)
(10.013904 0.0011523749 -7.324254e-21)
(10.021085 0.0024271367 -1.6838657e-17)
(10.029386 0.0038564109 1.6476203e-20)
(10.03903 0.0053960718 1.6939272e-17)
(10.050184 0.0069851634 -1.7021942e-17)
(10.063031 0.0086455205 -1.6623589e-20)
(10.079068 0.011286166 -8.5616613e-18)
(10.026737 0.030840065 -1.7714211e-17)
(10.034601 0.039371849 1.7824219e-17)
(10.045609 0.045692995 -1.7827244e-17)
(10.054911 0.055464656 0)
(10.064891 0.061641509 1.7984216e-17)
(10.077245 0.071233043 1.6486818e-20)
(10.093158 0.076990147 3.1533061e-20)
(10.109445 0.088165295 -1.8097863e-17)
(10.126724 0.092308973 9.1055369e-18)
(10.036443 0.083652278 1.8898825e-17)
(10.03968 0.0975788 -1.8960895e-17)
(10.053307 0.10388892 -1.9090764e-17)
(10.061608 0.11756131 1.9136981e-17)
(10.075398 0.12609281 -1.9296295e-17)
(10.08656 0.14022465 1.9230967e-17)
(10.102123 0.14949872 -1.9420452e-17)
(10.120854 0.16331733 -1.0860411e-20)
(10.135612 0.17406541 1.9453437e-17)
(10.067115 0.15998377 -2.0190938e-17)
(10.076611 0.18485593 -7.9436432e-20)
(10.090191 0.19288062 7.9894145e-20)
(10.101618 0.21706816 0)
(10.113955 0.22660776 -1.5749864e-22)
(10.133742 0.25011057 -2.0543246e-17)
(10.144423 0.26489879 2.088322e-17)
(10.172843 0.28642344 8.1318077e-20)
(10.183019 0.3106179 8.1570996e-20)
(10.057087 0.2790505 -8.5254565e-20)
(10.076684 0.29944215 -2.1955918e-17)
(10.076247 0.32296691 -6.8794398e-20)
(10.097194 0.3350655 2.2151204e-17)
(10.098783 0.36471953 2.2307563e-17)
(10.124668 0.37842253 -2.2427153e-17)
(10.128265 0.41130991 -8.7365173e-20)
(10.159484 0.42492204 -8.7684279e-20)
(10.165721 0.45837405 -8.800361e-20)
(10.029593 0.40244945 2.3786497e-17)
(10.060172 0.43278331 0)
(10.059218 0.46285095 0)
(10.084802 0.48883124 2.3973522e-17)
(10.086097 0.51993277 -2.4293976e-17)
(10.11893 0.5475889 -2.435778e-17)
(10.124994 0.57877113 4.87539e-17)
(10.163107 0.60969681 -4.5654076e-20)
(10.174478 0.63289801 -4.9120437e-17)
(9.954961 0.61814138 -1.0277862e-19)
(9.9810309 0.66420014 0)
(9.9852432 0.68978028 1.0350472e-19)
(10.007694 0.73020278 2.6592126e-17)
(10.017218 0.7540063 -2.6752824e-17)
(10.047453 0.79308727 2.6817942e-17)
(10.06748 0.80919974 -2.6876123e-17)
(10.098323 0.84879611 -1.0518692e-19)
(10.125335 0.8626693 2.7036515e-17)
(9.7646464 0.83375352 -2.8908312e-17)
(9.8107025 0.88865229 2.9310135e-17)
(9.8529826 0.93238751 -2.941678e-17)
(9.8975983 0.98008121 2.9265902e-17)
(9.9497902 1.0115815 -2.9126392e-17)
(10.000549 1.0506735 7.2904964e-22)
(10.051024 1.0780855 2.9517174e-17)
(10.104237 1.107651 2.3125323e-19)
(10.156414 1.1195816 1.4734125e-17)
(9.6252049 1.6086093 0)
(9.6802152 1.6369642 -3.2421416e-17)
(9.7752311 1.7208606 1.9235746e-19)
(9.8307774 1.7251031 3.142555e-19)
(9.933769 1.7730341 6.5059845e-17)
(9.985653 1.73714 -3.2546498e-17)
(10.105163 1.7371666 -3.2557787e-17)
(10.149489 1.6399432 3.2688001e-17)
(10.291918 1.5541742 1.6403296e-17)
(10.316804 1.4051733 -1.9172664e-17)
(10.382467 1.2914741 0)
(10.377762 1.197398 1.9075987e-17)
(10.379614 1.1243183 -1.9073941e-17)
(10.305751 1.059436 0)
(10.270903 0.97940335 0)
(10.170633 0.92584478 0)
(10.115709 0.86140281 -1.9572687e-17)
(10.00792 0.83915213 1.9572729e-17)
(10.196001 1.1380688 -1.6783578e-17)
(10.233531 1.1553299 0)
(10.263771 1.15807 0)
(10.290146 1.1579783 0)
(10.30745 1.1530154 0)
(10.318133 1.1537307 0)
(10.316016 1.154735 0)
(10.309899 1.1619094 1.6580392e-17)
(10.291679 1.1630668 -3.3254371e-17)
(10.14557 0.89648478 -5.7870408e-20)
(10.180415 0.91341015 -2.9679648e-17)
(10.195626 0.93372012 0)
(10.228696 0.95326742 -1.4762535e-17)
(10.237529 0.97477181 1.476251e-17)
(10.266066 0.99354796 0)
(10.269547 1.0147234 0)
(10.294064 1.0316158 0)
(10.291878 1.0515838 0)
(10.207004 0.67785525 2.6405643e-17)
(10.230787 0.69605279 0)
(10.251835 0.74221198 1.3124495e-17)
(10.289996 0.75745352 -2.6221097e-17)
(10.298859 0.80240231 1.3097511e-17)
(10.342147 0.82035503 0)
(10.351295 0.86726622 0)
(10.391386 0.88187555 0)
(10.405433 0.93019715 1.2968583e-17)
(10.200277 0.4717351 0)
(10.208407 0.51068654 2.3754472e-17)
(10.242472 0.52330807 -3.5610196e-17)
(10.251189 0.56239931 1.1855561e-17)
(10.289887 0.57471488 1.1808892e-17)
(10.300858 0.61357408 -2.5003096e-20)
(10.342882 0.62714396 -2.3542145e-17)
(10.353203 0.66452396 2.3489162e-17)
(10.398374 0.68538181 -1.1731054e-17)
(10.219401 0.32418999 0)
(10.230591 0.35744569 1.0798383e-17)
(10.267705 0.375105 -1.0798384e-17)
(10.283134 0.40609417 0)
(10.327143 0.42146959 -2.145686e-17)
(10.344093 0.45700354 2.145686e-17)
(10.386459 0.47110237 1.0675241e-17)
(10.408444 0.5148952 -2.1319286e-17)
(10.456905 0.51588571 1.0645514e-17)
(10.160655 0.1871882 0)
(10.174389 0.2086089 0)
(10.204618 0.20997247 0)
(10.220869 0.23804765 -9.9075296e-18)
(10.25632 0.24430235 1.9793163e-17)
(10.273942 0.27383944 -1.9747761e-17)
(10.312887 0.28410367 9.8621239e-18)
(10.335068 0.31052521 -9.8094911e-18)
(10.38411 0.31226264 1.959017e-17)
(10.146639 0.10836179 -1.8453809e-17)
(10.169693 0.11291359 1.7206393e-20)
(10.195777 0.1304707 9.2017226e-18)
(10.221483 0.13086919 -9.1639758e-18)
(10.253655 0.14796875 9.1639757e-18)
(10.278228 0.15090387 0)
(10.312522 0.17562446 9.0973473e-18)
(10.343327 0.17777632 -1.8168814e-17)
(10.389133 0.19685466 9.071466e-18)
(10.089063 0.013082867 1.2296647e-20)
(10.109371 0.018795445 8.6183255e-18)
(10.131481 0.02338358 8.5910591e-18)
(10.156413 0.025059495 -8.5910599e-18)
(10.180769 0.026196553 0)
(10.206454 0.030915834 0)
(10.234201 0.034576932 -8.5204136e-18)
(10.270914 0.034361807 1.7018338e-17)
(10.310367 0.026808722 -8.4979221e-18)
(10.350579 0.01940121 0)
(10.38389 0.019498476 -8.4182346e-18)
(10.417469 0.035469228 3.1450453e-20)
(10.455236 0.051584804 3.4011623e-20)
(10.513049 0.039714673 3.6576445e-20)
(10.587127 -0.027487982 8.3161876e-18)
(10.661329 -0.13159479 8.2357591e-18)
(10.706327 -0.23239374 -8.2357626e-18)
(10.723099 -0.29535438 0)
(10.427138 0.19364808 0)
(10.478642 0.22101531 0)
(10.514447 0.22752457 -8.9483659e-18)
(10.569361 0.25276597 3.5735181e-20)
(10.605355 0.25793152 3.7980427e-20)
(10.676887 0.26808177 8.8746348e-18)
(10.742461 0.26234861 8.7895057e-18)
(10.851244 0.27107459 -8.789508e-18)
(10.951716 0.27559994 0)
(10.411356 0.33799092 -9.7819466e-18)
(10.46498 0.33862606 0)
(10.493198 0.36750198 0)
(10.551608 0.37008626 -9.6478004e-18)
(10.584297 0.39905035 1.9255933e-17)
(10.650108 0.39753275 -4.114115e-20)
(10.687963 0.42436618 -4.442243e-20)
(10.768352 0.4283789 -9.5231506e-18)
(10.813159 0.44711064 0)
(10.483184 0.558586 -1.0583625e-17)
(10.543613 0.56880979 1.0583624e-17)
(10.565574 0.60609247 0)
(10.627921 0.63916252 0)
(10.659819 0.66186226 1.0436832e-17)
(10.721493 0.71038319 -1.0436822e-17)
(10.780188 0.7171588 1.0348888e-17)
(10.830141 0.7846649 -5.1983616e-18)
(10.912293 0.79721332 -5.1499529e-18)
(10.410964 0.71571008 -1.1674061e-17)
(10.456348 0.75117456 1.1673967e-17)
(10.477647 0.77173602 0)
(10.51533 0.81692602 0)
(10.549606 0.83832189 0)
(10.569632 0.90218421 0)
(10.624286 0.92997806 0)
(10.632808 0.99934448 0)
(10.70255 1.0327841 0)
(10.439876 0.94678897 -1.2968589e-17)
(10.460405 0.99877704 1.2918877e-17)
(10.486946 1.021797 -1.2918464e-17)
(10.504803 1.0796117 1.2871026e-17)
(10.540462 1.1082208 -1.2871095e-17)
(10.547505 1.1733683 0)
(10.591869 1.2113703 0)
(10.591425 1.2894683 0)
(10.640826 1.3367235 0)
(10.31161 1.0758156 0)
(10.298798 1.1023726 -1.467077e-17)
(10.314175 1.1354757 1.4673871e-17)
(10.291811 1.1694735 0)
(10.30753 1.2166354 1.4679798e-17)
(10.271784 1.2584393 -1.467746e-17)
(10.289962 1.317918 0)
(10.242903 1.3738889 7.3489002e-18)
(10.267586 1.4534956 -1.47012e-17)
(10.277613 1.1823415 1.665183e-17)
(10.237905 1.1931837 1.672672e-17)
(10.217263 1.2200766 -1.673047e-17)
(10.159689 1.2498153 1.6831373e-17)
(10.133035 1.2850198 -3.3723405e-17)
(10.060445 1.3305163 3.3844387e-17)
(10.030128 1.3775855 -3.3971497e-17)
(9.942046 1.4438675 1.7018693e-17)
(9.9094232 1.5078257 0)
(9.9431274 0.78040325 -1.9834737e-17)
(9.8321063 0.78339591 1.9834774e-17)
(9.7501475 0.75928917 0)
(9.6260076 0.77322582 0)
(9.547964 0.76693261 0)
(9.4034855 0.79642668 0)
(9.322336 0.80767145 0)
(9.167536 0.85439368 -1.0435115e-17)
(9.0715715 0.89726127 1.0435052e-17)
(8.9055031 0.96695951 1.0601588e-17)
(9.8063621 1.6021597 0)
(10.205071 1.5282778 7.3529402e-18)
(10.641082 1.4360984 0)
(10.711398 1.1156879 0)
(10.956138 0.88893218 0)
(10.899508 0.47767148 4.6855195e-18)
(11.067255 0.322995 4.3149135e-18)
(10.720756 -0.31613554 4.0393887e-18)
(8.7926536 1.0457243 -1.0601497e-17)
(9.7736049 1.6818939 0)
(10.238872 1.6243398 0)
(10.695816 1.4930832 6.3395944e-18)
(10.780669 1.1575133 0)
(11.051301 0.90422361 -5.0669816e-18)
(10.943301 0.50358055 -9.3422404e-18)
(11.175786 0.367505 -8.5983733e-18)
(10.721985 -0.3130052 -8.0389107e-18)
(8.608669 1.1717041 0)
(9.6611177 1.8011649 0)
(10.16773 1.7249146 7.3562461e-18)
(10.694317 1.6083026 -6.3395929e-18)
(10.798787 1.267114 0)
(11.111328 1.0067338 5.066975e-18)
(11.02305 0.56122842 4.6567111e-18)
(11.292284 0.45403413 4.2834363e-18)
(10.707802 -0.2731727 4.0104681e-18)
(8.4864698 1.2676169 1.0857783e-17)
(9.6357346 1.8992876 0)
(10.209907 1.8298474 -1.4708872e-17)
(10.765942 1.6720199 0)
(10.867059 1.3213116 0)
(11.20679 1.0198972 -4.9991904e-18)
(11.058921 0.60216007 -4.5935021e-18)
(11.396056 0.52347175 0)
(10.719601 -0.11977563 -3.9569813e-18)
(8.3036867 1.4221816 -1.0857788e-17)
(9.5161149 2.0458214 -8.7362809e-18)
(10.137971 1.9583636 7.3524434e-18)
(10.764713 1.8001783 0)
(10.890762 1.4550975 0)
(11.290776 1.1288379 4.999146e-18)
(11.119704 0.70345586 4.5934358e-18)
(11.489209 0.60980276 0)
(10.74213 0.07186148 3.9608362e-18)
(8.16738 1.5728085 0)
(9.4993033 2.1633371 8.735734e-18)
(10.191183 2.0715546 -7.3320569e-18)
(10.844565 1.867176 0)
(10.974585 1.515957 0)
(11.377905 1.1590458 -4.9194262e-18)
(11.147763 0.77052001 -4.5224341e-18)
(11.572217 0.65348732 0)
(10.85574 0.2269488 -3.8935324e-18)
(7.9750099 1.8302877 0)
(9.3781974 2.3550201 0)
(10.123552 2.2355532 7.3320527e-18)
(10.855263 2.0166101 -3.1022557e-18)
(10.998385 1.6637961 -2.7515267e-18)
(11.470616 1.2818434 7.3562082e-18)
(11.215381 0.90289002 6.763956e-18)
(11.653633 0.69868487 0)
(10.972275 0.33634251 5.8214143e-18)
(7.8387596 2.0946874 0)
(9.3843096 2.4975182 -4.3836356e-18)
(10.192231 2.3576089 0)
(10.940663 2.0887058 3.1017214e-18)
(11.098432 1.7261591 2.7509843e-18)
(11.556854 1.3288165 -2.4672715e-20)
(11.253398 0.97605169 -4.4621582e-18)
(11.745724 0.70377001 0)
(11.155542 0.42582362 -1.9278945e-18)
(7.6817103 2.4131617 -5.5715922e-18)
(9.2775875 2.7473141 4.3832052e-18)
(10.136171 2.5761356 0)
(10.970018 2.2716086 0)
(11.132064 1.8988268 0)
(11.653346 1.4642638 -4.797853e-18)
(11.357188 1.1093201 2.259928e-20)
(11.837065 0.70853701 0)
(11.32504 0.48614481 0)
(11.530572 0.53196913 0)
(11.94472 0.67065745 0)
(11.427574 1.1496776 -1.0996103e-19)
(11.745097 1.4943797 2.5042934e-18)
(11.245728 1.9379647 0)
(11.070607 2.3281574 -3.8210787e-19)
(10.242052 2.6804453 -2.7289257e-20)
(9.3345088 2.8906534 -3.6320429e-18)
(7.6177067 2.7159105 1.0379732e-17)
(11.735251 0.5675341 -9.2818984e-19)
(12.058725 0.63251362 -1.249419e-19)
(11.564051 1.2608373 1.1064685e-18)
(11.858708 1.5961631 -2.6460625e-21)
(11.321164 2.1003092 -1.152812e-18)
(11.141863 2.5027895 1.4784152e-18)
(10.254123 2.9171487 -4.5347137e-19)
(9.3284329 3.1858763 4.7261728e-18)
(7.7275029 3.2054203 -5.2809933e-18)
(11.938515 0.59597589 1.8611087e-18)
(12.175425 0.57843404 0)
(11.687885 1.2726338 2.1669343e-18)
(11.969269 1.6036097 -1.163569e-18)
(11.461154 2.1248011 1.1671782e-18)
(11.280182 2.5373615 -2.7990506e-18)
(10.447944 2.9990315 -2.2045705e-18)
(9.5448914 3.2910948 1.0640987e-18)
(8.0356693 3.434029 6.6246383e-20)
(12.140346 0.61678814 -9.3296876e-19)
(12.290501 0.54641413 -1.2413964e-19)
(11.866235 1.3691541 -9.5513409e-19)
(12.099848 1.6769138 1.328593e-18)
(11.579171 2.2961337 4.9413889e-19)
(11.400483 2.7111525 1.5052826e-18)
(10.506723 3.2456971 1.7813353e-18)
(9.5993865 3.5754692 5.5492426e-19)
(8.0717458 3.8541188 -6.3534314e-19)
(12.341972 0.63039109 2.2737694e-19)
(12.421061 0.49750238 -2.4251648e-19)
(12.016309 1.3616303 -1.3448566e-19)
(12.233386 1.6602325 4.3518644e-19)
(11.72986 2.3058369 -4.9950165e-19)
(11.554037 2.728506 -5.5450029e-19)
(10.733119 3.3029449 -4.5777389e-19)
(9.8422343 3.6638114 5.1690179e-19)
(8.3444625 3.9849594 -7.0161103e-19)
(12.544741 0.638631 -2.2987196e-19)
(12.542567 0.47876282 2.4543231e-19)
(12.21623 1.4421141 -1.3379964e-19)
(12.38456 1.715563 2.4514977e-23)
(11.889985 2.4731001 -1.6196586e-19)
(11.697318 2.8998303 3.7629551e-19)
(10.821 3.5500329 -4.5827017e-19)
(9.9174463 3.9502151 5.1875252e-19)
(8.4188573 4.3200068 0)
(12.748344 0.64258787 -2.2268078e-19)
(12.684902 0.4396648 -1.2191289e-19)
(12.389675 1.4242508 -1.3137655e-19)
(12.532869 1.6778384 -1.4718126e-19)
(12.050627 2.4631606 -1.6328818e-19)
(11.864346 2.9012391 3.8401301e-19)
(11.06447 3.5854749 -8.8777801e-19)
(10.170826 4.0124014 1.0811965e-18)
(8.7153435 4.3970816 -6.4870786e-19)
(12.95127 0.6424161 6.6509727e-19)
(12.813357 0.43254883 4.7403217e-19)
(12.598608 1.4923414 6.5642954e-19)
(12.706757 1.7167903 7.1189629e-19)
(12.248706 2.6168867 4.9488574e-19)
(12.034367 3.0725881 -1.8298157e-19)
(11.185083 3.8378241 -4.575049e-19)
(10.278469 4.2912772 -4.1798697e-20)
(8.8198612 4.7121132 -6.9314687e-19)
(13.152329 0.63755162 -1.3129689e-18)
(12.962422 0.40709498 -4.7994439e-19)
(12.786808 1.4561613 -1.6927387e-18)
(12.86298 1.6748828 -4.3409716e-19)
(12.423316 2.5763635 1.1149473e-18)
(12.216545 3.0463767 5.6206714e-19)
(11.443752 3.8486806 -2.6213804e-18)
(10.546531 4.3249563 5.2047845e-19)
(9.1177355 4.7958484 1.3813244e-18)
(9.2326549 5.1405062 -1.3764023e-18)
(10.685772 4.5989065 5.6368239e-19)
(11.606297 4.1034987 3.925048e-18)
(12.424922 3.2056454 -5.5779281e-19)
(12.661193 2.7085631 2.8658599e-19)
(13.056016 1.7046826 8.3069359e-19)
(13.005508 1.5076937 1.176739e-18)
(13.098237 0.40323761 -5.863227e-20)
(13.351264 0.62805793 1.7877751e-18)
(9.5242806 5.2226907 5.4733099e-18)
(10.97389 4.6064937 5.1780516e-19)
(11.88055 4.0788817 -5.6361579e-18)
(12.617365 3.1435605 -1.788792e-19)
(12.84289 2.6397546 -1.1267989e-18)
(13.219637 1.6519796 -9.926106e-19)
(13.1965 1.4631996 -2.1466244e-18)
(13.251104 0.38545578 0)
(13.547995 0.61417207 -8.653839e-19)
(9.6649802 5.5669015 -7.021743e-18)
(11.152628 4.8880367 5.2839284e-18)
(12.090975 4.3242116 3.0482574e-18)
(12.865359 3.2791767 -1.7690161e-19)
(13.104255 2.7468708 2.4728727e-18)
(13.421299 1.6643273 1.9438533e-21)
(13.415894 1.5016049 3.0713167e-19)
(13.395895 0.38227434 1.6951359e-18)
(13.742037 0.596077 1.6566698e-18)
(9.9647129 5.6003981 -1.3943123e-18)
(11.465097 4.8700468 9.3411885e-19)
(12.376671 4.2555341 -4.4260637e-19)
(13.06365 3.1785218 0)
(13.306666 2.6508889 -2.5117142e-18)
(13.589284 1.5978407 0)
(13.611497 1.4338137 1.8963119e-18)
(13.55275 0.36370616 -3.506043e-18)
(13.93205 0.57420978 -4.7802426e-20)
(10.131824 5.9016725 -6.6537274e-19)
(11.688971 5.155204 -4.2298837e-18)
(12.63716 4.4822175 4.3679432e-19)
(13.340698 3.2831658 0)
(13.572665 2.7332711 -2.5406118e-18)
(13.793338 1.595483 2.1161697e-18)
(13.819291 1.4561131 1.2250302e-19)
(13.697228 0.35355242 3.5686591e-18)
(14.115994 0.54841939 -1.6476132e-18)
(10.438403 5.8869247 -6.2899417e-18)
(12.016142 5.1005851 -3.5779114e-18)
(12.933719 4.3645982 -2.9387987e-20)
(13.550558 3.15097 -3.5113397e-19)
(13.786337 2.6082676 -6.101254e-20)
(13.963405 1.5075243 -4.2288331e-18)
(14.014193 1.3711882 1.2051608e-19)
(13.854475 0.32746544 -1.7831073e-18)
(14.292317 0.51776292 0)
(10.638221 6.1634906 4.333505e-18)
(12.283411 5.370355 5.23341e-18)
(13.243596 4.5665562 -2.8708977e-20)
(13.84366 3.2184372 -3.4351796e-19)
(14.050279 2.6496025 2.2431896e-18)
(14.161274 1.4840171 2.2459389e-18)
(14.205393 1.3714877 1.1844894e-19)
(13.999131 0.30584988 -1.0853547e-19)
(14.454263 0.48382513 0)
(10.95849 6.1080246 0)
(12.631415 5.2745758 -4.8327019e-19)
(13.550431 4.3988029 4.1208009e-19)
(14.063086 3.0529864 -4.9477173e-18)
(14.260045 2.4904767 -1.4416113e-19)
(14.329573 1.3705532 3.8920727e-18)
(14.386703 1.2642133 -3.5678763e-18)
(14.146639 0.26672035 3.3593644e-18)
(14.604431 0.44736536 3.0367389e-18)
(11.204588 6.3810653 1.0408369e-17)
(12.925477 5.5156559 8.6657784e-18)
(13.884478 4.5473437 -4.0089059e-19)
(14.365401 3.0787568 5.219035e-18)
(14.516866 2.4963974 -1.4033809e-19)
(14.513908 1.3261926 -3.9625623e-18)
(14.553824 1.2434819 3.855716e-18)
(14.283956 0.23434649 -3.5115189e-18)
(14.741636 0.40929408 -8.7515917e-20)
(14.862726 0.37063301 -2.9729878e-18)
(14.413581 0.18502612 3.1719608e-18)
(14.716097 1.1161578 0)
(14.674318 1.187409 -2.3723208e-19)
(14.715721 2.3070759 4.3402891e-18)
(14.589929 2.8690927 4.487246e-18)
(14.239458 4.3231698 0)
(13.344493 5.3832231 -4.7196732e-19)
(11.590393 6.2719515 -1.0165378e-17)
(14.966394 0.33167433 0)
(14.540207 0.14317487 -3.2819086e-18)
(14.857374 1.0614889 0)
(14.848988 1.1163293 -2.3312506e-19)
(14.969368 2.2295296 -7.9257023e-18)
(14.910845 2.8267378 -4.8910315e-18)
(14.622542 4.3690896 5.2996708e-18)
(13.739953 5.574615 -6.6422423e-18)
(11.993566 6.6168666 8.2470277e-18)
(15.051619 0.29313605 0)
(14.645079 0.084144402 0)
(14.987146 0.91526029 -3.4300649e-18)
(14.986327 0.95433405 0)
(15.128476 1.9899449 4.1034714e-18)
(15.127046 2.5597882 -4.2520382e-18)
(15.002902 4.0494057 -4.8158837e-18)
(14.240321 5.3543694 -3.6805292e-19)
(12.490755 6.4244432 -1.2696133e-18)
(15.117435 0.25568553 0)
(14.746676 0.03697126 0)
(15.093055 0.84681663 3.5012372e-18)
(15.133833 0.86901559 3.3905815e-18)
(15.34711 1.8720169 3.8959197e-18)
(15.417645 2.4624892 4.6436729e-18)
(15.371602 3.9917926 0)
(14.678703 5.4529665 5.395745e-18)
(13.038737 6.7909907 -9.546481e-18)
(15.163666 0.2198994 4.5626342e-20)
(14.817526 -0.026131896 -4.968245e-20)
(15.181126 0.69006165 0)
(15.23464 0.69466425 -1.0110585e-19)
(15.455983 1.6046602 -8.0782896e-18)
(15.593409 2.1560087 2.6745375e-19)
(15.712858 3.5868955 4.3883807e-18)
(15.185844 5.1327634 -5.9835632e-18)
(13.586428 6.5025073 8.6767498e-18)
(15.191469 0.19450988 -4.568997e-20)
(14.889427 -0.075761086 4.9827652e-20)
(15.249539 0.61519693 0)
(15.344375 0.60194407 -3.9086676e-18)
(15.625728 1.4672943 4.4373984e-18)
(15.828052 2.0190061 -2.6476781e-19)
(16.029933 3.4293602 -4.5389993e-18)
(15.634921 5.0964867 0)
(14.341662 6.8199192 -8.5747368e-18)
(15.197192 0.16616885 4.5922914e-20)
(14.923227 -0.1376124 3.1295557e-18)
(15.29599 0.45624651 -1.0567434e-19)
(15.408441 0.42416381 3.5067176e-18)
(15.676143 1.1824794 4.0961734e-18)
(15.945415 1.6853421 0)
(16.301421 2.9557966 0)
(16.091914 4.6539011 -4.2466706e-18)
(14.943119 6.3591321 0)
(15.215031 0.16156645 0)
(14.960962 -0.18149485 -3.2439964e-18)
(15.325694 0.38587155 0)
(15.475706 0.33655965 -3.9262628e-18)
(15.783024 1.0401231 -3.7027336e-18)
(16.102694 1.5207679 3.9877059e-18)
(16.526232 2.7348754 0)
(16.471448 4.4713135 4.693419e-18)
(15.937035 6.5142603 -5.0088353e-18)
(15.150064 0.10952494 0)
(14.954588 -0.2506375 0)
(15.334782 0.22819998 -1.0747531e-19)
(15.503704 0.15518345 -1.0684805e-19)
(15.77546 0.7126239 2.5374881e-19)
(16.158222 1.1109268 -4.1179808e-18)
(16.745964 2.067107 0)
(16.873355 3.6405089 0)
(16.620454 5.6666491 4.9396947e-18)
(15.093912 0.078739308 -9.2671664e-20)
(14.962994 -0.27754039 2.0292365e-21)
(15.322811 0.16729666 3.4793945e-18)
(15.540803 0.089873966 0)
(15.848595 0.67150719 0)
(16.235702 1.0716509 -2.0526183e-19)
(16.869769 2.1930992 -3.0260344e-18)
(17.034323 3.889277 1.068244e-19)
(17.365816 5.9386998 0)
(15.023608 0.051953577 -8.9766449e-20)
(14.957561 -0.31384599 2.4177843e-21)
(15.33609 0.065461283 -3.149089e-18)
(15.562029 0.00098547582 0)
(15.894161 0.58693816 0)
(16.394782 1.0616036 1.801091e-19)
(17.156326 2.1728172 8.0466838e-18)
(17.237451 3.9909264 -8.5931007e-20)
(16.69164 6.0214009 2.335158e-18)
(14.940394 0.027742069 0)
(14.937502 -0.36309746 5.8880228e-18)
(15.306298 -0.00064834635 0)
(15.606627 -0.10429322 1.8685187e-19)
(16.049367 0.49306148 -2.0391023e-19)
(16.56846 0.92301943 -1.5417507e-19)
(17.446231 2.19187 -8.8339598e-18)
(17.383068 4.1779019 6.4436736e-20)
(15.146173 6.4751496 -2.1943431e-18)
(14.844838 0.0059960888 5.5360231e-18)
(14.905479 -0.41410414 -5.6120489e-18)
(15.312942 -0.11789575 5.9862396e-18)
(15.64667 -0.22023378 5.8309593e-18)
(16.088166 0.36252177 -5.9042369e-18)
(16.729892 0.84162556 5.1658756e-18)
(17.756162 2.1142943 4.0256503e-18)
(17.281845 4.340889 1.1927229e-18)
(12.370641 7.4189697 0)
(14.737615 -0.013399749 -1.0990972e-17)
(14.856008 -0.47254611 5.5500158e-18)
(15.267547 -0.17821912 -5.7915348e-18)
(15.668321 -0.33911398 -7.5999731e-20)
(16.264388 0.24456038 5.6716316e-18)
(16.902403 0.6857366 -4.7494452e-19)
(17.93947 2.0987825 0)
(17.016843 4.6622234 -1.1740237e-18)
(9.8994649 8.4029383 0)
(14.619071 -0.029916372 1.0750503e-17)
(14.790371 -0.53869068 -5.2987543e-18)
(15.248407 -0.29623182 5.7950377e-18)
(15.688474 -0.4782516 -5.5386882e-18)
(16.26705 0.097828903 -1.4008114e-19)
(17.003152 0.57783913 -4.2557201e-18)
(18.093978 2.0156591 1.0964151e-18)
(16.297447 4.8304008 -7.012598e-19)
(4.8710342 5.5495283 -1.4619108e-18)
(14.491201 -0.044012087 -5.3886963e-18)
(14.724247 -0.58561907 1.6711864e-19)
(15.169345 -0.36552233 -5.5442801e-18)
(15.672492 -0.60166384 1.4855454e-19)
(16.422804 -0.049558876 -1.6022033e-19)
(17.143387 0.38237939 -3.6614513e-18)
(18.036916 1.8768664 -1.3381278e-18)
(14.749608 4.4752457 6.7850757e-19)
(0.58252352 2.2272068 1.3859092e-18)
(14.35563 -0.055973224 -7.9224554e-20)
(14.632204 -0.64216624 8.4578936e-20)
(15.137081 -0.46564926 5.3671569e-18)
(15.676463 -0.74282127 4.919187e-18)
(16.392183 -0.20169076 -4.4087245e-18)
(17.203834 0.28875921 6.779914e-18)
(17.824014 1.7012943 -1.4812065e-19)
(12.59795 4.4893804 -1.6350509e-18)
(-0.35017446 3.4439609 -9.4594679e-19)
(14.213089 -0.065580886 5.2982332e-18)
(14.523968 -0.71644326 -7.8194568e-20)
(15.030851 -0.53971467 1.3336076e-19)
(15.621495 -0.87259648 -4.7685683e-18)
(16.519567 -0.37585324 4.155214e-18)
(17.237425 0.04819677 -3.0587077e-18)
(17.36975 1.5340044 4.6268325e-19)
(10.554369 3.9693325 1.5448613e-18)
(-1.5584802 3.1337457 9.0123312e-19)
(-2.5500144 3.2583716 1.244154e-18)
(9.1296866 3.7615595 -9.0849187e-21)
(16.99588 1.4516295 -1.925303e-20)
(17.116995 -0.11795942 1.6449124e-20)
(16.444629 -0.53890438 0)
(15.588499 -1.0169055 -8.9913581e-20)
(14.976778 -0.64174655 -1.1057606e-17)
(14.425948 -0.74238012 -5.4491719e-18)
(14.068703 -0.068243965 -1.0593586e-17)
(-3.0994929 3.0647351 -1.1851142e-18)
(8.1282237 3.4679087 0)
(16.689183 1.129495 0)
(17.132917 -0.43873053 -6.5176011e-18)
(16.505917 -0.74341289 0)
(15.504719 -1.1568069 1.0413679e-17)
(14.854064 -0.70336173 1.6974949e-17)
(14.300709 -0.79778998 5.1672862e-18)
(13.922316 -0.06941665 -5.4795806e-18)
(-3.6714063 3.1861077 1.4418064e-20)
(6.9651082 3.3186968 -1.1617052e-20)
(16.240855 1.1078195 0)
(16.930264 -0.54977474 6.3732726e-18)
(16.410129 -0.86633401 0)
(15.450603 -1.2607415 -1.0322418e-17)
(14.782847 -0.7833184 -1.0988031e-17)
(14.155892 -0.83840049 -1.246525e-19)
(13.77303 -0.067069968 1.0674003e-17)
(-4.104725 3.0527034 -2.2019679e-18)
(5.9831459 2.9701416 -8.8721501e-18)
(15.871525 0.75637195 4.5063848e-20)
(16.885891 -0.86991292 0)
(16.414698 -1.0516121 8.9861624e-18)
(15.326016 -1.3907197 0)
(14.643155 -0.8427721 8.9094493e-20)
(14.023433 -0.87435257 -1.2497315e-19)
(13.622245 -0.061667999 4.0000027e-20)
(-4.7293666 3.0107624 2.1406375e-18)
(4.7694204 2.8112144 -5.7421539e-19)
(15.324113 0.73859866 4.6413485e-18)
(16.636541 -0.9716234 6.6163694e-21)
(16.299413 -1.1774718 6.6472979e-20)