/*--------------------------------*- C++ -*----------------------------------*\
  =========                 |
  \\      /  F ield         | OpenFOAM: The Open Source CFD Toolbox
   \\    /   O peration     | Website:  https://openfoam.org
    \\  /    A nd           | Version:  11
     \\/     M anipulation  |
\*---------------------------------------------------------------------------*/
FoamFile
{
    format      ascii;
    class       volScalarField;
    location    "6.9";
    object      p;
}
// * * * * * * * * * * * * * * * * * * * * * * * * * * * * * * * * * * * * * //

dimensions      [0 2 -2 0 0 0 0];

internalField   nonuniform List<scalar> 
4455
(
139.90314
140.00119
140.19585
140.51026
140.9224
141.50026
142.17016
143.45484
143.82519
139.84922
139.96016
140.17337
140.4996
140.94801
141.55751
142.36062
143.63766
144.53708
139.74323
139.87799
140.11399
140.46042
140.92912
141.57127
142.40327
143.78208
144.77368
139.59002
139.75727
140.0199
140.38785
140.87271
141.5539
142.44017
143.91835
145.13071
139.39919
139.60161
139.89303
140.28224
140.78582
141.50459
142.46633
144.05749
145.57328
139.17817
139.417
139.73677
140.14502
140.67169
141.43166
142.46066
144.19238
145.99789
138.93472
139.20937
139.55547
139.9797
140.52595
141.32558
142.41963
144.31671
146.44916
138.67883
138.98398
139.35344
139.79114
140.35454
141.19106
142.33982
144.41548
146.90326
138.41902
138.74714
139.13434
139.58383
140.16091
141.03366
142.23673
144.49055
147.37577
138.16235
137.91603
137.68822
137.48308
137.30337
137.15136
137.02969
136.94052
136.88788
138.50413
138.25925
138.01955
137.78962
137.57407
137.37671
137.20063
137.04825
136.91916
138.90083
138.65503
138.40567
138.15674
137.9121
137.67564
137.44985
137.23724
137.03689
139.35579
139.10639
138.84788
138.58356
138.31495
138.04577
137.77937
137.51957
137.26231
139.94303
139.69649
139.43706
139.16684
138.88464
138.59492
138.30286
138.01688
137.7306
140.8512
140.62973
140.38331
140.11455
139.81802
139.50224
139.16993
138.83343
138.49075
142.11517
141.96462
141.78603
141.56759
141.28387
140.9543
140.58979
140.21268
139.82897
144.5664
144.54059
144.393
144.13584
143.77286
143.34239
142.8642
142.35255
141.79991
147.98448
148.43557
148.31845
147.75174
146.9178
145.96027
144.95608
143.93771
142.91407
136.88262
136.86318
136.82066
136.7657
136.69485
136.61372
136.51263
136.39947
136.26306
136.84057
136.7658
136.67368
136.56433
136.4372
136.29324
136.13136
135.95152
135.75175
136.9051
136.80498
136.70054
136.58659
136.45916
136.31627
136.15659
135.9797
135.78476
137.07449
136.94511
136.8221
136.69212
136.54707
136.38391
136.20115
135.99892
135.77717
137.50996
137.37313
137.25713
137.13691
136.99845
136.83825
136.65583
136.4529
136.23131
138.20968
138.04076
137.9031
137.75909
137.59217
137.39848
137.17828
136.93653
136.67936
139.51535
139.32743
139.17315
138.99928
138.79164
138.55139
138.28395
137.9973
137.70292
141.28767
140.83571
140.38092
139.90453
139.4035
138.88141
138.3485
137.81842
137.31949
142.00232
141.18444
140.36768
139.56736
138.78901
138.04011
137.32845
136.65907
136.05659
135.642
135.24691
135.12695
135.35054
135.88566
136.60562
137.41144
138.26745
139.15897
136.89843
136.54738
136.25742
136.03835
135.89368
135.82748
135.84225
135.9623
136.15036
137.42331
137.16629
136.92112
136.6933
136.48646
136.3048
136.14982
136.02338
135.92621
136.41727
136.16072
135.90141
135.64055
135.37907
135.11796
134.85807
134.60157
134.34945
135.9989
135.76144
135.51315
135.25436
134.98435
134.70332
134.41076
134.10741
133.7929
135.54
135.28943
135.02153
134.73657
134.43424
134.11428
133.77581
133.41867
133.0418
135.57377
135.3467
135.10033
134.83402
134.54692
134.23817
133.90642
133.55069
133.16953
135.53294
135.29351
135.03323
134.75157
134.44873
134.12264
133.77232
133.39207
132.98295
136.09093
135.88166
135.66065
135.42642
135.17857
134.90542
134.60413
134.26992
133.90434
133.50364
133.06555
132.58863
132.07423
131.51224
130.90698
130.25022
129.5386
128.76512
132.545
132.07529
131.56701
131.02582
130.45015
129.83348
129.16677
128.45714
127.7007
132.76232
132.32676
131.86201
131.36573
130.83743
130.27259
129.66995
129.02461
128.33581
132.64534
132.2278
131.78931
131.32746
130.84244
130.33016
129.79019
129.21643
128.60847
133.46827
133.13281
132.78746
132.4298
132.06062
131.67512
131.27356
130.84835
130.3994
134.10347
133.86391
133.63233
133.40667
133.18739
132.96846
132.74964
132.52094
132.28154
135.8604
135.82421
135.81796
135.83717
135.88152
135.94188
136.01695
136.09527
136.17457
136.4104
136.7313
137.11087
137.53944
138.01416
138.5256
139.07032
139.6384
140.2254
140.0779
141.01882
141.983
142.96982
143.98542
145.02882
146.10423
147.20618
148.33823
149.49255
140.8181
136.24156
132.01829
129.91652
127.95791
127.59602
126.89108
127.93252
150.66962
141.41088
136.29156
131.73017
129.39925
127.26335
126.8029
126.01463
127.02501
151.86028
141.98348
136.31337
131.40108
128.83471
126.51394
125.948
125.07665
126.04528
153.05773
142.52799
136.29761
131.02821
128.22209
125.70859
125.03098
124.07119
124.97952
154.23649
143.01382
136.22696
130.59147
127.54596
124.83455
124.04147
122.99605
123.82764
155.3804
143.43063
136.08751
130.08539
126.80475
123.88973
122.97608
121.83341
122.57616
156.39759
143.73194
135.85672
129.49532
125.98026
122.85953
121.82328
120.58613
121.2276
157.24558
143.90511
135.5149
128.80943
125.068
121.74266
120.58218
119.24218
119.77369
157.68612
143.85061
135.02142
128.00476
124.04652
120.52506
119.23953
117.79755
118.23135
116.61318
116.249
117.7627
119.18323
122.86492
127.02694
134.29888
143.49364
157.6479
114.98148
114.59409
116.1263
117.69066
121.44806
125.75649
133.07025
142.16712
154.74467
113.10804
112.7964
114.33977
116.04391
119.81255
124.20677
131.43263
140.36491
152.20129
110.98792
110.8658
112.3985
114.23926
117.98747
122.44748
129.57677
138.40426
149.88616
108.57716
108.77996
110.32
112.28557
116.01128
120.54432
127.59456
136.36506
147.53475
106.05395
106.55064
108.0858
110.18785
113.89615
118.51075
125.49871
134.20968
145.07022
103.34848
104.16603
105.69671
107.94195
111.64197
116.33339
123.26574
131.91725
142.50735
100.54062
101.63868
103.16219
105.55139
109.24198
114.00196
120.88426
129.46734
139.92446
97.514659
98.968023
100.47559
103.01201
106.68841
111.50486
118.3421
126.8849
137.31166
134.65787
124.15573
115.64637
108.84377
103.97577
100.32615
97.624698
96.149123
94.338721
131.9548
121.30051
112.79796
106.01934
101.09941
97.487437
94.593929
93.192596
90.944889
129.20296
118.29735
109.80554
103.03838
98.06268
94.499907
91.419514
90.08894
87.421648
126.38208
115.15996
106.6673
99.902202
94.869094
91.359126
88.090389
86.830702
83.711111
123.48382
111.85912
103.38892
96.616926
91.528354
88.075597
84.627824
83.449024
79.878485
120.47549
108.41267
99.968679
93.184427
88.04272
84.651042
81.029201
79.924737
75.883405
117.34999
104.78986
96.415775
89.611407
84.42385
81.095803
77.335017
76.297297
71.820039
114.07427
101.02075
92.73475
85.900437
80.681169
77.408649
73.530882
72.548446
67.635028
110.64076
97.073865
88.931403
82.052193
76.820669
73.612069
69.669348
68.723919
63.477595
59.420292
64.781847
65.703109
69.644436
72.746676
77.923543
84.813684
92.69794
106.65727
55.549625
60.747849
61.678386
65.499044
68.459797
73.461528
80.313606
87.651667
101.80632
51.452211
56.665393
57.629858
61.272894
64.082083
68.866376
75.710061
82.528243
96.494492
47.316414
52.603579
53.600041
57.029198
59.674793
64.183723
71.054833
77.349207
90.720383
43.2287
48.578335
49.591788
52.78967
55.251749
59.442643
66.385588
72.32093
84.352773
39.440372
44.643639
45.672189
48.611111
50.872624
54.666965
61.738344
67.48615
77.176166
35.851466
40.819013
41.857904
44.523809
46.553959
49.860088
57.126796
63.189133
68.739882
32.630651
37.174656
38.200928
40.575226
42.371288
45.050604
52.499753
59.589932
59.107264
29.258751
33.753117
34.716451
36.794485
38.392427
40.287781
47.868072
57.121443
49.064533
26.166337
30.599325
31.394238
33.135219
34.489271
35.391939
42.558266
55.806287
42.234399
23.752513
27.73094
28.256687
29.517704
30.67805
30.711063
37.709414
55.404926
38.431516
22.01431
25.058979
25.366461
25.941237
27.014306
26.49814
33.959047
53.888112
39.639526
20.672567
22.589664
22.746745
22.31305
23.377939
22.073571
30.841963
51.361161
51.225514
19.702821
20.293374
20.385402
18.616295
19.660307
17.226503
27.732859
47.030055
49.467723
19.095049
18.175486
18.287895
14.881688
15.793077
11.932693
24.247335
43.729779
44.159781
18.902818
16.246491
16.405422
11.187435
11.751791
6.3294535
20.831069
44.001904
44.553388
18.998386
14.569625
14.743864
7.5869096
7.6048997
0.73672329
18.191567
41.601637
42.247396
19.492113
13.202074
13.26206
4.1445907
3.3580545
-5.1266608
15.956747
38.481421
41.682879
41.370439
37.658868
14.524523
-10.030647
-0.62359698
1.105404
12.073494
12.245324
20.338015
41.197632
37.043355
11.910787
-14.917206
-4.1641689
-1.4622704
11.152411
11.668423
21.569642
40.916084
36.550273
8.5356576
-19.921226
-7.6040156
-3.7285833
10.547037
11.467642
23.125431
40.445491
34.755282
4.9183604
-24.474202
-10.913778
-5.7453188
10.190249
11.608338
25.000359
39.734685
32.835274
1.1206559
-28.958752
-14.134443
-7.5052505
10.098288
12.086968
27.113344
38.838976
30.872225
-2.9962581
-33.140667
-17.260354
-9.007079
10.216605
12.887521
29.46531
38.009025
28.94948
-7.2655087
-37.344274
-20.296519
-10.202644
10.593004
14.016167
31.98454
36.749414
27.076394
-11.458749
-41.171532
-23.154369
-11.049916
11.200576
15.470846
34.659929
36.037696
25.644272
-15.673144
-45.130529
-26.074454
-11.428167
12.089745
17.292845
37.754547
35.228322
22.331256
-21.606682
-49.932
-29.113312
-11.05617
14.155967
21.014348
43.272735
32.773092
14.644938
-36.959544
-60.369026
-31.778361
-8.2171108
18.590739
27.368108
50.707174
30.911309
6.604333
-46.018249
-67.650632
-31.545923
-3.3772353
24.404502
34.703852
58.070865
30.127713
-2.3257827
-59.216846
-73.484447
-28.46777
3.3726167
31.086162
42.605921
65.119766
27.45888
-11.296576
-68.061297
-77.069889
-23.004727
11.015338
38.003459
50.586658
71.581796
23.219753
-19.8969
-78.399242
-78.646296
-15.467266
19.430956
45.004921
58.398008
77.133091
18.340724
-28.169162
-86.218295
-77.525571
-6.1347823
27.863283
51.840667
65.795239
81.786874
13.403231
-35.960629
-93.333949
-73.820085
4.7006809
36.199322
58.456129
72.624317
85.49158
8.8024273
-43.655529
-96.746634
-66.047221
16.271896
43.733464
64.551533
78.578339
88.296502
16.00131
-27.844712
-93.285555
-62.955368
19.22063
66.199103
83.530226
91.066242
103.86485
15.939904
-27.979344
-94.582734
-63.393137
18.485232
66.229209
83.214007
90.667679
103.61077
15.761424
-28.391004
-97.212164
-64.156118
16.989598
65.887119
82.840725
90.065578
102.96735
15.468013
-28.984468
-99.311455
-66.869884
15.002545
65.162385
82.129525
89.228743
102.21674
15.152828
-29.595125
-101.6557
-70.608705
11.78336
64.061173
81.101494
88.166709
101.44897
14.754702
-30.6599
-104.22191
-74.247111
8.1438777
62.431236
79.75516
87.028877
100.67422
14.36397
-31.798082
-106.32486
-77.077588
5.251225
60.455994
78.215124
85.776536
99.971286
14.001571
-33.532719
-107.58968
-79.239994
3.4263054
58.311112
76.606718
84.300973
99.391435
13.764427
-35.132116
-108.57012
-80.663402
2.4537763
56.2633
74.971149
83.483619
98.464814
8.7949364
-43.678449
-96.75888
-66.025216
16.283332
43.7391
64.553302
78.579297
88.296301
13.396695
-35.98361
-93.350582
-73.801107
4.7125426
36.205754
58.458555
72.625677
85.491631
18.33529
-28.191064
-86.237033
-77.511254
-6.123111
27.870325
51.843781
65.797089
81.787226
23.215162
-19.917704
-78.419669
-78.636858
-15.456371
19.43837
45.008614
58.400389
77.133802
27.454864
-11.316201
-68.084684
-77.065703
-22.995202
11.022811
38.007635
50.589555
71.582913
30.12428
-2.3436106
-59.23844
-73.48489
-28.460187
3.3797213
31.090589
42.60928
65.121322
30.908562
6.5881108
-46.041936
-67.65518
-31.540892
-3.370989
24.408918
34.707533
58.072868
32.771469
14.630453
-36.981604
-60.376747
-31.775935
-8.2120285
18.594803
27.371898
50.709556
35.228037
22.318234
-21.627919
-49.942331
-29.113318
-11.052471
14.159405
21.017979
43.275382
20.339666
12.246015
12.073278
1.1037061
-0.6290276
-10.038332
14.507449
37.651293
41.372054
21.571568
11.669518
11.152573
-1.4635328
-4.1694172
-14.925179
11.893429
37.035294
41.199319
23.127595
11.46913
10.547601
-3.7293435
-7.6089752
-19.929541
8.5177536
36.541893
40.917673
25.002718
11.610211
10.191217
-5.7455359
-10.918396
-24.482842
4.8999471
34.745874
40.446909
27.11586
12.089202
10.099659
-7.5049028
-14.138639
-28.967746
1.1020002
32.825228
39.735873
29.46794
12.890089
10.218364
-9.0061401
-17.264039
-33.149987
-3.0154733
30.861714
38.83997
31.987247
14.019033
10.595147
-10.201101
-20.29966
-37.353874
-7.2851991
28.938316
38.009747
34.662676
15.473972
11.20309
-11.047758
-23.156869
-41.181401
-11.478794
27.064855
36.749834
37.757286
17.29619
12.092622
-11.4254
-26.076042
-45.140626
-15.693764
25.632092
36.038181
41.684701
38.474021
15.939829
-5.1339276
3.3525472
4.1424903
13.261476
13.202349
19.493447
42.249979
41.594728
18.175427
0.72973215
7.5993796
7.5844452
14.742924
14.569484
18.999379
44.554102
43.996304
20.815666
6.3228679
11.746342
11.184668
16.404151
16.245958
18.903473
44.161731
43.724672
24.23296
11.926411
15.787703
14.878646
18.286317
18.174592
19.095395
49.466656
47.025163
27.719826
17.220422
19.655064
18.613024
20.383538
20.292151
19.702796
51.227343
51.356569
30.830142
22.067597
23.372868
22.309615
22.74462
22.588132
20.672164
39.64057
53.883666
33.948116
26.492323
27.009426
25.937687
25.364084
25.057154
22.013547
38.430368
55.400067
37.699446
30.705407
30.673334
29.51404
28.254068
27.728834
23.7514
42.23245
55.801281
42.549614
35.386271
34.484613
33.131436
31.391368
30.596949
26.164837
59.41716
64.778504
65.699686
69.64081
72.743032
77.920202
84.811076
92.696658
106.65617
55.546504
60.744466
61.674893
65.495274
68.455917
73.457864
80.310684
87.650314
101.80534
51.449113
56.662005
57.626309
61.269006
64.077982
68.862355
75.706739
82.526786
96.493598
47.313389
52.600216
53.596472
57.025221
59.67049
64.179342
71.051031
77.347557
90.719636
43.225817
48.575037
49.58822
52.785613
55.247267
59.437894
66.381226
72.319003
84.35213
39.437666
44.640449
45.668677
48.607032
50.868001
54.661864
61.733315
67.483808
77.175618
35.848974
40.815963
41.854484
44.519737
46.549239
49.854675
57.120996
63.186235
68.739504
32.628406
37.171793
38.197646
40.571211
42.366514
45.044998
52.493145
59.586313
59.106891
29.256839
33.750482
34.713353
36.790578
38.38768
40.282134
47.860619
57.11691
49.063577
110.63962
97.072602
88.929022
82.049108
76.817238
73.6086
69.666015
68.720643
63.474457
114.07307
101.01949
92.732536
85.897563
80.677939
77.405333
73.527643
72.545241
67.63191
117.34875
104.78859
96.413699
89.608723
84.420811
81.092625
77.331877
76.294176
71.816956
120.47421
108.41139
99.966715
93.181909
88.039841
84.648001
81.026166
79.92171
75.880385
123.48251
111.85783
103.38705
96.614551
91.525632
88.07269
84.624903
83.446089
79.875541
126.38075
115.15865
106.6655
99.89995
94.86651
91.356356
88.087567
86.827864
83.70825
129.20162
118.29604
109.80379
103.03624
98.060219
94.497266
91.416802
90.086198
87.418873
131.95345
121.29918
112.79626
106.01729
101.09706
97.48491
94.59133
93.189952
90.942211
134.65651
124.1544
115.64471
108.8418
103.97352
100.32373
97.622195
96.14658
94.33614
116.61136
116.24716
117.76089
119.18147
122.86325
127.0254
134.29746
143.49235
157.64661
114.97959
114.59219
116.12443
117.68885
121.44634
125.75492
133.0688
142.16582
154.74339
113.10608
112.79444
114.33784
116.04204
119.81079
124.20516
131.43116
140.36359
152.20001
110.98588
110.86375
112.39649
114.23733
117.98565
122.44583
129.57528
138.40293
149.88485
108.57504
108.77784
110.31792
112.28357
116.0094
120.54263
127.59305
136.36371
147.53343
106.05174
106.54845
108.08367
110.18578
113.89421
118.50901
125.49718
134.20833
145.06889
103.34618
104.16376
105.69449
107.9398
111.63996
116.3316
123.26418
131.91591
142.50601
100.53822
101.63632
103.15986
105.54916
109.23991
114.00011
120.88267
129.46599
139.9231
97.512177
98.965572
100.47316
103.00968
106.68625
111.50296
118.34049
126.88356
137.31031
118.2296
119.77201
121.22598
122.5746
123.82614
124.97806
126.04388
127.02366
127.93122
117.79577
119.24046
120.58447
121.8318
122.99449
124.06968
125.07519
126.01322
126.88971
119.23778
120.58048
121.82164
122.97449
124.03993
125.02948
125.94655
126.80149
127.59465
120.52335
121.74099
122.85791
123.88815
124.83301
125.7071
126.51248
127.26193
127.95653
124.04489
125.0664
125.9787
126.80322
127.54446
128.22062
128.83328
129.39785
129.91515
128.00325
128.80794
129.49385
130.08394
130.59005
131.02681
131.3997
131.72882
132.01696
135.02001
135.5135
135.85534
136.08614
136.2256
136.29626
136.31203
136.29024
136.24026
143.84931
143.90383
143.73066
143.42936
143.01255
142.52673
141.98222
141.40963
140.81686
157.68484
157.2443
156.39633
155.37914
154.23523
153.05647
151.85903
150.66838
149.49132
128.76386
127.69937
128.33448
128.60712
130.39805
132.28023
136.17328
140.22417
148.337
129.53738
128.45586
129.02332
129.21512
130.84704
132.51965
136.094
139.63717
147.20495
130.24905
129.16552
129.6687
129.78891
131.27228
132.74838
136.0157
139.0691
146.10301
130.90584
129.83227
130.27137
130.32892
131.67387
132.96721
135.94064
138.52439
145.0276
131.51115
130.44897
130.83625
130.84123
132.05939
133.18617
135.8803
138.01295
143.98422
132.07317
131.02468
131.36458
131.32628
132.4286
133.40548
135.83596
137.53825
142.96863
132.58761
131.5659
131.86089
131.78816
132.78629
133.63116
135.81678
137.1097
141.9818
133.06455
132.07422
132.32568
132.22668
133.13167
133.86276
135.82304
136.73014
141.01763
133.50267
132.54396
132.76126
132.64426
133.46716
134.10235
135.85924
136.40926
140.07672
136.09018
135.53214
135.57295
135.53915
135.99802
136.41638
137.42236
136.89743
135.6409
135.88088
135.29268
135.34586
135.28857
135.76053
136.1598
137.16532
136.54635
135.24581
135.65986
135.03239
135.09947
135.02064
135.51222
135.90046
136.92012
136.25638
135.12581
135.42561
134.7507
134.83313
134.73565
135.25341
135.63958
136.69228
136.03728
135.34939
135.17773
134.44784
134.546
134.43329
134.98337
135.37807
136.48542
135.89259
135.88451
134.90456
134.12172
134.23723
134.11331
134.70232
135.11694
136.30373
135.82638
136.60446
134.60325
133.77137
133.90545
133.77482
134.40973
134.85702
136.14874
135.84113
137.41027
134.26901
133.3911
133.5497
133.41765
134.10635
134.6005
136.02228
135.96116
138.26628
133.9034
132.98195
133.16851
133.04075
133.79181
134.34836
135.92508
136.14922
139.1578
136.0555
137.31852
137.70199
136.67849
136.23045
135.77635
135.78396
135.75097
136.26232
136.658
137.81747
137.9964
136.93568
136.45207
135.99813
135.97892
135.95075
136.39874
137.3274
138.34757
138.28308
137.17747
136.65502
136.20038
136.15582
136.13061
136.51191
138.03908
138.8805
138.55055
137.39768
136.83747
136.38316
136.31552
136.29251
136.61301
138.788
139.40262
138.79082
137.5914
136.99769
136.54633
136.45843
136.43649
136.69416
139.56637
139.90368
138.99849
137.75834
137.13617
136.6914
136.58587
136.56363
136.76501
140.36671
140.3801
139.17239
137.90238
137.25641
136.8214
136.69984
136.67299
136.81997
141.18349
140.83492
139.32669
138.04007
137.37243
136.94443
136.80429
136.76511
136.8625
142.00139
141.28691
139.51464
138.209
137.50928
137.07382
136.90443
136.83989
136.88194
142.91316
141.79918
139.82829
138.4901
137.72995
137.26165
137.03623
136.91849
136.88721
143.93684
142.35185
140.21203
138.8328
138.01625
137.51894
137.23659
137.04759
136.93985
144.95526
142.86354
140.58918
139.16933
138.30226
137.77876
137.44923
137.19999
137.02903
145.9595
143.34177
140.95372
139.50168
138.59435
138.04518
137.67504
137.37609
137.15071
146.91708
143.77228
141.28333
139.81749
138.8841
138.31439
137.91153
137.57347
137.30274
147.75108
144.1353
141.56709
140.11405
139.16634
138.58304
138.1562
137.78905
137.48247
148.31787
144.39251
141.78558
140.38285
139.43659
138.84739
138.40516
138.01901
137.68764
148.4351
144.54015
141.96422
140.62931
139.69606
139.10594
138.65455
138.25874
137.91548
147.98415
144.56603
142.11481
140.85082
139.94263
139.35538
138.90039
138.50366
138.16183
139.90311
140.00116
140.19583
140.51023
140.92237
141.50024
142.17014
143.45482
143.82518
139.84912
139.96007
140.17329
140.49953
140.94795
141.55745
142.36057
143.63762
144.53705
139.74307
139.87784
140.11386
140.4603
140.92901
141.57117
142.40318
143.78201
144.77364
139.58979
139.75707
140.01973
140.38769
140.87255
141.55376
142.44004
143.91824
145.13064
139.39891
139.60136
139.89281
140.28203
140.78563
141.5044
142.46616
144.05735
145.57319
139.17784
139.4167
139.7365
140.14477
140.67145
141.43144
142.46046
144.1922
145.99777
138.93433
139.20902
139.55515
139.97941
140.52567
141.32532
142.41939
144.31648
146.44901
138.6784
138.98358
139.35308
139.7908
140.35422
141.19075
142.33954
144.4152
146.90307
138.41855
138.74671
139.13394
139.58345
140.16055
141.03331
142.23642
144.49023
147.37553
146.70103
147.3973
148.09581
148.91823
149.86228
150.88185
151.97578
153.10815
154.18176
147.39731
148.03885
148.76826
149.6227
150.58599
151.60962
152.68851
153.80087
154.85164
148.09583
148.76827
149.53675
150.41103
151.37352
152.38922
153.45065
154.54569
155.61144
148.91827
149.62273
150.41105
151.28202
152.22877
153.22785
154.27348
155.36719
156.47672
149.86235
150.58605
151.37357
152.2288
153.14794
154.1278
155.16116
156.26925
157.44945
150.88196
151.60972
152.38931
153.22793
154.12786
155.09839
156.13861
157.28799
158.5372
151.97595
152.68868
153.45082
154.27362
155.16127
156.1387
157.19591
158.41407
159.78435
153.10842
153.80114
154.54595
155.36745
156.26947
157.28819
158.41424
159.65712
161.02545
154.18218
154.85206
155.61187
156.47716
157.44989
158.5376
159.7848
161.02579
162.79369
167.11799
163.74429
162.55335
160.72578
159.3922
158.12387
157.05468
156.12487
155.36826
157.20604
158.23229
158.18826
158.12053
157.78573
157.28612
156.71548
156.05658
155.37079
153.60565
154.14178
154.26779
154.49147
154.51312
154.45767
154.33415
154.1023
153.74229
151.22918
151.54327
151.5199
151.69934
151.71263
151.74304
151.7133
151.67716
151.52006
149.46746
149.65194
149.63193
149.71263
149.68887
149.68761
149.65532
149.64549
149.57607
147.86481
147.98975
147.93526
148.02044
147.9574
147.9834
147.91387
147.90036
147.82894
146.44119
146.4824
146.44374
146.46704
146.4198
146.4045
146.35737
146.32326
146.26964
145.06798
145.06115
144.98959
145.00677
144.92322
144.92252
144.84522
144.81891
144.74885
143.75968
143.69195
143.62313
143.56897
143.49521
143.43543
143.37653
143.32389
143.26168
141.86924
140.49726
138.99786
137.27223
135.30798
132.75506
129.70682
126.02929
123.20537
141.94968
140.56847
139.04984
137.29728
135.24528
132.67702
129.4948
125.91322
122.43052
141.97074
140.58955
139.02758
137.25377
135.11582
132.51525
129.22855
125.5413
121.50626
142.05343
140.63212
139.09085
137.24615
135.11324
132.37738
129.02017
125.00019
120.51168
142.07806
140.68582
139.09056
137.27902
135.06112
132.31568
128.79991
124.51779
119.55753
142.17817
140.75047
139.16387
137.31517
135.08907
132.27109
128.68901
124.01506
118.69576
142.21537
140.82527
139.2154
137.4088
135.12731
132.35735
128.63718
123.82291
117.8417
142.30092
140.87805
139.28143
137.43899
135.19445
132.33881
128.65118
123.58097
119.185
142.41694
141.01605
139.42132
137.63378
135.38017
132.66268
128.8332
123.88904
116.58036
123.74054
126.38691
129.5636
131.81831
133.32426
134.73711
136.10407
137.44936
138.73409
122.58017
125.53051
129.18612
131.56893
133.14277
134.63182
136.0814
137.46583
138.77666
121.20116
124.7678
128.88559
131.32113
132.92613
134.46119
135.9624
137.38747
138.72159
119.35635
123.93732
128.63857
131.1424
132.85574
134.46145
136.01785
137.45391
138.79575
117.03359
122.87758
128.14035
130.68107
132.49215
134.20701
135.84232
137.33103
138.7022
114.28074
122.74808
128.33708
130.75146
132.61141
134.34119
135.97218
137.44217
138.80352
108.71719
121.03608
127.6949
130.1266
132.18869
134.07548
135.79494
137.30713
138.69783
104.67806
121.51515
128.17579
130.34654
132.36247
134.22973
135.92077
137.41012
138.78353
94.013472
119.99389
127.76574
129.98473
132.14272
134.10655
135.84005
137.33884
138.72946
139.98596
141.20683
142.45798
143.72896
145.05951
146.42398
147.86033
149.37141
150.99525
140.02363
141.25488
142.50059
143.78419
145.11218
146.49543
147.93847
149.47142
151.09946
139.98731
141.23623
142.49772
143.79827
145.13726
146.53717
147.98924
149.54016
151.18253
140.05086
141.30677
142.56399
143.87122
145.20885
146.61732
148.0742
149.63903
151.29063
139.97804
141.25361
142.5293
143.85045
145.20145
146.62443
148.09872
149.68265
151.35091
140.06463
141.33294
142.5992
143.91782
145.26535
146.69015
148.16381
149.75222
151.42415
139.98164
141.27
142.55595
143.88929
145.24851
146.6839
148.16873
149.76991
151.45314
140.0575
141.33529
142.61464
143.94138
145.29846
146.73125
148.2162
149.81712
151.50198
140.01258
141.30085
142.58517
143.92036
145.27918
146.71839
148.20419
149.81135
151.49804
152.73202
154.61272
156.63379
158.80541
161.11147
163.57411
166.12697
168.80857
170.72533
152.86159
154.75304
156.81296
159.02661
161.42021
163.98391
166.69571
169.50981
171.58064
152.97136
154.88646
156.98698
159.24563
161.72537
164.39341
167.25282
170.16254
172.43791
153.09914
155.02976
157.16591
159.45675
162.00822
164.74264
167.72834
170.74902
173.28758
153.17953
155.12972
157.29534
159.61815
162.22707
165.02428
168.14264
171.29122
174.13173
153.26329
155.22427
157.41228
159.75683
162.4143
165.25946
168.51435
171.78322
174.9635
153.30784
155.27894
157.48811
159.84861
162.548
165.42513
168.80667
172.19944
175.7884
153.35977
155.3337
157.55391
159.92205
162.65286
165.54723
169.04715
172.51822
176.75741
153.36173
155.34191
157.56734
159.94735
162.68495
165.60737
169.16071
172.72088
176.89549
171.66455
164.50987
161.53143
158.40238
155.20385
152.10006
149.10682
146.19192
143.33508
172.8317
165.32173
162.25487
158.98946
155.71605
152.53289
149.52631
146.56453
143.69394
173.93331
166.05994
162.92466
159.58241
156.23371
152.99772
149.96223
146.98003
144.09522
175.05452
166.73804
163.51801
160.05544
156.69591
153.38805
150.35613
147.31785
144.44373
176.23055
167.58829
164.23147
160.6761
157.24523
153.92735
150.84341
147.81499
144.90444
177.39678
168.15492
164.71331
161.05719
157.62108
154.21606
151.13493
148.04551
145.14454
178.82469
169.22895
165.47631
161.76121
158.27199
154.83679
151.72509
148.62335
145.71472
179.57176
169.50517
165.70074
161.92822
158.43967
154.95981
151.84443
148.7181
145.80741
182.03748
171.14346
166.68825
162.79102
159.25332
155.71934
152.56369
149.40619
146.48322
140.46562
137.58863
134.68608
131.75214
128.77362
125.74238
122.63855
119.45949
116.19042
140.79008
137.91903
134.98859
132.06727
129.06614
126.04622
122.92514
119.75258
116.4678
141.1946
138.32015
135.40009
132.47722
129.49007
126.47307
123.37169
120.21153
116.94977
141.50054
138.64334
135.69607
132.7882
129.7855
126.77977
123.67325
120.51982
117.2632
141.97379
139.09843
136.15851
133.24966
130.24587
127.2558
124.13875
121.02118
117.73819
142.17835
139.3174
136.3623
133.46128
130.45674
127.46483
124.36392
121.23133
117.99188
142.73825
139.88408
136.91671
134.03332
131.01357
128.05411
124.92858
121.85334
118.55138
142.8216
139.96557
137.0016
134.11224
131.10432
128.13108
125.03
121.92786
118.68909
143.47987
140.62842
137.6536
134.7804
131.76348
128.81668
125.70635
122.64894
119.36452
112.43845
108.12193
103.71375
99.123701
94.450149
90.080356
85.942577
80.033907
72.214196
112.76425
108.54271
104.22656
99.771026
95.200488
91.010886
87.253948
82.147711
75.362483
113.29098
109.1627
104.96915
100.59538
96.240164
91.959354
88.457336
83.321671
77.957646
113.67868
109.67395
105.57532
101.31323
97.026164
92.844423
89.626997
86.259687
80.409383
114.22194
110.25872
106.34684
102.1172
98.016834
93.711701
90.843056
86.325166
88.852245
114.52561
110.74381
106.8385
102.78952
98.601424
94.440743
90.827624
90.21491
89.086725
115.18937
111.43586
107.81196
103.78464
99.871622
95.570399
92.265863
86.53799
110.84347
115.33773
111.74241
108.04659
104.23446
100.18841
96.01141
91.200108
88.719523
99.88013
116.14671
112.67518
109.2763
105.59111
101.9473
97.906357
95.362267
77.494747
138.85093
52.540228
38.78089
40.144506
37.763768
35.652332
39.77857
42.354422
43.220568
42.753379
53.756347
38.094546
40.295183
38.459395
38.667141
40.580287
42.594817
43.277619
42.919797
54.105655
37.175228
40.742142
38.311192
37.685704
40.800241
42.787812
43.35798
43.055475
52.34932
35.522265
41.512712
38.337109
39.587475
41.210522
42.94335
43.524593
43.183305
47.600999
33.412631
42.126066
38.520727
39.451948
41.602028
43.126197
43.655327
43.341702
42.229733
33.860096
43.410191
38.099784
40.21129
42.054815
43.248262
43.81171
43.4759
44.581673
46.108101
41.362517
38.837517
40.56817
42.399182
43.399841
43.953422
43.603563
44.399765
30.625227
41.984919
38.24285
40.882835
42.662992
43.47488
44.063846
43.682017
-31.979936
53.736559
39.38045
39.026028
41.764643
42.94789
43.633248
44.148023
43.727593
41.689964
40.279923
38.273196
35.476531
32.541151
29.077735
26.519864
17.149094
21.209115
41.959978
40.513426
38.340228
35.554681
32.489611
28.566646
25.509984
17.298348
22.554433
42.051109
40.482535
38.231527
35.194031
31.97969
27.796193
24.011017
17.557269
22.694008
42.167407
40.561836
38.14686
34.977809
31.549818
27.255388
23.142457
17.66164
24.771237
42.311396
40.625285
38.076676
34.796075
31.121237
26.791172
22.583178
19.703533
26.770964
42.420824
40.706921
38.029594
34.609454
30.768295
26.430097
22.472704
21.674888
28.757168
42.524144
40.718734
37.919819
34.322215
30.346101
26.020669
22.963502
23.936012
31.498527
42.579271
40.752025
37.868463
34.18263
30.109831
26.09575
23.148626
25.369099
32.60229
42.591482
40.618571
37.549471
33.619782
29.418338
25.549097
23.778034
27.959927
35.743342
22.187305
21.916519
22.190484
25.431287
28.470202
32.347744
31.603486
28.757198
26.150076
23.00283
21.555773
20.852769
24.110096
28.085305
32.355435
32.715118
30.855398
29.610361
23.876842
21.937842
21.744351
24.048303
27.745523
31.721715
33.177893
32.696322
32.417869
25.309564
21.619083
20.865014
22.977486
27.587029
30.891903
32.931272
34.327793