/*--------------------------------*- C++ -*----------------------------------*\
  =========                 |
  \\      /  F ield         | OpenFOAM: The Open Source CFD Toolbox
   \\    /   O peration     | Website:  https://openfoam.org
    \\  /    A nd           | Version:  11
     \\/     M anipulation  |
\*---------------------------------------------------------------------------*/
FoamFile
{
    format      ascii;
    class       surfaceScalarField;
    location    "6.9";
    object      phi;
}
// * * * * * * * * * * * * * * * * * * * * * * * * * * * * * * * * * * * * * //

dimensions      [0 3 -1 0 0 0 0];

internalField   nonuniform List<scalar> 
8667
(
1.5884096
0.1893676
6.2422093e-07
1.398447
0.18996126
1.2530523e-06
1.207069
0.19137622
1.853986e-06
1.0166097
0.1904567
2.5321486e-06
0.82466724
0.19193941
3.0746394e-06
0.63537399
0.18928941
3.8350519e-06
0.44436551
0.19100412
4.3586201e-06
0.26017928
0.18418105
5.1909144e-06
0.1812536
6.1882633e-06
0.078919486
1.5885579
0.37858752
1.398172
0.38034721
1.2070024
0.38254578
1.0158583
0.38160085
0.82447752
0.38332014
0.63392232
0.37984462
0.44396962
0.38095682
0.26024554
0.36790513
0.36400924
0.077489897
1.5885105
0.56785481
1.3981478
0.57070996
1.2068797
0.57381379
1.0155124
0.57296822
0.82356361
0.5752689
0.63327355
0.57013468
0.44290976
0.57132062
0.25888151
0.55193337
0.54747574
0.075415011
1.5884209
0.75721176
1.3983872
0.76074366
1.2067738
0.76542714
1.015496
0.76424602
0.8230218
0.76774311
0.63217741
0.76097906
0.44141423
0.7620838
0.25705995
0.73628765
0.7309738
0.073561895
1.5884529
0.94653646
1.3984973
0.95069927
1.2070689
0.95685558
1.0154878
0.95582703
0.82291175
0.9603192
0.63142097
0.95246984
0.44039999
0.95310477
0.25534899
0.92133865
0.91422633
0.072096457
1.5885202
1.1357941
1.3987515
1.140468
1.2074375
1.1481695
1.0156832
1.1475813
0.82290073
1.1531017
0.6304895
1.1448811
0.43871374
1.1448805
0.25315569
1.1068967
1.0973152
0.070066783
1.5885834
1.3249885
1.3990059
1.3300455
1.2079288
1.3392466
1.0159458
1.3395643
0.82295808
1.3460894
0.63027831
1.3375608
0.43782705
1.3373318
0.25090832
1.2938154
1.2805981
0.067625483
1.5887893
1.513977
1.399225
1.5196098
1.2085076
1.529964
1.0165487
1.5315232
0.82301287
1.5396253
0.62951474
1.531059
0.43621729
1.5306293
0.2485151
1.4815176
1.46359
0.065523229
1.589017
1.7027378
1.3996463
1.7089806
1.2089456
1.7206646
1.0171647
1.7233041
0.82356372
1.7332262
0.62975466
1.724868
0.43535786
1.7250261
0.24576759
1.6711079
1.6478365
0.061521038
1.8851441
1.5953714
2.0673165
1.5956055
2.2491686
1.5959262
2.430848
1.5960986
2.6122139
1.5964101
2.7932966
1.5966954
2.9742117
1.5968629
3.1545032
1.5974864
1.5973226
3.3349587
1.8920707
1.4122813
2.0749035
1.4127727
2.2575745
1.4132553
2.4398551
1.413818
2.622015
1.4142502
2.8035995
1.4151109
2.985016
1.4154464
3.1659473
1.4165552
1.4164593
3.3468105
1.9056613
1.2272846
2.0903688
1.2280651
2.2747807
1.2288435
2.4585935
1.2300052
2.6421464
1.2306972
2.8251413
1.232116
3.0079006
1.2326871
3.1903174
1.2341383
1.2345135
3.3722633
1.9099524
1.0406364
2.0963283
1.0416892
2.2829279
1.0422438
2.4692476
1.0436855
2.6555707
1.0443741
2.8416284
1.0460583
3.027523
1.0467924
3.2131391
1.0485222
1.0492614
3.3983912
1.9222866
0.85157609
2.1115505
0.85242524
2.3010902
0.85270418
2.4908842
0.85389149
2.6806657
0.85459266
2.8706944
0.85602958
3.0603256
0.85716122
3.2500752
0.85877264
0.8602625
3.4390741
1.9149323
0.66151179
2.1062292
0.66112841
2.2981458
0.6607875
2.4912736
0.66076377
2.6846013
0.66126493
2.8790207
0.66161018
3.0733268
0.6628551
3.2686433
0.66345617
0.66499191
3.4639138
1.9159391
0.47059871
2.1094727
0.46759488
2.3038993
0.46636087
2.5014648
0.46319827
2.6997315
0.46299828
2.900278
0.46106359
3.1010152
0.46211793
3.3034322
0.4610392
0.46293292
3.5054912
1.8593923
0.28231425
2.0543477
0.27263948
2.2529741
0.26773449
2.4564661
0.25970629
2.6615738
0.25789057
2.8699389
0.25269847
3.0789643
0.25309254
3.2903463
0.24965726
0.25170722
3.501572
1.8387781
0.091372606
2.0493942
0.062023382
2.2735597
0.043569063
2.5043097
0.028956271
2.7371281
0.025072133
2.9706461
0.019180477
3.2054959
0.018242724
3.4396491
0.015504036
3.6750156
0.01634072
3.3240602
0.010898492
3.3137399
0.010320273
3.3035543
0.010185585
3.2941514
0.0094028842
3.2848361
0.0093152809
3.2764453
0.0083908458
3.2680679
0.008377382
3.2607438
0.0073240948
0.007360859
3.253383
3.3385064
0.01920267
3.3309258
0.017900787
3.3234838
0.017627645
3.3167646
0.016122039
3.3101531
0.015926798
3.3043673
0.014176626
3.29867
0.014074705
3.2939356
0.012058513
0.012104513
3.2891919
3.3651495
0.026316427
3.3585229
0.024527353
3.3521869
0.023963631
3.3462379
0.022071068
3.3406341
0.021530597
3.3354473
0.019363411
3.3306649
0.018857117
3.3263739
0.016349503
0.015950473
3.322528
3.3931604
0.031547166
3.3883959
0.02929185
3.3839621
0.028397425
3.3798316
0.026201622
3.376016
0.025346186
3.3725172
0.022862236
3.3693268
0.022047478
3.3664534
0.019222948
0.018541346
3.3638625
3.4340485
0.036572806
3.4293896
0.033950761
3.4249928
0.032794236
3.4209067
0.030287675
3.4170547
0.029198171
3.4135171
0.026399892
3.4101855
0.02537906
3.4071344
0.022274098
0.021427307
3.4042484
3.4612541
0.039232535
3.4589348
0.036270057
3.4569645
0.034764522
3.4550948
0.032157443
3.4534854
0.030807499
3.4517204
0.02816493
3.4501584
0.026941037
3.4481372
0.024295332
0.023312877
3.4462516
3.5039171
0.040806621
3.5021212
0.038065988
3.5007535
0.036132174
3.4989782
0.033932715
3.4974232
0.03236251
3.4950907
0.030497409
3.4927498
0.02928194
3.4891725
0.027872651
0.027070602
3.4854148
3.5110216
0.031356955
3.5195157
0.029571962
3.5288924
0.026755447
3.5368316
0.02599356
3.5449282
0.024265877
3.5507469
0.024678693
3.5555533
0.024475494
3.5563902
0.027035847
0.02882189
3.5546389
3.6929935
0.013379057
3.7077559
0.014809597
3.7184559
0.01605548
3.7253912
0.019058217
3.7267508
0.022906303
3.7219828
0.029446656
3.7106414
0.035816935
3.6919955
0.045681692
3.6691318
0.051685635
3.652844
0.068016235
-0.051728483
3.6222904
0.065959466
-0.035405827
3.585849
0.062602086
-0.026160723
3.5468282
0.061312431
-0.02229156
3.5061727
0.058347697
-0.01769224
3.4646429
0.057392706
-0.015862894
3.4228029
0.054883511
-0.013043532
3.3816947
0.054679234
-0.013570994
0.052740415
3.3408735
-0.011919253
3.5611253
0.061529789
3.5642158
0.062868949
3.563258
0.06355987
3.5602394
0.064331075
3.5538234
0.064763737
3.5457133
0.065502731
3.5345164
0.066080468
3.5223119
0.066883715
0.067530247
3.5075221
3.4923917
0.054552856
3.4989989
0.056261779
3.5040308
0.058528012
3.5082155
0.060146356
3.5106469
0.062332365
3.5123036
0.063846019
3.5123703
0.066013726
3.5116592
0.067594783
0.069860067
3.5093294
3.4562116
0.044592865
3.466433
0.046040372
3.4756999
0.049261139
3.4851751
0.050671189
3.4935604
0.053947046
3.5020299
0.05537652
3.5092878
0.058755829
3.5165907
0.060291846
0.063827239
3.5226235
3.4138368
0.03500445
3.4238357
0.036041473
3.4336755
0.039421371
3.443909
0.040437633
3.4538398
0.044016275
3.4641707
0.045045668
3.4740721
0.048854409
3.4844216
0.049942375
0.054022899
3.4942259
3.3743103
0.024556677
3.3851922
0.025159501
3.3963067
0.028306934
3.4078801
0.02886426
3.4195886
0.032307687
3.4318046
0.032829688
3.444067
0.036592028
3.4569114
0.037097963
0.041223579
3.4697107
3.3317558
0.015328874
3.3415643
0.01535094
3.3517892
0.018082059
3.3626437
0.018009765
3.3738848
0.021066581
3.3858439
0.020870641
3.3981704
0.024265475
3.4113104
0.023957922
0.027760782
3.4247732
3.2980493
0.0064715064
3.3071533
0.0062469684
3.3171162
0.0081191457
3.3273248
0.007801162
3.3385597
0.0098316473
3.3500614
0.0093689254
3.36285
0.011476899
3.3757483
0.011059657
0.013492794
3.3900163
3.2598545
3.2661014
3.2742206
3.2820217
3.2918534
3.3012223
3.3126992
3.3237589
3.3372517
3.3500909
-0.012839224
3.3656167
-0.015525862
3.3806662
-0.0150495
3.3986292
-0.017962954
3.415872
-0.017242835
3.436409
-0.020536945
3.456367
-0.019958038
3.4800219
-0.023654926
-0.022932073
3.502954
3.4045128
-0.027335781
3.4205808
-0.031593884
3.4366123
-0.031080906
3.4545145
-0.035865167
3.4725294
-0.035257792
3.4926296
-0.040637124
3.5126342
-0.039962624
3.5350272
-0.046047948
-0.045287381
3.5573825
3.4391765
-0.041739041
3.4538573
-0.046274705
3.4696149
-0.046838509
3.4856112
-0.051861389
3.5028615
-0.052508183
3.5203227
-0.058098261
3.5392288
-0.05886875
3.5583395
-0.065158683
-0.066063758
3.5791159
3.4831992
-0.055227529
3.4965578
-0.059633253
3.5107432
-0.061023954
3.524721
-0.06583915
3.5397001
-0.067487323
3.5544325
-0.072830628
3.5703614
-0.074797701
3.5860252
-0.080822436
-0.083149687
3.6031111
3.5045671
-0.065568774
3.5142599
-0.069325989
3.5246324
-0.071396464
3.5342714
-0.07547819
3.5447635
-0.077979389
3.5544778
-0.082544902
3.5652285
-0.085548485
3.5751995
-0.090793345
-0.094353847
3.5864036
3.5287588
-0.071704025
3.5335883
-0.074155519
3.5386382
-0.076446358
3.5423589
-0.079198862
3.5464791
-0.082099633
3.5493056
-0.085371332
3.5527516
-0.088994571
3.5549638
-0.093005505
-0.097414913
3.5580249
3.5064532
-0.068827806
3.5022202
-0.069922487
3.4975255
-0.071751653
3.4917643
-0.0734377
3.4855711
-0.075906472
3.478552
-0.078352166
3.4711398
-0.081582446
3.4631146
-0.084980231
-0.089070122
3.4547698
3.4920147
-0.053320489
3.4741709
-0.052078653
3.4558157
-0.053396402
3.4353365
-0.052958586
3.4144786
-0.055048511
3.3916037
-0.055477303
3.368439
-0.058417675
3.3432869
-0.059828163
-0.063797462
3.3180142
3.3010193
-0.013466305
3.2609199
-0.011979234
3.2216991
-0.014175633
3.1814648
-0.01272424
3.1420964
-0.015680153
3.100754
-0.014134812
3.060518
-0.018181753
3.0173277
-0.016637803
2.9755256
-0.021995435
0.066407483
2.9296015
-0.02048333
0.093673615
3.2907481
0.1024329
3.4460105
0.10048223
3.5599755
0.090023671
3.5968622
0.073167767
3.619967
0.05216258
3.6001211
0.027019176
3.5825259
3.5299732
0.071689731
2.8855004
-0.027588613
0.098631
3.2638068
0.10756747
3.437074
0.10462429
3.5629187
0.092724458
3.608762
0.074208685
3.6384828
0.051318518
3.6230113
0.0263412
3.6075032
3.5563144
0.07579723
2.8359283
-0.026225172
0.10484708
3.234757
0.11401865
3.4279025
0.11184344
3.5650939
0.10062652
3.6199789
0.08229176
3.6568175
0.059158921
3.6461441
0.03101251
3.6356497
3.5873269
0.082774209
2.7891311
-0.035976991
0.11069618
3.206835
0.11982885
3.4187698
0.11654869
3.5683741
0.10367907
3.6328485
0.083430039
3.6770666
0.058180653
3.6713935
0.030321192
3.6635091
3.6176481
0.088765329
2.7359757
-0.035609904
0.11877373
3.1768266
0.12794712
3.4095964
0.12506707
3.5712541
0.11277882
3.6451368
0.092606554
3.6972389
0.067042063
3.696958
0.035573611
3.6949776
3.6532217
0.097913881
2.6883359
-0.050274128
0.12559316
3.1491473
0.1343407
3.4008489
0.13017234
3.5754225
0.11610619
3.6592029
0.093757406
3.7195876
0.06586441
3.724851
0.034867716
3.7259743
3.6880894
0.10579942
2.6349679
-0.052431383
0.13586016
3.1190866
0.14446705
3.392242
0.14032548
3.5795641
0.12656136
3.6729671
0.10414527
3.7420037
0.07588833
3.7531079
0.040745017
3.7611176
3.7288344
0.11755309
2.59362
-0.076205161
0.14363707
3.0930026
0.15127243
3.3846066
0.14563867
3.5851978
0.12998108
3.6886246
0.10519907
3.7667858
0.074407304
3.7838997
0.039965242
3.7955596
3.7687997
0.12992241
2.541322
-0.077624411
0.15701291
3.0659121
0.16427402
3.3773455
0.15838059
3.5910913
0.14274434
3.7042609
0.1174956
3.7920345
0.085812427
3.8155829
0.04630986
3.8350622
3.8151095
-0.0069954743
3.822105
-0.0052509471
3.8333177
-0.0022173798
3.8125493
0.0071234718
3.7826936
0.019791707
3.6915927
0.038380791
3.5725022
0.058207147
3.3575191
0.074738485
3.0493808
2.5590982
0.05696226
-0.011730472
3.8338355
-0.01518982
3.836777
-0.013189269
3.8105487
-0.0043477901
3.7738522
0.0074875643
3.6797573
0.024891582
3.5550982
0.042096701
3.340314
0.059001152
3.0324763
2.5638835
0.054215814
-0.010196079
3.8440316
-0.01121958
3.8378005
-0.010230198
3.8095594
-0.0029732083
3.7665952
0.0074292728
3.6693548
0.023765582
3.5387618
0.04059448
3.3234851
0.054559057
3.0185117
2.5683658
0.050076791
-0.01489988
3.8589314
-0.021634399
3.844535
-0.022192687
3.8101176
-0.015461273
3.7598638
-0.0054331587
3.6593267
0.01018094
3.5231477
0.025752697
3.3079134
0.040681755
3.0035827
2.5738087
0.035238861
-0.01302915
3.8719606
-0.016595523
3.8481014
-0.01789126
3.8114134
-0.012585816
3.7545583
-0.0039049929
3.6506459
0.010733667
3.5085091
0.025935131
3.2927119
0.037817822
2.9917
2.5747307
0.036895763
-0.018251658
3.8902123
-0.027235131
3.8570849
-0.030107791
3.814286
-0.025427397
3.7498779
-0.016863596
3.6420821
-0.0028493539
3.4944948
0.011566843
3.2782957
0.025947998
2.9773188
2.5725497
0.02812909
-0.016019503
3.9062318
-0.02169415
3.8627595
-0.02504043
3.8176323
-0.021108071
3.7459456
-0.013913557
3.6348876
-0.00082389126
3.4814052
0.013346884
3.2641249
0.025231553
2.9654342
2.5659222
0.031858963
-0.021451863
3.9276836
-0.031830763
3.8731384
-0.037053452
3.822855
-0.034078368
3.7429705
-0.026918207
3.6277274
-0.014284855
3.4687718
-0.00018456452
3.2500246
0.01528303
2.9499666
2.5569181
0.024287197
-0.018845256
3.9465289
-0.026036475
3.8803297
-0.030926726
3.8277453
-0.028117706
3.7401615
-0.022296975
3.6219067
-0.010524074
3.4569989
0.0033853556
3.2361152
0.016141964
2.93721
2.5443645
0.0286955
-0.0074728525
2.529589
0.022248402
0.0092698334
2.9204673
0.023402166
3.2219829
0.035046265
3.4453548
0.040762871
3.6161901
0.042707642
3.7382167
0.035256389
3.8351965
0.023580054
3.892006
3.9701089
-0.0095641387
2.5121638
0.026989318
0.004062026
2.9068411
0.017771124
3.2082738
0.028524647
3.4346013
0.033019543
3.6116952
0.035298252
3.735938
0.02909101
3.8414038
0.020750989
3.900346
3.9908599
-0.0020722718
2.4931667
0.021069415
0.015808632
2.8889602
0.029914719
3.1941677
0.040740636
3.4237754
0.045386726
3.6070491
0.046119438
3.7352053
0.03707467
3.8504485
0.024785542
3.9126351
4.0156455
-0.0051880964
2.4723116
0.02604317
0.0090275122
2.8747446
0.022393791
3.1808014
0.032241404
3.4139278
0.035742878
3.6035476
0.03743007
3.7335181
0.030822762
3.8570558
0.021863061
3.9215948
4.0375085
0.0011685112
2.4506362
0.020506872
0.019724631
2.8561885
0.033584848
3.1669412
0.0437491
3.4037635
0.047272549
3.6000242
0.0468512
3.7339394
0.036922057
3.866985
0.024735163
3.9337817
4.0622437
-0.0030792753
2.4280971
0.025618364
0.011310196
2.841799
0.024118066
3.1541333
0.033185422
3.3946962
0.035835206
3.5973744
0.036857497
3.7329171
0.030058402
3.8737841
0.021406591
3.9424335
4.0836503
0.0020853127
2.4055534
0.020458414
0.020688404
2.8231959
0.03408735
3.1407344
0.043380023
3.3854035
0.045847753
3.5949066
0.044477332
3.7342876
0.034913642
3.8833478
0.023624987
3.9537222
4.1072753
-0.0034643989
2.3835559
0.025461874
0.010498127
2.8092334
0.022484209
3.1287483
0.030593329
3.3772944
0.032822444
3.5926775
0.033340338
3.7337697
0.027057065
3.889631
0.019381735
3.9613975
4.126657
-9.7234986e-05
2.3630463
0.020606897
0.018368688
2.7907675
0.031142845
3.1159741
0.039366507
3.3690707
0.040877384
3.5911667
0.038773094
3.7358739
0.030293951
3.8981102
0.020653128
3.9710384
4.1473101
-0.00095485198
4.148265
0.0039177803
3.9661657
0.0093370568
3.8926909
0.015890857
3.7293201
0.021730096
3.5853274
0.028660325
3.3621405
0.035465613
3.1091688
0.037050333
2.7891827
2.357945
0.042151617
-9.4824818e-06
4.1482745
0.0035025972
3.9626536
0.0079887158
3.8882048
0.01197293
3.7253359
0.01673771
3.5805626
0.023284421
3.3555938
0.03053485
3.1019184
0.037316172
2.7824014
2.3583044
0.036956731
0.0066953193
4.1415791
0.015413319
3.9539356
0.023225814
3.8803923
0.031161581
3.7174002
0.037488131
3.5742361
0.044053016
3.3490289
0.051162845
3.0948086
0.051920445
2.7816438
2.3650442
0.045180682
0.009018252
4.1325609
0.017101604
3.9458523
0.024571915
3.872922
0.030585206
3.7113869
0.035893563
3.5689277
0.042042629
3.3428798
0.050311596
3.0865396
0.057151387
2.774804
2.380279
0.041916609
0.016550132
4.1160108
0.029871194
3.9325312
0.041392551
3.8614006
0.05162369
3.7011557
0.058923953
3.5616275
0.065170332
3.3366334
0.073288868
3.0784211
0.076323433
2.7717695
2.4100072
0.046595196
0.019600457
4.0964103
0.03323275
3.9188989
0.045137925
3.8494954
0.053968438
3.6923252
0.060355002
3.5552409
0.066033415
3.330955
0.075695833
3.0687587
0.0897861
2.7576792
2.4610556
0.038737655
0.027580697
4.0688296
0.046859252
3.8996204
0.063310362
3.8330443
0.076695849
3.6789397
0.085494829
3.5464419
0.090876317
3.3255735
0.099302092
3.0603329
0.11462438
2.7423569
2.5234031
0.052276936
0.031715463
4.0371141
0.051505129
3.8798307
0.068920486
3.815629
0.08161226
3.666248
0.090014849
3.5380393
0.093852168
3.3217362
0.10160124
3.0525838
0.13417195
2.7097862
2.6004866
0.057088387
0.040188371
3.9969258
0.065802904
3.8542162
0.088099776
3.7933321
0.10677417
3.6475736
0.11875524
3.5260583
0.12247584
3.3180156
0.12827126
3.0467884
0.16478335
2.6732741
2.6162058
0.14906418
-0.15723734
4.1541631
-0.31623111
4.0132099
-0.47481548
3.9519165
-0.62456095
3.797319
-0.75689506
3.6583924
-0.86743572
3.4285563
-0.92555329
3.104906
-0.94414832
2.6918691
2.602784
-0.93072654
-0.15363632
4.3077994
-0.31667211
4.1762457
-0.47866338
4.1139077
-0.63348431
3.95214
-0.77021529
3.7951233
-0.87900512
3.5373461
-0.9331918
3.1590927
-0.9221611
2.6808384
2.3826848
-0.70206183
-0.15342884
4.4612283
-0.31470111
4.337518
-0.4761154
4.275322
-0.6383639
4.1143885
-0.77795064
3.9347101
-0.89249803
3.6518935
-0.93357263
3.2001673
-0.86154674
2.6088125
1.7226474
-0.20150932
-0.14821404
4.6094423
-0.31325578
4.5025597
-0.4775216
4.4395879
-0.6456125
4.2824794
-0.7911229
4.0802205
-0.90565374
3.7664244
-0.92442742
3.2189409
-0.79997697
2.4843621
0.96943729
-0.046766908
-0.14621158
4.7556539
-0.31176935
4.6681175
-0.47413265
4.6019512
-0.6498764
4.4582231
-0.79804478
4.2283889
-0.91849786
3.8868774
-0.9124121
3.2128552
-0.68844227
2.2603923
0.28578897
-0.0047939465
-0.13799854
4.8936524
-0.30831262
4.8384316
-0.47395982
4.7675984
-0.65516429
4.6394276
-0.81011984
4.3833444
-0.9280442
4.0048018
-0.86990585
3.1547168
-0.43301012
1.8234965
-0.22165264
0.074431487
-0.13374597
5.0273984
-0.30372561
5.0084112
-0.46879231
4.9326651
-0.65777081
4.8284061
-0.81573161
4.5413052
-0.92247991
4.1115501
-0.78057893
3.0128159
-0.29129824
1.3342158
-0.57674198
0.063791098
-0.12608584
5.1534842
-0.2977435
5.1800689
-0.46678209
5.1017037
-0.66044497
5.022069
-0.8243016
4.7051618
-0.91660012
4.2038486
-0.6957651
2.7919808
-0.22456313
0.86301388
-0.85945353
0.058148417
-0.12134033
5.2748246
-0.29170525
5.3504338
-0.45975999
5.2697584
-0.66082276
5.2231317
-0.82738933
4.8717284
-0.89031246
4.2667717
-0.55735593
2.4590243
-0.10688019
0.41253813
-1.04309
0.07675628
0.032117341
-1.1188759
0.043668561
0.28069658
0.16395889
0.53799521
2.2017257
0.50953521
4.2952317
0.39990816
4.9813554
0.26448803
5.3585519
0.15666478
5.3775817
0.051877134
5.4552214
5.3267017
0.018240348
-1.1841935
0.047077286
0.25275049
-0.070551255
0.52188891
1.9325873
0.50477989
4.3123408
0.38986773
5.0962676
0.25168286
5.4967367
0.14743363
5.4818309
0.046718094
5.555937
5.3734198
0.026367385
-1.2591985
0.048637553
0.25056363
-0.2947475
0.49979557
1.6833553
0.5005918
4.3115445
0.38637892
5.2104805
0.2458559
5.6372598
0.13820318
5.5894836
0.03901849
5.6551217
5.4124383
0.041328819
-1.3497047
0.049177416
0.26523387
-0.51865255
0.48873176
1.4598574
0.49285984
4.3074165
0.37455111
5.3287892
0.23239808
5.7794128
0.12857937
5.6933023
0.034022036
5.749679
5.4464603
0.050530417
-1.4480685
0.047833341
0.26743861
-0.73556074
0.47222213
1.2550739
0.48773128
4.2919073
0.36928459
5.4472359
0.22536312
5.9233343
0.11883141
5.799834
0.026758354
5.8417521
5.4732187
0.052039788
-1.5480661
0.047957888
0.26408453
-0.94760548
0.46076064
1.0583978
0.47735945
4.2753085
0.35564329
5.5689521
0.21114777
6.0678298
0.10888409
5.9020977
0.022132718
5.9285034
5.4953514
0.052863296
-1.6393628
0.038433359
0.25123144
-1.1459736
0.4407584
0.86887083
0.47080719
4.2452597
0.3486546
5.6911047
0.20318052
6.2133039
0.098846412
6.0064318
0.015362639
6.0119872
5.510714
0.049461336
-1.732522
0.043697841
0.24124445
-1.3377567
0.42827865
0.68183663
0.45697151
4.2165668
0.33107567
5.8170005
0.18841522
6.3559643
0.088889823
6.1059572
0.011948334
6.0889287
5.5226624
0.050819702
-1.7852934
0.0019517675
0.22087728
-1.5078143
0.40033446
0.50237945
0.44915251
4.1677488
0.325519
5.940634
0.18065925
6.5008241
0.079669439
6.206947
0.0070232204
6.1615749
5.5296856
0.35130563
-2.0972213
-0.039377791
0.50748907
-1.6639978
0.48595824
0.52391027
0.28066658
4.3730405
0.008098972
6.2132016
-0.13771023
6.6466333
-0.1764166
6.2456534
-0.15459018
6.1397485
5.3750954
0.37382564
-2.4743838
0.0033368707
0.49110015
-1.7812723
0.41440246
0.60060796
0.18557718
4.6018657
-0.080720647
6.4794994
-0.22515878
6.7910714
-0.24257064
6.2630653
-0.18855759
6.0857354
5.1865378
0.38657426
-2.7603915
-0.10056655
0.50188905
-1.896587
0.38773382
0.7147632
0.062921207
4.9266783
-0.19649891
6.7389196
-0.28105026
6.8756228
-0.26512481
6.2471398
-0.18421881
6.0048294
5.002319
0.39180198
-2.9125621
-0.23963142
0.48462256
-1.9894076
0.31376702
0.88561874
-0.021953047
5.2623984
-0.26761325
6.9845798
-0.34167122
6.9496807
-0.3052352
6.2107038
-0.19557239
5.8951666
4.8067466
0.38563596
-2.9502934
-0.34790461
0.4700709
-2.0738426
0.24779439
1.1078952
-0.15894195
5.6691347
-0.36303948
7.1886773
-0.37288818
6.9595294
-0.30729542
6.145111
-0.17714674
5.765018
4.6295999
0.36261564
-2.9276703
-0.38523873
0.42722944
-2.1384564
0.17052872
1.364596
-0.23329725
6.0729607
-0.40614459
7.3615246
-0.40808041
6.9614652
-0.3316069
6.0686375
-0.18149089
5.6149019
4.448109
0.34034485
-2.8759668
-0.39204843
0.38249215
-2.1806037
0.068007906
1.6790802
-0.36613761
6.5071062
-0.47904435
7.4744314
-0.41705256
6.8994735
-0.31357177
5.9651567
-0.14676579
5.448096
4.3013432
0.3068195
-2.8369192
-0.34586705
0.33090357
-2.2046877
-0.0015515208
2.0115353
-0.41409187
6.9196466
-0.48947063
7.5498101
-0.42664139
6.8366442
-0.32272625
5.8612416
-0.14405829
5.269428
4.1572849
0.28721418
-0.22443762
-2.8996958
0.28159486
-2.1990684
-0.12796185
2.421092
-0.56674816
7.3584329
-0.55370732
7.5367693
-0.42611283
6.7090497
-0.29335335
5.7284821
-0.10093118
5.0770058
4.0563537
-0.35092985
0.28691651
0.063599634
0.00041370447
-0.7339817
0.38276793
0.00028392486
-1.1316574
0.39809122
-0.00041556122
-1.1816046
0.050800607
-0.00085340687
-0.86106253
-0.3200275
-0.00051452053
-0.61342451
-0.24837456
0.000736545
-0.43736403
-0.17656794
0.00050745228
0.0012691195
-0.43869449
6.134835e-05
-0.4951822
-3.1455697e-05
-0.34970209
0.57135978
0.065258824
-0.7224119
0.75547773
-1.1011845
0.77686384
-1.1211451
0.070761194
-0.77089825
-0.67027437
-0.43731951
-0.58195331
-0.13985059
-0.47403686
0.27713471
-0.85567979
-0.93609448
-0.34337106
0.84559827
0.069132565
-0.69446791
1.1065746
-1.0505153
1.1329112
-1.0336246
0.053870547
-0.65039016
-1.0535088
-0.25802879
-0.97431469
0.14208315
-0.87414879
0.59252174
-1.3061184
-1.3737816
-0.3346069
1.1099822
0.070223
-0.6697163
1.441684
-0.99765243
1.4608474
-0.9232096
-0.02057229
-0.47424822
-1.5024702
-0.058613945
-1.389949
0.40391883
-1.3366816
0.88040303
-1.7826026
-1.7672399
-0.32459982
1.3628166
0.071765379
-0.64105196
1.7581361
-0.92796583
1.7477612
-0.79426482
-0.1542733
-0.29024752
-2.0064875
0.16991055
-1.850107
0.66320174
-1.8299728
1.123836
-2.2432368
-2.1037039
-0.31266255
1.6038091
0.071670063
-0.60715445
2.052628
-0.78414407
1.9247508
-0.57248277
-0.3659346
-0.10182987
-2.4771404
0.40415675
-2.3560937
0.9025355
-2.3283515
1.3323818
-2.6730831
-2.4068746
-0.30055999
1.8299564
0.074412694
-0.55712762
2.3091957
-0.61803163
1.9856549
-0.31381302
-0.67015321
0.12510725
-2.9160607
0.6329876
-2.863974
1.1222473
-2.8176112
1.5134649
-3.0643008
-2.6695914
-0.28213669
2.0325452
0.079547902
-0.499753
2.526812
-0.47178346
1.9576853
-0.088559484
-1.0533772
0.34074097
-3.3453611
0.85353478
-3.3767678
1.3159573
-3.2800337
1.6578079
-3.4061514
-2.9025378
-0.26803462
0.087878036
2.2127018
-0.45234802
2.7111254
-0.35148994
1.8568272
0.11085935
-1.5157265
0.55783237
-3.7923342
1.0505052
-3.8694407
1.4790093
-3.7085377
1.7834681
-3.7106102
-3.1108113
0.28725717
2.8376217
-0.22450244
-2.9003764
0.28150161
2.2044813
-2.1987258
-0.12810552
-2.0129616
2.4225687
-0.56673619
-6.9196931
7.3583238
-0.55364146
-7.5495095
7.5364147
-0.42604617
-6.8363213
6.7087261
-0.29331666
-5.8610953
5.7283658
-0.10091556
-5.2693816
5.0769806
-4.1573525
4.056437
0.30687188
2.8766674
-0.3459176
0.3308351
2.1805181
-0.0017000106
-1.6804265
-0.41411629
-6.5072768
-0.48942757
-7.4741982
-0.42657624
-6.8991727
-0.32268114
-5.9649904
-0.14403727
-5.4480255
-4.3013898
0.34040597
2.9283408
-0.39207934
0.38244392
2.1384802
0.067845193
-1.3658278
-0.36618326
-6.0732484
-0.47901928
-7.3613622
-0.41699872
-6.9611932
-0.31353155
-6.0684575
-0.14674496
-5.6148121
-4.4481348
0.36267026
2.9509352
-0.3852647
0.42717874
2.0739717
0.17037593
-1.1090249
-0.23335741
-5.669515
-0.40613683
-7.1885827
-0.40803423
-6.9592958
-0.33156332
-6.1449284
-0.18146635
-5.7649091
-4.6296011
0.38570538
2.913153
-0.34792318
0.47005235
1.9896247
0.24763573
-0.88660832
-0.1590276
-5.2628517
-0.36305242
-6.9845579
-0.37286043
-6.9494878
-0.30726037
-6.2105285
-0.17712238
-5.8950471
-4.8067235
0.39186985
2.7609259
-0.23964279
0.4846175
1.8968771
0.31363228
-0.71562311
-0.02204461
-4.9271748
-0.26764177
-6.7389608
-0.34165386
-6.8754757
-0.30520486
-6.2469775
-0.19554934
-6.0047026
-5.0022728
0.38664574
2.4748537
-0.10057346
0.50190415
1.7816187
0.38760874
-0.6013277
0.062822536
-4.6023886
-0.19654646
-6.4795918
-0.28105164
-6.7909706
-0.26510578
-6.2629234
-0.18419995
-6.0856084
-5.1864728
0.37390076
2.0976138
0.0033391196
0.49114094
1.6643785
0.41431397
-0.52450073
0.18548384
-4.3735585
-0.080776057
-6.2133319
-0.22517149
-6.6465751
-0.24255954
-6.2455353
-0.18854138
-6.1396266
-5.3750142
0.35137599
1.7856273
-0.039389538
0.50755903
1.5081954
0.48590569
-0.50284738
0.28057068
-4.1682235
0.0080301857
-5.9407914
-0.13774064
-6.5008043
-0.17641859
-6.2068574
-0.15457989
-6.1614653
-5.529594
-0.051872442
5.326622
-5.2747495
-0.1566528
5.4551726
-5.3503923
-0.26447069
5.3775616
-5.2697437
-0.39988822
5.358588
-5.2231704
-0.50952211
4.9814734
-4.8718395
-0.53800247
4.2954183
-4.266938
-0.28072202
2.2019615
-2.459242
-0.032132971
0.1638118
-0.41240085
-1.1190569
1.0432574
0.043666537
-0.046713926
5.3733359
-0.14742205
5.5558808
-0.25166469
5.4818042
-0.38984622
5.4967695
-0.50476519
5.0963923
-0.52189861
4.3125517
-0.25278562
1.9328485
-0.018260448
-0.070713376
-1.1843925
0.047075179
-0.039015099
5.412351
-0.13819196
5.6550576
-0.24583782
5.5894501
-0.3863566
5.6372883
-0.50057598
5.2106117
-0.49980713
4.3117829
-0.25060747
1.6836489
-0.026391116
-0.29492973
-1.2594226
0.048638939
-0.034019193
5.4463702
-0.12856883
5.7496073
-0.23237964
5.6932609
-0.37452767
5.7794363
-0.49284228
5.3289263
-0.48874686
4.3076875
-0.26528337
1.4601854
-0.041352265
-0.51886083
-1.349954
0.04917918
-0.026756421
5.4731266
-0.11882147
5.8416723
-0.22534516
5.7997846
-0.36926041
5.9233516
-0.48771259
5.4473785
-0.47223787
4.2922127
-0.26748548
1.255433
-0.050550415
-0.7357959
-1.448341
0.047836564
-0.022131471
5.4952581
-0.10887509
5.9284159
-0.21112941
5.9020389
-0.35561741
6.0678396
-0.47733839
5.5690995
-0.46077699
4.2756513
-0.26412964
1.0587856
-0.052055164
-0.94787037
-1.5483599
0.047963755
-0.015362351
5.5106204
-0.098838314
6.0118919
-0.20316306
6.0063636
-0.34862829
6.2133048
-0.47078563
5.6912568
-0.44077718
4.2456429
-0.25127654
0.86928499
-0.052874602
-1.1462723
-1.6396747
0.038440238
-0.011948934
5.5225694
-0.088882965
6.0888259
-0.18839761
6.1058783
-0.33104855
6.3559557
-0.45694727
5.8171555
-0.42829788
4.2169935
-0.24129119
0.68227831
-0.04946903
-1.3380945
-1.732851
0.043707252
-0.0070246905
-0.079664059
-0.18064314
-0.32549173
-0.44912758
-0.40035756
-0.22092663
-0.050825675
0.0019506434
0.10690181
0.85960752
0.076748034
0.55739056
-0.86288961
0.89032806
-2.7921795
0.82738141
-4.2039913
0.66080469
-4.7052627
0.45974202
-5.0221078
0.29169212
-5.1016938
0.12133412
-5.1800343
-5.1534154
0.22458688
0.5769063
0.05811434
0.69579603
-1.3340988
0.91661378
-3.0129972
0.82429436
-4.1116719
0.66042833
-4.5413967
0.46676545
-4.8284449
0.29773068
-4.932659
0.12607947
-5.0083831
-5.0273359
0.29131859
0.22176058
0.063827136
0.78060775
-1.8233879
0.92249179
-3.1548812
0.81572678
-4.0049069
0.6577562
-4.3834261
0.46877646
-4.6394651
0.30371321
-4.7675957
0.13373911
-4.838409
-4.8935968
0.43301216
-0.28570215
0.074450562
0.86993198
-2.2603077
0.9280539
-3.2130032
0.81011507
-3.8869681
0.65515082
-4.2284619
0.47394556
-4.4582599
0.3083011
-4.6019513
0.13799186
-4.6680997
-4.7556049
0.68844582
-0.96935298
-0.0047949833
0.91243965
-2.4843016
0.91850622
-3.2190697
0.79804219
-3.766504
0.64986526
-4.080285
0.47411942
-4.282514
0.31175876
-4.4395906
0.14620477
-4.5025457
-4.6094002
0.7999793
-1.7225437
-0.046788556
0.92445048
-2.6087728
0.90565653
-3.2002758
0.79111947
-3.651967
0.64560212
-3.9347676
0.47751
-4.1144219
0.3132462
-4.2753268
0.14820788
-4.3375074
-4.4611923
0.86155296
-2.3826071
-0.20148956
0.93359307
-2.6808129
0.89250516
-3.1591879
0.77794977
-3.5374116
0.63835559
-3.7951734
0.47610415
-3.9521705
0.31469185
-4.1139145
0.15342274
-4.1762383
-4.3077695
0.92216554
-2.6027389
-0.7020338
0.9332092
-2.6918565
0.87901032
-3.104989
0.77021344
-3.4286147
0.63347685
-3.6584368
0.47865405
-3.7973477
0.31666386
-3.9519243
0.153631
-4.0132055
-4.1541385
0.9441543
-2.6161817
-0.93071144
0.92556955
-2.6732718
0.86743706
-3.0468565
0.75689542
-3.3180731
0.62455547
-3.5260969
0.47480659
-3.6475988
0.31622322
-3.793341
0.15723212
-3.8542144
-3.9969064
-0.00095266341
4.1482733
-4.1473206
0.0039202282
3.9661807
-3.9710536
0.0093398857
3.8927094
-3.8981291
0.015892912
3.7293454
-3.7358985
0.021729866
3.5853532
-3.5911901
0.028657251
3.362162
-3.3690894
0.035460887
3.1091743
-3.1159779
0.037046898
2.7891702
-2.7907562
2.3579343
-2.3630402
0.042152832
-6.7754662e-06
4.1482801
0.0035060947
3.9626679
0.0079915602
3.8882239
0.011974682
3.7253623
0.016737293
3.5805906
0.023280443
3.3556188
0.030528357
3.1019264
0.037312336
2.7823862
2.3582926
0.036954075
0.006697922
4.1415822
0.015417374
3.9539484
0.023230827
3.8804105
0.031165503
3.7174276
0.037489684
3.5742664