/*--------------------------------*- C++ -*----------------------------------*\
  =========                 |
  \\      /  F ield         | OpenFOAM: The Open Source CFD Toolbox
   \\    /   O peration     | Website:  https://openfoam.org
    \\  /    A nd           | Version:  11
     \\/     M anipulation  |
\*---------------------------------------------------------------------------*/
FoamFile
{
    format      ascii;
    class       surfaceScalarField;
    location    "18.3";
    object      phi;
}
// * * * * * * * * * * * * * * * * * * * * * * * * * * * * * * * * * * * * * //

dimensions      [0 3 -1 0 0 0 0];

internalField   nonuniform List<scalar> 
10792
(
0.070233035
-0.042515416
-0.070783732
0.043066113
0.069647142
-0.040424217
0.041010111
0.068984576
-0.038310166
0.038972732
0.068131194
-0.035995121
0.036848502
0.067331158
-0.033709258
0.034509294
0.066520317
-0.031435232
0.032246073
0.065719008
-0.02896036
0.029761668
0.064889003
-0.026727014
0.027557019
0.064042386
-0.023939457
0.024786074
0.063304134
-0.021733982
0.022472234
0.062540082
-0.018879382
0.019643433
0.061867958
-0.016491819
0.017163942
0.061296306
-0.013679047
0.014250699
0.060679689
-0.011144942
0.011761558
0.060286426
-0.0082882118
0.0086814745
0.059760327
-0.0056853313
0.0062114298
0.059486516
-0.0027640596
0.0030378711
0.059429216
-0.00015054894
0.0002078485
0.0027626311
0.059402753
-0.0027361683
0.074465187
-0.041918761
-0.075061842
0.073818955
-0.039777986
0.072985429
-0.03747664
0.07219245
-0.035202142
0.07144298
-0.032959788
0.07063988
-0.030632132
0.069917704
-0.028238184
0.06898027
-0.02578958
0.068265685
-0.023224872
0.067482927
-0.020951225
0.066681703
-0.018078157
0.066073527
-0.015883643
0.065399448
-0.013004968
0.064862453
-0.010607947
0.064406588
-0.007832347
0.064010091
-0.0052888348
0.063866621
-0.0026205892
0.063620009
9.6062676e-05
0.0028236862
0.063558953
0.07906009
-0.041368629
-0.079610222
0.078400498
-0.039118393
0.077664766
-0.036740908
0.077045943
-0.034583319
0.076311849
-0.032225693
0.07552978
-0.029850064
0.074616056
-0.02732446
0.07372864
-0.024902165
0.072998223
-0.022494456
0.072062963
-0.020015965
0.07138557
-0.017400764
0.07065303
-0.015151103
0.070010637
-0.012362576
0.069530464
-0.010127774
0.069011837
-0.0073137212
0.068712119
-0.0049891163
0.068354667
-0.0022631374
0.068282092
0.00016863732
0.0029359308
0.068169847
0.083926532
-0.040769753
-0.084525408
0.083217275
-0.038409136
0.082541845
-0.036065478
0.081799461
-0.033840935
0.080912329
-0.031338562
0.079973422
-0.028911157
0.079136708
-0.026487745
0.078375694
-0.02414115
0.07751519
-0.021633953
0.076738283
-0.019239057
0.076096791
-0.016759273
0.075348098
-0.014402411
0.074838777
-0.011853255
0.074256663
-0.0095456598
0.073863752
-0.0069208107
0.073515766
-0.0046411307
0.073255857
-0.0020032285
0.073140408
0.00028408566
0.0029765703
0.073099768
0.089099325
-0.040092635
-0.089776443
0.088562455
-0.037872266
0.087849365
-0.035352389
0.087023229
-0.033014798
0.08616202
-0.030477354
0.085429882
-0.028179018
0.084660519
-0.025718382
0.083818943
-0.023299575
0.083007391
-0.0208224
0.082266027
-0.018497693
0.081530713
-0.016023959
0.080818023
-0.013689721
0.080214824
-0.011250056
0.079660219
-0.008991055
0.079247009
-0.0065076004
0.078818251
-0.0042123731
0.078588362
-0.0017733397
0.078374488
0.0004979598
0.0029941513
0.078356907
0.094788693
-0.039363464
-0.095517865
0.093957996
-0.037041569
0.093161745
-0.034556137
0.092368468
-0.032221522
0.091585889
-0.029694775
0.090818197
-0.027411326
0.089893541
-0.024793726
0.089130384
-0.022536418
0.088341758
-0.020033774
0.087567566
-0.017723501
0.086817412
-0.015273805
0.08609053
-0.012962839
0.085503335
-0.010662862
0.084933741
-0.0084214613
0.084488841
-0.0060627004
0.084109752
-0.003833285
0.083848786
-0.0015123739
0.08373141
0.00061533553
0.0029500555
0.083775506
0.10066798
-0.038613617
-0.10141783
0.099998442
-0.036372028
0.09927536
-0.033833055
0.098547904
-0.031494066
0.097739193
-0.028886064
0.096842258
-0.026514391
0.096072188
-0.024023657
0.095330787
-0.021795017
0.094501573
-0.01920456
0.093759466
-0.016981394
0.092985876
-0.014500216
0.092302658
-0.012279622
0.091633976
-0.0099941803
0.09106462
-0.0078521056
0.090624397
-0.0056224776
0.09022311
-0.003431998
0.090055564
-0.0013448277
0.089879105
0.00079179364
0.0028499689
0.089979192
0.1073177
-0.037794166
-0.10813716
0.10641834
-0.035472661
0.10554529
-0.03296001
0.10465483
-0.030603598
0.10384475
-0.02807599
0.10305505
-0.02572469
0.10221897
-0.023187576
0.10131862
-0.02089467
0.1004798
-0.018365733
0.099699785
-0.016201383
0.098905791
-0.013706222
0.098252109
-0.011625941
0.097591597
-0.0093336679
0.09709803
-0.0073585392
0.096643734
-0.0051681817
0.096362823
-0.003151087
0.096122817
-0.0011048229
0.096024538
0.00089007249
0.0027639507
0.096110556
0.11427909
-0.0370282
-0.11504506
0.11335293
-0.034546501
0.11255472
-0.0321618
0.11173969
-0.029788561
0.11091359
-0.027249894
0.11006934
-0.024880441
0.1092017
-0.022319941
0.10833834
-0.020031304
0.10752502
-0.01755242
0.10670261
-0.01537897
0.10597532
-0.012978935
0.10533932
-0.010989938
0.10473218
-0.0087265264
0.10421756
-0.0068439248
0.1037069
-0.0046575223
0.10338475
-0.0028289301
0.10308075
-0.00080082906
0.10301423
0.00095660079
0.0027519863
0.10302619
0.12195818
-0.036093883
-0.1228925
0.12095002
-0.033538344
0.12001738
-0.031229162
0.11894878
-0.028719956
0.11797849
-0.026279609
0.11697453
-0.023876483
0.11608234
-0.021427751
0.11519127
-0.019140235
0.1143862
-0.016747346
0.1136148
-0.014607572
0.11290974
-0.012273873
0.11222253
-0.010302731
0.111602
-0.0081059887
0.11108395
-0.00632588
0.11065958
-0.0042331517
0.11039761
-0.0025669568
0.11014713
-0.00055034862
0.11015897
0.00094475133
0.0027968423
0.11011412
0.12979503
-0.034985361
-0.13090355
0.12877106
-0.032514369
0.12779764
-0.030255746
0.12683396
-0.027756278
0.12598815
-0.025433797
0.1250913
-0.022979628
0.12426387
-0.020600329
0.12340271
-0.018279075
0.12261844
-0.01596307
0.12175144
-0.013740574
0.12099654
-0.011518972
0.12023191
-0.0095381048
0.11963325
-0.0075073239
0.11906621
-0.0057588404
0.11870573
-0.0038726777
0.11841054
-0.0022717634
0.11828042
-0.00042023056
0.11822718
0.00099799109
0.0027524199
0.1182716
0.13867567
-0.033633712
-0.14002732
0.13755927
-0.031397967
0.13637232
-0.029068799
0.13526451
-0.026648468
0.13419524
-0.024364524
0.1331854
-0.021969792
0.13229225
-0.019707183
0.13140324
-0.01739006
0.13062297
-0.015182805
0.12978883
-0.012906426
0.12907514
-0.010805284
0.12832843
-0.0087913972
0.12768869
-0.0068675825
0.12709257
-0.0051627278
0.12669482
-0.0034749245
0.1263344
-0.001911339
0.12627574
-0.00036156945
0.12620065
0.0010730754
0.0025808427
0.12637223
0.14794472
-0.032388168
-0.14919027
0.14688864
-0.030341878
0.14572132
-0.027901482
0.14471824
-0.025645393
0.14358147
-0.023227751
0.14250541
-0.020893734
0.14141734
-0.018619108
0.14045751
-0.016430231
0.13960571
-0.014331009
0.13882165
-0.012122364
0.13818833
-0.010171966
0.13749422
-0.0080972837
0.13692682
-0.0063001861
0.13639988
-0.0046357917
0.1359978
-0.0030728361
0.1356544
-0.0015679392
0.13553443
-0.00024160404
0.13542996
0.0011775473
0.0024233742
0.13558743
0.15810865
-0.030957105
-0.15953972
0.15666576
-0.02889898
0.15529064
-0.026526371
0.15418172
-0.024536466
0.15313976
-0.022185798
0.15223093
-0.019984896
0.15119667
-0.017584853
0.15022055
-0.015454111
0.14925096
-0.01336142
0.14843866
-0.011310058
0.14768248
-0.0094157912
0.14699625
-0.0074110559
0.1463727
-0.0056766293
0.14583012
-0.0040932203
0.14539492
-0.0026376337
0.14507722
-0.0012502382
0.14494759
-0.00011197775
0.1448753
0.0012498376
0.0022265506
0.14507213
0.16928476
-0.02982418
-0.17041769
0.16783655
-0.027450771
0.16643692
-0.025126735
0.16497627
-0.023075822
0.16363338
-0.020842902
0.16247449
-0.018826004
0.16143112
-0.016541488
0.16049768
-0.014520671
0.15954212
-0.012405857
0.15868232
-0.010450268
0.15782169
-0.0085551606
0.15712858
-0.0067179425
0.15651502
-0.0050630712
0.15602723
-0.0036054313
0.15559271
-0.0022031087
0.15530863
-0.00096615881
0.15512215
7.4504358e-05
0.1550762
0.0012957806
0.0020592801
0.15524347
0.18038085
-0.028356148
-0.18184888
0.17895955
-0.026029467
0.17788115
-0.024048344
0.176536
-0.021730668
0.17526376
-0.019570659
0.17389675
-0.017459
0.1727346
-0.015379332
0.17163759
-0.013423661
0.17063327
-0.011401538
0.16977232
-0.0095893173
0.16896295
-0.0077457905
0.16829037
-0.0060453694
0.1676825
-0.0044551962
0.16721243
-0.0031353664
0.1668461
-0.0018367745
0.16664061
-0.00076066932
0.16646057
0.00025454643
0.16649307
0.0012632738
0.0019299478
0.1666224
0.19303064
-0.026629048
-0.19475774
0.19137156
-0.024370385
0.18989324
-0.022570025
0.18846016
-0.020297588
0.18726479
-0.018375288
0.18591844
-0.016112645
0.18476823
-0.014229128
0.18353347
-0.0121889
0.18256035
-0.010428415
0.18156646
-0.0085954256
0.18070639
-0.0068857237
0.17992653
-0.0052655087
0.17926487
-0.0037935394
0.17872995
-0.0026004445
0.17832683
-0.0014336553
0.1780613
-0.00049514255
0.17793225
0.00038359612
0.17799078
0.0012047441
0.0018049306
0.1781158
0.20614419
-0.02493312
-0.20784012
0.20463349
-0.02285968
0.20302998
-0.020966515
0.20156115
-0.018828763
0.20017642
-0.016990555
0.19888316
-0.014819387
0.19770024
-0.013046207
0.19652831
-0.011016973
0.19553624
-0.0094363389
0.19452771
-0.007586897
0.19373914
-0.006097152
0.19298332
-0.0045096929
0.19240749
-0.0032177103
0.19186598
-0.0020589291
0.19154466
-0.0011123337
0.19129314
-0.00024362676
0.19115991
0.00051682533
0.19121488
0.0011497756
0.0016193534
0.19140046
0.22002934
-0.023044788
-0.22191767
0.21838105
-0.021211394
0.21677294
-0.019358403
0.21536124
-0.017417059
0.21392271
-0.015552031
0.21264835
-0.01354502
0.21135019
-0.011748054
0.21026834
-0.0099351173
0.20916875
-0.0083367552
0.20820423
-0.0066223684
0.20733854
-0.0052314702
0.20652071
-0.0036918632
0.20588295
-0.0025799435
0.20528491
-0.001460892
0.20488626
-0.00071368193
0.20459152
5.1113908e-05
0.20449639
0.00061194863
0.20450859
0.0011375747
0.0014673656
0.20466058
0.23576806
-0.021178375
-0.23763447
0.23390886
-0.019352201
0.23212682
-0.017576363
0.23048208
-0.015772318
0.22893599
-0.014005946
0.22753904
-0.012148065
0.22623035
-0.010439365
0.22510912
-0.0088138919
0.22402394
-0.0072515725
0.22314648
-0.0057449102
0.22227231
-0.0043573004
0.22159409
-0.0030136386
0.22096776
-0.0019536115
0.22049987
-0.00099300074
0.22011447
-0.00032829153
0.21985088
0.00031471165
0.21977283
0.0006899986
0.21983959
0.0010708083
0.0013000605
0.2200069
0.25156712
-0.019350685
-0.25339481
0.24985425
-0.01763933
0.24818341
-0.015905526
0.24655052
-0.01413943
0.24498689
-0.012442312
0.24351777
-0.010678945
0.24215481
-0.0090764029
0.24089249
-0.0075515733
0.2397593
-0.0061183808
0.23878421
-0.0047698238
0.2378975
-0.0034705938
0.23718769
-0.0023038301
0.23651635
-0.00128227
0.23599764
-0.0004742904
0.23557951
8.9839849e-05
0.23539316
0.00050105886
0.23528026
0.00080290111
0.23541452
0.00093654228
0.0010998202
0.23561477
0.2691446
-0.017035427
-0.27145986
0.26709394
-0.015588663
0.26522685
-0.014038437
0.26355326
-0.012465836
0.26199117
-0.010880226
0.26055044
-0.0092382121
0.25925478
-0.00778075
0.25802899
-0.0063257825
0.25696178
-0.005051165
0.25602984
-0.0038378864
0.25528155
-0.0027223056
0.25467658
-0.0016988558
0.25418613
-0.00079182081
0.25369494
1.6893831e-05
0.25329293
0.00049185663
0.2530178
0.00077618852
0.25288822
0.00093247237
0.25291334
0.00091142208
0.0009179249
0.25309524
0.28812191
-0.014672488
-0.29048485
0.28585807
-0.013324826
0.28378547
-0.01196583
0.28189357
-0.010573942
0.28020561
-0.0091922652
0.27871268
-0.0077452845
0.27734574
-0.0064138066
0.27613071
-0.0051107524
0.27501851
-0.0039389645
0.27410487
-0.0029242484
0.2733141
-0.0019315358
0.27270892
-0.0010936781
0.27230583
-0.00038872447
0.27206719
0.00025552657
0.27189858
0.00066046847
0.27172503
0.00094973905
0.27168902
0.00096848351
0.27169418
0.00090625883
0.00076693439
0.27184517
0.30847726
-0.011893352
-0.3112564
0.3060219
-0.010869466
0.30378009
-0.009724021
0.30179248
-0.0085863326
0.29999095
-0.0073907335
0.29844139
-0.0061957223
0.29710374
-0.0050761562
0.29592748
-0.0039344939
0.29496092
-0.0029724053
0.29407395
-0.0020372762
0.29338029
-0.0012378816
0.29281155
-0.00052493809
0.29234082
8.200749e-05
0.29207708
0.00051926484
0.29190693
0.00083061997
0.29187048
0.00098618793
0.29185477
0.00098419163
0.29190551
0.0008555225
0.00062821489
0.29204423
0.33136929
-0.0084554714
-0.33480717
0.32827459
-0.0077747673
0.32551789
-0.0069673201
0.32311325
-0.0061816976
0.32100305
-0.0052805304
0.31920447
-0.0043971448
0.31770774
-0.0035794215
0.3164932
-0.0027199587
0.3155546
-0.0020338058
0.3148138
-0.0012964774
0.31430466
-0.0007287413
0.31401625
-0.00023652883
0.3139205
0.00017776491
0.31391315
0.00052661392
0.31395358
0.00079018557
0.31405148
0.00088828975
0.31414759
0.00088808173
0.31427118
0.00073192734
0.00049635892
0.31440304
0.35621817
-0.0045189796
-0.36015466
0.35260151
-0.004158114
0.34941163
-0.0037774338
0.34658179
-0.0033518564
0.34416969
-0.0028684328
0.34216648
-0.0023939349
0.34050827
-0.0019212099
0.33925636
-0.0014680477
0.33828441
-0.0010618624
0.33764995
-0.00066201425
0.33725112
-0.00032991548
0.33704078
-2.618562e-05
0.33703266
0.00018588068
0.33719472
0.00036456093
0.33747893
0.00050596833
0.33772988
0.00063733961
0.3380086
0.00060936287
0.33821925
0.00052128169
0.00036990729
0.3383457
0.38397849
-0.38849747
0.37982038
0.37604294
0.37269109
0.36982265
0.36742872
0.36550751
0.36403946
0.3629776
0.36231558
0.36198567
0.36195948
0.36214536
0.36250992
0.36301589
0.36365323
0.36426259
0.36478388
0.36515378
0.059412724
0.0056949579
-0.0057049294
0.059540819
0.0085726429
-0.0087007379
0.059937463
0.011364231
-0.011760876
0.060450293
0.014396292
-0.014909122
0.061226199
0.01717663
-0.017952537
0.06214759
0.020132029
-0.021053419
0.063356928
0.023171441
-0.02438078
0.064702383
0.026136869
-0.027482324
0.066324848
0.02911542
-0.030737886
0.068082047
0.0323489
-0.034106099
0.070016064
0.035215568
-0.037149585
0.072134617
0.038389369
-0.040507922
0.074473379
0.041249082
-0.043587844
0.077099746
0.044152395
-0.046778761
0.08001838
0.047311233
-0.050229868
0.083250905
0.050070475
-0.053303
0.086977138
0.053333413
-0.057059645
0.091000315
0.05614507
-0.060168246
0.059005071
0.095711968
-0.063716725
0.063538746
0.0057151647
0.063743284
0.0083681046
0.06424907
0.010858445
0.064970964
0.013674397
0.065917168
0.016230426
0.067049881
0.018999317
0.068438633
0.02178269
0.069995056
0.024580447
0.071785287
0.027325189
0.073843009
0.030291178
0.076030694
0.033027883
0.078359617
0.036060446
0.08103656
0.038572138
0.083812111
0.041376844
0.087108556
0.044014789
0.090555647
0.046623384
0.094689957
0.049199103
0.09905795
0.051777077
0.053599642
0.10446338
0.068194355
0.0056906569
0.068377636
0.0081848237
0.068896914
0.010339167
0.069634248
0.012937064
0.070633964
0.01523071
0.071867603
0.017765678
0.073324837
0.020325455
0.07503763
0.022867654
0.076947904
0.025414915
0.079176584
0.028062497
0.08158947
0.030614997
0.08424901
0.033400905
0.087345328
0.035475821
0.09048013
0.038242041
0.094294596
0.040200323
0.098206248
0.042711732
0.10290729
0.044498062
0.10776095
0.046923419
0.047785518
0.11357507
0.073184895
0.0056055298
0.073393534
0.0079761848
0.074044615
0.0096880853
0.074785095
0.012196584
0.075965458
0.014050346
0.077205957
0.01652518
0.078899569
0.018631843
0.080658195
0.021109028
0.08284856
0.023224549
0.085154744
0.025756313
0.087888997
0.027880743
0.090850833
0.03043907
0.094177491
0.032149163
0.097738712
0.03468082
0.10181281
0.036126226
0.10618738
0.03833716
0.11116211
0.039523337
0.11662324
0.041462285
0.041809398
0.12259936
0.078316506
0.0056459302
0.078639682
0.0076530087
0.079230421
0.009097347
0.080110264
0.01131674
0.081358855
0.012801756
0.082752856
0.015131179
0.084583777
0.016800922
0.086492607
0.019200198
0.088758172
0.020958985
0.091255422
0.023259062
0.094093193
0.025042972
0.097263884
0.027268378
0.10075366
0.028659388
0.10463504
0.030799438
0.10889339
0.031867874
0.1134847
0.033745859
0.11867322
0.03433481
0.12418651
0.035948997
0.035905185
0.13009073
0.083829078
0.005592358
0.084274941
0.0072071452
0.084891558
0.0084807296
0.086004244
0.010204054
0.087234251
0.011571749
0.088888366
0.013477064
0.090714007
0.014975281
0.09283847
0.017075735
0.095229399
0.018568055
0.097997222
0.020491238
0.10097026
0.022069935
0.1044105
0.023828139
0.10797212
0.025097766
0.11206192
0.026709636
0.11629902
0.027630773
0.1209731
0.029071782
0.12588628
0.029421628
0.13101759
0.030817689
0.030532662
0.13639011
0.089998903
0.0055726466
0.090488174
0.0067178742
0.091118463
0.0078504405
0.092275392
0.0090471245
0.093542898
0.010304243
0.095380397
0.011639565
0.09722331
0.013132368
0.099641968
0.014657078
0.10210313
0.016106891
0.10504556
0.017548805
0.10811524
0.019000263
0.11164196
0.02030141
0.11532149
0.021418244
0.11937722
0.022653896
0.12347673
0.02353127
0.12794704
0.024601468
0.1321578
0.025210872
0.13682874
0.026146747
0.026325956
0.14103545
0.096192497
0.0054907056
0.096748762
0.006161609
0.097466704
0.0071324977
0.0987825
0.0077313288
0.10018028
0.0089064578
0.10212234
0.0096975063
0.10407111
0.011183599
0.10662426
0.012103935
0.10915023
0.013580915
0.11226996
0.014429078
0.11534501
0.015925211
0.11899587
0.016650544
0.12242005
0.017994066
0.12639854
0.01867541
0.1300822
0.019847605
0.13397719
0.020706476
0.13757427
0.0216138
0.14126963
0.022451384
0.023281619
0.14431397
0.10329522
0.0052216731
0.10384482
0.0056120122
0.10471384
0.0062634773
0.10601636
0.0064288108
0.10746316
0.0074596579
0.10939845
0.0077622115
0.11146855
0.0091135001
0.11409098
0.0094815031
0.11673578
0.010936112
0.11990807
0.011256794
0.12294965
0.01288363
0.12647908
0.013121116
0.12953673
0.01493641
0.13315093
0.015061217
0.1360087
0.016989838
0.13926059
0.017454584
0.14155875
0.019315641
0.14389574
0.020114391
0.021823607
0.14535375
0.11049724
0.0048385509
0.11093246
0.0051767914
0.1121327
0.0050632394
0.11338434
0.0051771643
0.11514637
0.0056976311
0.1170642
0.0058443865
0.11933722
0.0068404794
0.12188451
0.0069342063
0.12462877
0.0081918553
0.12760411
0.0082814536
0.13052166
0.009966075
0.13364269
0.010000087
0.13645863
0.012120468
0.13939218
0.012127669
0.14142397
0.014958049
0.14375659
0.015121963
0.14472758
0.018344654
0.14566012
0.019181851
0.02251349
0.14497024
0.1185899
0.0045202545
0.11910822
0.0046584737
0.12036999
0.0038014631
0.12149939
0.0040477652
0.1234576
0.0037394254
0.12518725
0.0041147302
0.12765933
0.0043684047
0.13003189
0.0045616436
0.13277792
0.005445828
0.13526675
0.0057926223
0.13796232
0.0072705065
0.14039481
0.0075675935
0.14267363
0.009841644
0.1444019
0.010399403
0.14559776
0.013762185
0.14630028
0.014419442
0.14590628
0.018738658
0.14521235
0.019875783
0.025336532
0.14238931
0.12665771
0.0042347715
0.12746269
0.0038534935
0.12860859
0.0026555672
0.12993738
0.0027189668
0.13191861
0.0017582024
0.13364265
0.0023906849
0.1362056
0.0018054561
0.13836517
0.0024020761
0.14102122
0.0027897806
0.143221
0.0035928356
0.14560431
0.0048871943
0.14728651
0.0058853912
0.14885483
0.0082733266
0.14948529
0.009768948
0.14968527
0.013562202
0.14857377
0.015530944
0.14666005
0.020652379
0.14375665
0.022779184
0.02972274
0.13937044
0.13583427
0.0039879231
0.13677747
0.0029102986
0.13767846
0.0017545742
0.13923633
0.0011610976
0.14096086
3.3672618e-05
0.14288709
0.00046445876
0.14518567
-0.00049313039
0.147073
0.00051474802
0.14947537
0.00038740872
0.15102872
0.0020394874
0.15275953
0.0031563884
0.15354124
0.0051036732
0.15409882
0.0077157466
0.15348001
0.010387761
0.15242871
0.014613504
0.15006591
0.017893742
0.14697428
0.023744017
0.14260645
0.027147009
0.034965175
0.13736402
0.14543004
0.0036300126
0.14635977
0.0019805702
0.1472979
0.00081644062
0.14900799
-0.00054899232
0.15048085
-0.0014391895
0.15254238
-0.0015970738
0.1543341
-0.0022848446
0.15615506
-0.0013062171
0.15799274
-0.0014502662
0.15911689
0.00091533738
0.16036399
0.0019092861
0.16001808
0.005449577
0.15946231
0.0082715192
0.15747816
0.012371913
0.15529109
0.016800572
0.15161409
0.021570747
0.14771312
0.027644982
0.14242565
0.032434483
0.040803748
0.13658708
0.15569906
0.0031744227
0.15657614
0.0011034899
0.15761622
-0.00022364026
0.15919751
-0.0021302744
0.16056814
-0.0028098216
0.16256737
-0.0035963081
0.16391157
-0.0036290462
0.16559519
-0.0029898359
0.16656617
-0.0024212394
0.16736425
0.00011725165
0.16739368
0.0018798546
0.16619418
0.0066490861
0.16493027
0.0095354194
0.1620131
0.01528909
0.15892692
0.019886749
0.15413176
0.026365906
0.14950863
0.032268119
0.14320046
0.038742651
0.047133742
0.13687046
0.16713735
0.002659474
0.16787246
0.00036838469
0.168969
-0.0013201803
0.17036236
-0.0035236409
0.17171545
-0.0041629055
0.17342324
-0.0053041019
0.17447147
-0.0046772792
0.17577312
-0.0042914773
0.17588084
-0.0025289649
0.1758764
0.00012169576
0.17448852
0.0032677322
0.17296746
0.0081701436
0.17058111
0.011921774
0.16695623
0.018913965
0.16316557
0.023677408
0.15790026
0.031631217
0.15313702
0.037031366
0.14686514
0.045014527
0.052392788
0.14160609
0.17863947
0.0021358013
0.17940737
-0.00039951685
0.18058278
-0.0024955865
0.18168496
-0.004625821
0.18294195
-0.0054198989
0.18419449
-0.0065566344
0.1850308
-0.00551359
0.18573179
-0.0049924677
0.18523539
-0.0020325661
0.1846808
0.00067628657
0.18270797
0.0052405671
0.18077641
0.010101695
0.17706949
0.015628702
0.17328263
0.022700826
0.16886063
0.028099401
0.16409458
0.03639727
0.16016182
0.040964131
0.15593405
0.049242296
0.052881659
0.15544518
0.1919045
0.0016317557
0.1926919
-0.0011869137
0.1937727
-0.0035763854
0.19456375
-0.0054168783
0.19552846
-0.0063846062
0.19612072
-0.0071488918
0.19652204
-0.0059149081
0.19633273
-0.004803165
0.19533862
-0.001038452
0.19408402
0.0019308913
0.19163718
0.0076874003
0.18909429
0.012644592
0.18510695
0.019616037
0.18200884
0.025798931
0.1781574
0.031950845
0.17599507
0.038559598
0.17486407
0.042095134
0.17649237
0.047613993
0.045931485
0.18344255
0.20513525
0.0011570843
0.20581483
-0.001866494
0.20664557
-0.0044071196
0.20748149
-0.0062528022
0.20837726
-0.0072803716
0.20849644
-0.0072680688
0.20849312
-0.0059115916
0.20760447
-0.0039145144
0.20652948
3.6534623e-05
0.20460473
0.0038556455
0.20183158
0.010460554
0.19889264
0.015583533
0.1956654
0.022843277
0.19378436
0.027679969
0.19217889
0.033556314
0.19386101
0.036877474
0.19720563
0.038750519
0.20549633
0.039323287
0.034716587
0.21671123
0.22034164
0.00082234248
0.22089011
-0.0024149676
0.22149481
-0.0050118116
0.22208837
-0.0068463712
0.22245596
-0.0076479555
0.22233873
-0.0071508393
0.22196683
-0.0055396956
0.22059606
-0.0025437444
0.21919125
0.0014413487
0.21661224
0.0064346537
0.21430096
0.012771836
0.21200649
0.017878006
0.21077934
0.024070426
0.21104781
0.027411499
0.21312031
0.031483814
0.21861194
0.031385848
0.2259407
0.031421754
0.23706388
0.028200109
0.024607283
0.24717318
0.23610699
0.00033011481
0.23653281
-0.0028407831
0.23691543
-0.00539443
0.2371226
-0.0070535411
0.23695643
-0.0074817842
0.23641108
-0.0066054915
0.23536477
-0.0044933889
0.2339295
-0.0011084686
0.23216779
0.0032030611
0.22965467
0.0089477736
0.22835619
0.014070318
0.22730748
0.018926708
0.22857083
0.022807081
0.23138995
0.024592383
0.23681245
0.026061306
0.24422063
0.023977667
0.25286573
0.022776656
0.26217496
0.018890877
0.018875024
0.26790722
0.2535268
-0.00010144282
0.25374742
-0.0030614085
0.25394029
-0.0055872967
0.25384058
-0.0069538278
0.2534815
-0.0071227055
0.25280626
-0.0059302478
0.25172732
-0.0034144519
0.250308
0.00031084691
0.24843517
0.0050758933
0.24721453
0.010168417
0.24713433
0.014150522
0.24824498
0.01781605
0.25174168
0.019310385
0.25625795
0.020076119
0.2630256
0.019293656
0.27005196
0.016951298
0.27700592
0.015822705
0.28168828
0.014208511
0.018095069
0.28246824
0.27210978
-0.00036604763
0.27207407
-0.0030257007
0.27183151
-0.0053447358
0.27120145
-0.0063237672
0.27019466
-0.0061159107
0.26875619
-0.004491777
0.26734061
-0.0019988716
0.2659928
0.0016586484
0.26495766
0.0061110341
0.26522007
0.0099060141
0.26651812
0.01285247
0.26989145
0.014442721
0.27446912
0.014732711
0.2800297
0.014515542
0.28647787
0.012845487
0.29132423
0.012104944
0.29460208
0.012544848
0.29468178
0.014128809
0.020618402
0.29215845
0.29216843
-0.00049024279
0.2921967
-0.0030539722
0.29181116
-0.0049591992
0.29124428
-0.0057568861
0.29045394
-0.005325574
0.28941441
-0.0034522444
0.28825027
-0.00083472776
0.28738437
0.0025245518
0.28751139
0.0059840135
0.28886623
0.0085511691
0.29149122
0.010227478
0.29514634
0.010787604
0.29922873
0.010650322
0.30415906
0.0095852104
0.30797436
0.0090301912
0.30972164
0.010357661
0.3098842
0.012382294
0.30780709
0.016205914
0.022253869
0.30617163
0.31437519
-0.00046239274
0.31368242
-0.0023612005
0.3125376
-0.0038143741
0.31093189
-0.0041511765
0.30901914
-0.0034128321
0.30752081
-0.0019539114
0.30669408
-7.9929586e-06
0.30669176
0.0025268668
0.30795334
0.0047224366
0.31045285
0.0060516577
0.31411524
0.0065650891
0.31840369
0.0064991592
0.32286153
0.0061924803
0.32658309
0.0058636508
0.3283757
0.0072375792
0.32951233
0.0092210307
0.32989771
0.011996919
0.3308523
0.015251317
0.017892971
0.3352132
0.33834548
-0.00046217252
0.33754066
-0.0015563837
0.33627784
-0.0025515495
0.3350072
-0.0028805329
0.33393005
-0.0023356808
0.33335046
-0.0013743239
0.33335375
-1.1280912e-05
0.33463885
0.0012417674
0.33680093
0.0025603512
0.33956053
0.0032920632
0.34238385
0.0037417644
0.34516321
0.0037198065
0.34712356
0.0042321232
0.34834322
0.0046439981
0.3494319
0.0061488963
0.35189833
0.0067546037
0.35534733
0.0085479172
0.36195477
0.0086438746
0.0083638116
0.37148393
0.36469161
0.36313523
0.36058368
0.35770315
0.35536746
0.35399314
0.35398186
0.35522363
0.35778398
0.36107604
0.36481781
0.36853761
0.37276974
0.37741374
0.38356263
0.39031724
0.39886516
0.40750903
0.41587284
0.094171273
0.06860742
-0.067066726
0.093039673
0.071590536
-0.070458935
0.092046223
0.074806059
-0.073812609
0.091556722
0.078043199
-0.077553698
0.091249558
0.080938716
-0.080631551
0.091646069
0.083890971
-0.084287483
0.092333035
0.087436389
-0.088123355
0.094057219
0.090027652
-0.091751837
0.096025161
0.093197081
-0.095165023
0.097950912
0.095367797
-0.097293549
0.099610841
0.097400747
-0.099060675
0.10010139
0.09761694
-0.098107487
0.099181307
0.096257824
-0.095337742
0.097525385
0.09301199
-0.091356067
0.094406231
0.087860053
-0.084740899
0.088616675
0.079827538
-0.074037983
0.079172952
0.069419118
-0.059975395
0.065824688
0.056715055
-0.043366792
0.042785232
0.049424612
-0.026385155
0.10306
0.070010795
0.10241069
0.072239845
0.10180089
0.075415867
0.10199166
0.077852429
0.10231129
0.080619087
0.10352844
0.082673812
0.10491566
0.086049172
0.10692349
0.088019823
0.11019997
0.089920604
0.11307902
0.092488751
0.11676076
0.093718999
0.11984151
0.094536192
0.12245795
0.093641385
0.12368477
0.09178517
0.12346507
0.088079748
0.12060705
0.08268556
0.11502163
0.075004544
0.10529103
0.06644565
0.056216417
0.091859847
0.11229257
0.071293298
0.11143269
0.073099722
0.11097344
0.075875115
0.11104384
0.077782036
0.11153262
0.080130306
0.11279991
0.081406523
0.1146096
0.084239479
0.11683226
0.085797164
0.11992642
0.086826442
0.12325194
0.089163237
0.12717131
0.089799623
0.13148004
0.09022746
0.13542567
0.089695757
0.13788157
0.089329276
0.13917728
0.086784031
0.13845601
0.083406833
0.13538699
0.078073565
0.12930105
0.07253159
0.066072597
0.11944487
0.12116464
0.07272802
0.12014678
0.074117578
0.119682
0.076339897
0.11946268
0.078001358
0.11980742
0.079785558
0.12051929
0.080694656
0.12196744
0.082791326
0.12392215
0.08384246
0.12619226
0.084556329
0.13003955
0.085315949
0.13350323
0.086335946
0.13706365
0.086667037
0.14066753
0.086091877
0.14436683
0.085629972
0.14701174
0.084139125
0.14795699
0.082461587
0.14583137
0.080199181
0.14196283
0.076400133
0.072558871
0.13547655
0.1286083
0.074210446
0.12739057
0.075335308
0.12669704
0.077033425
0.12610928
0.078589119
0.12638414
0.079510696
0.12674111
0.080337684
0.12756005
0.081972387
0.12914035
0.082262163
0.13102895
0.082667734
0.13380888
0.082536015
0.13633511
0.083809716
0.1396305
0.083371643
0.14334551
0.082376875
0.14675381
0.082221665
0.14899203
0.081900905
0.15058229
0.080871326
0.15090395
0.079877525
0.14935159
0.077952488
0.076342696
0.14556777
0.13466446
0.075936097
0.13308869
0.076911079
0.1316588
0.07846332
0.13080198
0.07944593
0.13053371
0.079778969
0.130139
0.080732398
0.13076608
0.081345304
0.132018
0.081010243
0.13334348
0.081342253
0.13541332
0.080466172
0.13805563
0.081167406
0.14117801
0.080249263
0.14405707
0.079497819
0.14699965
0.079279085
0.14983702
0.079063532
0.15200737
0.078700978
0.15312116
0.078763736
0.15254413
0.078529523
0.079007597
0.14987923
0.13875125
0.078220289
0.13632111
0.079341223
0.13471934
0.080065088
0.13345947
0.080705799
0.13238119
0.080857255
0.13186943
0.081244153
0.13206268
0.081152058
0.13260214
0.080470778
0.13405236
0.079892029
0.13555085
0.078967691
0.13763773
0.079080525
0.14070148
0.077185516
0.14412498
0.076074315
0.14788792
0.075516145
0.15084792
0.07610353
0.15340649
0.076142408
0.1549862
0.077184026
0.15637654
0.077139183
0.078762808
0.15662133
0.14111177
0.081422486
0.13823395
0.082219045
0.13585946
0.082439573
0.13381579
0.082749469
0.13239911
0.082273941
0.13123762
0.082405637
0.13091699
0.081472692
0.13111967
0.080268095
0.1316566
0.0793551
0.13277445
0.07784984
0.13612895
0.075726028
0.13996002
0.073354452
0.14327299
0.072761336
0.14710337
0.071685774
0.15201566
0.07119124
0.15876051
0.069397551
0.16548141
0.070463125
0.17136516
0.071255435
0.074881237
0.17524673
0.14138922
0.085387022
0.13803782
0.085570442
0.13450931
0.085968082
0.1318816
0.085377181
0.12911442
0.085041116
0.12747149
0.084048568
0.12639904
0.082545141
0.12562606
0.081041076
0.12661601
0.078365151
0.129076
0.075389846
0.13185591
0.072946123
0.13436593
0.070844432
0.13991122
0.067216045
0.14921404
0.062382955
0.16062461
0.05978067
0.17168836
0.058333799
0.18243161
0.059719873
0.19140912
0.062277928
0.067793534
0.19849682
0.13992745
0.090429811
0.13507208
0.090425807
0.13061038
0.090429785
0.12653967
0.089447896