/*--------------------------------*- C++ -*----------------------------------*\
  =========                 |
  \\      /  F ield         | OpenFOAM: The Open Source CFD Toolbox
   \\    /   O peration     | Website:  https://openfoam.org
    \\  /    A nd           | Version:  11
     \\/     M anipulation  |
\*---------------------------------------------------------------------------*/
FoamFile
{
    format      ascii;
    class       volVectorField;
    location    "18.3";
    object      U;
}
// * * * * * * * * * * * * * * * * * * * * * * * * * * * * * * * * * * * * * //

dimensions      [0 1 -1 0 0 0 0];

internalField   nonuniform List<vector> 
5472
(
(10.357301 2.6461144 1.7090985e-18)
(10.562839 2.6448852 -1.7796691e-18)
(10.759542 2.6259641 -1.8009351e-18)
(10.966579 2.5873113 -1.835689e-18)
(11.13283 2.5338718 5.6993083e-18)
(11.339333 2.4672586 -3.2640444e-20)
(11.511734 2.39955 -3.0155289e-18)
(11.708937 2.2764394 1.0517671e-18)
(11.874402 2.2012151 0)
(12.014989 2.0472724 0)
(12.210083 1.9476538 0)
(12.297087 1.7768467 -3.3175804e-18)
(12.465163 1.6555313 1.7051101e-18)
(12.572024 1.4599227 -2.1083406e-20)
(12.648817 1.3213861 1.1569935e-18)
(12.791362 1.1043083 -5.9514078e-19)
(12.793044 0.95092207 -8.9459741e-19)
(12.928327 0.74722957 3.0651529e-19)
(12.924147 0.57365359 0)
(10.346238 2.4363327 -1.5628201e-18)
(10.517489 2.4407848 3.2273338e-18)
(10.710833 2.4070224 -1.6666666e-18)
(10.859246 2.3969056 -1.6809484e-18)
(11.054331 2.3435319 2.2400216e-20)
(11.243213 2.2907045 0)
(11.421337 2.2169882 1.8097473e-18)
(11.617723 2.1272165 -3.700996e-18)
(11.733955 2.0528926 4.774406e-18)
(11.957919 1.9096382 9.7839402e-19)
(12.050291 1.8219597 0)
(12.216716 1.6578587 2.0384766e-18)
(12.336184 1.5343533 0)
(12.439386 1.3821358 5.1832261e-19)
(12.55627 1.2122606 -5.3425572e-19)
(12.649668 1.0606184 0)
(12.706841 0.8860928 0)
(12.813277 0.72681745 -2.7045781e-19)
(12.805537 0.55648127 0)
(10.313946 2.2534617 0)
(10.517229 2.2604329 1.4689771e-18)
(10.631677 2.2722991 1.5066377e-18)
(10.854566 2.252283 0)
(11.013886 2.2225189 -1.8050883e-20)
(11.204986 2.1834895 -2.4243168e-20)
(11.367453 2.1244459 -1.6650796e-18)
(11.496842 2.0649953 0)
(11.692004 1.9665552 -1.7178437e-18)
(11.83096 1.8678737 -4.3993518e-18)
(11.943998 1.7795741 1.129611e-20)
(12.125231 1.6205092 -8.9835872e-19)
(12.204023 1.5289004 -9.262141e-19)
(12.361372 1.3426629 1.9006481e-18)
(12.447329 1.2310952 1.4351376e-18)
(12.550052 1.0425332 4.8502207e-19)
(12.625896 0.90035136 2.4304773e-19)
(12.693675 0.72615268 -3.6744069e-19)
(12.747029 0.55759891 1.226047e-19)
(10.326353 2.0664605 0)
(10.468031 2.1072375 -1.3258718e-18)
(10.629485 2.095995 -1.3584048e-18)
(10.799292 2.092104 2.7742375e-18)
(10.949339 2.05578 -1.456637e-18)
(11.101984 2.0187802 0)
(11.225739 1.9810113 -1.5044395e-18)
(11.422585 1.9022627 1.5201665e-18)
(11.567967 1.838722 -1.5754214e-18)
(11.695273 1.7507832 -1.8135106e-20)
(11.86646 1.649288 -1.6348267e-18)
(11.987845 1.5292586 0)
(12.124668 1.4151681 0)
(12.250861 1.2647056 -8.4620421e-19)
(12.337292 1.1429175 -8.5515382e-19)
(12.462142 0.97091617 0)
(12.519412 0.83755857 -2.18417e-19)
(12.608052 0.64525051 1.1048459e-19)
(12.646827 0.51297631 2.2053076e-19)
(10.29824 1.9122327 0)
(10.470366 1.9460634 0)
(10.587573 1.9680011 0)
(10.756167 1.9481362 -2.5122419e-18)
(10.857958 1.9435267 1.3073173e-18)
(11.026021 1.9280314 -3.963475e-18)
(11.195868 1.86943 5.4242082e-18)
(11.352685 1.8382993 -2.7694031e-18)
(11.48237 1.7743061 2.5425975e-21)
(11.65069 1.6790343 1.4321755e-18)
(11.793715 1.6003159 1.4578552e-18)
(11.913998 1.4845542 -2.9804778e-18)
(12.057508 1.3816665 2.2728846e-18)
(12.149352 1.2410049 -7.6941473e-19)
(12.28653 1.1205657 0)
(12.356338 0.97348876 7.8439521e-19)
(12.443282 0.82620425 -3.9479356e-19)
(12.506466 0.66639775 1.9680873e-19)
(12.552887 0.52123304 -1.9606723e-19)
(10.319753 1.7729299 0)
(10.443846 1.7870027 -4.3321544e-18)
(10.541462 1.7888904 2.2377433e-18)
(10.679066 1.8081038 2.2875394e-18)
(10.798377 1.7907776 1.1652119e-18)
(10.985661 1.7685485 -1.1861092e-18)
(11.077277 1.7554156 2.4612305e-18)
(11.252129 1.7065935 1.2410068e-18)
(11.382658 1.6369801 2.5302557e-18)
(11.549064 1.5831782 -2.5947936e-18)
(11.652929 1.5000377 1.5171357e-20)
(11.800899 1.3977294 2.6796472e-18)
(11.911831 1.2904227 0)
(12.036367 1.1598691 -6.906268e-19)
(12.136446 1.0502193 6.9138027e-19)
(12.220394 0.89423128 -1.7449307e-18)
(12.311617 0.76725363 7.0215525e-19)
(12.360639 0.60126587 -1.7613365e-19)
(12.43045 0.45288626 3.2626512e-22)
(10.28852 1.6225678 3.8305236e-18)
(10.401701 1.6422364 3.9110378e-18)
(10.518481 1.6694561 0)
(10.66568 1.6639838 -6.0026688e-21)
(10.77244 1.6802523 -4.2113388e-18)
(10.916752 1.6677048 4.3272882e-18)
(11.026828 1.6381818 0)
(11.21678 1.5984589 -1.1275698e-18)
(11.31274 1.5704173 -4.5661694e-18)
(11.488236 1.503615 2.3447725e-18)
(11.58625 1.4195686 1.1781734e-18)
(11.743286 1.3471875 -1.2086427e-18)
(11.831769 1.2343681 0)
(11.966413 1.1325991 6.118154e-19)
(12.048078 1.0034926 0)
(12.155126 0.88581741 -6.2346296e-19)
(12.221117 0.74558752 9.4378317e-19)
(12.298378 0.59679904 8.2586409e-22)
(12.355393 0.4589152 -8.0947973e-22)
(10.296756 1.489936 1.7157269e-18)
(10.40088 1.4952942 -3.5178796e-18)
(10.496707 1.5296964 -3.591875e-18)
(10.593057 1.5402525 3.7021948e-18)
(10.70196 1.5480519 -1.9018414e-18)
(10.834747 1.5398384 -1.9302098e-18)
(10.954365 1.5259157 0)
(11.101935 1.4973496 3.0104623e-18)
(11.202751 1.4556465 -1.2236706e-20)
(11.361641 1.3928151 -3.1280423e-18)
(11.44432 1.3490236 3.2000034e-18)
(11.603538 1.2587738 0)
(11.682183 1.172104 0)
(11.838331 1.0580574 1.0953779e-18)
(11.899448 0.9470852 -5.6121143e-19)
(12.034123 0.82530025 -1.1166757e-18)
(12.082073 0.68188297 2.826293e-19)
(12.181188 0.55174507 2.8442408e-19)
(12.205559 0.38992776 6.9674258e-20)
(10.280862 1.3478098 -1.5397217e-18)
(10.365943 1.3818574 4.7245767e-18)
(10.472451 1.4065303 -4.8696771e-18)
(10.587594 1.409267 3.3161516e-18)
(10.691676 1.4260379 0)
(10.808963 1.4151813 1.7272279e-18)
(10.92171 1.4200623 -1.7808068e-18)
(11.052456 1.3856866 0)
(11.161175 1.3661151 9.1295988e-19)
(11.296955 1.3157336 -1.8865554e-18)
(11.395099 1.2601904 -9.4458222e-19)
(11.544988 1.1833931 -8.5959724e-21)
(11.635 1.1021068 -2.9209403e-18)
(11.784811 1.0020863 5.0128301e-19)
(11.837114 0.89872628 -4.890022e-19)
(11.970635 0.78297673 9.9801698e-19)
(11.993319 0.66557916 -4.9799584e-19)
(12.104474 0.53070164 2.5406929e-19)
(12.113214 0.38552168 2.4970011e-19)
(10.290842 1.2165812 -2.7697162e-18)
(10.375198 1.2612845 0)
(10.456315 1.2856191 1.4484591e-18)
(10.53385 1.303826 -4.4412277e-18)
(10.621501 1.3154272 1.5287362e-18)
(10.715086 1.3165969 -1.5553556e-18)
(10.817381 1.3188123 1.5770174e-18)
(10.929258 1.3028894 -1.6219025e-18)
(11.04122 1.2800973 0)
(11.173109 1.2263156 8.3131085e-19)
(11.280281 1.1876294 0)
(11.414343 1.1050167 8.5330884e-19)
(11.508606 1.0431601 -1.5277622e-22)
(11.637287 0.93659178 -4.3444483e-19)
(11.709059 0.85366819 4.3770667e-19)
(11.833497 0.72953019 4.4080562e-19)
(11.875647 0.62021598 -2.3441138e-21)
(11.984716 0.4789312 -6.6638163e-19)
(11.993326 0.34740244 0)
(10.266419 1.0981596 0)
(10.339675 1.1520259 1.2655662e-18)
(10.415704 1.1586275 0)
(10.498089 1.1861128 1.3166958e-18)
(10.593277 1.1991524 -4.0720443e-18)
(10.695254 1.20295 4.1656551e-18)
(10.812261 1.2038813 -1.3985138e-18)
(10.919194 1.1815526 4.3349978e-18)
(11.037676 1.1705193 0)
(11.136606 1.1373441 7.4558675e-19)
(11.243849 1.0993492 0)
(11.349928 1.0392036 -1.5180642e-18)
(11.45278 0.97401292 3.0803729e-18)
(11.564019 0.88183187 -7.1704774e-21)
(11.647267 0.79692261 -3.9208053e-19)
(11.757411 0.68174581 0)
(11.810012 0.5901184 0)
(11.910999 0.44916648 0)
(11.929434 0.34016758 -4.9256145e-20)
(10.258714 1.0155366 4.4023243e-18)
(10.32833 1.0442193 -5.659853e-18)
(10.388911 1.0593411 2.3069965e-18)
(10.464345 1.0910336 -6.9720772e-21)
(10.534048 1.0940588 0)
(10.618513 1.1146813 -2.460815e-18)
(10.712301 1.1162901 1.271062e-18)
(10.808863 1.1135785 -1.2782444e-18)
(10.928886 1.0956657 0)
(11.02425 1.0627907 -6.587693e-19)
(11.141415 1.0279071 1.3329407e-18)
(11.242945 0.96714671 -1.1743499e-20)
(11.351171 0.90798677 -1.3720955e-18)
(11.438754 0.82413171 -2.7474571e-18)
(11.538414 0.73938989 2.424488e-18)
(11.612716 0.63748477 -1.3907502e-18)
(11.691078 0.53497564 8.7389159e-19)
(11.764945 0.41337166 1.7502589e-19)
(11.805666 0.30247387 4.3231442e-20)
(10.238661 0.90621132 -6.8805763e-18)
(10.31928 0.92838415 4.0370705e-18)
(10.378478 0.95800053 0)
(10.457969 0.98265043 -5.2547675e-18)
(10.526982 0.995906 4.3159765e-18)
(10.61426 1.006954 1.0990647e-18)
(10.69432 1.0030086 3.3494966e-18)
(10.781936 1.0000806 -2.2844533e-18)
(10.881004 0.98558384 -2.8826134e-18)
(10.967251 0.97695628 1.7668879e-18)
(11.081044 0.94473976 2.3644646e-18)
(11.17858 0.90749676 -3.6037731e-18)
(11.289888 0.848619 2.4200817e-18)
(11.381334 0.77107085 -6.1624747e-19)
(11.487031 0.68673783 3.0318313e-19)
(11.549779 0.59041218 -3.714204e-21)
(11.636944 0.48823543 -7.7111932e-19)
(11.685436 0.38109945 -1.534542e-19)
(11.740293 0.26632584 -3.8496123e-20)
(10.220923 0.82564991 2.6292788e-18)
(10.290587 0.83759628 3.5776858e-18)
(10.327898 0.87352708 -3.6728793e-18)
(10.393652 0.88475647 9.3672659e-19)
(10.459873 0.91307741 -2.856158e-18)
(10.548135 0.92993558 2.9354876e-18)
(10.63264 0.9400747 9.8703596e-19)
(10.726339 0.93149612 -5.0447337e-18)
(10.816277 0.91344847 3.5809779e-18)
(10.911711 0.89462739 -1.5657751e-18)
(11.0095 0.85736576 0)
(11.102996 0.83058133 -5.3171002e-19)
(11.201366 0.78036446 -1.6017215e-18)
(11.285446 0.71667624 5.4754805e-19)
(11.382451 0.64066147 1.6260374e-18)
(11.442893 0.55720393 5.4110211e-19)
(11.528281 0.45367335 -1.0873381e-18)
(11.573241 0.36007124 2.735879e-19)
(11.632132 0.24543032 3.0488717e-19)
(10.236325 0.71969355 -3.8865328e-18)
(10.295576 0.75668859 3.1891893e-18)
(10.334722 0.78592363 0)
(10.402395 0.78839848 -8.3032645e-19)
(10.450913 0.80788874 3.3819565e-18)
(10.521249 0.8143698 -6.9058404e-18)
(10.587234 0.8376738 8.9931716e-19)
(10.672779 0.83865356 3.5865558e-18)
(10.756508 0.83486208 2.7209585e-18)
(10.845316 0.81913269 -4.5953929e-19)
(10.928329 0.79307368 0)
(11.020828 0.76353099 2.3327073e-18)
(11.111127 0.71524999 -9.5056669e-19)
(11.203749 0.6544771 9.4875638e-19)
(11.28898 0.58394238 -1.4331168e-18)
(11.357159 0.5033974 -2.3975056e-19)
(11.43043 0.40756047 0)
(11.475815 0.32068579 0)
(11.526517 0.20507503 -2.9887523e-20)
(10.20114 0.62703028 6.7416728e-19)
(10.241467 0.66951325 -6.3647058e-18)
(10.293739 0.70131319 2.879323e-18)
(10.360166 0.72828099 -3.6838182e-18)
(10.412667 0.74614175 -7.4943686e-19)
(10.488642 0.74907625 0)
(10.552544 0.75871385 -3.8719768e-18)
(10.631308 0.75664244 2.3741651e-18)
(10.700099 0.75801771 -8.0042633e-19)
(10.782962 0.74436935 -1.4349718e-21)
(10.869252 0.72526753 0)
(10.959177 0.6971424 0)
(11.045461 0.65871104 -4.14367e-19)
(11.13413 0.60302341 -4.1658698e-19)
(11.214766 0.54302243 2.0909459e-19)
(11.29179 0.46679434 1.2593953e-18)
(11.356496 0.38183215 -8.4430055e-19)
(11.412679 0.29869786 1.0554253e-19)
(11.454579 0.18959877 2.6110727e-20)
(10.215704 0.53829371 4.27742e-18)
(10.241508 0.58205555 -4.3839795e-18)
(10.294959 0.59111676 0)
(10.323347 0.62866649 6.5047046e-19)
(10.386785 0.6489202 0)
(10.440343 0.67529842 6.7448504e-19)
(10.509662 0.68352856 6.8543667e-19)
(10.57999 0.6833132 0)
(10.648245 0.68064156 3.5125417e-18)
(10.729163 0.66513753 -2.5027486e-18)
(10.804003 0.65339793 1.7952797e-18)
(10.883005 0.62756398 -1.4560213e-18)
(10.963337 0.59395573 1.4565709e-18)
(11.040385 0.54178302 -9.0510421e-21)
(11.116514 0.48561538 -1.478619e-18)
(11.185289 0.41491968 -1.8415756e-19)
(11.244108 0.33844154 -1.853063e-19)
(11.301432 0.25836752 -9.2113687e-20)
(11.337606 0.16337386 0)
(10.167373 0.47689273 4.8808672e-18)
(10.203793 0.51056769 0)
(10.256311 0.52806601 0)
(10.288663 0.5579435 5.7454828e-19)
(10.353982 0.57094107 0)
(10.394564 0.60204207 -5.9392314e-19)
(10.47353 0.60614284 -6.0286035e-19)
(10.524615 0.6257079 -2.4416318e-18)
(10.606569 0.61258878 2.4845139e-18)
(10.670866 0.6151703 0)
(10.753047 0.59581808 -2.837637e-18)
(10.831835 0.57515461 2.237659e-18)
(10.914806 0.54294876 1.2786932e-18)
(10.989971 0.4943093 -2.5773446e-18)
(11.066439 0.44238243 2.5858862e-18)
(11.133774 0.37646208 -1.9448845e-18)
(11.192457 0.30720236 6.4888392e-19)
(11.243152 0.22983287 0)
(11.281754 0.14266481 0)
(10.144381 0.3862073 7.6669872e-18)
(10.186098 0.41689721 -3.9126705e-18)
(10.215892 0.44240513 3.9767883e-18)
(10.261013 0.47243924 -4.5636585e-18)
(10.313758 0.48845936 -4.1131378e-18)
(10.369804 0.51128052 4.1915076e-18)
(10.43372 0.52253184 2.1183473e-18)
(10.488098 0.53452062 -8.9857282e-21)
(10.563282 0.5340814 -2.1816327e-18)
(10.617333 0.53719843 0)
(10.701033 0.52224486 0)
(10.76268 0.51288808 2.7892056e-19)
(10.841522 0.47965009 0)
(10.907022 0.44488713 1.1259816e-18)
(10.975942 0.39056478 -1.1355331e-18)
(11.03576 0.33760179 -5.6582873e-19)
(11.090778 0.27301354 7.1025905e-19)
(11.137969 0.20224018 -3.540544e-19)
(11.173062 0.12312421 2.8277226e-19)
(10.130215 0.32937129 0)
(10.169365 0.35625055 0)
(10.193192 0.37938743 3.5051215e-18)
(10.238778 0.40301817 -3.5720161e-18)
(10.270993 0.42635881 4.072744e-18)
(10.328449 0.45366665 -4.1443346e-18)
(10.375348 0.46721183 0)
(10.44344 0.47654894 4.7232925e-19)
(10.507311 0.47604945 1.9049063e-18)
(10.573966 0.47691678 -1.9322672e-18)
(10.651553 0.46503508 1.9388199e-18)
(10.716872 0.45574629 -1.0230543e-20)
(10.796093 0.42799101 -3.9349777e-18)
(10.86128 0.39693261 1.9805016e-18)
(10.931913 0.34753257 0)
(10.986864 0.29804121 -9.8923116e-19)
(11.04505 0.23421926 1.5509978e-18)
(11.084978 0.17240205 -6.8202787e-19)
(11.123657 0.099211822 2.4710231e-19)
(10.103336 0.24234887 1.1564234e-17)
(10.135657 0.27408294 -6.0792643e-18)
(10.171492 0.29958432 0)
(10.210552 0.32680682 -3.9229242e-19)
(10.252681 0.34686198 -3.9799216e-19)
(10.305455 0.37007471 4.0348977e-19)
(10.348739 0.3863967 0)
(10.409132 0.397556 -4.1342961e-19)
(10.456805 0.40686403 3.3380236e-18)
(10.525841 0.40575772 -3.3827071e-18)
(10.584526 0.40348023 0)
(10.656826 0.3920005 0)
(10.717666 0.37457715 2.1518207e-19)
(10.786522 0.34860519 1.0799708e-19)
(10.842337 0.30916124 -1.0825664e-19)
(10.900967 0.26493838 0)
(10.952864 0.21095319 -4.8608911e-19)
(10.991366 0.15304591 4.3337661e-19)
(11.03009 0.092701915 0)
(10.082454 0.18566278 -1.0509819e-17)
(10.10323 0.20893952 1.1024445e-17)
(10.131553 0.23641193 -8.7836052e-21)
(10.163265 0.26191208 -5.1726723e-18)
(10.207133 0.28666757 0)
(10.253201 0.31065679 2.8272581e-18)
(10.308151 0.32500537 -5.9099777e-18)
(10.365033 0.33753256 2.901791e-18)
(10.422087 0.34063088 0)
(10.485509 0.34628364 -2.9445012e-18)
(10.54918 0.34473215 2.9781822e-18)
(10.618218 0.33635963 1.4903374e-18)
(10.685558 0.32010473 -1.5035661e-18)
(10.754113 0.29452628 1.3132969e-18)
(10.806384 0.26119515 -1.4174779e-18)
(10.866949 0.21415315 0)
(10.903881 0.16759716 -4.7232752e-20)
(10.947357 0.10961185 -1.4094408e-19)
(10.968412 0.05542658 1.9969355e-19)
(10.063714 0.12252505 2.8887871e-19)
(10.087024 0.14478284 -5.8716644e-19)
(10.108594 0.16771879 4.7639973e-18)
(10.139583 0.19082323 2.9376633e-19)
(10.174755 0.21301698 -3.1698711e-19)
(10.217365 0.2377872 -4.9660242e-18)
(10.263852 0.25431188 1.5665648e-19)
(10.316265 0.26910113 2.6879534e-18)
(10.3723 0.27798369 -2.5609609e-18)
(10.430558 0.27961374 -1.6114975e-19)
(10.496629 0.28227707 0)
(10.554502 0.27911717 2.7651443e-18)
(10.624526 0.27119881 -2.7876177e-18)
(10.684071 0.25954608 -1.2275774e-18)
(10.74752 0.23447466 8.8342277e-20)
(10.803848 0.20508154 1.9742163e-18)
(10.846361 0.16250552 -6.1760329e-19)
(10.887749 0.11729364 -6.1481979e-20)
(10.907684 0.069030256 -1.019492e-20)
(10.031404 0.074554393 0)
(10.053813 0.094918104 2.5765374e-19)
(10.075707 0.11345619 4.1783867e-18)
(10.11051 0.13405196 -4.6375027e-18)
(10.144472 0.15365758 4.4194263e-18)
(10.18951 0.17343177 -4.3441743e-18)
(10.234776 0.19005643 1.371249e-19)
(10.286869 0.20425763 -1.3823739e-19)
(10.341123 0.21330347 2.0878178e-18)
(10.401819 0.21621769 -2.1109003e-18)
(10.463539 0.21500265 2.1130842e-18)
(10.528051 0.20767151 -2.3452179e-18)
(10.591541 0.19580571 0)
(10.649819 0.18028671 1.1386162e-18)
(10.71007 0.158082 -1.2880317e-18)
(10.757958 0.13136808 5.7031839e-19)
(10.804384 0.098189542 -5.3656687e-19)
(10.835063 0.060915438 -2.4908392e-19)
(10.855931 0.020728907 2.8890714e-19)
(10.029383 0.036482149 -5.0236186e-21)
(10.042825 0.04581272 -7.2327684e-18)
(10.056525 0.06325852 1.1449972e-19)
(10.078395 0.078040044 -7.5491416e-23)
(10.105581 0.096780202 1.1721872e-19)
(10.14171 0.11509474 0)
(10.186094 0.12935851 3.8256953e-18)
(10.234236 0.1468362 -3.9899617e-18)
(10.286656 0.15580698 1.215719e-19)
(10.34676 0.16799132 -1.8955699e-18)
(10.403525 0.17288792 4.0028663e-18)
(10.47085 0.1758806 -3.9573176e-18)
(10.534009 0.17387785 1.9886899e-18)
(10.598831 0.16768265 0)
(10.660882 0.15715364 -9.6085997e-19)
(10.713226 0.13883992 9.9602514e-19)
(10.762374 0.11541371 -1.5462057e-20)
(10.796537 0.086604876 2.7515038e-23)
(10.821698 0.053321044 -3.8500887e-21)
(10.010252 0.017014815 6.2990726e-18)
(10.019412 0.023928166 -6.3290635e-18)
(10.035291 0.02980215 6.313439e-18)
(10.054529 0.036575338 1.0131744e-19)
(10.080383 0.045787096 0)
(10.115583 0.053722168 0)
(10.158156 0.06106729 -5.2084261e-20)
(10.207977 0.066904807 -3.3092299e-18)
(10.265034 0.070068706 3.447823e-18)
(10.325078 0.072999591 3.3755352e-18)
(10.389573 0.072375218 -1.6416192e-18)
(10.455522 0.069208671 -1.8018094e-18)
(10.518504 0.063961755 0)
(10.583381 0.05619161 2.6976911e-20)
(10.640853 0.047839427 2.6932509e-20)
(10.692582 0.037052235 8.4637532e-19)
(10.73593 0.025079511 -8.7580997e-19)
(10.765877 0.0086837435 1.9430038e-19)
(10.786377 -0.0082828856 -2.1423756e-19)
(10.006427 0.0036517872 -4.2410977e-20)
(10.01174 0.0065728578 5.4776344e-18)
(10.021668 0.011020676 -3.5885953e-21)
(10.03695 0.016509956 -5.0309826e-21)
(10.058612 0.022500053 -5.6673625e-18)
(10.087681 0.028937404 0)
(10.124546 0.035435909 2.8355207e-18)
(10.169088 0.041800545 -2.862996e-18)
(10.220606 0.047606238 -4.5591932e-20)
(10.278232 0.052387074 -2.2909588e-20)
(10.341204 0.056159325 -2.2997762e-20)
(10.406317 0.05927953 2.3072893e-20)
(10.470901 0.062424604 0)
(10.534921 0.065164409 1.4621794e-18)
(10.596204 0.065289161 -1.4966313e-18)
(10.652065 0.066907479 -7.3356491e-19)
(10.708404 0.0594484 7.4779739e-19)
(10.741213 0.052634548 3.7745599e-19)
(10.780192 0.042500244 -3.7130667e-19)
(13.001593 0.39874773 -1.4718766e-19)
(13.019438 0.22923316 -5.8956365e-19)
(13.038129 0.064583685 5.7406172e-19)
(13.068444 -0.078172259 0)
(13.038681 -0.23877152 -1.0802351e-18)
(13.035176 -0.38730152 -2.0851493e-18)
(13.017167 -0.49837759 0)
(13.000171 -0.647259 -1.7217642e-20)
(12.96455 -0.76075701 3.5542234e-18)
(12.985006 -0.88065746 1.6878567e-18)
(12.906007 -1.0027719 -1.5799396e-18)
(12.928522 -1.1213698 2.9844342e-18)
(12.864146 -1.2315754 -2.7902286e-18)
(12.865442 -1.3596996 0)
(12.878904 -1.4516669 1.2407775e-18)
(12.870954 -1.593969 -1.1594992e-18)
(12.928553 -1.6923578 -2.1817327e-18)
(12.950467 -1.8451886 2.0474538e-18)
(13.017109 -1.977724 -9.6169682e-19)
(12.905295 0.36487864 -1.2719894e-19)
(12.874568 0.20098063 7.6095974e-19)
(12.941523 0.0026550259 -4.9845621e-19)
(12.911171 -0.1372686 0)
(12.934564 -0.32596936 -9.4635679e-19)
(12.897765 -0.44830468 2.7203039e-18)
(12.903473 -0.60993351 0)
(12.86254 -0.72462329 0)
(12.845204 -0.8761196 0)
(12.836859 -0.97182013 0)
(12.807317 -1.1085815 2.8030745e-18)
(12.814032 -1.2126299 -3.9725506e-18)
(12.752015 -1.3280336 -3.7629485e-18)
(12.747818 -1.4631192 2.3478823e-18)
(12.719476 -1.5576243 -2.2170752e-18)
(12.716571 -1.7074549 2.0933518e-18)
(12.733599 -1.8172541 -6.956931e-21)
(12.74622 -1.9678622 -1.8449256e-18)
(12.747418 -2.1500257 1.7379386e-18)
(12.796553 0.37744179 0)
(12.814571 0.20249676 -4.4178177e-19)
(12.847229 0.027129129 -8.6704626e-19)
(12.824301 -0.14227673 -4.2503967e-21)
(12.83627 -0.30320445 -6.5036666e-21)
(12.796631 -0.46935741 1.6021106e-18)
(12.791146 -0.60469133 -3.05152e-18)
(12.732083 -0.75702805 1.4519941e-18)
(12.726183 -0.89218605 1.2441013e-20)
(12.65637 -1.0195574 0)
(12.667092 -1.1552488 3.7600849e-18)
(12.622302 -1.2518301 6.0059715e-21)
(12.5903 -1.4209624 2.2390265e-18)
(12.559363 -1.5158616 2.1220543e-18)
(12.539127 -1.679004 2.9870637e-18)
(12.515655 -1.7884574 -3.7471114e-18)
(12.519833 -1.973251 2.2826359e-21)
(12.52342 -2.0940418 3.3296566e-18)
(12.459227 -2.3301842 1.5628081e-18)
(12.707976 0.30302815 3.8287711e-19)
(12.724161 0.15279969 -7.6368189e-19)
(12.74199 -0.060760493 1.1253821e-18)
(12.733904 -0.19661298 0)
(12.716145 -0.38508903 2.1476712e-18)
(12.691843 -0.53077482 -3.4632217e-18)
(12.645365 -0.68463007 2.6744279e-18)
(12.618565 -0.82259964 -2.3559562e-21)
(12.557629 -0.96884721 1.257993e-20)
(12.534068 -1.0916202 -1.1756504e-18)
(12.482202 -1.2255721 0)
(12.467278 -1.3417267 -1.050499e-18)
(12.399129 -1.5035708 1.0121674e-18)
(12.387724 -1.6065144 -1.8833227e-18)
(12.308786 -1.7820247 0)
(12.295263 -1.903692 0)
(12.236097 -2.0961924 -1.5875961e-18)
(12.224891 -2.2286026 0)
(12.110585 -2.491316 1.4050928e-18)
(12.60278 0.31940537 3.3101216e-19)
(12.618321 0.17488331 -3.2897356e-19)
(12.644194 -0.048053685 3.3436702e-21)
(12.623409 -0.17801889 -6.3829354e-19)
(12.619966 -0.39040857 6.1617227e-19)
(12.588988 -0.51517086 -1.2989043e-21)
(12.548336 -0.69675671 -1.1660669e-18)
(12.516942 -0.82052644 0)
(12.44644 -0.98205392 -2.1617155e-18)
(12.412808 -1.094396 1.0287852e-18)
(12.331424 -1.2500715 0)
(12.309725 -1.3584434 0)
(12.207972 -1.5290859 -1.7738245e-18)
(12.194806 -1.6414064 -1.6949683e-18)
(12.084596 -1.8151509 1.6065329e-18)
(12.059078 -1.9470484 3.0332411e-18)
(11.934295 -2.1364092 1.4444918e-18)
(11.909793 -2.2937675 -1.3510194e-18)
(11.72671 -2.5079723 -1.6164752e-20)
(12.471615 0.27616492 0)
(12.510576 0.095222343 2.8604354e-19)
(12.506965 -0.097318334 -1.407467e-18)
(12.517946 -0.25424177 5.5382404e-19)
(12.477158 -0.45091419 1.625114e-18)
(12.467512 -0.58526801 -1.0617771e-18)
(12.386449 -0.76442055 -2.053541e-18)
(12.379988 -0.88025088 1.9692327e-18)
(12.270979 -1.0332736 -9.6140644e-19)
(12.250756 -1.165946 1.8177631e-18)
(12.146497 -1.2984847 0)
(12.121007 -1.4308005 0)
(12.001561 -1.5797328 -1.5907528e-18)
(11.954501 -1.7022778 4.5190049e-18)
(11.827797 -1.8757426 -5.7162634e-18)
(11.750605 -1.9865683 2.7190111e-18)
(11.593723 -2.1923882 -5.1762935e-18)
(11.510547 -2.2998553 1.2329045e-18)
(11.291063 -2.5140738 2.3359919e-18)
(12.402617 0.27122721 6.2111089e-20)
(12.438444 0.10259109 2.4796833e-19)
(12.437053 -0.089717632 -4.8649362e-19)
(12.434459 -0.26752841 0)
(12.389186 -0.43889833 -9.4497125e-19)
(12.377324 -0.6022966 2.758123e-18)
(12.289399 -0.75473523 -1.780587e-18)
(12.284305 -0.89490116 8.6873955e-19)
(12.150235 -1.0442705 -1.6747207e-18)
(12.140793 -1.182549 4.8210305e-18)
(11.99878 -1.3112103 -3.0715232e-18)
(11.965188 -1.4550927 0)
(11.808687 -1.5855394 1.4016449e-18)
(11.758321 -1.7317168 2.6914615e-18)
(11.569898 -1.8572341 -3.8326867e-18)
(11.495107 -2.0028262 3.6751877e-18)
(11.266316 -2.1317246 -3.5024108e-18)
(11.158643 -2.2512861 -2.234612e-18)
(10.899055 -2.4093023 -1.0670549e-18)
(12.288943 0.23975506 1.6057061e-19)
(12.279154 0.048133563 2.1330317e-19)
(12.313079 -0.13592749 -4.2109711e-19)
(12.277426 -0.31867464 0)
(12.269723 -0.48802101 1.6332874e-18)
(12.202833 -0.65714367 -8.0281719e-19)
(12.161356 -0.79454397 0)
(12.080358 -0.95120422 -1.5129456e-18)
(11.994552 -1.0766914 7.3495233e-19)
(11.929675 -1.228219 0)
(11.793725 -1.3422911 -1.3636728e-18)
(11.737496 -1.4901679 1.3091679e-18)
(11.545869 -1.6061301 1.2548728e-18)
(11.477722 -1.7379004 -2.3969832e-18)
(11.261522 -1.8436505 2.2840273e-18)
(11.159682 -1.963136 -1.0891711e-18)
(10.906252 -2.0443626 -1.0545393e-18)
(10.773038 -2.1590799 -1.0104915e-18)
(10.478814 -2.2200889 -9.684413e-19)
(12.21417 0.22964549 3.6931231e-19)
(12.194207 0.030872133 -1.8328141e-19)
(12.2591 -0.13756114 0)
(12.186252 -0.33777982 0)
(12.198957 -0.48981381 -1.4172047e-18)
(12.084725 -0.67142236 1.3898871e-18)
(12.062306 -0.80021756 0)
(11.934402 -0.96419991 6.5825833e-19)
(11.889328 -1.0806118 -6.3852693e-19)
(11.749464 -1.2394265 0)
(11.66816 -1.3351022 1.191576e-18)
(11.514486 -1.4923142 9.7404584e-21)
(11.381926 -1.5607542 9.7764274e-21)
(11.209019 -1.709347 0)
(11.001234 -1.7574126 -4.0973086e-18)
(10.864239 -1.867387 3.9113185e-18)
(10.5601 -1.8967514 4.7119147e-18)
(10.398658 -1.9768559 -6.3367133e-18)
(10.06366 -1.9672866 4.3296977e-18)
(12.090696 0.18206259 0)
(12.058121 0.0027319644 1.3366052e-21)
(12.130596 -0.17328261 0)
(12.051406 -0.37032877 0)
(12.07234 -0.5192342 6.1195168e-19)
(11.953379 -0.6996833 4.8493584e-21)
(11.926001 -0.8212133 -5.9329943e-19)
(11.782996 -0.99234311 -1.7353659e-18)
(11.721492 -1.0935402 2.2369943e-18)
(11.556912 -1.2565871 0)
(11.463159 -1.3280991 -1.0567908e-18)
(11.273311 -1.4745847 -6.1115697e-18)
(11.149572 -1.5109222 2.9355311e-18)
(10.932484 -1.646495 0)
(10.772606 -1.6326203 -3.6518787e-18)
(10.535415 -1.7364012 4.3774451e-18)
(10.316528 -1.6803675 -3.3859423e-18)
(10.123893 -1.7356589 4.0574557e-18)
(9.7860987 -1.6403997 0)
(12.013114 0.15644458 -2.7541619e-19)
(11.990147 -0.0030443328 1.3802716e-19)
(12.04651 -0.21493302 0)
(11.955381 -0.37757512 -1.0819016e-18)
(11.970501 -0.54624828 1.5973407e-18)
(11.830709 -0.70363469 -5.2212371e-19)
(11.798443 -0.83756226 -1.5515324e-18)
(11.636011 -0.98893897 3.5225443e-18)
(11.567529 -1.0951609 -1.955029e-18)
(11.372735 -1.2286661 0)
(11.263668 -1.2883789 9.2125127e-19)
(11.037537 -1.4139961 5.3864621e-18)
(10.900831 -1.4264683 -3.4579215e-18)
(10.650394 -1.5278409 0)
(10.487984 -1.4664263 0)
(10.212613 -1.5456577 -1.562015e-18)
(10.015283 -1.4175772 7.5684148e-19)
(9.7925093 -1.4498711 -2.184085e-18)
(9.5485173 -1.2566422 0)
(11.872249 0.13478613 -2.377653e-19)
(11.876486 -0.020584389 7.1191509e-19)
(11.908879 -0.2401351 -7.0699241e-19)
(11.836609 -0.3785188 0)
(11.829346 -0.57412997 1.391216e-18)
(11.697669 -0.69229137 -1.8139799e-18)
(11.649039 -0.85208931 0)
(11.473203 -0.97208346 8.7909711e-19)
(11.398015 -1.0808788 8.5914301e-19)
(11.191828 -1.1751227 0)
(11.081522 -1.2421079 0)
(10.835548 -1.3150629 -7.8556485e-19)
(10.702429 -1.3163978 -2.3023223e-18)
(10.438798 -1.3532508 -1.7319649e-20)
(10.302036 -1.2793386 2.1422201e-18)
(10.015213 -1.2816521 1.3879097e-18)
(9.8561376 -1.123076 -6.6894909e-19)
(9.5816028 -1.1027329 1.2930915e-18)
(9.4304208 -0.83260798 0)
(11.774215 0.11287826 0)
(11.806879 -0.064495087 -8.1934093e-19)
(11.791948 -0.25598112 1.6264296e-18)
(11.742137 -0.39896878 -1.2102642e-18)
(11.694401 -0.58880133 0)
(11.582536 -0.68803247 0)
(11.503331 -0.86334823 0)
(11.31648 -0.94115184 -7.5971401e-19)
(11.223488 -1.0600431 -7.4415583e-19)
(10.994704 -1.1149801 0)
(10.871347 -1.1678448 -7.1403395e-19)
(10.607685 -1.1941869 -6.9526317e-19)
(10.470864 -1.1807497 -6.7154307e-19)
(10.190911 -1.1585335 2.6258373e-18)
(10.078176 -1.0599424 -2.5375177e-18)
(9.8168041 -0.99457378 -6.1358448e-19)
(9.722417 -0.81833064 3.5826978e-18)
(9.4777001 -0.73040018 -5.7565297e-18)
(9.4204092 -0.45060631 3.3442509e-18)
(11.664512 0.10388399 -4.4416577e-20)
(11.708446 -0.078667541 8.8591003e-20)
(11.668738 -0.24747139 8.7826511e-19)
(11.646395 -0.4146091 -2.0955016e-18)
(11.55619 -0.57537035 1.0317695e-18)
(11.470122 -0.68471514 0)
(11.34459 -0.83457584 0)
(11.183888 -0.89019074 6.6481621e-19)
(11.046854 -1.0091784 -2.611269e-18)
(10.844675 -1.0079731 -6.5479174e-19)
(10.713687 -1.0662201 6.0570638e-19)
(10.464133 -1.0326435 3.0301732e-18)
(10.326388 -1.0004853 5.9393322e-19)
(10.047091 -0.91854059 0)
(9.9434156 -0.81302138 1.6816748e-18)
(9.7000142 -0.69662636 0)
(9.6573263 -0.50713336 -3.1707065e-18)
(9.4823178 -0.38216184 9.178439e-18)
(9.4820936 -0.090540195 -7.8966569e-18)
(11.561288 0.072927924 7.6339935e-20)
(11.592961 -0.10881246 -7.5900296e-20)
(11.554924 -0.26162372 0)
(11.526662 -0.43367783 -9.0655677e-19)
(11.414463 -0.56361803 2.9152795e-19)
(11.338607 -0.68639886 1.1790079e-18)
(11.174522 -0.79678747 0)
(11.035761 -0.85916722 -2.8843569e-18)
(10.850316 -0.9410277 1.6904118e-18)
(10.672399 -0.92308161 -3.1405947e-21)
(10.509601 -0.95990445 0)
(10.302398 -0.85335833 0)
(10.173403 -0.81714853 -5.1828006e-19)
(9.9471566 -0.68135839 0)
(9.8706674 -0.57422231 3.2025025e-21)
(9.6729643 -0.39802051 9.5892817e-19)
(9.6774069 -0.2319245 -2.7939037e-18)
(9.5304447 -0.045580619 7.2096728e-18)
(9.6333406 0.2231235 -3.4918418e-18)
(11.495039 0.060056222 2.3030323e-19)
(11.509063 -0.11332875 -1.969808e-19)
(11.477474 -0.25820978 0)
(11.429854 -0.42702895 0)
(11.324438 -0.53494793 0)
(11.233766 -0.66236587 0)
(11.065481 -0.72998142 -2.0304722e-18)
(10.940681 -0.79548444 1.9924503e-18)
(10.728284 -0.8279678 2.4658059e-18)
(10.569273 -0.80881958 -9.6251532e-19)
(10.365296 -0.7853862 0)
(10.201861 -0.66994562 3.7308223e-18)
(10.047119 -0.6243042 -6.8216816e-18)
(9.8974828 -0.43964643 3.5449741e-18)
(9.8424205 -0.3335481 -4.3290409e-18)
(9.7167892 -0.11445024 2.5220379e-18)
(9.773026 0.02809009 -8.1812281e-19)
(9.6968094 0.2519701 -7.9434581e-19)
(9.8866302 0.47266557 7.7091501e-19)
(11.379169 0.036037517 2.2671196e-19)
(11.378915 -0.12409603 -7.3569044e-19)
(11.364853 -0.26776172 4.5035643e-19)
(11.291807 -0.42197288 -8.9836591e-19)
(11.188123 -0.52431014 8.8898352e-19)
(11.065945 -0.64105694 0)
(10.914894 -0.68004191 -4.3899137e-19)
(10.778339 -0.73606789 1.7377969e-18)
(10.579652 -0.714524 -1.7046405e-18)
(10.445844 -0.68774987 -4.1987741e-19)
(10.255748 -0.61378608 -3.3172299e-18)
(10.143288 -0.51192344 3.2384393e-18)
(9.9873587 -0.41061215 -3.9673979e-19)
(9.9182139 -0.21929432 2.3337962e-18)
(9.8543418 -0.10750794 -2.2693008e-18)
(9.8343067 0.1300451 0)
(9.9110392 0.23499998 -5.7526721e-18)
(9.9371391 0.47081908 6.2837458e-18)
(10.210419 0.59813203 0)
(11.318546 0.021750627 -3.9047235e-19)
(11.31574 -0.12949624 3.9017258e-19)
(11.301851 -0.26670755 -7.7748944e-19)
(11.216729 -0.39346965 7.718731e-19)