/*--------------------------------*- C++ -*----------------------------------*\
  =========                 |
  \\      /  F ield         | OpenFOAM: The Open Source CFD Toolbox
   \\    /   O peration     | Website:  https://openfoam.org
    \\  /    A nd           | Version:  11
     \\/     M anipulation  |
\*---------------------------------------------------------------------------*/
FoamFile
{
    format      ascii;
    class       surfaceScalarField;
    location    "0.525";
    object      phi;
}
// * * * * * * * * * * * * * * * * * * * * * * * * * * * * * * * * * * * * * //

dimensions      [0 3 -1 0 0 0 0];

internalField   nonuniform List<scalar> 
8667
(
15.883112
1.8946762
-1.076105e-05
13.984969
1.8981648
-2.1772448e-05
12.067439
1.9175639
-3.3957412e-05
10.166224
1.901264
-4.8381821e-05
8.2425928
1.923692
-6.0994328e-05
6.3535648
1.8891033
-7.528292e-05
4.4418186
1.9118369
-9.0731663e-05
2.6008647
1.8410668
-0.0001129235
1.8054325
-0.00014629003
0.79557857
15.885386
3.7870683
13.98135
3.8022013
12.070229
3.8286848
10.155337
3.8161555
8.2458854
3.8331437
6.3377779
3.7972108
4.4418249
3.8077899
2.6005435
3.6823482
3.6321843
0.7737917
15.886876
5.6779706
13.97996
5.7091173
12.070895
5.7377496
10.153083
5.7339677
8.2381373
5.7480891
6.3321964
5.7031517
4.4313615
5.7086249
2.5912571
5.5224525
5.4689891
0.7544523
15.885674
7.5700742
13.982489
7.6123031
12.067232
7.653006
10.15456
7.6466395
8.2297599
7.6728895
6.3232766
7.609635
4.4150651
7.6168363
2.570959
7.3665587
7.3075519
0.73239619
15.885358
9.4624919
13.984838
9.512823
12.067975
9.5698699
10.154943
9.5596711
8.2303413
9.5974912
6.3157485
9.5242277
4.4052151
9.5273697
2.5573566
9.2144172
9.1459416
0.71896687
15.885584
11.354686
13.988282
11.410125
12.073955
11.484198
10.157366
11.47626
8.230681
11.524176
6.3070348
11.447874
4.3887906
11.445614
2.5332576
11.06995
10.97866
0.70053964
15.885688
13.246776
13.990443
13.30537
12.079615
13.395025
10.160376
13.395499
8.2319767
13.452575
6.3052586
13.374592
4.3799055
13.370967
2.5146699
12.935186
12.817041
0.67628853
15.887437
15.137116
13.992287
15.20052
12.085674
15.301638
10.16676
15.314413
8.2329358
15.3864
6.2986783
15.30885
4.363943
15.305702
2.4884925
14.810636
14.650336
0.65519717
15.889474
17.02542
13.996227
17.093767
12.089718
17.208147
10.173073
17.231059
8.2385018
17.320971
6.3007923
17.246559
4.3557979
17.250697
2.4644313
16.702003
16.497014
0.61775374
18.850047
15.953152
20.671638
15.956187
22.490379
15.959043
24.307857
15.960302
26.122147
15.96347
27.933379
15.966548
29.743183
15.967976
31.547696
15.973267
15.970194
33.355282
18.924988
14.12193
20.75413
14.127045
22.580348
14.132825
24.402337
14.138313
26.223438
14.142368
28.039117
14.15087
29.850554
14.156538
31.656366
14.167455
14.167164
33.459397
19.057026
12.273051
20.902562
12.28151
22.745496
12.289891
24.581817
12.301992
26.414942
12.309243
28.242441
12.323371
30.071423
12.327556
31.899686
12.339192
12.341815
33.725035
19.095987
10.408122
20.957923
10.419574
22.822159
10.425655
24.683634
10.440516
26.545095
10.447783
28.403765
10.4647
30.25998
10.471342
32.112432
10.48674
10.495467
33.958779
19.210397
8.5186962
21.102853
8.527118
22.998412
8.5300958
24.896952
8.5419762
26.795415
8.54932
28.697358
8.5627578
30.596636
8.5720634
32.498062
8.5853135
8.5976158
34.395914
19.145138
6.6201178
21.055205
6.6170505
22.971219
6.6140817
24.899357
6.6138384
26.830257
6.6184195
28.770599
6.6224158
30.707544
6.6351186
32.649689
6.6431689
6.6610827
34.586222
19.159773
4.7110414
21.092767
4.6840562
23.035968
4.6708812
25.010398
4.639408
26.997734
4.6310837
29.010252
4.6098982
31.026671
4.6186989
33.062697
4.6071435
4.6229433
35.100836
18.585311
2.827733
20.530845
2.7385228
22.519703
2.6820233
24.553322
2.6057888
26.606012
2.5783939
28.682662
2.5332481
30.768265
2.5330953
32.865496
2.5099132
2.5231874
34.965252
18.401846
0.92290048
20.494915
0.64545453
22.756755
0.42018278
25.072713
0.28983116
27.420884
0.23022296
29.754463
0.19966874
32.118714
0.16884481
34.462131
0.16649556
36.828253
0.1570659
33.247452
0.10783017
33.14506
0.10239188
33.044069
0.10099059
32.950589
0.093480641
32.858037
0.092551391
32.774515
0.08352257
32.69115
0.083364798
32.618128
0.073021909
0.073361397
32.544767
33.373445
0.19378161
33.294591
0.18124631
33.21679
0.17879192
33.146307
0.1639634
33.076735
0.16212292
33.015641
0.14461711
32.956187
0.1428181
32.906538
0.12267148
0.12310866
32.856791
33.654871
0.26394558
33.590857
0.24526034
33.530118
0.23953085
33.473269
0.22081232
33.419866
0.21552597
33.370031
0.19445207
33.323378
0.18947123
33.280997
0.16505237
0.16152986
33.242576
33.904015
0.31870959
33.853003
0.29627304
33.805155
0.28737879
33.760421
0.26554642
33.718883
0.25706372
33.680613
0.23272173
33.645474
0.22461057
33.613886
0.19664047
0.1898432
33.585572
34.348044
0.36657931
34.304844
0.33947351
34.264215
0.32800761
34.226414
0.30334759
34.190613
0.29286479
34.157529
0.26580535
34.126119
0.25602077
34.097036
0.2257237
0.21759533
34.069284
34.555244
0.39755698
34.526795
0.36792246
34.504082
0.35072098
34.48327
0.32415896
34.465393
0.31074252
34.446168
0.28503047
34.428996
0.2731928
34.407297
0.2474218
0.23772669
34.387166
35.089498
0.40889549
35.078065
0.37935466
35.066998
0.36178869
35.053143
0.33801396
35.039114
0.32477161
35.019395
0.30474864
34.997596
0.29499255
34.966237
0.2787805
0.27326117
34.930702
35.050872
0.32327547
35.131738
0.29848872
35.218382
0.2751442
35.296656
0.25974045
35.371496
0.24993175
35.428961
0.24728317
35.470091
0.25386252
35.480748
0.26812335
0.30009877
35.453911
37.009311
0.14221739
37.160191
0.14760881
37.263571
0.17176402
37.334852
0.18845926
37.346332
0.23845154
37.304313
0.28930208
37.19513
0.36304574
37.013462
0.44979161
36.798097
0.51546362
36.637335
0.68751906
-0.52675714
36.344777
0.65195798
-0.35939949
35.963886
0.62741827
-0.24652806
35.579165
0.60094107
-0.21621941
35.171427
0.5842009
-0.1764634
34.774764
0.56331055
-0.16664749
34.36033
0.55038538
-0.13595168
33.963153
0.53697467
-0.1397968
0.52991665
33.550845
-0.11760878
35.524663
0.61676654
35.549231
0.62739038
35.542127
0.63452172
35.504686
0.63838266
35.446522
0.64236449
35.360974
0.64885841
35.257029
0.65433078
35.132881
0.66112272
0.66669436
34.996103
35.00602
0.54144951
35.074986
0.55842437
35.128401
0.58110623
35.170003
0.5967802
35.193617
0.6187512
35.209236
0.63323875
35.208877
0.65469021
35.200338
0.66966218
0.69210517
35.174927
34.485105
0.44351066
34.585964
0.4575655
34.677017
0.49005349
34.770179
0.50361798
34.852578
0.53635149
34.936372
0.54944533
35.00932
0.58174186
35.083126
0.59585596
0.63041062
35.144821
34.168157
0.34463755
34.270826
0.35489604
34.371625
0.38925478
34.475958
0.39928487
34.577242
0.43506703
34.681699
0.44498909
34.780581
0.48285976
34.883195
0.49324168
0.53356973
34.980036
33.687052
0.24315788
33.792946
0.24900158
33.902119
0.28008226
34.015966
0.28543821
34.13162
0.31941284
34.25229
0.32431882
34.373739
0.36141053
34.50097
0.3660112
0.40653236
34.628007
33.334766
0.15096757
33.432651
0.15111713
33.534578
0.17815497
33.642691
0.17732527
33.75448
0.20762368
33.873078
0.20572102
33.995108
0.23938057
34.124934
0.23618489
0.27371921
34.257747
32.943743
0.064015582
33.032228
0.062631263
33.12908
0.081303036
33.229122
0.077283694
33.340292
0.096453853
33.451945
0.094067759
33.578405
0.11292013
33.705915
0.10867564
0.13397377
33.84566
32.608782
32.671414
32.752717
32.83
32.926454
33.020522
33.133442
33.242118
33.376091
33.50413
-0.12803854
33.655385
-0.15125475
33.803132
-0.14774746
33.980225
-0.17709245
34.148464
-0.16823901
34.348516
-0.20005275
34.544965
-0.1964488
34.776072
-0.23110709
-0.22288618
34.998958
33.986949
-0.26932725
34.146826
-0.31113156
34.304919
-0.30584096
34.480901
-0.35307435
34.659357
-0.34669495
34.858693
-0.39938901
35.054649
-0.39240461
35.275718
-0.45217623
-0.44415249
35.496985
34.399535
-0.41111452
34.544003
-0.45559977
34.6987
-0.46053849
34.855345
-0.50971866
35.024079
-0.51542955
35.194748
-0.57005772
35.379178
-0.57683432
35.565237
-0.63823551
-0.64620313
35.767288
34.761918
-0.54502543
34.894716
-0.58839738
35.035794
-0.60161637
35.174992
-0.6489171
35.324145
-0.66458227
35.471116
-0.71702875
35.629997
-0.73571577
35.786594
-0.7948321
-0.8169435
35.957334
35.08171
-0.64669914
35.176703
-0.6833906
35.278105
-0.70301849
35.372153
-0.74296531
35.47445
-0.76687899
35.569115
-0.81169355
35.673923
-0.84052374
35.771193
-0.89210263
-0.92629344
35.880543
35.207864
-0.70974189
35.258195
-0.73372182
35.311213
-0.75603675
35.351545
-0.78329735
35.39626
-0.81159401
35.428664
-0.84409763
35.467617
-0.87947594
35.494953
-0.91943906
-0.96258262
35.531242
35.14454
-0.67935557
35.100665
-0.68984597
35.052819
-0.70819092
34.994124
-0.72460306
34.931818
-0.74928767
34.861144
-0.77342367
34.787347
-0.80567925
34.707439
-0.83953067
-0.88029127
34.625148
34.840962
-0.52421428
34.675955
-0.52483881
34.493941
-0.52617704
34.304161
-0.53482278
34.098097
-0.5432243
33.885505
-0.56083183
33.656952
-0.57712569
33.422817
-0.60539616
-0.63111634
33.173642
33.160149
-0.13351873
32.751266
-0.11595547
32.365202
-0.14011282
31.954397
-0.12401854
31.56714
-0.15596655
31.146981
-0.14067374
30.751558
-0.18170199
30.312696
-0.16653467
29.901216
-0.21963571
0.67257303
29.433857
-0.20521402
0.92620999
32.920005
1.0126257
34.538732
0.98659833
35.55727
0.88438487
35.982757
0.7153629
36.126356
0.51135656
35.971294
0.26346495
35.744876
35.262423
0.70999155
29.000605
-0.27674021
0.97538617
32.654611
1.0628121
34.451306
1.0262932
35.593788
0.91001087
36.099039
0.72441227
36.311955
0.50255612
36.19315
0.25783157
35.989601
35.520255
0.76787259
28.498079
-0.26534625
1.0375161
32.384967
1.127059
34.361763
1.0972831
35.623564
0.98752767
36.208794
0.80292116
36.496561
0.57894617
36.417125
0.30200933
36.266538
35.822264
0.82007013
28.042781
-0.36477259
1.0952673
32.10977
1.1837665
34.273264
1.1421754
35.665156
1.016434
36.334536
0.81255428
36.700441
0.56860366
36.661076
0.29402369
36.541118
36.116288
0.89939403
27.507735
-0.36434715
1.1761543
31.83301
1.2647128
34.184705
1.2257805
35.704088
1.105683
36.454633
0.90135258
36.904771
0.65481292
36.907615
0.34506427
36.850866
36.461352
0.96873181
27.052518
-0.51351546
1.2431167
31.558625
1.3272677
34.100554
1.2742694
35.757086
1.1370889
36.591814
0.91073242
37.131128
0.64253738
37.17581
0.33803665
37.155367
36.799389
1.0673807
26.522087
-0.5369495
1.3460325
31.279973
1.4281657
34.018421
1.3734915
35.81176
1.2396042
36.725701
1.0109449
37.359787
0.73989344
37.446862
0.39436721
37.500893
37.193756
1.1597907
26.135034
-0.77273753
1.4221323
31.017631
1.4946111
33.945942
1.4237428
35.882629
1.2714399
36.878004
1.0189225
37.612305
0.72444454
37.74134
0.38526706
37.840071
37.579023
1.3094563
25.626734
-0.80115689
1.5558137
30.771274
1.6239508
33.877805
1.5482576
35.958322
1.3962353
37.030026
1.1368986
37.871641
0.83557422
38.042664
0.44735026
38.228295
38.026373
-0.052402773
38.078776
-0.023682463
38.199574
0.011282761
38.007699
0.10720442
37.77572
0.23601434
36.901216
0.41166882
35.782667
0.60505328
33.684421
0.78625074
30.590077
25.774304
0.6386809
-0.10133697
38.180113
-0.124092
38.222329
-0.092349671
37.975957
0.00044209494
37.682928
0.11672916
36.784929
0.2797635
35.619633
0.44282862
33.521356
0.57156643
30.461339
25.831206
0.51466417
-0.082405348
38.262519
-0.080753642
38.220678
-0.061275502
37.956479
0.015096024
37.606556
0.11851428
36.681511
0.26978566
35.468362
0.42776124
33.36338
0.56695086
30.322149
25.836927
0.56123011
-0.12562573
38.388144
-0.17833599
38.273388
-0.17259866
37.950741
-0.10478062
37.538738
-0.0085939731
36.585324
0.13650052
35.323267
0.27986708
33.220014
0.39712521
30.204891
25.871684
0.36236888
-0.10748379
38.495628
-0.12910569
38.29501
-0.12845925
37.950095
-0.072377308
37.482656
0.011532138
36.501415
0.14690825
35.187891
0.28796344
33.078958
0.40780679
30.085048
25.871775
0.40771529
-0.15356793
38.649196
-0.22879631
38.370238
-0.24417127
37.96547
-0.1947702
37.433255
-0.1115165
36.418161
0.016078489
35.060296
0.14604467
32.948992
0.25135827
29.979734
25.86059
0.26254378
-0.13372572
38.782922
-0.17260648
38.409119
-0.18697865
37.979842
-0.1466531
37.39293
-0.07648528
36.347993
0.041618078
34.942193
0.16926397
32.821346
0.2805096
29.868488
25.797812
0.34328696
-0.178056
38.960978
-0.26193513
38.492998
-0.29991112
38.017818
-0.26816181
37.361181
-0.19844519
36.278277
-0.087385583
34.831133
0.035375817
32.698585
0.14794184
29.755922
25.717252
0.22850193
-0.15637428
39.117352
-0.20479361
38.541417
-0.23367753
38.046702
-0.20384641
37.331349
-0.14634071
36.220771
-0.043105967
34.727898
0.076709425
32.57877
0.19511977
29.637512
25.600103
0.31226893
-0.077368903
25.468556
0.20891582
0.04684894
29.513294
0.16576297
32.459856
0.26394522
34.629716
0.3211558
36.16356
0.33795224
37.314553
0.28494813
38.099706
0.19510336
38.631262
39.312455
-0.13806274
25.313788
0.292831
-0.011505863
29.386737
0.10171441
32.346635
0.19289707
34.538533
0.23982583
36.116632
0.26036375
37.294015
0.2223169
38.137753
0.16677543
38.686804
39.479231
-0.03199169
25.147674
0.19810541
0.099896571
29.254849
0.21440861
32.232123
0.30160024
34.451342
0.34575439
36.072477
0.35537019
37.284399
0.29081322
38.20231
0.20037802
38.777239
39.679609
-0.104401
24.968609
0.28346656
0.02414091
29.126307
0.12982678
32.126437
0.21146557
34.369703
0.24702064
36.036922
0.2660876
37.265332
0.22194882
38.246449
0.1656701
38.833517
39.845279
-0.010479665
24.785336
0.19375198
0.12282434
28.993003
0.22987491
32.019387
0.30736511
34.292213
0.34101247
36.003275
0.34711782
37.259227
0.2802488
38.313318
0.19322845
38.920538
40.038507
-0.095273126
24.599083
0.28152641
0.030431811
28.867298
0.12449151
31.925327
0.19717577
34.219529
0.22583211
35.974619
0.24000685
37.245052
0.19934087
38.353984
0.15016869
38.96971
40.188676
-0.0152671
24.420991
0.19335851
0.1117423
28.740289
0.20850564
31.828564
0.27753111
34.150503
0.3032081
35.948942
0.30047271
37.247788
0.23935963
38.415097
0.16706398
39.042006
40.35574
-0.11463586
24.254029
0.28159841
0.0044283008
28.621225
0.081154137
31.751838
0.14718013
34.084477
0.17166731
35.924455
0.18180493
37.23765
0.15601912
38.440882
0.12024408
39.077781
40.475984
-0.05157695
24.116431
0.18917485
0.063213349
28.506434
0.1478483
31.667203
0.20984208
34.022483
0.22862478
35.905672
0.22332011
37.242955
0.18180286
38.4824
0.12567649
39.133907
40.601661
0.072285586
40.529375
0.17396468
39.032228
0.26475848
38.391606
0.354036
37.153677
0.42058412
35.839124
0.4820129
33.961055
0.51546951
31.633746
0.49927891
28.522625
24.148561
0.46714868
0.08519447
40.44418
0.17838054
38.939042
0.26398645
38.306
0.33847527
37.079188
0.39873474
35.778864
0.45475704
33.905032
0.49674073
31.591763
0.46494875
28.554417
24.264313
0.34919654
0.15883288
40.285348
0.30495224
38.792923
0.42683505
38.184117
0.53462372
36.9714
0.6100165
35.703471
0.67336595
33.841683
0.7189837
31.546145
0.69070614
28.582695
24.441423
0.51359699
0.18076198
40.104586
0.32452291
38.649162
0.44842247
38.060218
0.54793006
36.871892
0.62096656
35.630435
0.68254554
33.780104
0.74707052
31.48162
0.72221682
28.607548
24.756329
0.40731019
0.25799521
39.84659
0.4594957
38.447661
0.6274623
37.892251
0.76382019
36.735534
0.85378299
35.540472
0.92341985
33.710467
0.99424264
31.410797
1.0199461
28.581845
25.231948
0.54432747
0.28780289
39.558788
0.49289194
38.242572
0.66755769
37.717585
0.80256231
36.60053
0.89426277
35.448772
0.96136894
33.643361
1.0505182
31.321648
1.1409497
28.491413
25.868199
0.50469896
0.3643433
39.194444
0.6314823
37.975433
0.86079934
37.488268
1.0361875
36.425141
1.1463666
35.338593
1.2160201
33.573707
1.2778394
31.259829
1.4807858
28.288467
26.602879
0.74610552
0.40568876
38.788755
0.67739093
37.703731
0.91411632
37.251543
1.0956779
36.24358
1.2134707
35.2208
1.2743792
33.512799
1.3256764
31.208531
1.6639459
27.950197
27.249895
1.0169299
0.47863005
38.310125
0.82036741
37.361994
1.1203673
36.951543
1.3704402
35.993507
1.5261816
35.065058
1.5870821
33.451898
1.6072237
31.18839
2.0198596
27.537561
27.365245
1.9045092
-1.4100141
39.72014
-2.8847901
38.83677
-4.3988219
38.465575
-5.8726373
37.467322
-7.2380183
36.43044
-8.404812
34.618692
-9.2012431
31.984821
-9.4727265
27.809045
27.495402
-9.6028827
-1.379308
41.099448
-2.8705997
40.328061
-4.4057295
40.000705
-5.900393
38.961986
-7.3272262
37.857273
-8.4986618
35.790127
-9.3055049
32.791664
-9.2891917
27.792732
25.844951
-7.6387409
-1.3569826
42.45643
-2.8389813
41.81006
-4.3867407
41.548464
-5.9495542
40.524799
-7.4181044
39.325823
-8.6295726
37.001596
-9.3683066
33.530398
-8.7033941
27.127819
19.677377
-2.5358202
-1.3087027
43.765133
-2.8124142
43.313771
-4.3704297
43.106479
-5.9639554
42.118325
-7.496
40.857868
-8.7367582
38.242354
-9.2874768
34.081117
-8.1575417
25.997884
11.751032
-0.23119652
-1.2576123
45.022745
-2.7869614
44.843121
-4.3194276
44.638946
-6.0045484
43.803446
-7.5718973
42.425217
-8.8398616
39.510318
-9.2389694
34.480225
-7.2965035
24.055418
4.4497555
0.0047726395
-1.197155
46.2199
-2.7421816
46.388147
-4.2886244
46.185388
-6.015358
45.530179
-7.6350018
44.04486
-8.9437563
40.819073
-8.962099
34.498567
-4.975691
20.06901
-1.1943382
0.66840272
-1.1458098
47.36571
-2.6900627
47.9324
-4.2236166
47.718942
-6.0357997
47.342362
-7.6963361
45.705397
-8.9275492
42.050286
-8.2371985
33.808217
-3.232214
15.064025
-5.1160825
0.68953029
-1.0751171
48.440827
-2.6239195
49.481202
-4.1785881
49.273611
-6.02697
49.190744
-7.7177355
47.396162
-8.8865621
43.219112
-7.4547957
32.37645
-2.5814024
10.190632
-8.2396928
0.54220795
-1.0273556
49.468183
-2.5652501
51.019097
-4.0950764
50.803437
-6.020609
51.116277
-7.7372959
49.112849
-8.7180106
44.199827
-6.2919548
29.950394
-1.5903323
5.4890095
-10.439038
0.60901264
0.54581923
-11.351888
0.36703144
3.1789114
2.8559174
5.2349732
27.894333
4.6025136
44.832287
3.4840661
50.231297
2.2204121
52.379931
1.2751366
51.748713
0.37807822
51.916155
49.846261
0.31837122
-12.068458
0.39819798
2.7991271
0.37516157
5.1358418
25.557618
4.5474293
45.420699
3.37641
51.402316
2.0936182
53.662723
1.1922179
52.650113
0.33230727
52.776066
50.178568
0.28450792
-12.770594
0.41762833
2.6582736
-1.9986041
4.9481635
23.267728
4.4977833
45.871079
3.3243311
52.575768
2.024814
54.96224
1.1036863
53.571241
0.26773693
53.612015
50.446305
0.40531907
-13.60483
0.42891674
2.7577084
-4.3509934
4.8185305
21.206906
4.410969
46.278641
3.2039043
53.782833
1.8949216
56.271223
1.0176131
54.448549
0.22485348
54.404775
50.671158
0.46852743
-14.519784
0.44642674
2.7620339
-6.6444999
4.6673647
19.301575
4.3480235
46.597982
3.1394843
54.991372
1.8226044
57.588103
0.92890804
55.342246
0.16666742
55.167016
50.837826
0.50581701
-15.458173
0.43257217
2.7498747
-8.8885575
4.5573204
17.494129
4.2361806
46.919122
3.0037757
56.223777
1.6911099
58.900768
0.84228679
56.191069
0.12924777
55.880055
50.967074
0.5140005
-16.34775
0.37557599
2.6655831
-11.04014
4.3972478
15.762465
4.1681102
47.148259
2.9284077
57.463479
1.6170407
60.212135
0.75368008
57.054429
0.075993055
56.557742
51.043067
0.49348077
-17.313209
0.47197821
2.5912055
-13.137865
4.2659641
14.087706
4.0192297
47.394994
2.7649063
58.717803
1.4846073
61.492434
0.66992244
57.869114
0.05356307
57.174101
51.09663
0.49402079
-17.899982
0.092752412
2.4385252
-15.082369
4.0697748
12.456456
3.9631749
47.501594
2.7066777
59.9743
1.4158337
62.783278
0.58942466
58.695523
0.0169033
57.746622
51.113533
3.5330493
-20.982609
-0.450422
4.7210806
-16.270401
3.6318826
13.545654
1.2352756
49.898201
-0.95932651
62.168902
-1.9721096
63.796061
-1.9613858
58.6848
-1.5157973
57.301034
49.597736
3.6824539
-24.680064
0.015001105
4.3441431
-16.93209
2.7823764
15.107421
0.46143779
52.219139
-1.781589
64.411929
-2.6834996
64.697972
-2.440378
58.441678
-1.7810126
56.641669
47.816723
3.7061058
-27.248564
-1.1376056
4.0808411
-17.306825
2.0012964
17.186966
-0.81364346
55.034079
-2.7171103
66.315396
-3.1032448
65.084106
-2.6380135
57.976447
-1.7228342
55.726489
46.093889
3.7037749
-28.510313
-2.4420258
3.7418958
-17.344946
1.3051369
19.623725
-1.5140827
57.853299
-3.295448
68.096761
-3.5255267
65.314185
-2.8493509
57.300271
-1.7683709
54.645509
44.325518
3.5100407
-28.663669
-3.356685
3.2652842
-17.100189
0.45483258
22.434176
-2.7007367
61.008868
-3.9640004
69.360025
-3.6651946
65.015379
-2.7966576
56.431734
-1.5283938
53.377246
42.797124
3.2110773
-28.149967
-3.7247796
2.7321801
-16.621292
-0.19490773
25.361264
-3.2170582
64.031019
-4.2606347
70.403601
-3.8635422
64.618287
-2.9242187
55.49241
-1.5660157
52.019043
41.231108
2.8684105
-27.216494
-3.8018833
2.1348715
-15.887753
-1.1276298
28.623765
-4.2470059
67.150395
-4.6946344
70.85123
-3.8602453
63.783898
-2.7331748
54.36534
-1.250988
50.536856
39.98012
2.482758
-26.411128
-3.2881243
1.6572321
-15.062227
-1.6428039
31.923801
-4.569029
70.07662
-4.7378998
71.0201
-3.869477
62.915475
-2.7138877
53.20975
-1.1347179
48.957686
38.845402
2.0989896
-2.1760712
-26.334046
0.93853584
-13.901774
-2.8340726
35.69641
-5.7626686
73.005216
-5.0774644
70.334896
-3.7854064
61.623417
-2.4238706
51.848215
-0.72295478
47.25677
38.122448
-3.4579875
2.7324195
0.72112178
0.0044462038
-6.8998428
3.436872
0.0049832236
-10.228088
3.327077
0.001168243
-9.9344776
-0.28612075
-0.0074896521
-6.3079181
-3.6262938
-0.00026576898
-2.4296617
-3.8827901
0.0045337112
0.50711547
-2.9335529
-0.0032242566
3.6162052
-3.1064036
-0.0026861368
-3.4805457
-0.0015498518
-3.4183766
5.4184169
0.73237921
-6.7486451
6.7671405
-9.6716415
6.2500734
-9.1012549
-0.85650737
-5.2411583
-7.4863903
-1.0959043
-8.0280441
1.7447545
-5.7742117
5.3181924
-6.6798414
-7.3570279
-3.3242081
7.98207
0.760555
-6.4073032
9.8502356
-8.8548704
8.6976406
-7.9047504
-1.8066274
-3.9994126
-11.391728
0.1310231
-12.15848
3.3118887
-8.9550774
7.6699648
-11.037917
-11.626738
-3.1805774
10.382928
0.77971987
-6.0104696
12.680128
-7.8400918
10.527263
-6.3495383
-3.2971809
-2.3417567
-15.39951
1.9029561
-16.403193
5.7226441
-12.774765
10.384678
-15.699952
-15.245473
-3.0480215
12.628339
0.80261052
-5.5780774
15.210184
-6.6954911
11.644676
-4.5749469
-5.4177251
-0.60942824
-19.365028
3.9256596
-20.93828
8.0599002
-16.909006
12.376103
-20.016154
-18.516916
-2.85078
14.667645
0.81147337
-5.1191514
17.478555
-5.5734479
12.098973
-2.7006379
-8.2905351
1.3268448
-23.392511
5.8309036
-25.442339
10.058435
-21.136538
14.072032
-24.029751
-21.413503
-2.7265483
16.57293
0.82126317
-4.779165
19.531172
-4.5944489
11.914257
-0.91782602
-11.967158
3.2008522
-27.511189
7.7482914
-29.989778
12.028844
-25.41709
15.524969
-27.525876
-23.932977
-2.5394493
18.290744
0.82163595
-4.3656119
21.357334
-3.5523732
11.101018
0.82890443
-16.348436
5.1218606
-31.804145
9.4854918
-34.35341
13.527957
-29.459555
16.611765
-30.609684
-26.188922
-2.4040177
0.82623916
19.868522
-3.9765827
22.929899
-2.5173008
9.6417363
2.5074822
-21.373219
6.869816
-36.166479
11.057824
-38.541417
14.863676
-33.265408
17.57054
-33.316548
-28.257146
2.0998223
26.414801
-2.1766618
-26.337962
0.93932608
15.064767
-13.904271
-2.8338798
-31.922827
35.696033
-5.7626663
-70.076384
73.00517
-5.0775321
-71.021099
70.335965
-3.7856586
-62.917175
61.625301
-2.4242283
-53.211519
51.850089
-0.72313493
-48.958908
47.257815
-38.845358
38.122223
2.48359
27.219903
-3.2886918
1.6580976
15.89026
-1.6424626
-28.622266
-4.5688891
-67.149957
-4.7379119
-70.852076
-3.8696458
-63.785441
-2.7141895
-54.366976
-1.1349621
-50.538136
-39.98032
2.8691366
28.152931
-3.802164
2.1357065
16.62369
-1.1271504
-25.359409
-4.2468586
-64.030249
-4.6946206
-70.404314
-3.8603715
-64.61969
-2.733403
-55.493944
-1.251187
-52.020352
-41.231507
3.2117745
28.666139
-3.7249826
2.7330526
17.102412
-0.19436312
-22.431994
-3.2168123
-61.0078
-4.2605576
-69.360569
-3.8636233
-65.016624
-2.9244089
-56.433159
-1.5661874
-53.378573
-42.797695
3.510618
28.512332
-3.3568115
3.2660255
17.347004
0.45537357
-19.621342
-2.7004277
-57.851998
-3.9638664
-68.09713
-3.6652075
-65.315283
-2.7967928
-57.301573
-1.5285359
-54.64683
-44.326231
3.704333
27.250114
-2.442115
3.7426736
17.308664
1.3057352
-17.184403
-1.5136838
-55.032579
-3.295252
-66.315562
-3.5254935
-65.085042
-2.8494539
-57.977613
-1.7685318
-55.727752
-46.094762
3.706661
24.681158
-1.1377046
4.0815266
16.933798
2.0019331
-15.10481
-0.81317843
-52.217468
-2.716854
-64.411886
-3.1031377
-64.698758
-2.6380167
-58.442734
-1.7229193
-56.642849
-47.817682
3.6828632
20.983277
0.015017868
4.3447945
16.271867
2.78304
-13.543055
0.46192718
-49.896355
-1.7812665
-62.168692
-2.6833647
-63.79666
-2.4403603
-58.685738
-1.7810617
-57.302148
-49.598743
3.5333165
17.900498
-0.45053823
4.7215962
15.083587
3.6324746
-12.453934
1.2358134
-47.499694
-0.95895419
-59.973925
-1.9718877
-62.783726
-1.9613076
-58.696318
-1.5158256
-57.74763
-51.114569
-0.37811834
49.847088
-49.46897
-1.2752301
51.916706
-51.019594
-2.2205474
51.749113
-50.803795
-3.4842361
52.379969
-51.11628
-4.6026787
50.230913
-49.112471
-5.2351104
44.83121
-44.198778
-3.1787322
27.892027
-29.948405
-0.5456488
2.8548285
-5.4879119
-11.351856
10.439087
0.36712018
-0.33234995
50.179438
-1.1923152
52.776671
-2.0937536
52.650551
-3.3765825
53.662798
-4.5475975
51.401928
-5.1358906
45.419503
-2.7989942
25.55513
-0.3182619
0.37409612
-12.068376
0.39825764
-0.26777075
50.447209
-1.1037768
53.612677
-2.0249519
53.571726
-3.3245109
54.962357
-4.4979569
52.575374
-4.9482075
45.869753
-2.6582838
23.265207
-0.28452519
-1.9996625
-12.770582
0.41768086
-0.2248877
50.672097
-1.0177056
54.405495
-1.8950589
54.44908
-3.2040864
56.271384
-4.4111487
53.782437
-4.8185923
46.277197
-2.7577714
21.204386
-0.40536709
-4.3520668
-13.604912
0.42896323
-0.16669205
50.838789
-0.92899111
55.167794
-1.8227408
55.342829
-3.1396712
57.588315
-4.3482081
54.990974
-4.6674379
46.596427
-2.7620886
19.299037
-0.46858523
-6.6455701
-14.519919
0.44642098
-0.1292741
50.968063
-0.84237175
55.880892
-1.6912442
56.191702
-3.003964
58.901034
-4.2363701
56.22338
-4.5574058
46.917462
-2.7499611
17.491592
-0.50588303
-8.8896482
-15.458374
0.43257273
-0.076013112
51.044076
-0.7537576
56.558636
-1.6171713
57.055115
-2.9285972
60.21246
-4.1683027
57.463085
-4.3973492
47.146509
-2.6656978
15.75994
-0.51408331
-11.041263
-16.348014
0.37555667
-0.053577567
51.097653
-0.66999363
57.175052
-1.4847345
57.869856
-2.765093
61.492819
-4.0194255
58.717418
-4.2660785
47.393162
-2.5913225
14.085184
-0.49354889
-13.139036
-17.313594
0.47203061
-0.016915611
-0.58949325
-1.4159554
-2.7068628
-3.9633697
-4.0699016
-2.4386509
-0.49410015
0.092804402
1.590053
8.2399255
0.60910899
6.2916845
-10.189543
8.7180527
-32.374773
7.737452
-43.218177
6.0207886
-47.395807
4.0952277
-49.190719
2.5653627
-49.27393
1.027413
-49.481644
-48.441557
2.5812662
5.1163434
0.54231593
7.454654
-15.062931
8.8866156
-33.806735
7.7178934
-42.049455
6.0271454
-45.705059
4.1787382
-47.342312
2.6240253
-47.719218
1.0751705
-47.932789
-47.366386
3.2320551
1.1947194
0.68956895
8.237036
-20.067912
8.9275893
-34.497288
7.6964696
-40.818335
6.0359604
-44.04455
4.2237585
-45.53011
2.6901641
-46.185623
1.1458663
-46.388492
-46.22052
4.9752237
-4.4490998
0.6685955
8.9619803
-24.054669
8.9438103
-34.479118
7.6351371
-39.509662
6.0155107
-42.424924
4.2887625
-43.803362
2.742282
-44.639143
1.1972126
-44.843422
-45.023307
7.2963429
-11.750236
0.004793485
9.2388794
-25.997205
8.8399099
-34.080149
7.5720093
-38.241762
6.0046776
-40.857592
4.3195586
-42.118243
2.7870578
-43.106642
1.2576695
-43.314034
-43.765638
8.1574632
-19.676551
-0.23114889
9.2874094
-27.127151
8.7368079
-33.529547
7.4961095
-37.001063
5.9640798
-39.325562
4.3705552
-40.524718
2.8125036
-41.54859
1.3087596
-41.81029
-42.456878
8.7032702
-25.844101
-2.5357195
9.3682331
-27.792114
8.6296108
-32.790925
7.4181938
-35.789646
5.9496631
-37.857032
4.3868504
-38.961906
2.8390702
-40.00081
1.3570426
-40.328262
-41.099836
9.2890931
-27.49461
-7.6385848
9.3054501
-27.808471
8.498701
-31.984176
7.3273175
-34.618263
5.9005055
-36.43022
4.4058384
-37.467238
2.8706821
-38.465654
1.3793563
-38.836937
-39.720479
9.4726154
-27.364514
-9.6027115
9.2011905
-27.537046
8.4048494
-31.187835
7.2380927
-33.451506
5.8727302
-35.064857
4.3989157
-35.993424
2.8848677
-36.951606
1.4100601
-37.362129
-38.310419
0.072257787
40.529379
-40.601637
0.1739174
39.032145
-39.133804
0.26469168
38.391478
-38.482252
0.35396014
37.153438
-37.242706
0.42050814
35.838823
-35.905371
0.48194567
33.960677
-34.022115
0.51541934
31.633344
-31.666818
0.49925347
28.522255
-28.506089
24.148294
-24.116184
0.46714276
0.085157327
40.444222
0.17832185
38.93898
0.26391229
38.305888
0.33838557
37.078964
0.39864102
35.778568
0.45467579
33.904643
0.49667753
31.591342
0.46491433
28.554018
24.264015
0.3491933
0.1588022
40.28542
0.30490145
38.792881
0.42676299
38.184026
0.53453724
36.97119
0.60992499
35.70318
0.67328119
33.841286
0.71891454
31.545709
0.6906659
28.582267
24.441095
0.51358633
0.18072281
40.104697
0.32445569
38.649148
0.44833532
38.060146
0.54782627
36.871699
0.62085611
35.63015
0.68244519
33.779697
0.74698721
31.481167
0.72216719
28.607087
24.755955
0.4073069
0.25796049
39.846737
0.45943269
38.447676
0.62737587
37.892203
0.76372019
36.735355
0.85367297
35.540198
0.923313
33.710057
0.99414946
31.41033
1.0198779
28.581358
25.231506
0.54432687
0.28776565
39.558971
0.49282035
38.242621
0.66745914
37.717564
0.80244661
36.600367
0.89413643
35.448508
0.961247
33.642947
1.0504108
31.321167
1.1408643
28.490905
25.867681
0.50468933
0.36430609
39.194665
0.63141847
37.975509
0.86070852
37.488274
1.0360739
36.425002
1.1462377
35.338344
1.2158896
33.573295
1.2777333
31.259323
1.4806844
28.287954
26.602273
0.74609256
0.40565135
38.789013
0.67732338
37.703837
0.91402102
37.251577
1.0955561
36.243467
1.2133292
35.220571
1.2742332
33.512391
1.3255525
31.208004
1.6638234
27.949683
27.249212
1.016885
0.4785942
0.82030197
1.1202729
1.3703157
1.5260296
1.5869145
1.6070834
2.0197196
1.9044177
-0.051560826
-24.253795
0.1891725
0.063248671
-28.620898
0.14790111
-31.75147
0.20990725
-34.084121
0.22869236
-35.924157
0.22338761
-37.237401
0.18185306
-38.440718
0.12570769
-39.077659
-40.475929
-0.11462221
-24.420767
0.28159402
0.0044567328
-28.739977
0.081200352
-31.828214