/*--------------------------------*- C++ -*----------------------------------*\
  =========                 |
  \\      /  F ield         | OpenFOAM: The Open Source CFD Toolbox
   \\    /   O peration     | Website:  https://openfoam.org
    \\  /    A nd           | Version:  11
     \\/     M anipulation  |
\*---------------------------------------------------------------------------*/
FoamFile
{
    format      ascii;
    class       volScalarField;
    location    "0.104";
    object      rho;
}
// * * * * * * * * * * * * * * * * * * * * * * * * * * * * * * * * * * * * * //

dimensions      [0 0 0 0 0 0 0];

internalField   nonuniform List<scalar> 
880
(
0.3733250556165154
0.3733250556165154
0.3733250556165154
0.373325719667412
0.3733250556165154
0.3733250556165154
0.3733250556165152
0.3733280094035368
0.3733250556165154
0.3733250556165153
0.3733250556225869
0.3733415511088032
0.3733250556165154
0.3733250556165154
0.3733250557338515
0.3733609303438821
0.3733250556165154
0.3733250556165155
0.3733250556165152
0.3733250556169917
0.3733250556165154
0.3733250556165154
0.3733250556165151
0.3733250556165154
0.3733250542870731
0.3733250403141268
0.3733989466961413
0.3731892616248957
0.3760124610231
0.3833963078533886
0.3891378499016312
0.3918115805350892
0.373325069290545
0.3733251040516013
0.3733251142292262
0.3733250890476082
0.373325322151299
0.3733257621840456
0.3733267541979469
0.3733262134195894
0.3734728758334704
0.3736304321005768
0.3738354749279195
0.3738308859867273
0.39447946496027
0.3980637377448252
0.4023240180036316
0.4066880034312041
0.4041837871936838
0.3970066161820962
0.3918385735018515
0.3886725753367342
0.3741940885933724
0.3750857289429816
0.3755523486153784
0.3752878365902775
0.3733283948999893
0.3733342062426628
0.3733433916771218
0.3733441318643073
0.3733252007998331
0.373325381782113
0.3733256139189513
0.3733255818626862
0.3733253681208539
0.3733251424775017
0.373325064012944
0.3733250558013258
0.3733395271959044
0.3733315620940079
0.373326384328586
0.3733251619947563
0.3748531154169822
0.3741898582807107
0.3735918946757522
0.3733656416951391
0.3852949738309145
0.3816869439736958
0.3780410486412972
0.3750473243756839
0.3736213951826422
0.3733274007551054
0.3733250585153969
0.373325055620393
0.3733473848828864
0.3733252681478858
0.3733250557922914
0.3733250556085818
0.3733186517985664
0.373324322810789
0.3733250577267752
0.3733250568576328
0.3785738316011553
0.3733440886550736
0.3733241207751566
0.373324986987018
0.3733249582465283
0.3733246219676795
0.3735013613002566
0.4165813601667478
0.3733250337812405
0.3733264724156958
0.3742065999803426
0.4510216672638597
0.3733252510098244
0.3733295644789507
0.3749545870313428
0.4656795216341924
0.3733255645604157
0.3733373382490798
0.3761621484354148
0.4796399881518508
0.4922130623219373
0.3770874913409715
0.3733410308997894
0.3733257579440535
0.5091268542874589
0.378645108776455
0.373353076658189
0.3733262213133409
0.5204828191287367
0.3794845282669647
0.3733567347825193
0.3733263290805839
0.5345817217638289
0.3812559620609687
0.3733772706349927
0.3733273377157511
0.3733275073103686
0.3733838662803579
0.3831074067280962
0.5491400130235753
0.3733286986418982
0.3734110674731301
0.3856497561718894
0.5556093557181493
0.3733313964833717
0.3734436618040492
0.3864940942897572
0.5367082030232054
0.373324235492199
0.3733725698425731
0.3811408177424914
0.4820307941168287
0.3733373205181588
0.3736351717048234
0.3817403834651082
0.4026954213615482
0.373338853386151
0.373624405678601
0.374062157897348
0.3122447706960495
0.3733240153760351
0.3733704225354907
0.3688277352160061
0.2594532744479782
0.3733239478639007
0.3731320360983756
0.362298110250593
0.2287292355080116
0.2238813820589197
0.3606722568859593
0.3731103225463915
0.3733240535669223
0.2179096349435206
0.359618509800571
0.373098658758603
0.3733241120447375
0.2165977090930065
0.3609654312112155
0.3731838206239189
0.3733246540230997
0.2079144890837714
0.3600217886197046
0.3731792251644557
0.3733246472476282
0.2436383781251852
0.3665514065191891
0.3732756625492656
0.3733249149971887
0.2856875402417731
0.3708327875354888
0.3733128149707551
0.3733250251428229
0.3161637245898097
0.3723743553193547
0.3733213402548695
0.3733250475165254
0.3395083317047521
0.3730129830219306
0.3733239833195814
0.3733250514232576
0.3381480329246486
0.3715811960283908
0.3732996487615056
0.3733249023772116
0.3395786237983056
0.3716298205228913
0.373300014738813
0.3733249033028559
0.3420026079687815
0.3716794035844765
0.3733002348399739
0.3733249037044796
0.3458164313677128
0.3718691743225011
0.3733022744867469
0.3733249127767948
0.3395083317046561
0.3730129830209492
0.3733239833185624
0.373325051424045
0.3161637245883057
0.3723743553180455
0.3733213402512119
0.3733250475166745
0.2856875402406545
0.3708327875358677
0.3733128149700847
0.3733250251433764
0.2436383781258321
0.3665514065212667
0.373275662549172
0.3733249149964012
0.3733240535683225
0.3731103225500018
0.3606722568880232
0.2238813820585479
0.3733241120445583
0.3730986587599665
0.3596185098019383
0.2179096349443978
0.3733246540209849
0.3731838206263067
0.3609654312109473
0.2165977090932927
0.3733246472484199
0.3731792251646752
0.3600217886231984
0.2079144890828292
0.2287292355056161
0.3622981102484332
0.3731320360965976
0.3733239478658104
0.2594532744451505
0.3688277352139075
0.3733704225328508
0.3733240153698848
0.3122447706953152
0.3740621578948281
0.3736244056789597
0.3733388533850813
0.402695421361991
0.381740383464607
0.3736351717035702
0.3733373205220161
0.373327507309232
0.3733838662843212
0.3831074067312442
0.5491400130272204
0.3733286986427174
0.3734110674723414
0.3856497561712472
0.5556093557179381
0.3733313964851701
0.3734436618038615
0.3864940942874381
0.5367082030228381
0.3733242354969951
0.3733725698426624
0.3811408177410801
0.4820307941164453
0.5345817217687449
0.3812559620540444
0.3733772706383146
0.3733273377155331
0.5204828191321508
0.3794845282709102
0.3733567347834363
0.3733263290816367
0.5091268542869072
0.3786451087886202
0.3733530766614477
0.3733262213123947
0.4922130623256074
0.3770874913343452
0.3733410309040642
0.373325757943274
0.3733249582490387
0.3733246219700186
0.3735013613013947
0.4165813601627639
0.3733250337792555
0.3733264724125822
0.3742065999785417
0.4510216672655521
0.373325251008223
0.3733295644809599
0.3749545870359339
0.4656795216341189
0.3733255645588229
0.3733373382447849
0.3761621484303995
0.479639988153432
0.3733249869861114
0.3733250568587104
0.3733250556088152
0.3733250556203539
0.3733241207722419
0.3733250577266311
0.3733250557949985
0.3733250585140852
0.3733440886559345
0.3733243228118123
0.3733252681462139
0.3733274007540134
0.3785738316019485
0.3733186517994846
0.3733473848818833
0.3736213951826463
0.3733250557990702
0.3733251619949463
0.3733656416957196
0.3750473243765711
0.3733250640125452
0.3733263843276972
0.3735918946802905
0.3780410486421426
0.3733251424786956
0.3733315620939475
0.3741898582786913
0.3816869439738955
0.3733253681219014
0.3733395271952396
0.3748531154188275
0.3852949738302274
0.3733252007967975
0.3733283948972036
0.3741940885905854
0.4041837871928691
0.3733253817797689
0.3733342062432651
0.3750857289428064
0.3970066161798136
0.3733256139182452
0.3733433916806662
0.3755523486157916
0.3918385735010055
0.3733255818619792
0.3733441318664759
0.3752878365909161
0.3886725753352822
0.4066880034322643
0.3738308859879201
0.3733262134176644
0.3733250890460246
0.4023240180039674
0.3738354749306924
0.3733267541975746
0.3733251142290915
0.398063737748016
0.373630432104558
0.3733257621842634
0.3733251040515982
0.3944794649595731
0.3734728758347222
0.3733253221504226
0.3733250692912904
0.3918115805352447
0.3731892616242443
0.3733250556165154
0.3733250556172925
0.3891378499010457
0.3733989466897232
0.3733250556165154
0.3733250556165154
0.3833963078548762
0.3733250403135969
0.3733250556165154
0.3733250556165153
0.3760124610223212
0.373325054285928
0.3733250556165154
0.3733250556165151
0.3733250556165154
0.3733250556165154
0.3733250556165154
0.3733257196641247
0.3733250556165152
0.3733250556165155
0.3733250556165154
0.3733280093768928
0.3733250556165154
0.3733250556165154
0.3733250556226763
0.3733415511001145
0.3733250556165154
0.3733250556165154
0.3733250557325504
0.3733609303409717
0.373326186715547
0.3733298933993027
0.3733536959685618
0.3739734568321839
0.3733298934726346
0.3733305799132957
0.3733451202834517
0.3758458189333423
0.3733536959574217
0.3733451202327379
0.3742889357094357
0.3893975444039705
0.3739734567891975
0.3758458189181998
0.3893975446055594
0.4420245769411094
0.5249944340126277
0.4669564611895691
0.4364987485597225
0.4031684812143218
0.510810981878838
0.4992990270006217
0.495535429017161
0.470223212845773
0.5042965163022971
0.5018478196179037
0.5037224620542631
0.4925934546769848
0.5086161924222186
0.5052899754674098
0.5050561196541233
0.4972023265241293
0.5015531115621945
0.5031853462049946
0.5065109556652397
0.5137512021852603
0.5071109831291918
0.5092981149834916
0.5122372518894173
0.5208416581619961
0.5085026071406736
0.5104978539192366
0.5135924313700647
0.5211209844199745
0.5095367326292024
0.5104488579918026
0.5134323011693901
0.5197542928756712
0.453146840104093
0.3882068815259887
0.3743134361492002
0.3756802723819348
0.4237965012563604
0.3649588128782593
0.3666819266496634
0.3733700075007074
0.3948084795947535
0.3565979973317722
0.3693710543113732
0.3766021733231072
0.3369113682217815
0.3402808139721121
0.3644436403616272
0.3744297407085995
0.3775572238183414
0.3795727558772874
0.3797990452792445
0.3772803850795634
0.3765774083001915
0.3795469015401854
0.3794237858225847
0.3770622066993383
0.3787654852393436
0.3806642372762998
0.3801936700196444
0.3775751131256084
0.376961929842075
0.378961833545989
0.3792083219565956
0.3764016211466217
0.3745452227244603
0.3734947459468931
0.3733140034730801
0.4400796766764612
0.3746619234556046
0.3735606193656796
0.3733095488864586
0.4705762968188372
0.3749817224312296
0.3736418559372323
0.3733423439152753
0.4833902909293473
0.3741684846585415
0.3734015070928239
0.3733473943098486
0.4887293202056173
0.6713471684175603
0.6945217152040436
0.6907544896527391
0.6869185932453353
0.7240268113562628
0.7196625081200293
0.7077747877852276
0.702089876647882
0.7105557073951722
0.7041820781101719
0.7119606767569324
0.7109743201135411
0.7353345269620226
0.7197300094890269
0.7166034448862417
0.7146235568305479
0.6857888553458376
0.6976579074669707
0.7056514290242364
0.7131588979568416
0.699772367326373
0.7104474111091529
0.7178131077380792
0.7242725562941992
0.7099346017121451
0.7208818038488561
0.7294463082427826
0.7361777807220168
0.7132690957630539
0.7243302572377526
0.7324820644287309
0.7397870353532419
0.7118030244680854
0.6976878094277318
0.6610835535809088
0.5765433706283377
0.7211480048637838
0.7070094386250479
0.6671439904629426
0.5893375149422391
0.7341627033474646
0.719419717151934
0.6747102706637038
0.6105786907810354
0.738687403328918
0.7261563567232403
0.6774065238063443
0.709737524766108
0.3903216027998853
0.09962074316964339
0.04214350763860782
0.05254538222439013
0.3119537531928407
0.0662149730347448
0.05075663718671027
0.06163336069750335
0.2338084982267304
0.04549996228144881
0.050455647957359
0.07384372826534417
0.1695635346025459
0.03102727480248028
0.05847230698920382
0.07981757313533441
0.06254960527523933
0.06753452076918637
0.06841834020191044
0.05967705231299072
0.07106776612181345
0.07306008856805692
0.06785220092455743
0.05445076464703992
0.08574698262152712
0.08469228536947811
0.07271033930375219
0.05705446782113154
0.0921911747237056
0.08713653860550449
0.07217972942360629
0.06372775685787442
0.114244737939274
0.1710009579272679
0.2115361854756008
0.262411576724817
0.106420268507637
0.1569998319291769
0.1922645402153909
0.247861064888785
0.09827797040720675
0.1468427454877529
0.1866988297939278
0.2276899623340546
0.08266639908365327
0.1256823830290703
0.1659843236629415
0.2131311323154606
0.2021864700937451
0.1448339369617192
0.07745923947289642
0.063285061649069
0.1814048908793376
0.116220938332553
0.06225468612503034
0.06281896970641876
0.1435709635189137
0.08116881765994247
0.04365372012918391
0.07141495770841723
0.1082502343422887
0.05112496679894631
0.0318541352651912
0.09454925593851934
0.1401078348649609
0.139695579780133
0.1459509968307768
0.1486400622042607
0.1207505720406935
0.1251669313833081
0.1262340449062631
0.1256694720358408
0.1049765954678282
0.1206872392226232
0.1220174265124118
0.1216719015042303
0.1179222219064016
0.1627530097523822
0.1655980381351987
0.1609233340347601
0.1486400622042324
0.1256694720358123
0.1216719015042402
0.1609233340348141
0.1459509968306361
0.1262340449061866
0.1220174265124538
0.1655980381350903
0.1396955797799471
0.1251669313832474
0.1206872392226708
0.1627530097522129
0.140107834864909
0.1207505720407683
0.1049765954679641
0.1179222219059508
0.06328506164873003
0.07745923947256833
0.1448339369612308
0.2021864700928767
0.06281896970632472
0.06225468612472408
0.1162209383323754
0.1814048908788764
0.07141495770861782
0.04365372012914378
0.08116881765966065
0.1435709635187327
0.09454925593861167
0.0318541352652397
0.05112496679892343
0.1082502343421385
0.2131311323151598
0.1659843236627014
0.1256823830283108
0.08266639908284495
0.2276899623338645
0.1866988297938283
0.1468427454871906
0.09827797040636174
0.2478610648886137
0.192264540215268
0.1569998319288917
0.1064202685068871
0.2624115767246011
0.2115361854751517
0.1710009579267334
0.1142447379386972
0.05967705231236241
0.06841834020225669
0.06753452076931715
0.06254960527492019
0.0544507646467856
0.06785220092473364
0.0730600885680974
0.07106776612164933
0.05705446782097068
0.07271033930408155
0.08469228536960667
0.08574698262112082
0.06372775685765088
0.07217972942388585
0.087136538605703
0.09219117472302063
0.05254538222389939
0.04214350763795673
0.0996207431687251
0.3903216027993708
0.06163336069717706
0.05075663718612074
0.06621497303430113
0.31195375319171
0.07384372826471576
0.05045564795672731
0.04549996228128346
0.2338084982261457
0.07981757313410152
0.05847230698831442
0.03102727480215312
0.1695635346023721
0.576543370627394
0.661083553580654
0.6976878094284262
0.7118030244711789
0.5893375149414977
0.6671439904630245
0.7070094386261048
0.7211480048671948
0.6105786907803364
0.6747102706638384
0.7194197171533397
0.7341627033501907
0.7097375247657739
0.6774065238068456
0.7261563567245048
0.7386874033315565
0.7131588979621184
0.7056514290262538
0.6976579074614752
0.685788855349615
0.7242725562981651
0.7178131077384883
0.7104474111052237
0.6997723673299115
0.736177780724407
0.7294463082422717
0.7208818038466636
0.7099346017164397
0.7397870353552608
0.7324820644278086
0.7243302572356757
0.713269095768391
0.6869185932543264
0.6907544896468527
0.694521715207319
0.6713471684145521
0.7020898766590747
0.7077747877781636
0.7196625081226997
0.7240268113537162
0.7109743201230619
0.7119606767485336
0.7041820781112763
0.7105557073911222
0.7146235568354991
0.7166034448779008
0.7197300094913067
0.7353345269557153
0.4400796766739897
0.3733140034705079
0.3734947459510908
0.374545222723693
0.4705762968127923
0.3733095488773018
0.3735606193724192
0.3746619234540201
0.4833902909211433
0.3733423439080593
0.3736418559452862
0.3749817224287081
0.4887293201953768
0.3733473943023689
0.3734015071053894
0.3741684846532721
0.3772803850803467
0.3797990452788871
0.3795727558765824
0.3775572238184383
0.3770622066995032
0.3794237858223255
0.3795469015401181
0.3765774083000339
0.3775751131257874
0.380193670019355
0.380664237276543
0.378765485238697
0.3764016211476024
0.3792083219555706
0.3789618335470299
0.3769619298412689
0.3756802723802866
0.3743134361486668
0.3882068815254568
0.4531468401051648
0.3733700074985278
0.3666819266492742
0.3649588128777596
0.4237965012572807
0.3766021733211734
0.3693710543111355
0.356597997331166
0.3948084795953258
0.3744297407065683
0.3644436403617056
0.3402808139711684
0.3369113682212204
0.513751202185129
0.5065109556612918
0.5031853462039876
0.5015531115659467
0.5208416581599739
0.5122372518863388
0.5092981149850212
0.5071109831336863
0.5211209844173447
0.5135924313678534
0.5104978539213288
0.5085026071441118
0.5197542928744878
0.5134323011688994
0.5104488579951928
0.5095367326306132
0.4972023265264904
0.492593454676704
0.4702232128425693
0.4031684812191453
0.5050561196545504
0.5037224620518653
0.4955354290172626
0.4364987485245355
0.5052899754674572
0.5018478196198193
0.4992990270021005
0.4669564611270016
0.5086161924203886
0.5042965163044036
0.5108109818786869
0.5249944340234863
0.3510204376621633
0.3728823934913147
0.3733217584186574
0.3733250428346944
0.3467824240955801
0.3727097558685859
0.3733192901086939
0.3733250274170307
0.3453728535392452
0.372508848655799
0.3733154385584055
0.3733250013434545
0.3437567347741456
0.3721648669963342
0.3733083413756443
0.3733249520013678
0.3733249023782869
0.3732996487623044
0.3715811960263306
0.3381480329223944
0.3733249033037554
0.3733000147404891
0.3716298205204029
0.3395786237980903
0.3733249037031096
0.3733002348408717
0.3716794035842968
0.3420026079669971
0.3733249127725656
0.3733022744883689
0.3718691743198455
0.3458164313667921
0.3733249519997309
0.3733250013422364
0.3733250274123797
0.3733250428293872
0.3733083413764518
0.3733154385583121
0.3733192901080339
0.3733217584168948
0.3721648669956638
0.3725088486534038
0.3727097558703823
0.3728823934908531
0.3437567347741868
0.3453728535370018
0.3467824240946075
0.3510204376630795
)
;

boundaryField
{
    back
    {
        type            empty;
    }
    inlet
    {
        type            calculated;
        value           nonuniform List<scalar> 
16
(
0.3733250556165154
0.3733250556165154
0.3733250556165154
0.3733250556165154
0.3733250556165154
0.3733250556165155
0.3733250556165152
0.3733250556169917
0.3733250556172925
0.3733250556165154
0.3733250556165154
0.3733250556165151
0.3733250556165154
0.3733250556165152
0.3733250556165154
0.3733250556165154
)
;
    }
    front
    {
        type            empty;
    }
    top
    {
        type            calculated;
        value           nonuniform List<scalar> 
40
(
0.373325069290545
0.3733251040516013
0.3733251142292262
0.3733250890476082
0.3733252007998331
0.373325381782113
0.3733256139189513
0.3733255818626862
0.3733253681208539
0.3733251424775017
0.373325064012944
0.3733250558013258
0.373325055620393
0.3733250556085818
0.3733250568576328
0.373324986987018
0.3733249582465283
0.3733250337812405
0.3733252510098244
0.3733255645604157
0.3733257579440535
0.3733262213133409
0.3733263290805839
0.3733273377157512
0.3733275073103686
0.3733286986418982
0.3733313964833717
0.373324235492199
0.3733373205181588
0.373338853386151
0.3733240153760351
0.3733239478639007
0.3733240535669223
0.3733241120447375
0.3733246540230998
0.3733246472476282
0.3733249149971887
0.3733250251428229
0.3733250475165254
0.3733250514232575
)
;
    }
    outlet
    {
        type            calculated;
        value           uniform 0.3733250556165154;
    }
    bottom
    {
        type            calculated;
        value           nonuniform List<scalar> 
40
(
0.373325051424045
0.3733250475166745
0.3733250251433764
0.3733249149964012
0.3733240535683225
0.3733241120445583
0.3733246540209849
0.3733246472484199
0.3733239478658104
0.3733240153698848
0.3733388533850813
0.3733373205220161
0.373327507309232
0.3733286986427174
0.3733313964851701
0.3733242354969951
0.3733273377155331
0.3733263290816367
0.3733262213123947
0.373325757943274
0.3733249582490388
0.3733250337792555
0.3733252510082229
0.3733255645588229
0.3733249869861114
0.3733250568587104
0.3733250556088152
0.3733250556203539
0.3733250557990702
0.3733250640125453
0.3733251424786956
0.3733253681219014
0.3733252007967975
0.3733253817797689
0.3733256139182452
0.3733255818619792
0.3733250890460246
0.3733251142290915
0.3733251040515982
0.3733250692912904
)
;
    }
    wall
    {
        type            calculated;
        value           nonuniform List<scalar> 
104
(
0.5249944340126277
0.510810981878838
0.5042965163022971
0.5086161924222186
0.5095367326292024
0.5104488579918026
0.5134323011693901
0.5197542928756712
0.3369113682217815
0.3402808139721122
0.3644436403616272
0.3744297407085995
0.376961929842075
0.378961833545989
0.3792083219565956
0.3764016211466217
0.3741684846585415
0.3734015070928239
0.3733473943098486
0.4887293202056173
0.7353345269620226
0.7197300094890269
0.7166034448862417
0.7146235568305479
0.7132690957630539
0.7243302572377526
0.7324820644287309
0.7397870353532419
0.738687403328918
0.7261563567232403
0.6774065238063443
0.709737524766108
0.1695635346025459
0.03102727480248028
0.05847230698920382
0.07981757313533441
0.0921911747237056
0.08713653860550449
0.07217972942360629
0.06372775685787442
0.08266639908365327
0.1256823830290703
0.1659843236629415
0.2131311323154606
0.1082502343422887
0.05112496679894631
0.0318541352651912
0.09454925593851934
0.1401078348649609
0.139695579780133
0.1459509968307768
0.1486400622042607
0.1486400622042324
0.1459509968306361
0.1396955797799471
0.140107834864909
0.09454925593861167
0.0318541352652397
0.05112496679892343
0.1082502343421385
0.2131311323151598
0.1659843236627014
0.1256823830283108
0.08266639908284495
0.06372775685765088
0.07217972942388585
0.087136538605703
0.09219117472302063
0.07981757313410152
0.05847230698831442
0.03102727480215312
0.1695635346023721
0.7097375247657739
0.6774065238068456
0.7261563567245048
0.7386874033315565
0.7397870353552608
0.7324820644278086
0.7243302572356757
0.713269095768391
0.7146235568354991
0.7166034448779008
0.7197300094913067
0.7353345269557153
0.4887293201953768
0.3733473943023689
0.3734015071053894
0.3741684846532721
0.3764016211476024
0.3792083219555706
0.3789618335470299
0.3769619298412689
0.3744297407065683
0.3644436403617056
0.3402808139711684
0.3369113682212204
0.5197542928744878
0.5134323011688994
0.5104488579951928
0.5095367326306132
0.5086161924203886
0.5042965163044036
0.5108109818786869
0.5249944340234863
)
;
    }
}


// ************************************************************************* //
