/*--------------------------------*- C++ -*----------------------------------*\
  =========                 |
  \\      /  F ield         | OpenFOAM: The Open Source CFD Toolbox
   \\    /   O peration     | Website:  https://openfoam.org
    \\  /    A nd           | Version:  11
     \\/     M anipulation  |
\*---------------------------------------------------------------------------*/
FoamFile
{
    format      ascii;
    class       volVectorField;
    location    "12.1";
    object      U;
}
// * * * * * * * * * * * * * * * * * * * * * * * * * * * * * * * * * * * * * //

dimensions      [0 1 -1 0 0 0 0];

internalField   nonuniform List<vector> 
5472
(
(10.106934 2.547488 1.7597808e-18)
(10.294931 2.556869 -1.8324506e-18)
(10.471687 2.5604669 -1.8594899e-18)
(10.681976 2.5322609 -1.8980105e-18)
(10.838612 2.498901 5.895728e-18)
(11.043036 2.4345045 -3.0909427e-20)
(11.198866 2.3901105 -3.1265352e-18)
(11.396415 2.2940529 1.0881251e-18)
(11.502424 2.2116911 0)
(11.702345 2.1164772 0)
(11.828123 1.9947689 0)
(11.957344 1.8857734 -3.4663902e-18)
(12.112811 1.747097 1.7826063e-18)
(12.189503 1.6067664 -1.9233973e-20)
(12.318359 1.458257 1.2158446e-18)
(12.38173 1.2964964 -6.2397271e-19)
(12.467477 1.1524319 -9.393715e-19)
(12.524788 0.98587764 3.2070907e-19)
(12.569519 0.8492065 0)
(10.140347 2.3456961 -1.607014e-18)
(10.291634 2.3587487 3.320706e-18)
(10.469157 2.3610964 -1.7159968e-18)
(10.628252 2.3229299 -1.7354395e-18)
(10.806471 2.3279995 2.0787612e-20)
(10.979429 2.253328 0)
(11.144743 2.2176813 1.8768356e-18)
(11.275779 2.1431108 -3.8396105e-18)
(11.453978 2.0808227 4.9645849e-18)
(11.623292 1.9729019 1.0163141e-18)
(11.72895 1.8953314 0)
(11.904645 1.7623069 2.1220724e-18)
(11.998174 1.6551271 0)
(12.110447 1.5148906 5.4212664e-19)
(12.217082 1.3879342 -5.5849368e-19)
(12.287311 1.2394934 0)
(12.378544 1.1085383 0)
(12.413816 0.96561173 -2.8333067e-19)
(12.489986 0.81630783 0)
(10.094208 2.1866717 0)
(10.251847 2.1966639 1.5093103e-18)
(10.426632 2.2079512 1.5496795e-18)
(10.564025 2.2172826 0)
(10.747969 2.1963531 -1.6513455e-20)
(10.911742 2.1508356 -2.302008e-20)
(11.034148 2.1440682 -1.7224439e-18)
(11.22937 2.0548082 0)
(11.397128 2.0116846 -1.7826445e-18)
(11.532137 1.9194545 -4.5737275e-18)
(11.683736 1.8395372 1.066893e-20)
(11.808045 1.7282374 -9.3669688e-19)
(11.90881 1.6270835 -9.6601673e-19)
(12.035491 1.497026 1.9794141e-18)
(12.115126 1.3769085 1.4990747e-18)
(12.219901 1.2439929 5.0628562e-19)
(12.277678 1.1091673 2.5406413e-19)
(12.348116 0.96914825 -3.8412875e-19)
(12.395915 0.82805676 1.2820103e-19)
(10.108373 2.0020475 0)
(10.301306 2.0231139 -1.3616237e-18)
(10.399561 2.0509109 -1.3972151e-18)
(10.568815 2.04264 2.8565947e-18)
(10.725615 2.0411663 -1.4978631e-18)
(10.820018 2.0240713 0)
(11.015915 1.9760481 -1.552643e-18)
(11.164246 1.920736 1.5744493e-18)
(11.294353 1.888173 -1.6302857e-18)
(11.439544 1.7860467 -1.6291882e-20)
(11.551865 1.7384436 -1.6954729e-18)
(11.689969 1.6195901 0)
(11.804498 1.542324 0)
(11.920142 1.4022199 -8.8107788e-19)
(12.022887 1.3049899 -8.9239399e-19)
(12.117418 1.1651524 0)
(12.19085 1.0406933 -2.2788953e-19)
(12.264033 0.91373766 1.1523016e-19)
(12.312126 0.77006461 2.301349e-19)
(10.113564 1.8404957 0)
(10.235735 1.8825144 0)
(10.351898 1.915273 0)
(10.517907 1.9233109 -2.5833967e-18)
(10.605156 1.9261977 1.3426176e-18)
(10.785773 1.8939514 -4.0804431e-18)
(10.945992 1.8800066 5.5959534e-18)
(11.052479 1.8497314 -2.8601742e-18)
(11.214134 1.7981906 2.8772904e-21)
(11.33553 1.7416556 1.4835637e-18)
(11.47951 1.6793664 1.5114982e-18)
(11.623123 1.5754446 -3.0911013e-18)
(11.727942 1.5094705 2.3592057e-18)
(11.851362 1.3790267 -7.9927942e-19)
(11.943949 1.2947123 0)
(12.05036 1.1464594 8.1605754e-19)
(12.126078 1.0481228 -4.1073976e-19)
(12.197013 0.90225239 2.050996e-19)
(12.252109 0.78180418 -2.0451778e-19)
(10.109427 1.7092042 0)
(10.267734 1.741576 -4.4392021e-18)
(10.34977 1.7672426 2.2944696e-18)
(10.498923 1.7782323 2.3478334e-18)
(10.604074 1.7689482 1.1985127e-18)
(10.770192 1.7788492 -1.2212563e-18)
(10.849635 1.7607264 2.5343904e-18)
(11.0092 1.7247379 1.2805749e-18)
(11.144643 1.6915963 2.6139807e-18)
(11.28123 1.6310289 -2.681659e-18)
(11.420132 1.5698961 1.4385211e-20)
(11.519175 1.4907476 2.7755258e-18)
(11.647345 1.4105943 0)
(11.750198 1.2997588 -7.1619903e-19)
(11.861076 1.2036278 7.1812778e-19)
(11.945505 1.077033 -1.8142373e-18)
(12.034741 0.98037091 7.3012429e-19)
(12.087661 0.84058773 -1.832316e-19)
(12.158147 0.73737756 2.8856455e-22)
(10.108164 1.5511257 3.9188468e-18)
(10.225603 1.6010048 4.0052892e-18)
(10.312545 1.638403 0)
(10.4538 1.6325292 -6.0457011e-21)
(10.535893 1.664174 -4.3248115e-18)
(10.674486 1.6652824 4.4462888e-18)
(10.781335 1.6492832 0)
(10.960056 1.6364975 -1.1610309e-18)
(11.06134 1.5944545 -4.7102407e-18)
(11.209873 1.5617533 2.4192719e-18)
(11.321062 1.5099152 1.2177832e-18)
(11.451742 1.4361897 -1.2492554e-18)
(11.574527 1.3693246 0)
(11.673672 1.2662475 6.3453267e-19)
(11.795636 1.1751993 0)
(11.870031 1.0639112 -6.4695028e-19)
(11.975131 0.95037447 9.795259e-19)
(12.018796 0.83933542 7.4117534e-22)
(12.107047 0.71347256 -7.2493592e-22)
(10.149107 1.4529467 1.7541872e-18)
(10.245492 1.4628472 -3.5996912e-18)
(10.329257 1.5030825 -3.6796756e-18)
(10.437056 1.5260476 3.7942804e-18)
(10.520055 1.5433944 -1.9501714e-18)
(10.674677 1.5298673 -1.9833381e-18)
(10.760939 1.5487912 0)
(10.907865 1.5186928 3.0997088e-18)
(10.984398 1.4997884 -1.1624596e-20)
(11.145345 1.46621 -3.2226418e-18)
(11.229966 1.4074242 3.3003086e-18)
(11.378133 1.3613596 0)
(11.463654 1.2722684 0)
(11.597754 1.1989789 1.13391e-18)
(11.675393 1.1010382 -5.8048133e-19)
(11.769573 0.99996308 -1.1568823e-18)
(11.850573 0.89974563 2.9274225e-19)
(11.90524 0.79075386 2.9448329e-19)
(11.977354 0.66668513 7.2341966e-20)
(10.097438 1.3023336 -1.5735904e-18)
(10.189453 1.3464868 4.832146e-18)
(10.286726 1.3832152 -4.9810763e-18)
(10.391292 1.3879801 3.3961286e-18)
(10.477385 1.4145878 0)
(10.594226 1.4278055 1.7730909e-18)
(10.680558 1.4308756 -1.8280868e-18)
(10.842831 1.4221156 0)
(10.928133 1.4190781 9.4002391e-19)
(11.090154 1.3765387 -1.9407295e-18)
(11.166126 1.3395743 -9.7397843e-19)
(11.325196 1.279915 -7.8448797e-21)
(11.394031 1.2174388 -3.014483e-18)
(11.539477 1.1464588 5.1691628e-19)
(11.600766 1.0504848 -5.0578852e-19)
(11.722356 0.96774457 1.0320293e-18)
(11.771161 0.85363729 -5.1555839e-19)
(11.868567 0.76139609 2.6249983e-19)
(11.912759 0.63526734 2.5863835e-19)
(10.168385 1.1778349 -2.8277051e-18)
(10.24246 1.2169188 0)
(10.324842 1.2672018 1.4815907e-18)
(10.397132 1.2905518 -4.546325e-18)
(10.481176 1.3185438 1.5646597e-18)
(10.581731 1.3043687 -1.5939833e-18)
(10.670732 1.3306248 1.6188488e-18)
(10.786643 1.3159391 -1.665276e-18)
(10.867461 1.3166337 0)
(11.002713 1.2831148 8.556359e-19)
(11.073137 1.2636645 0)
(11.21298 1.2107809 8.7940486e-19)
(11.27772 1.1604406 1.7439454e-23)
(11.426657 1.083546 -4.4817069e-19)
(11.482357 1.0078416 4.522403e-19)
(11.619055 0.91427578 4.5559991e-19)
(11.654705 0.8127237 -2.2455793e-21)
(11.76925 0.719144 -6.8915567e-19)
(11.786712 0.58933127 0)
(10.116489 1.0594312 0)
(10.179977 1.1112027 1.2917825e-18)
(10.263989 1.1486131 0)
(10.329053 1.1699537 1.3478817e-18)
(10.426022 1.1941704 -4.1670471e-18)
(10.50172 1.2160736 4.2665549e-18)
(10.599503 1.22461 -1.4358248e-18)
(10.705289 1.2216854 4.4464247e-18)
(10.80522 1.225578 0)
(10.932836 1.1964299 7.6577526e-19)
(11.025078 1.1773088 0)
(11.172196 1.1113145 -1.5628387e-18)
(11.252647 1.0757146 3.172262e-18)
(11.396387 0.99763829 -6.5699444e-21)
(11.455916 0.94473941 -4.0414409e-19)
(11.580365 0.85142814 0)
(11.614329 0.77965147 0)
(11.722615 0.67211053 0)
(11.735051 0.56945996 -5.0870023e-20)
(10.152979 0.95940926 4.4928198e-18)
(10.224591 1.0143245 -5.7768003e-18)
(10.288269 1.0405726 2.3569485e-18)
(10.34356 1.0730327 -6.2112704e-21)
(10.426049 1.0964681 0)
(10.491696 1.1122324 -2.5194786e-18)
(10.590216 1.1335867 1.3001222e-18)
(10.670785 1.1351721 -1.311004e-18)
(10.772218 1.1349242 0)
(10.852664 1.1200053 -6.7660874e-19)
(10.957305 1.0995151 1.3701404e-18)
(11.056257 1.0609865 -1.0959532e-20)
(11.1441 1.0209782 -1.4114254e-18)
(11.266149 0.95396634 -2.8294879e-18)
(11.340694 0.89931017 2.4976875e-18)
(11.457489 0.80493734 -1.4333883e-18)
(11.507813 0.73942392 9.0078794e-19)
(11.611465 0.62213619 1.8049619e-19)
(11.633739 0.54313743 4.4647778e-20)
(10.123102 0.84813151 -7.0172649e-18)
(10.181247 0.89207368 4.1177195e-18)
(10.236091 0.93125374 0)
(10.29997 0.97059019 -5.3696405e-18)
(10.376584 0.98796553 4.4104107e-18)
(10.444187 1.0155706 1.1239897e-18)
(10.539715 1.0203966 3.4289528e-18)
(10.62574 1.0370097 -2.3390124e-18)
(10.730376 1.0438869 -2.9547213e-18)
(10.815788 1.0322774 1.8111762e-18)
(10.934519 1.0116665 2.4274951e-18)
(11.013303 0.97565148 -3.7009308e-18)
(11.121548 0.93033183 2.4877766e-18)
(11.209063 0.87912199 -6.3320564e-19)
(11.300198 0.82318976 3.1242112e-19)
(11.386072 0.75293007 -3.5843531e-21)
(11.463599 0.6832635 -7.9435696e-19)
(11.542419 0.5881641 -1.5825103e-19)
(11.59164 0.5041644 -3.9663497e-20)
(10.150404 0.76501228 2.681557e-18)
(10.198705 0.79637002 3.6486525e-18)
(10.243493 0.8409372 -3.7457327e-18)
(10.303545 0.87529211 9.559032e-19)
(10.357483 0.90674887 -2.9192787e-18)
(10.419883 0.9333584 2.9988471e-18)
(10.489243 0.94191406 1.0102145e-18)
(10.561485 0.95493446 -5.1640525e-18)
(10.652283 0.95532618 3.6689798e-18)
(10.736448 0.95648513 -1.6042357e-18)
(10.84885 0.94415005 0)
(10.930188 0.92567682 -5.4553509e-19)
(11.046819 0.87838802 -1.6449067e-18)
(11.130535 0.83206506 5.6173159e-19)
(11.229877 0.76871363 1.671462e-18)
(11.302375 0.70295992 5.5668762e-19)
(11.392987 0.62696263 -1.1189283e-18)
(11.444866 0.54885302 2.8152286e-19)
(11.520366 0.45629935 3.139459e-19)
(10.098614 0.66347107 -3.9547391e-18)
(10.162475 0.69753052 3.250934e-18)
(10.21573 0.73547377 0)
(10.277686 0.76003374 -8.4732628e-19)
(10.337176 0.79836798 3.4531997e-18)
(10.408737 0.83244648 -7.0540183e-18)
(10.482147 0.85663809 9.170099e-19)
(10.561911 0.86616192 3.6663953e-18)
(10.633611 0.86686823 2.7844346e-18)
(10.711102 0.86258834 -4.7043979e-19)
(10.798284 0.84928338 0)
(10.882818 0.83332942 2.3932391e-18)
(10.987828 0.79616023 -9.7501619e-19)
(11.065335 0.76587079 9.7402331e-19)
(11.154929 0.70728006 -1.4720019e-18)
(11.227364 0.65345554 -2.4626697e-19)
(11.309384 0.57895744 0)
(11.360565 0.50620982 0)
(11.441572 0.41072379 -3.0726711e-20)
(10.13309 0.5784055 6.8998153e-19)
(10.172591 0.62468959 -6.4824226e-18)
(10.200832 0.66160262 2.9359374e-18)
(10.244629 0.68492074 -3.756178e-18)
(10.291772 0.71264445 -7.6500764e-19)
(10.35501 0.73823023 0)
(10.424367 0.77270203 -3.9574507e-18)
(10.500929 0.79502549 2.4263249e-18)
(10.580073 0.80694942 -8.1842687e-19)
(10.664702 0.79846454 -1.2106169e-21)
(10.743597 0.78844463 0)
(10.829664 0.77016062 0)
(10.91639 0.73915706 -4.2503254e-19)
(11.001998 0.70917367 -4.2753241e-19)
(11.085011 0.65443588 2.147144e-19)
(11.163763 0.60274131 1.2932716e-18)
(11.238353 0.53316094 -8.6708091e-19)
(11.300325 0.46330488 1.083914e-19)
(11.370523 0.37399751 2.684395e-20)
(10.112547 0.46959026 4.3549999e-18)
(10.146319 0.52179507 -4.4639227e-18)
(10.202026 0.55835559 0)
(10.246778 0.59539459 6.6319707e-19)
(10.2938 0.62103253 0)
(10.348904 0.64356381 6.881706e-19)
(10.403352 0.67186725 6.9973713e-19)
(10.468039 0.69309934 0)
(10.540379 0.71134274 3.591848e-18)
(10.612719 0.71498181 -2.5591345e-18)
(10.691835 0.71326904 1.8377953e-18)
(10.77726 0.69621206 -1.4906694e-18)
(10.859232 0.670111 1.4925887e-18)
(10.943885 0.63946389 -8.5754289e-21)
(11.015076 0.59658298 -1.5158823e-18)
(11.092471 0.54595617 -1.8899525e-19)
(11.153532 0.48515925 -1.9010018e-19)
(11.221457 0.4147466 -9.4600375e-20)
(11.270979 0.33275104 0)
(10.109022 0.40056879 4.9649563e-18)
(10.120906 0.4530736 0)
(10.167675 0.47570061 0)
(10.191325 0.52191002 5.8539089e-19)
(10.254515 0.54307132 0)
(10.297445 0.5839602 -6.0597436e-19)
(10.362643 0.60078359 -6.1543852e-19)
(10.421858 0.62454478 -2.4935412e-18)
(10.489336 0.639252 2.5373299e-18)
(10.560303 0.64480937 0)
(10.639865 0.64668371 -2.9035524e-18)
(10.720048 0.63630684 2.2896486e-18)
(10.80242 0.61696511 1.3095534e-18)
(10.884766 0.58857678 -2.6400864e-18)
(10.960802 0.54973031 2.6500103e-18)
(11.03721 0.50058974 -1.9938235e-18)
(11.101208 0.44334779 6.6549388e-19)
(11.17313 0.37590309 0)
(11.219409 0.30132254 0)
(10.0946 0.31993768 7.799441e-18)
(10.123821 0.36176172 -3.9807635e-18)
(10.154079 0.39175965 4.0496488e-18)
(10.185083 0.42503668 -4.6475477e-18)
(10.23023 0.45357856 -4.1934816e-18)
(10.266165 0.48747182 4.2733794e-18)
(10.336035 0.51146897 2.1616585e-18)
(10.385245 0.53982569 -8.2995747e-21)
(10.458595 0.54716195 -2.2271164e-18)
(10.522789 0.56150161 0)
(10.597181 0.55902957 0)
(10.672703 0.55933223 2.8538993e-19)
(10.750009 0.54191349 0)
(10.826453 0.52034208 1.1528723e-18)
(10.898425 0.48987036 -1.1626495e-18)
(10.967665 0.44663936 -5.7969233e-19)
(11.031202 0.39411049 7.2774713e-19)
(11.089232 0.33245284 -3.6282059e-19)
(11.13571 0.2645657 2.8979389e-19)
(10.068564 0.25616096 0)
(10.106156 0.29512541 0)
(10.127586 0.32800654 3.5679652e-18)
(10.170291 0.36405861 -3.6360572e-18)
(10.20308 0.39072869 4.1497396e-18)
(10.251283 0.42130977 -4.2229159e-18)
(10.302909 0.44624345 0)
(10.347964 0.47430231 4.8174479e-19)
(10.412348 0.48884492 1.9449814e-18)
(10.470127 0.50274941 -1.9729159e-18)
(10.546849 0.50237612 1.9815242e-18)
(10.618929 0.50122816 -9.7587154e-21)
(10.700813 0.48395373 -4.0239145e-18)
(10.772492 0.46747247 2.0257005e-18)
(10.849847 0.43637419 0)
(10.917305 0.39908136 -1.0129556e-18)
(10.984251 0.35177185 1.5882309e-18)
(11.042248 0.29384715 -6.9844631e-19)
(11.088337 0.2286878 2.5306795e-19)
(10.063413 0.18134361 1.1750638e-17)
(10.08371 0.21465638 -6.183424e-18)
(10.104926 0.24245166 0)
(10.143235 0.27373669 -3.9928446e-19)
(10.173647 0.30762157 -4.0538715e-19)
(10.228094 0.33773375 4.1119184e-19)
(10.27035 0.36751522 0)
(10.330601 0.38822755 -4.2167133e-19)
(10.380978 0.40666841 3.4062251e-18)
(10.445042 0.41918555 -3.4518184e-18)
(10.504981 0.42623381 0)
(10.576662 0.42798894 0)
(10.645689 0.4182532 2.1994786e-19)
(10.713781 0.40401889 1.1041107e-19)
(10.787168 0.38114109 -1.1070597e-19)
(10.846041 0.34905767 0)
(10.910837 0.30936239 -4.9745594e-19)
(10.96113 0.26020141 4.4349321e-19)
(11.007023 0.20203609 0)
(10.046925 0.1339923 -1.0679532e-17)
(10.065402 0.16378859 1.1210139e-17)
(10.090058 0.18853908 -6.8114775e-21)
(10.113139 0.21668721 -5.2623117e-18)
(10.144669 0.24160332 0)
(10.184271 0.27367421 2.880648e-18)
(10.227895 0.29957399 -6.0227427e-18)
(10.280845 0.32594901 2.9577692e-18)
(10.335827 0.34494419 0)
(10.399392 0.35634256 -3.0047822e-18)
(10.462769 0.36407502 3.0391505e-18)
(10.53888 0.3633618 1.5225476e-18)
(10.602264 0.36005956 -1.5361771e-18)
(10.681985 0.34267254 1.3428263e-18)
(10.744395 0.32499995 -1.4492681e-18)
(10.816578 0.29462376 0)
(10.872682 0.25848378 -4.8300094e-20)
(10.928693 0.21147149 -1.4418239e-19)
(10.969319 0.15719286 2.0426069e-19)
(10.04127 0.077099278 2.9374445e-19)
(10.058556 0.10043262 -5.970192e-19)
(10.076027 0.12367207 4.8456868e-18)
(10.098421 0.15081009 3.0058867e-19)
(10.126236 0.17516839 -3.2046317e-19)
(10.161194 0.20120901 -5.0551257e-18)
(10.202973 0.22763407 1.5961208e-19)
(10.245621 0.24798168 2.7399245e-18)
(10.301958 0.26916245 -2.6105471e-18)
(10.352449 0.2860771 -1.6436383e-19)
(10.418657 0.29403042 0)
(10.481314 0.30086113 2.8230127e-18)
(10.548709 0.29674743 -2.8460632e-18)
(10.622461 0.29041955 -1.2540945e-18)
(10.684016 0.27661655 8.9856259e-20)
(10.75612 0.25729379 2.0176864e-18)
(10.810431 0.23263592 -6.3129153e-19)
(10.87111 0.19478866 -6.286473e-20)
(10.909648 0.15511698 -1.0424574e-20)
(10.017269 0.051686639 0)
(10.031607 0.065616942 2.6196327e-19)
(10.043391 0.081701933 4.249391e-18)
(10.066093 0.10106728 -4.7164602e-18)
(10.093385 0.12187558 4.4976601e-18)
(10.130497 0.14383738 -4.4210541e-18)
(10.171691 0.16496187 1.3961069e-19)
(10.220199 0.18427743 -1.4084779e-19)
(10.271305 0.20149641 2.1284197e-18)
(10.328783 0.2153437 -2.1518046e-18)
(10.39416 0.22392599 2.1568637e-18)
(10.45811 0.22705171 -2.3937363e-18)
(10.528956 0.2232856 0)
(10.592018 0.21341237 1.1634239e-18)
(10.659267 0.19886729 -1.3160809e-18)
(10.719928 0.17897523 5.8286948e-19)
(10.776875 0.15314727 -5.4838439e-19)
(10.82892 0.1224666 -2.5453554e-19)
(10.868996 0.086308521 2.952193e-19)
(10.019681 0.026043631 -4.378068e-21)
(10.03157 0.033152403 -7.3519092e-18)
(10.043767 0.043175943 1.1640505e-19)
(10.057793 0.056002727 -5.5609817e-23)
(10.077258 0.068593845 1.1925757e-19)
(10.102398 0.089509618 0)
(10.134126 0.10555866 3.8952276e-18)
(10.177437 0.12584264 -4.0625347e-18)
(10.21952 0.14129663 1.2387168e-19)
(10.275606 0.15697494 -1.9322044e-18)
(10.333364 0.16921523 4.0811702e-18)
(10.398313 0.17834586 -4.0366038e-18)
(10.47075 0.1834583 2.029021e-18)
(10.539238 0.18287088 0)
(10.610814 0.17875516 -9.8137617e-19)
(10.674351 0.16898413 1.0173035e-18)
(10.733991 0.15433269 -1.5804434e-20)
(10.787263 0.13107508 2.339223e-23)
(10.829192 0.10569212 -3.9331813e-21)
(10.006288 0.011787214 6.403587e-18)
(10.012766 0.017132266 -6.4340273e-18)
(10.022454 0.023486025 6.4182833e-18)
(10.036798 0.028235888 1.0302514e-19)
(10.054874 0.034530273 0)
(10.079078 0.04255576 0)
(10.112658 0.050187178 -5.3038388e-20)
(10.15293 0.058445035 -3.3705037e-18)
(10.201994 0.065183587 3.5116712e-18)
(10.25868 0.070798044 3.4415127e-18)
(10.318959 0.075640314 -1.6728327e-18)
(10.387059 0.076234073 -1.8379486e-18)
(10.455164 0.074253175 0)
(10.525852 0.070194307 2.7540086e-20)
(10.595895 0.064803197 2.7505272e-20)
(10.658901 0.057280644 8.6451632e-19)
(10.717964 0.04661052 -8.9457129e-19)
(10.765797 0.032198923 1.9842981e-19)
(10.805914 0.015948045 -2.1879162e-19)
(10.005311 0.0024071749 -4.3098248e-20)
(10.009462 0.0040621667 5.5676024e-18)
(10.016753 0.0070292957 -3.1041723e-21)
(10.027623 0.011324232 -4.4300948e-21)
(10.042853 0.016358907 -5.7618018e-18)
(10.0639 0.021888701 0)
(10.092068 0.027715182 2.8849749e-18)
(10.128054 0.033485297 -2.912938e-18)
(10.171961 0.038942728 -4.6433725e-20)
(10.223289 0.043670088 -2.3343934e-20)
(10.2818 0.047582513 -2.3446209e-20)
(10.345222 0.051419099 2.3530382e-20)
(10.409225 0.056168513 0)
(10.475385 0.061963 1.4928107e-18)
(10.542182 0.065045756 -1.5286897e-18)
(10.606289 0.069839313 -7.4949687e-19)
(10.680625 0.070670077 7.6371811e-19)
(10.725533 0.06057286 3.8545949e-19)
(10.783803 0.062225033 -3.7917643e-19)
(12.626901 0.70494605 -1.5457339e-19)
(12.636657 0.57500832 -6.191315e-19)
(12.683614 0.44452526 6.0317777e-19)
(12.673982 0.32894879 0)
(12.683887 0.20750166 -1.1361876e-18)
(12.660512 0.10520156 -2.1892391e-18)
(12.660475 0.010032725 0)
(12.638831 -0.075721703 -1.6936826e-20)
(12.613303 -0.16820791 3.7143471e-18)
(12.592843 -0.24025034 1.7643218e-18)
(12.561967 -0.31906694 -1.645817e-18)
(12.548073 -0.3717192 3.1334112e-18)
(12.53393 -0.42551429 -2.9212759e-18)
(12.53031 -0.46045888 0)
(12.53708 -0.48980127 1.311291e-18)
(12.561241 -0.49928055 -1.232919e-18)
(12.604018 -0.49533939 -2.3571602e-18)
(12.668804 -0.47509832 2.2282968e-18)
(12.71884 -0.43248198 -1.0674771e-18)
(12.499829 0.67311265 -1.3345542e-19)
(12.551689 0.52403972 7.9798715e-19)
(12.554218 0.38334273 -5.2224821e-19)
(12.574714 0.25720258 0)
(12.591597 0.14291515 -9.9204443e-19)
(12.557906 0.024963641 2.8499235e-18)
(12.586565 -0.066739903 0)
(12.549996 -0.1551759 0)
(12.566459 -0.23168739 0)
(12.551827 -0.2950663 0)
(12.539502 -0.36135076 2.930196e-18)
(12.525462 -0.40431695 -4.1513767e-18)
(12.520864 -0.45653513 -3.9496994e-18)
(12.51485 -0.48746961 2.4642861e-18)
(12.528839 -0.51764967 -2.3365576e-18)
(12.558402 -0.53385188 2.2130193e-18)
(12.625567 -0.54052373 5.9200849e-21)
(12.717063 -0.54233299 -2.0008149e-18)
(12.828717 -0.55762911 1.8937842e-18)
(12.424216 0.68478442 0)
(12.473469 0.54164755 -4.6198312e-19)
(12.463516 0.39297684 -9.0774563e-19)
(12.503624 0.26705881 -4.3581904e-21)
(12.489239 0.14225697 -6.3286978e-21)
(12.485206 0.017746458 1.6763263e-18)
(12.481193 -0.072804064 -3.1963678e-18)
(12.443595 -0.19274829 1.5232149e-18)
(12.461628 -0.25216178 1.2770887e-20)
(12.437299 -0.3461769 0)
(12.455482 -0.3988277 3.9603482e-18)
(12.452749 -0.4711911 8.9717543e-21)
(12.470771 -0.51367085 2.3685063e-18)
(12.487577 -0.56291361 2.2476139e-18)
(12.537099 -0.59960119 3.1800102e-18)
(12.568188 -0.63337684 -3.9913661e-18)
(12.663405 -0.67346033 -6.4236129e-21)
(12.742187 -0.70564346 3.5840202e-18)
(12.877157 -0.80899139 1.6856948e-18)
(12.359448 0.63106648 3.9999533e-19)
(12.390279 0.48375758 -7.9758916e-19)
(12.40551 0.33774451 1.1759332e-18)
(12.417999 0.20693039 0)
(12.414335 0.082447854 2.2453225e-18)
(12.404171 -0.035296457 -3.6212255e-18)
(12.394107 -0.14288616 2.7976041e-18)
(12.366929 -0.24053701 -8.5177898e-22)
(12.381379 -0.32032554 1.138989e-20)
(12.336902 -0.40352715 -1.2330898e-18)
(12.380253 -0.48073112 0)
(12.357012 -0.53221691 -1.1081398e-18)
(12.384034 -0.60843887 1.0635833e-18)
(12.42321 -0.65293765 -1.9975903e-18)
(12.458319 -0.73797176 0)
(12.555521 -0.78102791 0)
(12.623944 -0.88407266 -1.6977419e-18)
(12.710824 -0.96836678 0)
(12.845647 -1.1071204 1.5070142e-18)
(12.298617 0.63043998 3.4520561e-19)
(12.337716 0.49033197 -3.4308218e-19)
(12.36112 0.33137142 2.933267e-21)
(12.368613 0.21319212 -6.6617817e-19)
(12.364562 0.07110908 6.430262e-19)
(12.360718 -0.036588319 -1.003765e-22)
(12.339305 -0.15728923 -1.2175275e-18)
(12.334895 -0.24726628 0)
(12.314125 -0.33878211 -2.261891e-18)
(12.306979 -0.42261722 1.0781328e-18)
(12.308843 -0.49687933 0)
(12.330071 -0.56441466 0)
(12.324117 -0.6597235 -1.8699181e-18)
(12.400033 -0.71870872 -1.7771684e-18)
(12.399927 -0.83741924 1.681483e-18)
(12.526181 -0.91492651 3.1839404e-18)
(12.53258 -1.0677895 1.498849e-18)
(12.688527 -1.1962231 -1.4311946e-18)
(12.676939 -1.4272015 8.9912827e-21)
(12.189345 0.57314147 0)
(12.252356 0.44930538 2.9762206e-19)
(12.257223 0.27974901 -1.4654311e-18)
(12.283279 0.16331453 5.7611879e-19)
(12.264821 0.0091745138 1.6933835e-18)
(12.272704 -0.086628818 -1.1039402e-18)
(12.236002 -0.22257415 -2.1418225e-18)
(12.251908 -0.29338391 2.0508788e-18)
(12.210304 -0.40975858 -1.0034641e-18)
(12.230094 -0.47385931 1.8976144e-18)
(12.211987 -0.5777239 0)
(12.257906 -0.64546435 0)
(12.226691 -0.75277706 -1.6559995e-18)
(12.31328 -0.84789153 4.7200001e-18)
(12.275749 -0.97556696 -5.9583612e-18)
(12.396183 -1.1035727 2.824735e-18)
(12.345723 -1.2731205 -5.3543453e-18)
(12.476482 -1.4454555 1.2664757e-18)
(12.389735 -1.7198451 2.3921171e-18)
(12.124707 0.57151165 6.4515421e-20)
(12.212085 0.42434974 2.5763527e-19)
(12.180903 0.27048002 -5.0590947e-19)
(12.237345 0.14146703 0)
(12.197008 0.0021524323 -9.8237766e-19)
(12.224677 -0.11234819 2.8711241e-18)
(12.18254 -0.23567055 -1.8531168e-18)
(12.200488 -0.32129074 9.0368873e-19)
(12.151123 -0.4375783 -1.7447564e-18)
(12.185664 -0.51374205 5.020315e-18)
(12.145867 -0.62883658 -3.1985727e-18)
(12.197752 -0.71504489 0)
(12.157041 -0.84477201 1.4611009e-18)
(12.221771 -0.95669248 2.7869129e-18)
(12.166175 -1.1104047 -3.9729016e-18)
(12.244698 -1.2679523 3.7684711e-18)
(12.14987 -1.450424 -3.5746818e-18)
(12.211165 -1.6550991 -2.2447699e-18)
(12.037301 -1.9130554 -1.0519091e-18)
(12.015045 0.53992287 1.6665377e-19)
(12.092523 0.37634515 2.2146938e-19)
(12.073253 0.23782146 -4.3723104e-19)
(12.151618 0.08366778 0)
(12.087318 -0.041642052 1.6965193e-18)
(12.149466 -0.17546031 -8.325793e-19)
(12.066997 -0.2755016 0)
(12.114814 -0.38807409 -1.5711446e-18)
(12.040309 -0.49155483 7.6206609e-19)
(12.092319 -0.59579028 0)
(12.028039 -0.70878279 -1.4111844e-18)
(12.083649 -0.82306591 1.3519644e-18)
(12.013909 -0.95503864 1.2920701e-18)
(12.063665 -1.0912197 -2.4616057e-18)
(11.968969 -1.255483 2.3456313e-18)
(11.992784 -1.4182253 -1.1155514e-18)
(11.85357 -1.6150905 -1.0648882e-18)
(11.83312 -1.7919912 -1.012736e-18)
(11.603169 -2.0374171 -9.6562083e-19)
(12.000372 0.51335077 3.8249895e-19)
(12.019821 0.3465425 -1.9005464e-19)
(12.057646 0.21779893 0)
(12.060411 0.053537394 0)
(12.057625 -0.059380012 -1.4691423e-18)
(12.058809 -0.20923645 1.4411105e-18)
(12.025658 -0.29569956 0)
(12.040966 -0.44040967 6.8299696e-19)
(11.981613 -0.52459357 -6.6218297e-19)
(12.011111 -0.66633737 0)
(11.923707 -0.76722464 1.2320535e-18)
(11.971191 -0.91392747 3.5591286e-21)
(11.864832 -1.0303737 3.0720745e-21)
(11.886006 -1.2056397 0)
(11.756251 -1.3453547 -4.1566517e-18)
(11.737188 -1.524046 3.9687314e-18)
(11.536463 -1.6833019 4.7362237e-18)
(11.46 -1.8454948 -6.3441445e-18)
(11.200053 -2.0158364 4.3260391e-18)
(11.898554 0.48228266 0)
(11.897382 0.30743795 1.1743052e-21)
(11.976963 0.18229563 0)
(11.9452 0.0058602906 0)
(11.977677 -0.097746529 6.3384982e-19)
(11.93294 -0.25906956 3.7886149e-21)
(11.944187 -0.34325462 -6.1304496e-19)
(11.912495 -0.50048486 -1.7930258e-18)
(11.899824 -0.58119906 2.3101937e-18)
(11.867779 -0.74461724 0)
(11.824117 -0.82661278 -1.0835094e-18)
(11.792811 -1.0075811 -6.2518903e-18)
(11.699321 -1.1056981 3.0014364e-18)
(11.66304 -1.2990041 0)
(11.48966 -1.4055233 -3.6839062e-18)
(11.427203 -1.5857623 4.4121173e-18)
(11.200957 -1.6774461 -3.3857532e-18)
(11.084625 -1.8249124 4.0529989e-18)
(10.779783 -1.8930439 0)
(11.846331 0.43621548 -2.8473796e-19)
(11.840702 0.28351312 1.4256397e-19)
(11.930795 0.14767555 0)
(11.892734 -0.016531933 -1.1180845e-18)
(11.931514 -0.13368326 1.6501283e-18)
(11.870737 -0.29447485 -5.39807e-19)
(11.886747 -0.39087346 -1.5988769e-18)
(11.828878 -0.55000626 3.6287536e-18)
(11.811798 -0.63558692 -2.0126607e-18)
(11.746544 -0.8000746 0)
(11.699192 -0.88571429 9.4442069e-19)
(11.616448 -1.0780234 5.4829888e-18)
(11.513904 -1.1480847 -3.517721e-18)
(11.402691 -1.3511185 0)
(11.220603 -1.3993793 0)
(11.101669 -1.5680846 -1.5672497e-18)
(10.839068 -1.5940469 7.560836e-19)
(10.687678 -1.7048378 -2.174578e-18)
(10.348634 -1.7025064 0)
(11.739053 0.3893932 -2.4544736e-19)
(11.734342 0.26699911 7.348561e-19)
(11.818534 0.093017049 -7.2956254e-19)
(11.777424 -0.042955593 0)
(11.82636 -0.18023502 1.4338206e-18)
(11.755761 -0.32578013 -1.8702877e-18)
(11.783318 -0.4430086 0)
(11.699463 -0.58198948 9.0218881e-19)
(11.690866 -0.68368003 8.7919552e-19)
(11.587852 -0.83832015 0)
(11.537739 -0.93268514 0)
(11.402875 -1.1037391 -7.9934442e-19)
(11.304057 -1.1657142 -2.3226262e-18)
(11.133304 -1.3375431 -6.4815036e-21)
(10.976382 -1.3350903 2.1568187e-18)
(10.774764 -1.4915599 1.3897117e-18)
(10.563408 -1.4257347 -6.6829106e-19)
(10.376509 -1.5202205 1.2872562e-18)
(10.068549 -1.4136644 0)
(11.681325 0.35708192 0)
(11.693941 0.23878666 -8.446587e-19)
(11.760519 0.042070849 1.6767019e-18)
(11.721264 -0.06582221 -1.2468517e-18)
(11.762389 -0.2379451 0)
(11.671678 -0.35741293 0)
(11.690671 -0.49049669 0)
(11.584091 -0.61470302 -7.7967872e-19)
(11.56666 -0.7308346 -7.6166574e-19)
(11.430112 -0.86615598 0)
(11.368861 -0.96804322 -7.2421798e-19)
(11.186679 -1.1004508 -7.0283743e-19)
(11.078105 -1.1525952 -6.7798673e-19)
(10.849204 -1.2653069 2.6348359e-18)
(10.705035 -1.2482427 -2.5450447e-18)
(10.435197 -1.3368884 -6.1359098e-19)
(10.274973 -1.2229291 3.5746748e-18)
(10.038269 -1.2722834 -5.7449259e-18)
(9.8320275 -1.0714648 3.3332878e-18)
(11.571061 0.33802331 -4.571344e-20)
(11.62297 0.19516692 9.1176842e-20)
(11.654214 0.022445156 9.0410992e-19)
(11.646606 -0.088838909 -2.1552742e-18)
(11.652383 -0.27116468 1.0616071e-18)
(11.585053 -0.36168961 0)
(11.572171 -0.53329227 0)
(11.461962 -0.62230252 6.7869953e-19)
(11.430212 -0.75565836 -2.6570896e-18)
(11.263846 -0.86440803 -6.565648e-19)
(11.183381 -0.95662864 6.2265398e-19)
(10.978634 -1.0458716 3.0646525e-18)
(10.865726 -1.0835441 5.9734105e-19)
(10.626935 -1.1441181 0)
(10.493031 -1.0900594 1.6841481e-18)
(10.222208 -1.1106558 0)
(10.058059 -0.97183234 -3.1691325e-18)
(9.8229512 -0.95800638 9.1728437e-18)
(9.6841874 -0.71417941 -7.8903112e-18)
(11.480223 0.30572587 7.852565e-20)
(11.553255 0.14396208 -7.8116217e-20)
(11.547448 -0.0018076819 0)
(11.568758 -0.14263956 -9.3059431e-19)
(11.531201 -0.29653401 3.0129167e-19)
(11.49025 -0.40186169 1.2090036e-18)
(11.431892 -0.56591776 0)
(11.332936 -0.63105415 -2.9383117e-18)
(11.261043 -0.78530781 1.7224763e-18)
(11.087019 -0.83397334 -1.9349135e-21)
(10.982309 -0.93624979 0)
(10.753399 -0.97893494 0)
(10.630991 -0.99960868 -5.2133634e-19)
(10.385534 -0.98169633 0)
(10.273356 -0.91199838 3.5609077e-21)
(10.0189 -0.85941904 9.6032048e-19)
(9.9264253 -0.70443344 -2.7945478e-18)
(9.703969 -0.63652324 7.2106231e-18)
(9.6310397 -0.35794422 -3.4924032e-18)
(11.421817 0.2798395 2.3662498e-19)
(11.491332 0.1152748 -2.0243852e-19)
(11.488608 -0.014780925 0)
(11.510246 -0.17465819 0)
(11.445734 -0.29781657 0)
(11.42001 -0.42704799 0)
(11.314849 -0.55362247 -2.0687448e-18)
(11.236539 -0.63518116 2.0300098e-18)
(11.114526 -0.75502415 2.499684e-18)
(10.971933 -0.77964592 -9.7651446e-19)
(10.824573 -0.88140529 0)
(10.608857 -0.84678043 3.7520917e-18)
(10.471134 -0.85326441 -6.8538441e-18)
(10.2176 -0.77699578 3.5586332e-18)
(10.115043 -0.70204256 -4.3394977e-18)
(9.8861116 -0.58523731 2.5287407e-18)
(9.8538189 -0.43595043 -8.190409e-19)
(9.668002 -0.3017713 -7.9609811e-19)
(9.6934003 -0.030541512 7.7126902e-19)
(11.335965 0.23599422 2.3269634e-19)
(11.37906 0.081148757 -7.5493587e-19)
(11.386128 -0.045136366 4.6204322e-19)
(11.387038 -0.20342859 -9.1967776e-19)
(11.334875 -0.31087101 9.1007053e-19)
(11.291342 -0.45463442 0)
(11.163645 -0.5467948 -4.4672077e-19)
(11.081533 -0.64150939 1.7626634e-18)
(10.918911 -0.71114267 -1.7290482e-18)
(10.795502 -0.73937564 -4.2453385e-19)
(10.611258 -0.77873076 -3.3407183e-18)
(10.455442 -0.70504276 3.2613807e-18)
(10.295715 -0.69873451 -3.9856856e-19)
(10.113881 -0.56183843 2.3412454e-18)
(10.021904 -0.48597875 -2.2765137e-18)
(9.8431913 -0.31189869 0)
(9.8483793 -0.16775626 -5.7704453e-18)
(9.7150743 0.022841731 6.3026375e-18)
(9.833304 0.28140229 0)
(11.291413 0.20426389 -4.0041462e-19)
(11.321982 0.062142033 4.0010382e-19)
(11.340268 -0.07165199 -7.9597082e-19)