/*--------------------------------*- C++ -*----------------------------------*\
  =========                 |
  \\      /  F ield         | OpenFOAM: The Open Source CFD Toolbox
   \\    /   O peration     | Website:  https://openfoam.org
    \\  /    A nd           | Version:  11
     \\/     M anipulation  |
\*---------------------------------------------------------------------------*/
FoamFile
{
    format      ascii;
    class       volScalarField;
    location    "0.0865";
    object      Ma;
}
// * * * * * * * * * * * * * * * * * * * * * * * * * * * * * * * * * * * * * //

dimensions      [0 0 0 0 0 0 0];

internalField   nonuniform List<scalar> 
880
(
1.443353270571932
1.443353270571932
1.443353270571932
1.443353132321509
1.443353270571932
1.443353270571932
1.443353270571255
1.443349999774832
1.443353270571932
1.443353270571933
1.443353270580286
1.44334266893611
1.443353270571932
1.443353270571932
1.443353270846238
1.443318472456386
1.443353270571932
1.443353270571932
1.443353270571933
1.443353270576295
1.443353270571932
1.443353270571932
1.443353270571935
1.443353270571932
1.44335329355401
1.443353117826571
1.443361283365507
1.443387957619408
1.43728562855581
1.41864236301336
1.406190670537392
1.402646284156885
1.443353253129811
1.443353226325086
1.443353198319824
1.443353239478967
1.443352787214967
1.443352584091982
1.443352543412006
1.4433526106472
1.442996363072713
1.442929324719893
1.442904819115735
1.442852811153987
1.400389019640608
1.397796729792638
1.401361521789062
1.391912748553536
1.411765912717371
1.435046371527902
1.451634414018528
1.455671490367497
1.442550513971384
1.441829337399156
1.442200919826442
1.442972558545448
1.443351154262041
1.443348714952705
1.443347396196774
1.443350393139371
1.44335312200541
1.443352974043621
1.443352867342788
1.443352936127211
1.443353111662498
1.443353236968839
1.443353268036397
1.443353270523661
1.443353437359402
1.443353573284184
1.443353307353854
1.443353271560125
1.443442508441794
1.443466870666518
1.443374080686531
1.443354266671528
1.453059931537698
1.448470735492346
1.444869197241801
1.443530052084691
1.443358657830734
1.443353279349591
1.443353270584044
1.443353270568514
1.443353433375142
1.443353272326531
1.443353270666684
1.443353270581038
1.443359953836781
1.443353213114449
1.443353255065352
1.44335326771747
1.434246073257261
1.443372863222489
1.443356566247015
1.443353303706949
1.443353299982832
1.443353491539475
1.443085370446469
1.324629954820884
1.443353259586166
1.443350127733555
1.441570726421338
1.232607224327744
1.443353047556274
1.44334652025163
1.439908805156032
1.191612266586398
1.443352757848801
1.443344188377939
1.438748633738734
1.185108046993102
1.182197473414346
1.437605201558308
1.443340428605665
1.443352638693721
1.18277451076916
1.436770330063153
1.443338189208561
1.443352233053107
1.171613038748458
1.435144634277923
1.443331052373118
1.443352188115936
1.16318610461673
1.433456394848204
1.443324195379437
1.443351254221331
1.443351228111373
1.443321661326808
1.4314801520556
1.144074168171227
1.443350523670316
1.443306133460141
1.428632612553293
1.150634195831303
1.443349286054375
1.443297475840322
1.428265513463811
1.176953339517371
1.443352627105098
1.443291707607439
1.432093192571533
1.267173311283957
1.443342458268717
1.443375844470956
1.443195183573008
1.427698872311597
1.443347487705663
1.44359021936326
1.447025136760565
1.491312496373559
1.443354936965412
1.443352697111944
1.440879255792376
1.402516359480503
1.44335319732795
1.443241826862597
1.429759915325842
1.254048898571924
1.180101214230489
1.427209302096524
1.443246996126266
1.443353169447822
1.16202673180833
1.425175809738249
1.443197452661357
1.443353020688998
1.182720916830237
1.429855863889834
1.443283131965736
1.443353221347023
1.155993578143733
1.428097932703081
1.443267262752331
1.443353178433666
1.254609806743217
1.43558772833098
1.443319599482083
1.44335322996251
1.35303474482864
1.440760490349653
1.443346409979166
1.443353263417355
1.413599730934517
1.442797628453532
1.44335247442001
1.443353270403741
1.443656826689115
1.443477522458327
1.443354129945301
1.443353271347198
1.396961958293568
1.441694158369596
1.443335474806196
1.443353191313229
1.397502543416148
1.44170547734147
1.443335624218653
1.443353191515828
1.396418799438921
1.441703287958798
1.443335722027505
1.443353191452572
1.392123303476695
1.441701215200939
1.443336251471108
1.443353193379058
1.443656826695448
1.443477522462886
1.443354129952402
1.443353271338729
1.413599730939609
1.442797628459237
1.443352474434348
1.443353270402043
1.353034744826864
1.440760490345702
1.443346409977906
1.443353263416667
1.254609806736886
1.435587728317475
1.443319599480354
1.443353229966323
1.443353169437969
1.443246996101949
1.427209302093768
1.180101214228845
1.443353020678668
1.443197452659982
1.425175809732647
1.162026731803237
1.44335322135513
1.443283131957254
1.429855863888705
1.182720916820935
1.443353178433186
1.443267262748111
1.428097932691849
1.155993578145974
1.254048898579925
1.429759915335836
1.443241826880732
1.443353197336665
1.402516359488927
1.440879255801273
1.443352697125261
1.443354936981559
1.491312496373959
1.447025136770502
1.443590219363231
1.443347487712948
1.427698872309498
1.443195183576757
1.443375844475395
1.443342458249576
1.443351228117523
1.443321661315203
1.431480152051111
1.144074168164348
1.443350523669282
1.443306133452133
1.428632612548921
1.150634195830655
1.44334928604406
1.443297475839922
1.428265513471456
1.176953339517537
1.443352627088096
1.443291707607259
1.432093192577084
1.267173311285037
1.163186104608043
1.43345639485515
1.443324195363496
1.443351254221677
1.171613038739399
1.435144634247704
1.443331052372038
1.443352188112394
1.182774510766419
1.436770330060004
1.443338189188834
1.4433522330574
1.182197473408022
1.437605201581644
1.443340428615762
1.443352638696875
1.443353299974879
1.443353491530623
1.443085370449158
1.324629954827695
1.443353259592877
1.443350127744603
1.441570726411953
1.23260722433589
1.443353047562207
1.443346520254144
1.439908805156494
1.191612266574843
1.443352757855761
1.443344188369024
1.43874863373322
1.185108047000746
1.443353303707655
1.443353267713617
1.443353270581153
1.443353270569591
1.443356566256517
1.443353255065796
1.443353270658129
1.443353270587006
1.443372863219011
1.443353213112518
1.443353272332419
1.443353279352965
1.434246073256993
1.443359953835806
1.443353433374629
1.4433586578304
1.44335327052708
1.443353271560242
1.443354266666332
1.443530052080549
1.443353268039333
1.443353307356888
1.443374080666266
1.444869197242597
1.443353236963545
1.443353573283878
1.443466870678536
1.448470735492256
1.443353111659881
1.44335343736098
1.443442508429967
1.453059931543359
1.443353122017595
1.443351154271545
1.442550513970779
1.411765912718063
1.443352974054149
1.443348714952824
1.441829337401542
1.435046371534355
1.443352867347171
1.443347396185335
1.442200919829545
1.451634414021991
1.443352936130894
1.443350393130973
1.442972558547979
1.455671490372782
1.391912748550484
1.442852811131212
1.443352610653645
1.443353239484558
1.401361521788505
1.442904819091559
1.443352543414668
1.443353198316994
1.397796729781975
1.442929324720003
1.443352584090059
1.44335322632831
1.400389019643463
1.442996363126383
1.443352787217229
1.443353253126537
1.402646284153537
1.443387957596381
1.443353270571932
1.443353270575527
1.406190670539011
1.443361283385355
1.443353270571932
1.443353270571933
1.418642363008735
1.443353117829948
1.443353270571932
1.443353270571933
1.43728562855382
1.443353293555118
1.443353270571932
1.443353270571934
1.443353270571932
1.443353270571933
1.443353270571932
1.443353132356799
1.443353270571931
1.443353270571932
1.443353270571347
1.443349999799383
1.443353270571932
1.443353270571932
1.443353270579688
1.443342668945192
1.443353270571932
1.443353270571932
1.443353270850025
1.443318472463676
1.443352998469759
1.443351129920035
1.443338224391541
1.442521679054124
1.443351129885434
1.443353079158773
1.443366197288837
1.436584528876607
1.443338224425047
1.443366197369861
1.440878113222577
1.395924276505077
1.442521678975612
1.4365845289323
1.39592427664017
1.223562030301055
1.053815902343165
1.146152729180677
1.299749462488725
1.383545008183497
1.105314178886653
1.130071046973881
1.193197177300409
1.264448796240353
1.166566908456824
1.183965821285057
1.225245915866275
1.270525535303293
1.188695739608831
1.238933449706555
1.264432368643848
1.288050240507652
1.292382237815899
1.297594685995513
1.305513000032706
1.29366442958768
1.287115049625524
1.298816141774241
1.30546085511339
1.315798726185836
1.276587068295156
1.295594431065749
1.299785503980649
1.397202772033612
1.202869260071116
1.219911859086065
1.226023095167925
1.512076363805196
1.415032337693944
1.53274233635638
1.526959651011899
1.490334427834473
1.508046307354706
1.61414443852605
1.564572350856527
1.516785717735991
1.68741186014151
1.703742583449078
1.586599996327563
1.526236890918679
1.276552180256484
1.264354234897659
1.258469184092524
1.317318196824735
1.472264245433227
1.458159461406657
1.448915166986127
1.444491330540377
1.48770173972465
1.469390445100954
1.454773789101675
1.446068409122163
1.497804969237992
1.478143674360662
1.460736926784283
1.448095617790159
1.383613334021774
1.414680343458718
1.430380836801204
1.440070525131045
1.443437769835876
1.443354841500056
1.443357492464764
1.300973132807924
1.443594681731948
1.443358581200711
1.443354812017191
1.172763692128644
1.443843014775433
1.443366248336303
1.443353707840976
1.054041971726017
1.442973173230865
1.443346595963956
1.443354299647463
0.8428851601583156
0.8784503165621427
0.9116310220866284
0.9419831537204966
0.9692406614027772
0.7468430297568561
0.8587255518220143
0.9318871167731081
0.9679750197413639
0.6264515214958565
0.7911994526800304
0.9030203104781136
0.9579056104249026
0.4841732035273891
0.686124151487605
0.7794373376562815
0.8616886447067019
0.9856582900006414
0.9938882409608464
0.9937590526612445
0.9922096642127132
0.988484912384984
0.999522944748192
1.00362602747493
1.003552403592929
0.9843318858123572
0.9967422162140726
1.001463130165713
1.00234929791786
0.9064016023595649
0.9272636603100981
0.9354853398061816
0.9326306780465007
0.9903316655817989
1.004796478155274
1.044087640343189
1.136948874581069
1.004079873459552
1.017542447139368
1.065892987802624
1.190356269986801
1.004120596748928
1.017510179180534
1.093798779697718
1.497930992883832
0.9434415944322753
0.9600442664014248
1.092999247918208
2.057089927114996
1.364833096466784
1.546063873218769
0.6011180851248543
0.2665181475058748
1.439896955811388
1.348867821096968
0.5039619558267325
0.126187766810606
1.501779352098458
0.9978021403790248
0.3235230457263532
0.124224319574623
1.16572932559941
0.4353823575853251
0.2101170137490134
0.1152367382316376
0.1389647616108007
0.1262775024288918
0.1492579621410073
0.1299209284152701
0.06791363068096808
0.1388952633550547
0.1885310597892981
0.2682479251988186
0.04080548316430561
0.1630938187854042
0.2646502763503054
0.3988732651098409
0.02317409546574137
0.151789414248258
0.2821562945070127
0.4142343459928885
1.002671044802338
1.306581260306179
1.461467764939394
1.482511503523231
0.6095430975783286
1.060793906079248
1.340038488018198
1.422342467167199
0.1248836865211573
0.5467529040521181
0.9746312549336428
1.409021364764772
0.1258940536596243
0.2436700622731237
0.6947231085916242
1.587210221843941
1.678287418339125
2.012717783462314
2.685692931946255
1.989537839172765
1.699974173223886
2.062574755141195
2.835346251787155
2.436222721827565
1.786917015193957
2.116795921177062
2.706666106950812
1.733252874334822
1.42846653944956
1.63874333566519
1.778577810341346
0.6918149547807122
0.1402056244358592
0.1906473412125995
0.281845903117295
0.2400395759821485
0.6611705231185602
0.07231581861841108
0.2833244883206045
0.2655945421088373
1.023617433151213
0.3509977252320325
0.05439759399756097
0.04379068942592716
1.10573553052025
0.703820459129764
0.4364874997846966
0.4429106184177283
0.2400395759819453
0.2655945421087232
0.04379068942474006
0.4429106184168655
0.2818459031170772
0.283324488321359
0.05439759399459393
0.4364874997832839
0.1906473412125236
0.0723158186192514
0.3509977252295896
0.7038204591281289
0.140205624436973
0.6611705231155077
1.023617433155905
1.105735530524777
1.989537839182646
2.685692931952623
2.012717783472454
1.678287418349194
2.436222721827529
2.83534625178469
2.062574755140698
1.699974173230467
1.733252874329952
2.706666106953885
2.116795921181974
1.786917015197397
0.691814954780151
1.778577810341557
1.638743335665712
1.428466539451288
1.587210221847172
0.6947231085915202
0.2436700622734043
0.1258940536669961
1.409021364768499
0.9746312549355848
0.5467529040495641
0.1248836865150709
1.422342467171708
1.340038488022884
1.060793906076457
0.6095430975690399
1.482511503528595
1.461467764943708
1.306581260305201
1.002671044796444
0.1299209284108139
0.1492579621332973
0.1262775024271964
0.1389647616107389
0.2682479252041385
0.1885310597844133
0.1388952633563336
0.06791363067804329
0.3988732651139912
0.264650276346906
0.1630938187843235
0.04080548316811466
0.4142343459949578
0.2821562945052496
0.1517894142484142
0.02317409546796153
0.2665181475093424
0.6011180851287524
1.546063873216404
1.364833096466928
0.1261877668093326
0.5039619558310425
1.348867821098465
1.439896955817163
0.1242243195739805
0.3235230457270625
0.9978021403780553
1.501779352102046
0.1152367382254825
0.2101170137469371
0.4353823575887479
1.165729325604222
1.136948874581686
1.044087640341705
1.004796478153567
0.990331665576208
1.190356269988241
1.065892987802083
1.017542447138032
1.00407987345545
1.497930992887221
1.093798779699493
1.017510179179588
1.00412059674685
2.057089927120137
1.092999247922747
0.960044266408024
0.9434415944384547
0.9922096642037833
0.9937590526566288
0.9938882409623414
0.9856582899970054
1.003552403588208
1.003626027471312
0.9995229447470353
0.9884849123860501
1.00234929791609
1.001463130163259
0.9967422162133074
0.9843318858160534
0.9326306780505516
0.9354853398076014
0.9272636603112164
0.9064016023633981
0.9692406613976889
0.9419831537185456
0.9116310220914702
0.8784503165618929
0.9679750197403131
0.9318871167701406
0.8587255518248568
0.7468430297565563
0.957905610426293
0.9030203104757787
0.7911994526806847
0.6264515214961263
0.8616886446986532
0.7794373376582092
0.6861241514882175
0.4841732035249962
1.300973132813295
1.443357492477976
1.443354841500049
1.443437769833188
1.172763692133039
1.443354812023631
1.443358581201845
1.443594681728143
1.054041971726283
1.443353707842798
1.443366248338843
1.443843014769564
0.8428851601591297
1.44335429964722
1.443346595965147
1.442973173238539
1.444491330537906
1.448915166990965
1.458159461406765
1.472264245442659
1.446068409119115
1.454773789103108
1.469390445102452
1.487701739730273
1.448095617787542
1.460736926783189
1.478143674363339
1.497804969240716
1.440070525125439
1.430380836804877
1.41468034346228
1.383613334010155
1.490334427838243
1.526959651013001
1.532742336355766
1.415032337693341
1.516785717741016
1.564572350857515
1.614144438529675
1.508046307355819
1.526236890925079
1.586599996329358
1.703742583457154
1.687411860143028
1.317318196828664
1.258469184092595
1.264354234901216
1.276552180257143
1.293664429591511
1.305513000039865
1.297594685991379
1.292382237806279
1.315798726191053
1.305460855114222
1.298816141770549
1.287115049617755
1.397202772041151
1.29978550398197
1.295594431066377
1.276587068290038
1.512076363817138
1.226023095179504
1.219911859091309
1.202869260070725
1.288050240508756
1.270525535305972
1.264448796240759
1.383545008198857
1.264432368641936
1.225245915870283
1.193197177299544
1.299749462532252
1.23893344970447
1.183965821294289
1.130071046975598
1.14615272914855
1.188695739617194
1.166566908462988
1.105314178889272
1.053815902346562
1.439173716475567
1.44314447838058
1.443351635417202
1.443353265453649
1.436270803412999
1.442948608811528
1.443349662592891
1.443353255670013
1.413785284993056
1.442480710500928
1.443345719878471
1.443353238045897
1.387496206730437
1.441781611710674
1.443339050479731
1.443353208534327
1.443353191307654
1.443335474807728
1.441694158369665
1.396961958282534
1.443353191511361
1.443335624212334
1.441705477350326
1.397502543416908
1.443353191458181
1.443335722019481
1.441703287965381
1.396418799448765
1.443353193396559
1.443336251462179
1.441701215224893
1.392123303484954
1.443353208537955
1.44335323805028
1.443353255690798
1.443353265474438
1.44333905047737
1.443345719878938
1.443349662597219
1.443351635427508
1.441781611709436
1.442480710504728
1.442948608803607
1.443144478388685
1.387496206738811
1.413785285000013
1.436270803413445
1.439173716475884
)
;

boundaryField
{
    back
    {
        type            empty;
    }
    inlet
    {
        type            calculated;
        value           nonuniform List<scalar> 
16
(
1.443353270571932
1.443353270571932
1.443353270571932
1.443353270571932
1.443353270571932
1.443353270571932
1.443353270571932
1.443353270570917
1.44335327057065
1.443353270571932
1.443353270571932
1.443353270571933
1.443353270571932
1.443353270571932
1.443353270571932
1.443353270571932
)
;
    }
    front
    {
        type            empty;
    }
    top
    {
        type            calculated;
        value           uniform 0;
    }
    outlet
    {
        type            calculated;
        value           nonuniform List<scalar> 
16
(
1.443353161916919
1.443353162127735
1.443353161981566
1.443353164135565
1.443353262979732
1.443353249670337
1.443353225584674
1.443353185051494
1.443353161913394
1.443353162124731
1.443353161984865
1.443353164146579
1.443353185053623
1.443353225586851
1.443353249683009
1.443353262993012
)
;
    }
    bottom
    {
        type            calculated;
        value           uniform 0;
    }
    wall
    {
        type            calculated;
        value           uniform 0;
    }
}


// ************************************************************************* //
