/*--------------------------------*- C++ -*----------------------------------*\
  =========                 |
  \\      /  F ield         | OpenFOAM: The Open Source CFD Toolbox
   \\    /   O peration     | Website:  https://openfoam.org
    \\  /    A nd           | Version:  11
     \\/     M anipulation  |
\*---------------------------------------------------------------------------*/
FoamFile
{
    format      ascii;
    class       volScalarField;
    location    "0.0865";
    object      rho;
}
// * * * * * * * * * * * * * * * * * * * * * * * * * * * * * * * * * * * * * //

dimensions      [0 0 0 0 0 0 0];

internalField   nonuniform List<scalar> 
880
(
0.3733250556165154
0.3733250556165154
0.3733250556165154
0.3733252502780106
0.3733250556165154
0.3733250556165154
0.3733250556165152
0.3733266306781282
0.3733250556165154
0.3733250556165153
0.3733250556173331
0.3733339077049825
0.3733250556165154
0.3733250556165154
0.3733250556357983
0.3733372175412596
0.3733250556165154
0.3733250556165155
0.3733250556165152
0.373325055617
0.3733250556165154
0.3733250556165154
0.3733250556165151
0.3733250556165154
0.3733250554907787
0.3733250495181296
0.3733661744598163
0.3732308382100435
0.3752810276066791
0.381356417770132
0.3864180579572979
0.389041161061703
0.3733250620549186
0.3733250699745528
0.3733250721269735
0.3733250632510504
0.3733252207729233
0.3733254289101117
0.3733256728020798
0.3733253969941866
0.3734464643813044
0.3735192716625311
0.3735988093672636
0.3735638819599857
0.3914308437600993
0.3943752605147458
0.3979448357041889
0.3999157798878969
0.3974041771733443
0.3918211284147947
0.3874741478638102
0.3841199244001203
0.3737616710156731
0.3741655494631549
0.3744007989785116
0.3741764271575315
0.3733263143196019
0.3733280228408446
0.3733298569395831
0.3733290343982343
0.3733251020259351
0.3733251357951813
0.3733251555670887
0.3733251286598948
0.3733250810947405
0.3733250590231708
0.3733250557313258
0.3733250556169592
0.373326943435954
0.3733254896751228
0.3733250939537472
0.3733250565449742
0.3737742822134289
0.3734564506260336
0.373343278908086
0.3733258486173383
0.3805685448351009
0.3769388217542909
0.3743451660505074
0.3734398250377096
0.3733285009801524
0.3733250619383083
0.3733250556048695
0.3733250556165151
0.3733253731365208
0.3733250590819044
0.3733250555539005
0.3733250556116576
0.3733200437129712
0.3733248947705612
0.3733250616739084
0.3733250567744661
0.3766103489533803
0.3733232600040282
0.3733238058481828
0.3733250277159082
0.3733250074971338
0.3733245284330134
0.3734177092446384
0.4066459665812222
0.3733250500636068
0.3733255042640378
0.3737757756714022
0.4337822916917523
0.3733251310842145
0.3733271597417674
0.3742209098879256
0.4454302349445875
0.3733252014005997
0.373329496808869
0.3748155023289491
0.4587335409331542
0.4692395664681003
0.3751644739658846
0.3733305394338562
0.3733252456844714
0.4810366069754661
0.375789115837382
0.3733336361120496
0.373325334069012
0.4873449132030437
0.3760847795142902
0.3733345615103705
0.3733253821051538
0.4969594157743463
0.376926626579338
0.3733406393664818
0.3733256085220473
0.3733256177549717
0.3733410674665622
0.3775328446839007
0.5084001428201922
0.3733258319775676
0.3733472742281845
0.3785802876989984
0.5155797899247931
0.3733262174684194
0.3733549146502592
0.3790975554779359
0.5041836454845158
0.3733251794542957
0.3733352753418737
0.3764602981614243
0.4592007697404196
0.3733270975082996
0.3734058155847663
0.3772589789379203
0.3943853774159622
0.3733254727463629
0.3733800429198472
0.3731991263441208
0.3196236640751667
0.3733248129256859
0.3732850617535643
0.3694596207394614
0.2739751726748529
0.3733247198896838
0.3732114417139483
0.3647510017979351
0.2417014797912908
0.2356213887020654
0.364323757412047
0.3732357289932475
0.3733247928001714
0.230221391123084
0.3640334688803922
0.3732355507683601
0.3733248170530046
0.2346945919014954
0.3662088919403603
0.3732786154029206
0.3733249549408672
0.2292404282474063
0.365781231065038
0.3732757561208631
0.3733249482925229
0.2700799360284244
0.3701168069454466
0.373309872363826
0.3733250210409273
0.3125121021403781
0.3723723768520132
0.3733218846124582
0.3733250494445561
0.3397195008160288
0.373030389511021
0.3733242277171684
0.3733250542059047
0.3576660780466601
0.373220866524333
0.3733247288308701
0.3733250545528877
0.3460875577267858
0.37239995043792
0.3733157143718088
0.3733250132371526
0.3464467455105466
0.3724200351844091
0.3733157922255162
0.3733250133212859
0.3475119842996186
0.3724393068963804
0.3733158329116697
0.3733250132604059
0.3504709380022333
0.3724981836427563
0.3733162207010781
0.3733250146169023
0.3576660780464565
0.3732208665235711
0.3733247288298925
0.3733250545536247
0.3397195008145958
0.3730303895098559
0.3733242277142267
0.373325054206226
0.3125121021394125
0.3723723768522875
0.3733218846120339
0.3733250494449653
0.2700799360292107
0.3701168069474103
0.3733098723638771
0.3733250210402703
0.3733247928007872
0.3732357289969817
0.3643237574135026
0.2356213887017494
0.3733248170544037
0.3732355507686401
0.3640334688807691
0.2302213911235198
0.3733249549391348
0.3732786154048173
0.3662088919400633
0.2346945919022554
0.3733249482931327
0.3732757561209702
0.3657812310682381
0.2292404282462955
0.2417014797892041
0.3647510017967678
0.373211441712881
0.373324719889654
0.2739751726723094
0.3694596207377497
0.3732850617507709
0.3733248129217175
0.3196236640744726
0.373199126341922
0.3733800429200364
0.3733254727454535
0.3943853774164254
0.3772589789373226
0.3734058155838681
0.3733270975114612
0.373325617754048
0.3733410674688963
0.3775328446862677
0.5084001428227689
0.3733258319782498
0.37334727422805
0.3785802876984302
0.5155797899243814
0.3733262174701849
0.3733549146502586
0.3790975554760964
0.5041836454842901
0.3733251794578873
0.3733352753416101
0.3764602981603282
0.4592007697400219
0.4969594157790319
0.3769266265754992
0.3733406393695662
0.3733256085217562
0.4873449132068766
0.3760847795158489
0.3733345615109379
0.373325382105979
0.4810366069733725
0.3757891158462873
0.3733336361138302
0.3733253340683395
0.4692395664689977
0.375164473962703
0.3733305394366918
0.3733252456837917
0.373325007499045
0.3733245284348843
0.3734177092451529
0.4066459665778946
0.3733250500617862
0.3733255042619378
0.373775775670496
0.4337822916930787
0.3733251310830955
0.3733271597425503
0.3742209098922067
0.4454302349438936
0.373325201399364
0.3733294968072834
0.3748155023229106
0.4587335409373998
0.3733250277154025
0.3733250567753109
0.373325055611645
0.3733250556165151
0.3733238058457846
0.373325061673603
0.3733250555559732
0.3733250556041197
0.3733232600045856
0.373324894771583
0.3733250590806899
0.3733250619374526
0.376610348953523
0.3733200437135731
0.373325373136466
0.3733285009799477
0.3733250556156411
0.3733250565449874
0.3733258486177294
0.373439825038301
0.3733250557310652
0.3733250939531554
0.3733432789118483
0.3743451660509776
0.3733250590239635
0.3733254896750369
0.3734564506243375
0.3769388217546792
0.3733250810954546
0.3733269434353226
0.3737742822149134
0.3805685448345387
0.3733251020235357
0.3733263143172751
0.3737616710142448
0.3974041771726365
0.3733251357932909
0.3733280228414992
0.3741655494635093
0.3918211284128128
0.3733251555665468
0.3733298569425986
0.3744007989783898
0.3874741478631726
0.3733251286593344
0.373329034399895
0.3741764271578168
0.3841199243990518
0.3999157798884886
0.3735638819619084
0.373325396992471
0.3733250632497988
0.3979448357041301
0.3735988093699183
0.3733256728016385
0.3733250721272929
0.3943752605173856
0.3735192716615754
0.3733254289108924
0.3733250699741009
0.3914308437599377
0.3734464643807141
0.3733252207718868
0.3733250620555685
0.3890411610621566
0.373230838213924
0.3733250556165154
0.3733250556171086
0.3864180579563662
0.3733661744528577
0.3733250556165154
0.3733250556165154
0.3813564177715033
0.3733250495177038
0.3733250556165154
0.3733250556165153
0.3752810276079926
0.3733250554899089
0.3733250556165154
0.3733250556165151
0.3733250556165154
0.3733250556165154
0.3733250556165154
0.373325250283667
0.3733250556165152
0.3733250556165155
0.3733250556165153
0.3733266306541698
0.3733250556165154
0.3733250556165154
0.3733250556173556
0.3733339076930485
0.3733250556165154
0.3733250556165154
0.3733250556349765
0.3733372175394166
0.3733253240696071
0.3733266908776006
0.3733383262667923
0.3738184243609604
0.3733266909080745
0.3733264838802014
0.3733277413337933
0.3753100143418954
0.3733383262010858
0.3733277411802494
0.3740492489910452
0.3872391176429026
0.3738184243625795
0.3753100143160072
0.3872391178491963
0.4384318571933284
0.5221345949746434
0.462854678013734
0.4324485135575136
0.4001204872253267
0.5097019859149295
0.497189174287448
0.4921783091520691
0.465916196421803
0.5056120806564919
0.5021384905230295
0.5020602524646975
0.4902731297796186
0.5075239295849575
0.5041280638337727
0.5036953380440868
0.49676606852431
0.5019625181186098
0.5054351716778096
0.5082496484776753
0.5152688538224687
0.5074491336498572
0.5116862027919474
0.5145252631393931
0.5249988128254306
0.5079880724499394
0.512526101130825
0.5162714834742996
0.5258095739384976
0.508203882897357
0.5113225151077457
0.5156489584364344
0.5247128660204639
0.4549175386749073
0.3952069113562403
0.3776103293078817
0.377222714633479
0.4255658852163031
0.3736283150504914
0.3720006139817674
0.3764934347146347
0.3964691350304745
0.365057558922021
0.3733163096867364
0.3789659974558705
0.339711050118661
0.3438564353285201
0.3649318941045826
0.3760413886006188
0.3797931543604111
0.3792160295886914
0.3759888475586414
0.3738941220182841
0.379620120692453
0.3788650609912299
0.3761286741648594
0.3740604649389292
0.3809547203673943
0.3798551944402148
0.3768040868555123
0.3743282042020307
0.3793323196768242
0.3788214875104414
0.375503397639101
0.3736446228996637
0.3733700013996933
0.3733260813997862
0.3733221005723522
0.4277644133004488
0.3733983077016871
0.3733268863730134
0.3733239162382216
0.4550032751795597
0.3734351647693603
0.3733277924963047
0.3733252656559291
0.4678453493247278
0.3733163401693718
0.3733227021057143
0.3733255535074439
0.4705111570227297
0.6605397814993693
0.6769476350257865
0.6756519702015263
0.6803499442889501
0.7183980312611562
0.7081983616791206
0.6986324282878421
0.7027659595909824
0.7078103057502518
0.6944406997621873
0.7061977748092392
0.7134846607395484
0.7354955662403304
0.710360441906869
0.7115284536041484
0.7185304187783088
0.6890810167076077
0.7016159708890138
0.704440109578341
0.7074935756501898
0.7105118599873744
0.7225384660849977
0.726001683321539
0.7274901184701595
0.7239041120840639
0.7369059782271592
0.742005567938375
0.743152068146414
0.7293051274458816
0.7421545928650959
0.7478443435500557
0.7489962028123304
0.7070404401405028
0.6980207276519599
0.6644225978011538
0.5782368075449583
0.7247420294643088
0.7136222850213135
0.677346322258995
0.600967336936278
0.7409561181240383
0.7277280655781397
0.6853538572353797
0.6267050253407722
0.7469600264059895
0.7345787449325017
0.6873868377006254
0.7279515414396126
0.396100540864944
0.110226415739995
0.04996510641362493
0.05224041530104764
0.3217810551083504
0.07380515872234968
0.05569960746636816
0.05977515394390451
0.2419826242890505
0.05400647898871094
0.05893575208533249
0.07564842078217267
0.1751868003964086
0.03826836693625908
0.07166753255572048
0.08824580349210201
0.05832022284485865
0.06364478944007057
0.06612778497359796
0.05624362319058186
0.06378067897772964
0.06766926105871178
0.06441687129462081
0.04809165212475072
0.08149109772266679
0.08305886936857521
0.07250592899748368
0.05316063494038761
0.0952322381777239
0.09318170227294069
0.07537789741453108
0.06011694295185735
0.1241119782581964
0.1970907022417179
0.2394128792442886
0.2860098542920509
0.1091588674175172
0.1720558856536943
0.2118102154583098
0.2709314566285992
0.1042475193313031
0.1637186022196154
0.2081778998687151
0.251231677636964
0.08608038192268594
0.1393903555137736
0.1889912284760517
0.2391678595024185
0.2238472169217008
0.1491811161242681
0.08835718878578719
0.1095481259459531
0.1953971118111918
0.1259035852343865
0.06677455656589315
0.05684671185997685
0.1581450642988976
0.09168351998058162
0.0474249200762341
0.04638077412123372
0.1152616595190331
0.05906636214942224
0.03965030814972585
0.04610891770893005
0.06616697765989833
0.1148138787550921
0.1607227959306987
0.1916530024014765
0.06529000024092103
0.1094461033377124
0.1522358979914448
0.1800804840275093
0.07631308336904453
0.1106915976087137
0.1537962130522555
0.1809713432509109
0.1428258102458697
0.1520298700276712
0.1821915365033941
0.2031669740983097
0.1916530024013829
0.1800804840274457
0.1809713432508316
0.2031669740984591
0.1607227959306056
0.1522358979912863
0.1537962130523498
0.1821915365035596
0.114813878754993
0.1094461033375946
0.1106915976086238
0.1520298700274172
0.06616697765989807
0.06529000024088701
0.0763130833688092
0.1428258102450138
0.109548125945127
0.08835718878542824
0.1491811161240175
0.2238472169207052
0.05684671185995462
0.06677455656578381
0.1259035852342182
0.1953971118108725
0.0463807741213382
0.04742492007629916
0.09168351998043298
0.1581450642987868
0.04610891770897321
0.03965030814976008
0.05906636214944819
0.1152616595190185
0.2391678595024624
0.1889912284762992
0.1393903555135984
0.08608038192197046
0.2512316776369092
0.2081778998688858
0.1637186022195903
0.1042475193307929
0.270931456628444
0.2118102154579475
0.1720558856535737
0.1091588674173681
0.2860098542917788
0.2394128792435083
0.1970907022411599
0.1241119782578074
0.05624362318996033
0.06612778497415536
0.06364478944020169
0.05832022284451836
0.04809165212451767
0.06441687129489287
0.06766926105886691
0.06378067897763474
0.05316063494022989
0.07250592899777718
0.08305886936878304
0.08149109772246617
0.06011694295166811
0.07537789741477804
0.09318170227315185
0.09523223817730901
0.05224041530057787
0.04996510641266801
0.1102264157393093
0.3961005408646582
0.05977515394362726
0.05569960746579387
0.07380515872199327
0.3217810551070945
0.07564842078154158
0.05893575208481573
0.05400647898872567
0.2419826242885136
0.08824580349103398
0.07166753255508454
0.03826836693615395
0.1751868003963592
0.578236807543946
0.6644225978007453
0.6980207276518474
0.7070404401421482
0.600967336935328
0.6773463222571614
0.713622285021318
0.7247420294663206
0.626705025340116
0.6853538572342381
0.7277280655788171
0.7409561181258151
0.727951541440247
0.6873868377019704
0.7345787449335041
0.7469600264079213
0.707493575654231
0.7044401095828274
0.7016159708841578
0.689081016705954
0.7274901184731434
0.7260016833246906
0.7225384660814986
0.710511859986401
0.7431520681482137
0.742005567939989
0.7369059782246413
0.7239041120842504
0.7489962028145601
0.747844343551164
0.7421545928616265
0.7293051274454647
0.680349944299196
0.675651970196645
0.676947635028743
0.6605397814972609
0.7027659596011409
0.6986324282825966
0.7081983616819515
0.7183980312596514
0.7134846607479808
0.7061977748041045
0.6944406997638162
0.7078103057487338
0.7185304187840602
0.7115284535996138
0.7103604419091311
0.7354955662383134
0.4277644132983652
0.3733221005632629
0.3733260814007691
0.3733700013998128
0.4550032751771719
0.3733239162326757
0.3733268863740448
0.3733983077023983
0.4678453493229668
0.3733252656532389
0.373327792496743
0.3734351647703996
0.4705111570212011
0.3733255535070565
0.3733227021057209
0.3733163401711985
0.3738941220184875
0.3759888475587054
0.3792160295892807
0.3797931543596377
0.3740604649382695
0.3761286741649667
0.3788650609913317
0.3796201206909647
0.3743282042008387
0.3768040868561247
0.3798551944397054
0.3809547203660744
0.3736446228978489
0.375503397639734
0.3788214875096957
0.379332319675704
0.3772227146327138
0.3776103293074663
0.395206911356677
0.4549175386759117
0.3764934347138193
0.3720006139813264
0.3736283150503089
0.4255658852172027
0.3789659974548928
0.3733163096862914
0.3650575589212375
0.3964691350313296
0.3760413885989384
0.3649318941039883
0.3438564353271129
0.3397110501191571
0.5152688538226176
0.5082496484741078
0.505435171675463
0.501962518119529
0.5249988128243787
0.5145252631380701
0.511686202793142
0.5074491336526646
0.5258095739368175
0.5162714834738312
0.5125261011329854
0.5079880724530279
0.5247128660193847
0.5156489584361993
0.5113225151101062
0.5082038828996255
0.4967660685253132
0.4902731297791901
0.4659161964227081
0.4001204872291114
0.5036953380444286
0.5020602524643979
0.4921783091555992
0.4324485135594131
0.504128063834134
0.5021384905242501
0.4971891742969405
0.4628546780013656
0.507523929585007
0.5056120806555184
0.509701985918468
0.5221345949963759
0.3610354257304378
0.3731534292539181
0.3733240239505498
0.3733250521832366
0.356394064315603
0.373042609735491
0.3733229543384524
0.3733250471482415
0.3546390868588461
0.3728980911770259
0.3733211352905947
0.3733250381631353
0.3508563009135045
0.372629094549832
0.373317893904466
0.3733250228391005
0.3733250132381946
0.373315714372034
0.3723999504364781
0.3460875577251777
0.3733250133219891
0.3733157922268102
0.3724200351822825
0.3464467455103216
0.3733250132593318
0.3733158329126181
0.3724393068961256
0.347511984297786
0.3733250146134611
0.3733162207025107
0.3724981836396431
0.3504709380010298
0.3733250228380253
0.3733250381623106
0.3733250471444664
0.3733250521788898
0.3733178939050266
0.373321135290517
0.3733229543378604
0.3733240239489192
0.3726290945498765
0.3728980911753079
0.3730426097370829
0.3731534292531871
0.3508563009134604
0.3546390868568917
0.3563940643150863
0.3610354257312557
)
;

boundaryField
{
    back
    {
        type            empty;
    }
    inlet
    {
        type            calculated;
        value           nonuniform List<scalar> 
16
(
0.3733250556165154
0.3733250556165154
0.3733250556165154
0.3733250556165154
0.3733250556165154
0.3733250556165155
0.3733250556165152
0.3733250556170001
0.3733250556171086
0.3733250556165154
0.3733250556165154
0.3733250556165151
0.3733250556165154
0.3733250556165152
0.3733250556165154
0.3733250556165154
)
;
    }
    front
    {
        type            empty;
    }
    top
    {
        type            calculated;
        value           nonuniform List<scalar> 
40
(
0.3733250620549186
0.3733250699745528
0.3733250721269735
0.3733250632510504
0.3733251020259351
0.3733251357951812
0.3733251555670887
0.3733251286598948
0.3733250810947404
0.3733250590231708
0.3733250557313258
0.3733250556169592
0.373325055616515
0.3733250556116576
0.3733250567744661
0.3733250277159082
0.3733250074971338
0.3733250500636068
0.3733251310842145
0.3733252014005997
0.3733252456844714
0.373325334069012
0.3733253821051538
0.3733256085220473
0.3733256177549717
0.3733258319775676
0.3733262174684194
0.3733251794542957
0.3733270975082996
0.3733254727463629
0.3733248129256859
0.3733247198896838
0.3733247928001715
0.3733248170530046
0.3733249549408672
0.3733249482925229
0.3733250210409273
0.3733250494445561
0.3733250542059047
0.3733250545528877
)
;
    }
    outlet
    {
        type            calculated;
        value           uniform 0.3733250556165154;
    }
    bottom
    {
        type            calculated;
        value           nonuniform List<scalar> 
40
(
0.3733250545536247
0.373325054206226
0.3733250494449653
0.3733250210402704
0.3733247928007872
0.3733248170544037
0.3733249549391348
0.3733249482931327
0.373324719889654
0.3733248129217175
0.3733254727454535
0.3733270975114612
0.373325617754048
0.3733258319782498
0.3733262174701849
0.3733251794578873
0.3733256085217562
0.373325382105979
0.3733253340683395
0.3733252456837917
0.373325007499045
0.3733250500617862
0.3733251310830955
0.373325201399364
0.3733250277154025
0.3733250567753109
0.373325055611645
0.3733250556165151
0.3733250556156411
0.3733250557310652
0.3733250590239635
0.3733250810954546
0.3733251020235357
0.3733251357932909
0.3733251555665468
0.3733251286593344
0.3733250632497988
0.3733250721272929
0.3733250699741009
0.3733250620555685
)
;
    }
    wall
    {
        type            calculated;
        value           nonuniform List<scalar> 
104
(
0.5221345949746434
0.5097019859149295
0.5056120806564919
0.5075239295849575
0.508203882897357
0.5113225151077457
0.5156489584364344
0.5247128660204639
0.339711050118661
0.3438564353285201
0.3649318941045826
0.3760413886006188
0.3793323196768242
0.3788214875104414
0.375503397639101
0.3736446228996637
0.3733163401693718
0.3733227021057143
0.3733255535074439
0.4705111570227297
0.7354955662403304
0.710360441906869
0.7115284536041484
0.7185304187783088
0.7293051274458816
0.7421545928650959
0.7478443435500557
0.7489962028123304
0.7469600264059895
0.7345787449325017
0.6873868377006254
0.7279515414396126
0.1751868003964086
0.03826836693625908
0.07166753255572048
0.08824580349210201
0.0952322381777239
0.09318170227294069
0.07537789741453108
0.06011694295185735
0.08608038192268594
0.1393903555137736
0.1889912284760517
0.2391678595024186
0.1152616595190331
0.05906636214942224
0.03965030814972585
0.04610891770893005
0.06616697765989833
0.1148138787550921
0.1607227959306987
0.1916530024014765
0.1916530024013829
0.1607227959306056
0.114813878754993
0.06616697765989807
0.04610891770897321
0.03965030814976008
0.05906636214944819
0.1152616595190185
0.2391678595024624
0.1889912284762992
0.1393903555135984
0.08608038192197046
0.06011694295166811
0.07537789741477804
0.09318170227315185
0.09523223817730901
0.08824580349103398
0.07166753255508454
0.03826836693615395
0.1751868003963592
0.727951541440247
0.6873868377019704
0.7345787449335041
0.7469600264079213
0.7489962028145601
0.747844343551164
0.7421545928616265
0.7293051274454647
0.7185304187840602
0.7115284535996138
0.7103604419091311
0.7354955662383134
0.4705111570212011
0.3733255535070565
0.373322702105721
0.3733163401711985
0.3736446228978489
0.375503397639734
0.3788214875096957
0.379332319675704
0.3760413885989384
0.3649318941039883
0.3438564353271129
0.3397110501191571
0.5247128660193847
0.5156489584361993
0.5113225151101062
0.5082038828996255
0.507523929585007
0.5056120806555184
0.509701985918468
0.5221345949963759
)
;
    }
}


// ************************************************************************* //
