/*--------------------------------*- C++ -*----------------------------------*\
  =========                 |
  \\      /  F ield         | OpenFOAM: The Open Source CFD Toolbox
   \\    /   O peration     | Website:  https://openfoam.org
    \\  /    A nd           | Version:  11
     \\/     M anipulation  |
\*---------------------------------------------------------------------------*/
FoamFile
{
    format      ascii;
    class       surfaceScalarField;
    location    "0.185";
    object      phi;
}
// * * * * * * * * * * * * * * * * * * * * * * * * * * * * * * * * * * * * * //

dimensions      [0 3 -1 0 0 0 0];

internalField   nonuniform List<scalar> 
1652
(
1.706212168242967
0.5337381654508275
-1.332267629550188e-15
1.172474002816184
0.5337381652657225
1.84741111297626e-13
0.6387372389980005
0.5337270236360911
9.103828801926284e-15
0.5314968322007023
-9.527933997333093e-13
0.105130610487149
1.706212168246046
1.067476330897828
1.172474002860345
1.067476329727631
0.6387392206395008
1.06744049727832
1.059638292367722
0.1063467818779844
1.706212168254431
1.601214496347462
1.172474003810073
1.601214493527797
0.6387445426954627
1.601111027975401
1.582992691590845
0.1078791370095389
1.706212168255743
2.134952661794452
1.172474002206793
2.134952658804628
0.638755358778199
2.134658796413323
2.103920059835599
0.105888156309612
2.651191215282064
1.723711780223852
3.167429768986031
1.723711780183971
3.683668329520621
1.723711780463786
1.723711823045046
4.199906246725768
2.651191198848431
1.207473232455996
3.167429609326826
1.207473199401316
3.683660709828677
1.207473335259393
1.207476080982022
4.19989698334607
2.65099607452717
0.6907003219567799
3.167495206856648
0.6900249305344431
3.684299094256868
0.6892714183350381
0.6897983826177991
4.199618762084671
2.648417809016888
0.1242808644034707
3.262252586777674
0.0494230317070638
3.890702090198253
0.0242206224324506
4.523279732417355
0.01591461688661933
4.164906861727651
0.0349977050942446
4.129903802540635
0.03499988200992832
4.094916920423636
0.0350029812084135
0.03493727290592141
4.05989233688765
4.164939467594528
0.06990222319435263
4.130041238604703
0.06973476428675685
4.095351138931351
0.06934682068914189
0.06903287357573873
4.0606608729416
4.172198997794532
0.09212835742889569
4.147507662649137
0.08563250353189106
4.126441527350134
0.07912199438844097
0.07356744669294213
4.106862085623292
4.571340056953606
0.008684186274115435
4.613430304837563
0.006557309230031838
4.651935495278856
0.007997168449703607
4.692392901130402
0.006925055907021027
4.675322111628686
0.08248798225689608
-0.06761845766630167
4.617765344845568
0.07933777197188674
-0.01615568349909879
4.563945932705909
0.07223735511266122
-0.009140452549106004
0.06283583857683755
4.518898763311531
-0.008602414563780636
4.160441197417887
0.004206382117535823
4.206338615189681
0.008515780886975743
4.241002702910407
0.01327131904021184
0.01720532919624085
4.263614249735903
4.06236853841288
0.0002535522289645042
4.066080384153567
0.0007255715625666959
4.071935866362872
0.001532783171442231
0.002428496899503307
4.078963197943112
4.059889693533212
4.059947706666489
4.060029271585683
4.060028716865586
4.059933572461617
-0.003039887543942577
4.059704552881591
-0.003041902357451831
4.059546893470156
-0.002774132506604632
-0.002282317628538366
4.059468896703115
4.084648486644806
-0.01904413401573901
4.085393902418257
-0.01798649105432276
4.08376799093618
-0.01555191656863769
-0.01266265886132506
4.080093485691649
4.275308919634026
-0.05243767758099516
4.270169265887506
-0.04218922987752716
4.25512701297699
-0.03302474128114069
-0.0253913034072189
4.231458446019389
4.493004246374956
-0.006067183508233598
4.480982931960983
-0.002301992710706025
4.460367999213964
0.0006357779869398117
4.428881927663544
0.001824582826578935
0.02177237783390717
4.389518830863664
0.001224969599152415
0.009722434542207503
4.20238846208145
0.001655248780508156
4.074898892424557
4.059512280327247
0.01529665216783294
4.34637578595888
-0.001170430116704535
0.007005499599237131
4.168401332909388
0.001042277207648601
4.069283327808859
4.059622944399995
0.008099644603186462
4.348599967250204
-0.08925746288111674
0.002407110740925256
4.12871665474923
0.0003796354765184251
4.06353514203265
4.05976810953829
0.03109348748249025
4.234621863568345
-0.1406738813486384
0.001176899952522348
4.10051619053184
0.0001033806027743722
4.060789842381465
4.05985235748859
0.09321985030294505
3.966580981203938
0.1850144723707002
3.967097206448455
0.2133011711173948
3.999019040827115
4.026237304227644
0.1282566343326207
0.09310701874327137
3.873286305295976
0.1831809998702266
3.874231887464394
0.1824795683410439
3.908390171659933
3.844726325229281
0.09559025566497681
0.09261805231587683
3.780133053631655
0.1782751600176014
3.782206536604703
0.1275952096131005
3.828805085057449
3.671434564324947
0.05925566665317472
0.09167895530461739
3.687056214937605
0.1690007917826044
3.691154929614561
0.06849020731867206
3.754634990234265
3.503358777583769
0.04042826077374706
0.0008047159518014269
3.304178446947661
0.04289276995968527
-0.1521810588504535
3.676651979465979
-0.08951571053626117
3.601513825922714
3.59447861422404
0.06291065301469545
3.110898650683271
0.04654062840641537
-0.1260079773750821
3.587227912097108
-0.0860437803170882
3.513192121599873
3.502200357886113
0.1095985474474344
2.938179139241631
0.03636433524954985
-0.08555579470866925
3.465329880180116
-0.07997731192871355
3.425775654185697
3.410903546910666
0.1427607730786364
2.76448717839104
0.01479783490314779
-0.03614282561270354
3.356681252412384
-0.07066044211860556
3.335986265876369
3.320491462791273
0.08181247064826913
3.205905684618337
0.02294955449959657
3.225142609922889
-0.09158294023347047
3.239693657230855
2.69698844646445
-0.004610903721130377
0.07669504203400368
3.089963393082065
0.05184699244522961
3.100749154004918
0.003276831224534815
3.155910980198093
2.735693194675354
0.01889244331428785
0.08589563547297996
2.96532945470103
0.1040253768827633
2.977052929752978
0.1031180353311458
3.058597345990766
2.81254535021132
0.09887599506863898
0.09781872832714533
2.842034379641381
0.1589279299509362
2.850707550805937
0.2097218997609481
2.936740951066893
2.846476593291899
0.2394088184635014
-0.2280257138496227
3.045386542610617
-0.496192626222075
3.068814363353158
-0.7432419722722391
3.174564131150919
2.984382649558968
-0.8081039923228505
-0.2226083896275657
3.24745205093387
-0.4708742239018365
3.291307795284115
-0.656932444386821
3.372357095069578
2.722203833541302
-0.2777468452477326
-0.2131177693808398
3.446786499939487
-0.4308108309598382
3.49236848569848
-0.5850012781677931
3.549446209886966
2.330754503128781
-0.04479163967280059
-0.205758210321437
3.645257673193262
-0.4045147768496201
3.682592312912697
-0.495350529118484
3.67847173644101
2.008277907836651
-0.02691994542384306
0.1989575105766151
1.904995960255483
-0.01191422289029128
0.1957110601718666
3.736952845715003
0.1005293080805638
3.77323588684167
3.745769328154075
0.1643970407564688
1.880017215648899
-0.007027629158608058
0.1873633220406424
3.78049243872709
0.1039342161458726
3.857786005519424
3.850309869379549
0.1388617353558015
1.887491493233244
-0.004189841293580014
0.1850631096820624
3.804166094838011
0.103915398293012
3.947736810689577
3.955002084043556
0.1147448619961065
1.906437899690854
-0.001428885792509806
0.180968930992202
3.813271791734633
0.1038073060425155
4.042301519671811
4.059602886513185
-0.2182952533876918
2.28527369389076
0.04317962241432466
-0.04422857011710657
3.779549955071254
-0.001770954822003734
4.042862794022112
4.05967405013333
-0.1633553810275456
2.459046681965996
0.1038068666582126
-0.02844862588725361
3.799349341582794
-0.0008117735454191699
4.049228787527127
4.059820419192256
-0.1159908817444412
2.540557184918748
0.1063529530221496
-0.01609726812496759
3.854594042062875
-0.0003394297762757681
4.055957810272758
4.059885184997116
-0.09495602432210704
0.1190946771401712
2.598160463507139
-0.009424472211971291
3.914418695379462
-0.0001330733928868177
4.055035741000371
4.059896416032096
0.5523632064092173
-0.2813818773543826
-0.005677453003736545
-9.539036227579345e-13
1.171312747718494
-0.5046121935186032
-7.709388682997087e-13
1.713938886077256
-0.5241058463503685
1.42064138231035e-12
-0.5249596127384386
-2.585931468956915e-12
0.5404957610923594
-0.5135015867159418
-0.007117024300385695
1.171099612922486
-1.004368430761579
1.714044864548366
-1.047872156584836
-1.04992233291618
0.5200819221713098
-0.7789292723003283
-0.01040640990605483
1.169694375441339
-1.49149464047876
1.714141372535169
-1.571491515455175
-1.574898675748552
0.5006001680185318
-0.0151523833905229
-1.093107025978781
1.167973824626789
-1.97638647263528
1.7142313110425
-2.094899262680063
-2.099882012669757
-0.09495602432119832
-2.540557184917307
0.1190946771401294
2.598160463505712
-0.00942447220995335
-3.854594042064845
3.914418695377966
-0.0001330733920881233
-4.055957810271704
4.055035740995539
-4.059885184998049
4.059896416030599
-0.1159908817440131
-2.459046681964112
0.1063529530221579
-0.01609726812569767
-3.79934934158627
-0.0003394297782997047
-4.049228787528974
-4.059820419193533
-0.1633553810280747
-2.285273693888751
0.1038068666580614
-0.02844862588892394
-3.77954995507588
-0.0008117735459041153
-4.042862794023803
-4.059674050133546
-0.218295253387601
-1.906437899687335
0.04317962241414323
-0.04422857011821169
-3.813271791739308
-0.001770954822797988
-4.042301519671333
-4.059602886512684
-0.1005293080743342
3.745769328175924
-3.645257673220428
-0.1957110601594152
3.773235886863262
-3.68259231294037
-0.1989575105709215
3.73695284569089
-3.678471736409535
1.904995960234383
-2.008277907811581
-0.01191422289039812
-0.1039342161383892
3.850309869395322
-0.1873633220271911
3.857786005534524
-0.1643970407507359
3.780492438713002
1.88001721563578
-0.007027629158601015
-0.1039153982860853
3.955002084051182
-0.1850631096679081
3.947736810696254
-0.1388617353500624
3.804166094832692
1.887491493224968
-0.004189841293509203
-0.1038073060355476
-0.1809689309771682
-0.1147448619905733
-0.001428885792433665
0.4953505291221543
-2.3307545031094
-0.02691994542372504
0.4045147768640581
-3.549446209865804
0.2057582103279705
-3.492368485718047
-3.446786499960512
0.5850012781726438
-2.722203833527261
-0.0447916396721432
0.4308108309742166
-3.372357095057107
0.2131177693881314
-3.291307795293952
-3.247452050949807
0.6569324443946248
-2.984382649553571
-0.2777468452465267
0.4708742239161391
-3.174564131144565
0.2226083896332844
-3.068814363355554
-3.045386542619116
0.7432419722796135
-2.846476593291881
-0.8081039923250229
0.4961926262339568
-2.93674095106671
0.2280257138545871
-2.850707550800834
-2.842034379637453
0.08181247065261632
3.205905684627535
-3.320491462807039
0.02294955450866132
3.225142609938314
-3.335986265888112
-0.09158294022981706
3.239693657218984
-3.356681252391887
2.696988446454663
-2.764487178380229
-0.004610903721944726
0.07669504203814226
3.08996339308734
0.05184699245345292
3.100749154013703
0.003276831228896437
3.155910980192959
2.735693194669576
0.01889244331388851
0.08589563547897838
2.965329454693439
0.104025376889338
2.977052929756304
0.1031180353353861
3.058597345987288
2.812545350208364
0.09887599506842482
0.09781872832933958
0.1589279299590822
0.2097218997644227
0.2394088184633266
0.142760773082475
-2.938179139235016
0.01479783490314535
-0.03614282559935267
-3.465329880168433
-0.07066044211598455
-3.425775654197462
-3.41090354692096
0.1095985474497219
-3.110898650675551
0.03636433524980631
-0.08555579469886171
-3.587227912098657
-0.07997731192269175
-3.513192121632835
-3.502200357889454
0.06291065301817489
-3.30417844694036
0.04654062840588691
-0.1260079773735601
-3.676651979456182
-0.08604378031683924
-3.601513825922146
-3.594478614230896
0.0008047159574108287
-3.503358777586799
0.04289276996164959
-0.1521810588340384
-3.75463499023484
-0.08951571052816232
-3.691154929613584
-3.687056214935119
0.09321985030304081
3.966580981204063
-4.059852357488611
0.185014472370924
3.967097206446931
-4.060789842380701
0.2133011711161688
3.99901904082478
-4.100516190531533
4.026237304225037
-4.234621863568404
0.1282566343324174
0.09310701874354965
3.873286305296679
0.1831809998707914
3.87423188746088
0.1824795683402937
3.908390171658441
3.844726325227635
0.09559025566455404
0.09261805231524856
3.780133053632806
0.1782751600161167
3.782206536609432
0.127595209612868
3.828805085061923
3.671434564327722
0.05925566665297199
0.09167895530611808
0.169000791786365
0.06849020731989897
0.04042826077270734
-4.05976810953863
-0.0001033806022381345
-4.059622944400263
-0.0003796354764946663
-4.059512280327101
-0.001042277207251141
-0.001655248781027407
-4.059468896702241
-4.063535142031943
-0.001176899951949861
-4.069283327809096
-0.002407110741419416
-4.074898892425039
-0.007005499599584297
-0.009722434542849934
-4.080093485691251
-4.128716654748956
-0.03109348748242469
-4.16840133290929
-0.008099644603098921
-4.202388462081302
-0.01529665216808679
-0.02177237783407099
-4.23145844601977
-4.348599967250055
-0.1406738813487179
-4.346375785958875
-0.08925746288077852
-4.389518830863349
-0.001170430116738952
-4.428881927663562
0.001224969599064429
-0.002282317628456654
-4.059546893468458
-0.0126626588611769
-4.083767990936129
-0.02539130340673168
-4.255127012977522
-4.460367999213661
0.001824582826643772
-0.002774132506626281
-4.059704552880765
-0.01555191656787674
-4.085393902420082
-0.03302474128071831
-4.270169265887403
-4.480982931959232
0.0006357779872542269
-0.003041902357466819
-4.059933572462552
-0.01798649105394767
-4.084648486653509
-0.04218922987774365
-4.275308919633741
-4.493004246374376
-0.00230199271104603
-0.003039887544785236
-4.060028716870314
-0.01904413401609489
-4.078963197958015
-0.05243767758061463
-4.263614249736479
-4.518898763310951
-0.006067183508137175
-0.000253552231895382
4.059889693558121
-4.05989233693312
-0.004206382117472651
4.062368538334471
-4.060660872878564
-0.08248798226256376
4.160441197439761
-4.106862085635244
4.675322111636755
-4.692392901142291
-0.0676184576662095
-0.0007255715631445669
4.059947706683203
-0.008515780889537805
4.066080384099422
-0.07933777197701081
4.206338615210131
4.617765344851088
-0.01615568349917315
-0.001532783171838137
4.060029271589005
-0.0132713190475876
4.071935866351752
-0.07223735511695639
4.241002702920031
4.563945932707864
-0.009140452549373845
-0.002428496902560862
-0.01720532920360424
-0.06283583857981367
-0.008602414563873728
-0.0735674466962099
-4.651935495286726
0.006925055907303634
-0.06903287359073618
-4.126441527346393
-0.0349372729115538
-4.09535113892406
-4.094916920457905
-0.07912199439457596
-4.61343030484073
0.007997168449654923
-0.06934682068835762
-4.147507662642153
-0.03500298118442091
-4.130041238631
-4.129903802457227
-0.0856325035377215
-4.571340056950946
0.00655730922959552
-0.06973476430292019
-4.172198997784709
-0.03499988203026749
-4.16493946758688
-4.164906861716364
-0.0921283574334455
-4.52327973241087
0.008684186273798578
-0.06990222321158734
-4.199618762063924
-0.03499770510436062
-4.199896983363521
-4.199906246713543
-0.6897983826150438
-3.890702090195465
0.01591461688678886
-1.207476080970985
-3.684299094245766
-1.723711823040709
-3.683660709841726
-3.683668329517804
-0.6892714183339503
-3.262252586777343
0.0242206224326556
-1.20747333525445
-3.167495206849906
-1.723711780463522
-3.167429609336662
-3.167429768984298
-0.6900249305340301
-2.648417809017972
0.04942303170696399
-1.207473199397033
-2.650996074523846
-1.723711780184723
-2.651191198852589
-2.651191215282395
-0.6907003219564003
-2.103920059837005
0.1242808644031524
-1.207473232452179
-2.134658796413885
-1.723711780225388
-2.134952658804683
-2.134952661793905
1.706212168246007
0.533738165447772
1.172474002820311
0.5337381652654196
0.6387372390013827
0.5337270236374023
0.5314968322029838
0.1051306104874137
1.706212168246563
1.067476330894473
1.172474002860916
1.067476329726472
0.638739220639938
1.067440497279814
1.059638292371313
0.1063467818775549
1.706212168253659
1.601214496344418
1.172474003808276
1.601214493527352
0.638744542694394
1.601111027976414
1.582992691594852
0.1078791370089976
1.706212168252966
1.172474002203334
0.6387553587750131
0.1058881563085263
0.104982418393021
0.1049824183933984
0.1045810799502318
0.1063114139149122
0.1049129110872748
0.1069476497312413
0.1041059566541449
0.1058488789480663
0.1063114139150716
0.1045810799508623
0.1060251143599011
0.1060251143603362
0.1062666975024437
0.1059193799365111
0.1002521466653508
0.1091897066718145
0.1069476497319568
0.1049129110876975
0.1059193799371018
0.1062666975029792
0.1054599823895614
0.1054599823887505
0.09677498767364953
0.1080631891997451
0.1041059566552497
0.1058488789484732
0.1002521466661788
0.1091897066726189
0.09677498767456261
0.1080631891988667
0.09642948452958718
0.09642948453040071
-0.03961560358876065
0.1347052326815567
-0.06529949159735082
0.1322236733738283
-0.0946304915951709
0.1368644061731137
0.1337926170521896
-0.008412311899092029
0.1416320746585686
-0.0192708930463743
0.1415599266067244
-0.03139555774772906
0.1474019395808235
0.1501113560773397
-0.003862841317834431
0.1441237837426545
-0.01127573174146396
0.1475207855914221
-0.01783850813354648
0.1525212834741546
0.1548512634391159
-0.002967776017671619
0.1462393504778715
-0.008606721638298898
0.1520909927894227
-0.0126621686370692
0.1553957461542419
0.1567331736139106
0.157144990130531
0.007778541749309476
0.157883356919706
0.005509205859031863
0.1589304728876194
0.006915486435964124
0.006630975365368774
0.1595904028182377
0.1563244235292907
0.006444470608103825
0.1575752213113402
0.003959648677655414
0.1592899224629602
0.005224158215925812
0.003142722876842197
0.1631572743402352
0.1543608772934348
0.003731285520512384
0.1563277020410651
0.001677056110902242
0.1590104854649506
0.002723478249531619
-0.01054695196562849
0.1731734845460193
0.1494985932956398
0.1508214290073419
0.1537706483850778
0.143720201418593
0.1480207232932438
-0.05521061991260567
0.1403685595916471
-0.007257614621906883
0.1398744222307448
-0.007303303606652073
-0.008013141259118228
0.1406770250264712
0.150863729691635
-0.04210538715595136
0.1469980142540643
-0.002311937821259546
0.1454552049487032
-0.004331604603760753
-0.00520046032835228
0.1440683951569953
0.156869017011347
-0.02531703229973722
0.1529218369775871
0.002851909577961942
0.1500934989078407
2.335994077753978e-05
-0.0005999134135021011
0.1469042657592621
0.1187109534987998
0.1229298287965728
0.1245611178577344
0.1253887161898013
0.1419864326566326
-0.005918283347398051
0.1438054752838577
-0.002469291709413762
0.1455416248062499
0.0002621463881511965
0.002055844183255939
0.1464504409586452
0.1436384069800278
-0.003963237458925795
0.1439873826610903
-0.001176972367581047
0.1453555665406625
0.0002522144572605078
0.002327357870731739
0.1463995071698277
0.1447285153127201
-0.0003044968514319679
0.1441286196556856
0.0009328868499562382
0.1446090660662377
0.001301562868689182
0.002168161295236115
0.1457771203466835
0.1266914145386265
0.1292575853915077
0.1321315664029252
0.1353308895728191
0.1466516260398617
0.001439471090335043
0.1471837141207759
-0.002547189452670851
0.1514793955441458
-0.1001225694164718
-0.1213227004951469
0.1252085728933129
0.1466864086672145
0.001685260779989484
0.1464741549906746
-0.003864087218671153
0.13899866186516
-0.09933391514470774
-0.08455519709053549
0.09701170413842497
0.1462088897575783
0.001892588053940547
0.1440859648683147
-0.003486635026623885
0.09952073161817286
-0.06201813141121648
-0.04918124438930227
0.06021778097139649
0.1377116072311865
0.1326500101561946
0.06321141507551496
0.01041336535499007
0.1359229915454027
0.1125729525524584
0.1378846622181334
0.089584474427438
0.1409387721408217
0.05222509209546422
0.03310083534345531
0.1450190977880946
0.1252221497869841
0.08018627073446671
0.135499383752667
0.07559370638746965
0.1401643210717796
0.04366614717216011
0.02580738681124661
0.1442210966657188
0.0988178122459497
0.03698854313103184
0.1244529661664579
0.04622771391920422
0.1344734495696264
0.02986348452526921
0.01684671616063937
0.1404320827446416
0.04349444519598926
0.0859212610707519
0.111985251121169
0.1255102056661151
0.1513845010679147
0.03339584230918335
0.1542679720939242
0.03717961175403783
0.1528661180066882
0.03208724420165276
0.01488010890960467
0.1486865927129586
0.1510123461595534
0.02355724031802942
0.1553562679146488
0.02647818435962346
0.1550309134666692
0.02356422390320989
0.01285023584355593
0.1511556102227777
0.1477741443779478
0.01361901133302756
0.1536667369979138
0.01416689587113373
0.1537632978569995
0.01285984381900185
0.008216044808159184
0.152457207294024
0.1368883934604956
0.1438049661587321
0.1432442647812313
0.1448828316787456
0.1514732885775653
-0.0002189927321022411
0.1632645528731483
0.01474759552366223
0.1912922079302047
0.07719122798141653
0.1879703530352474
0.2481244166560082
0.1538936991983694
0.005478800284880236
0.1636946948476218
0.01506581731845613
0.189964231873708
0.0617018935650242
0.1238384157272148
0.2589699593924205
0.1564831354940397
0.00572624459202653
0.16523668961541
0.01740907836040706
0.1937525167424755
0.04428185060726181
0.03089237991959431
0.2961353690920982
0.1542248354034858
0.1809944655950097
0.2374189579643981
0.2792724082664445
0.1288833761948716
-0.6837706228680508
0.01579380688421837
-0.1628879170539897
-0.0005217196310792448
-0.02649867787448769
-0.01993957235272735
-0.003433347943956681
0.09254942723153346
-0.5130036219568892
0.005028911510453037
-0.07409346856970976
-0.004773077308280182
-0.01481959436698703
-0.0129701326441451
-0.008037366139098029
0.0495435313276636
-0.2630955547845569
0.0005076857058224126
-0.02423333391058606
-0.00734330552981612
-0.005054363662452762
-0.006395509430423402
-0.01013244505976894
0.01862132986766062
-0.004405672248284643
-0.007454337318195453
-0.0104070190487277
-0.001869882763491926
-0.01032783114293662
0.0001024519103742464
-0.005706671647984114
0.001160294215221663
-0.00209306071889491
0.0001412616523008628
0.0007137640094449886
-0.006894206311192604
-0.007894857557327432
-0.004835793109993028
-0.004416974805332097
-0.00293528799775606
-0.001185206313955051
0.0003236387372133609
-0.002957586470695384
-0.009365559758957816
-0.004422465776606911
-0.007456087427293855
-0.002672476242230749
-0.005699284131723863
-0.0006263376139980237
0.001489374474433383
-0.007149181067578669
-0.01012257874051319
-0.00918411572663011
-0.00834594260030861
-0.00750516819019488
0.02776198499821315
0.01740592708267619
0.05378760512640637
0.07722366547815877
0.07419122928258567
0.08525478742268067
0.09938000065097403
0.09368170686866997
0.0121089211036361
0.004046899224204994
0.04352108654755289
0.04572300228287643
0.0669743045707014
0.06099157093269415
0.07497873503276777
0.09085718702569934
-0.0002681639060876026
-0.001933481619146138
0.02813685576625168
0.01736943800855009
0.05508541573247504
0.032949048078444
0.04634599322762908
0.08213246115522763
-0.008484891214349352
0.009589254720738884
0.04166111972586435
0.0871030335048642
0.0797781119024593
-0.07235874101173966
0.08454786833002069
0.06281649877019788
-0.06399295174917732
0.07743443164108199
0.04375164109810022
-0.0537174818267811
0.06898628475256796
-0.03390278163396862
0.02620393694834918
0.04976411210298579
0.07357711241547002
-0.05485454022796809
0.055854004133041
-0.04667686092183037
0.03553681458486937
-0.0362191625462004
-0.02074523281090359
0.01996029192926111
0.0631748334016291
-0.03587579402704491
0.04547927625239657
-0.02793199808223282
0.02637746926746682
-0.01727339242416322
-0.007065438515493544
0.01255507123928482
0.05165229275665869
0.0250055445800151
0.008314216874595763
0.001622911839792525
7.070685898614287e-05
0.001305915425580544
-0.0003232663425678933
-0.0006686940372682762
-0.0003114070201277533
-0.001573794359631238
-0.002033341876468565
-3.101685575046531e-15
0.007389689073361481
0.005709390275774096
0.004193026408459595
0.000975982849370699
0.001990658193847625
-0.001420078345639522
-0.002163197562132943
-1.387778780781446e-15
0.01489694729507508
0.009465395834868509
0.01035411384604381
0.004204405694364699
0.005577978138109757
0.001769800941260811
0.001597998517365702
3.295974604355933e-15
0.01942896247248585
0.01203743854398745
0.005427545797306477
7.063793994177558e-15
-0.002033341876471927
0.0003114070201243463
-0.002163197562139698
-0.001990658193851143
0.001597998517349097
-0.00557797813809615
-0.005427545797281476
0.005677453003711641
-0.00157379435963333
0.000323266342567588
-0.001420078345647134
-0.004193026408457728
0.001769800941261439
-0.01035411384603811
-0.01203743854395711
0.007117024300394906
-0.0006686940372690187
-7.070685898347834e-05
0.0009759828493628164
-0.007389689073348089
0.004204405694369532
-0.01489694729508354
-0.01942896247247194
0.01040640990608865
0.001305915425584437
-0.001622911839791685
0.00570939027576739
-0.01255507123926966
0.009465395834864467
-0.01996029192928062
-0.02620393694833432
0.01515238339053863
-0.04375164109811275
-0.03390278163395456
0.04976411210298877
-0.06281649877017015
-0.05371748182676897
0.06898628475256235
-0.07977811190243925
-0.06399295174917249
0.07743443164108091
-0.07235874101171513
-0.09368170686863886
0.08454786832999409
-0.03553681458487747
-0.02074523281089556
-0.05585400413302748
-0.03621916254619544
-0.07357711241546207
-0.04667686092184139
-0.05485454022795962
-0.09085718702568822
-0.02637746926744493
-0.007065438515495896
-0.04547927625237655
-0.0172733924241646
-0.06317483340162049
-0.02793199808223189
-0.03587579402704436
-0.08213246115521346
-0.008314216874598733
-0.02500554458002366
-0.05165229275666199
-0.08710303350486422
-0.04166111972585669
-0.04634599322760663
-0.009589254720730328
-0.03294904807838983
0.008484891214314325
-0.01736943800845786
0.001933481619158003
0.007505168190170639
-0.05508541573245177
-0.07497873503276339
-0.02813685576620005
-0.06099157093264042
0.0002681639060961027
-0.04572300228269524
-0.004046899224128472
0.007149181067544485
-0.06697430457068371
-0.09938000065096679
-0.0435210865474808
-0.08525478742265019
-0.01210892110354808
-0.07722366547795947
-0.01740592708253877
0.002957586470738318
-0.07419122928257313
-0.05378760512633647
-0.02776198499808946
-0.0007137640093167405
-0.001160294215152013
0.0001412616524205032
-0.000102451910323282
-0.002093060718807625
0.001869882763546946
-0.005706671647972547
-0.01032783114301378
0.003433347943978827
0.002935287997799178
0.000323638737323842
0.004835793110029961
-0.001185206313872027
0.006894206311229277
-0.0044169748053145
-0.007894857557389848
0.008037366139127798
0.005699284131763453
0.001489374474468147
0.007456087427325144
-0.0006263376139412219
0.009365559758997107
-0.002672476242226676
-0.004422465776644263
0.01013244505980343
0.008345942600333341
0.009184115726674092
0.01012257874055965
0.01040701904876465
0.0005217196311654224
-0.01993957235270105
-0.01579380688367722
-0.02649867787426633
-0.1288833761938516
-0.1628879170532502
-0.6837706228691265
-0.2481244166560665
0.004773077308328898
-0.01297013264415526
-0.005028911510239997
-0.0148195943669309
-0.09254942723082385
-0.07409346856945639
-0.5130036219571983
-0.2589699593924261
0.007343305529849201
-0.006395509430425977
-0.0005076857057354812
-0.005054363662449241
-0.04954353132736359
-0.02423333391054321
-0.2630955547846244
-0.296135369091981
0.007454337318227485
0.004405672248322443
-0.01862132986758369
-0.2792724082663822
-0.1912922079302898
0.1879703530350315
-0.1632645528730781
0.07719122798103917
-0.1514732885774097
0.01474759552297167
-0.0002189927328877239
-0.1486865927130001
-0.1899642318737062
0.1238384157270186
-0.1636946948474518
0.06170189356492783
-0.1538936991981486
0.01506581731772627
0.005478800284189234
-0.1511556102227084
-0.1937525167424184
0.03089237991953853
-0.1652366896152078
0.04428185060707146
-0.1564831354938828
0.01740907835995442
0.005726244591695795
-0.1524572072939326
-0.2374189579642803
-0.1809944655948699
-0.1542248354034285
-0.1448828316787233
-0.1528661180069201
0.01488010890944669
-0.1542679720938611
0.03208724420136799
-0.1513845010680939
0.03717961175361806
0.03339584231077863
-0.1450190977879711
-0.1550309134665567
0.01285023584335343
-0.1553562679145455
0.02356422390299129
-0.1510123461598282
0.02647818435953131
0.02355724031912521
-0.1442210966655993
-0.1537632978568588
0.008216044807990319
-0.1536667369978216
0.01285984381882621
-0.1477741443782082
0.01416689587123754
0.0136190113335718
-0.1404320827444879
-0.1432442647811536
-0.1438049661586271
-0.1368883934605507
-0.1255102056657368
-0.140938772140832
0.03310083534262209
-0.1378846622180661
0.05222509209526083
-0.1359229915453117
0.08958447442707362
0.1125729525523064
-0.1252085728933239
-0.1401643210717997
0.02580738681057848
-0.1354993837525951
0.04366614717201611
-0.1252221497868979
0.07559370638718732
0.08018627073436457
-0.09701170413845095
-0.1344734495695957
0.01684671616021738
-0.1244529661663986
0.02986348452515197
-0.09881781224594649
0.04622771391908786
0.03698854313104283
-0.06021778097148815
-0.1119852511211415
-0.08592126107074601
-0.04349444519602687
-0.01041336535503204
-0.151479395544157
-0.1213227004953351
-0.1471837141207845
-0.1001225694161453
-0.1466516260398756
-0.00254718945268112
0.00143947109026743
-0.1464504409586694
-0.1389986618653145
-0.08455519709063164
-0.1464741549907086
-0.09933391514453355
-0.1466864086672335
-0.003864087218681589
0.001685260779912656
-0.1463995071698274
-0.09952073161839529
-0.04918124438922683
-0.144085964868355
-0.06201813141125134
-0.1462088897575858
-0.003486635026641871
0.001892588053874544
-0.145777120346703
-0.06321141507543024
-0.1326500101561726
-0.1377116072311712
-0.135330889572877
-0.1455416248062626
0.002055844183397604
-0.1438054752837744
0.0002621463883571984
-0.141986432656708
-0.002469291709636084
-0.005918283347382147
-0.1406770250264287
-0.1453555665406509
0.002327357870863966
-0.1439873826610266
0.0002522144573958718
-0.1436384069800521
-0.001176972367762097
-0.003963237458941532
-0.1440683951569731
-0.1446090660662522
0.002168161295314497
-0.1441286196556512