/*--------------------------------*- C++ -*----------------------------------*\
  =========                 |
  \\      /  F ield         | OpenFOAM: The Open Source CFD Toolbox
   \\    /   O peration     | Website:  https://openfoam.org
    \\  /    A nd           | Version:  11
     \\/     M anipulation  |
\*---------------------------------------------------------------------------*/
FoamFile
{
    format      ascii;
    class       surfaceScalarField;
    location    "3.675";
    object      phi;
}
// * * * * * * * * * * * * * * * * * * * * * * * * * * * * * * * * * * * * * //

dimensions      [0 3 -1 0 0 0 0];

internalField   nonuniform List<scalar> 
8667
(
15.882106
1.9418614
-0.046189214
13.976955
2.1034656
-0.19831449
12.051632
2.2831938
-0.35787131
10.122855
2.5074184
-0.57864154
8.1851057
2.7106058
-0.7728564
6.2282733
3.0170071
-1.0601747
4.2743489
3.2948966
-1.3409722
2.2842314
3.7362945
-1.746177
4.3182596
-2.4458707
0.41184257
15.883264
3.8363753
13.976431
4.010299
12.058221
4.2014035
10.129003
4.4366363
8.1877257
4.6518835
6.2279397
4.9767931
4.2746716
5.2481647
2.2658919
5.7450742
6.2149349
0.36921661
15.884256
5.7298977
13.980333
5.914222
12.064206
6.1175303
10.134413
6.3664293
8.1944391
6.5918572
6.2293271
6.9419051
4.2718377
7.2056541
2.2479282
7.7689837
8.1161623
0.34670077
15.885261
7.6224145
13.984314
7.8151695
12.072022
8.0298223
10.142088
8.2963634
8.2016092
8.5323356
6.2371346
8.9063797
4.2607074
9.1820812
2.2176808
9.8120103
10.02324
0.3106032
15.886613
9.5135778
13.989087
9.7126954
12.079952
9.938957
10.153788
10.222527
8.2074619
10.478662
6.2451099
10.868732
4.2650544
11.162137
2.2015534
11.875511
11.937619
0.28717451
15.889124
11.402232
13.99587
11.605949
12.087051
11.847776
10.167086
12.142492
8.2213562
12.424392
6.2486365
12.841451
4.2545722
13.156201
2.1746364
13.955447
13.868276
0.2439787
15.889761
13.290249
14.002265
13.493445
12.098484
13.751557
10.175629
14.065346
8.2322229
14.367798
6.2642472
14.809427
4.2625605
15.157888
2.1562713
16.061736
15.81371
0.21083808
15.891652
15.176374
14.006562
15.378535
12.10928
15.64884
10.191666
15.98296
8.2427852
16.316679
6.2639153
16.788297
4.2584834
17.16332
2.1317938
18.188426
17.816597
0.12890618
15.894154
17.059999
14.013455
17.259234
12.115596
17.546698
10.203812
17.894745
8.2612918
18.259199
6.2794884
18.7701
4.2667971
19.176011
2.1188846
20.336338
19.834761
0.10072059
18.881842
15.955935
20.699629
15.95999
22.514487
15.962926
24.328455
15.963812
26.138836
15.967379
27.94648
15.970136
29.753772
15.970488
31.552422
15.979131
15.977052
33.35315
19.07919
14.13598
20.898717
14.140463
22.713486
14.148158
24.52463
14.152667
26.336143
14.155867
28.139698
14.16658
29.943343
14.166843
31.73784
14.184633
14.181072
33.53382
19.391105
12.291573
21.228059
12.303508
23.062377
12.31384
24.885232
12.329812
26.705216
12.335883
28.51643
12.355366
30.323875
12.359399
32.129525
12.378983
12.380499
33.930097
19.765081
10.421237
21.628101
10.440488
23.489687
10.452255
25.346171
10.473328
27.198939
10.483114
29.049306
10.505
30.901288
10.507416
32.747658
10.532614
10.531631
34.596526
20.175887
8.5045494
22.088219
8.528156
23.999947
8.5405272
25.905715
8.5675593
27.806368
8.5824611
29.697368
8.6140005
31.577535
8.6272491
33.452669
8.6574796
8.6726589
35.311641
20.743179
6.5314706
22.725856
6.545479
24.7124
6.5539832
26.706404
6.5735561
28.701173
6.5876922
30.707024
6.608149
32.705212
6.6290613
34.703858
6.6588335
6.6731855
36.703331
21.211907
4.4955745
23.270645
4.4867412
25.322485
4.5021429
27.389046
4.5069954
29.449127
4.5276106
31.511445
4.5458312
33.563793
4.5767134
35.621672
4.6009542
4.6440988
37.650759
22.582919
2.2489939
24.838615
2.2310451
27.088305
2.2524532
29.298684
2.2966157
31.478047
2.3482484
33.632108
2.3917694
35.773223
2.4355989
37.899642
2.4745347
2.5125293
40.031212
22.187191
-0.10343526
24.695351
-0.27711546
26.986212
-0.038407495
29.280225
0.0026023604
31.624572
0.0039013986
34.022149
-0.0058078636
36.467273
-0.0095250051
38.933476
0.008331713
41.456496
-0.010489949
33.252076
0.10107387
33.160216
0.091860438
33.070788
0.089427679
32.993995
0.076793299
32.91885
0.075144368
32.858821
0.060029423
32.79908
0.059740346
32.756572
0.042508364
0.043373082
32.713199
33.469647
0.16524696
33.418315
0.14319286
33.369065
0.13867726
33.333361
0.11249777
33.298407
0.1100977
33.277303
0.081133414
33.255879
0.081164906
33.249081
0.049305791
0.052527061
33.239927
33.908792
0.18655201
33.89518
0.15680495
33.883835
0.15002204
33.878673
0.11766025
33.875929
0.11284189
33.878766
0.078295631
33.884457
0.075474101
33.896029
0.037733894
0.037701625
33.910854
34.589109
0.19396917
34.586102
0.1598122
34.584245
0.15187846
34.587821
0.11408431
34.593269
0.10739386
34.603461
0.068103575
34.615695
0.063240199
34.631288
0.022141339
0.021339459
34.64765
35.346225
0.15938545
35.385595
0.12044131
35.427476
0.10999739
35.470417
0.071143309
35.514931
0.0628803
35.556817
0.026217517
35.599802
0.020255223
35.636134
-0.014190287
-0.014984798
35.672458
36.725933
0.13678333
36.741339
0.10503546
36.756065
0.095271501
36.758828
0.06838042
36.759195
0.062513091
36.745426
0.039987151
36.726698
0.038983207
36.6903
0.022207249
0.026174082
36.649141
37.705231
0.082310838
37.739817
0.070450128
37.769161
0.065927676
37.781787
0.055754035
37.789923
0.054377068
37.782013
0.047897273
37.768454
0.052542171
37.737438
0.053223636
0.063650095
37.699962
39.968863
0.14465937
39.90745
0.13186308
39.851786
0.1215921
39.780283
0.12725651
39.688852
0.14580819
39.570276
0.16647389
39.434349
0.18846925
39.271746
0.21582606
0.25576376
39.079633
41.60664
-0.0054849841
41.660045
0.078458159
41.566546
0.2150905
41.399896
0.29390673
41.21004
0.3356642
40.988805
0.38770954
40.747482
0.42979161
40.470087
0.49322167
40.124606
0.6012445
39.892033
0.81695212
-0.58437899
39.54813
0.76338627
-0.41948366
39.112192
0.73529725
-0.29935926
38.66381
0.69270845
-0.24432684
38.173111
0.67029933
-0.1796
37.697413
0.62613755
-0.15043952
37.222695
0.60703565
-0.13231778
36.814106
0.56444099
-0.15585165
0.562255
36.41365
-0.1617987
39.036115
0.86047
38.941939
0.85756202
38.817974
0.85926247
38.653845
0.85683741
38.469926
0.85421795
38.250516
0.84554738
38.015493
0.84205918
37.745649
0.83428436
0.82838624
37.479518
37.771424
0.78900743
37.830943
0.79804319
37.875708
0.81449717
37.907824
0.82472164
37.921514
0.84052769
37.917206
0.84985589
37.894166
0.86509917
37.853414
0.87503614
0.88929704
37.792503
36.747203
0.69094537
36.846634
0.69861214
36.932142
0.72898924
37.02148
0.73538398
37.096627
0.76538016
37.175603
0.77088024
37.239575
0.80112692
37.307636
0.80697574
0.83845861
37.358474
35.821158
0.54224578
35.971614
0.54815555
36.108426
0.59217784
36.247164
0.59664547
36.372714
0.63982973
36.499618
0.64397647
36.616789
0.68395661
36.734611
0.68915294
0.72840268
36.844667
34.806074
0.38382157
34.96829
0.38593941
35.129922
0.43054659
35.296228
0.43033944
35.45988
0.47617748
35.627078
0.47677809
35.790848
0.52018698
35.958107
0.52189385
0.56549984
36.12101
34.056368
0.23830802
34.207377
0.23493078
34.36287
0.27505345
34.523608
0.26960105
34.686322
0.3134635
34.858042
0.30505846
35.027068
0.35116073
35.209201
0.33976058
0.38842735
35.386274
33.377941
0.10029474
33.514508
0.098363003
33.664825
0.12473704
33.813794
0.12063194
33.978998
0.1482596
34.14293
0.14112617
34.324176
0.16991432
34.503206
0.16073127
0.19160635
34.700027
32.813494
32.911857
33.036594
33.157226
33.305485
33.446611
33.616526
33.777257
33.968863
34.151772
-0.18290847
34.363223
-0.21145104
34.572924
-0.20970094
34.803927
-0.23100353
35.038108
-0.23418035
35.291615
-0.25350688
35.551962
-0.26034727
35.82762
-0.27565845
-0.28708956
36.11471
34.89412
-0.37700125
35.10481
-0.42214126
35.316744
-0.42163487
35.540293
-0.45455259
35.770475
-0.46436306
36.010317
-0.49334803
36.256488
-0.506519
36.516414
-0.53558368
-0.54977608
36.7791
35.576102
-0.5668295
35.762423
-0.60846232
35.958724
-0.61793544
36.155206
-0.65103529
36.359847
-0.66900354
36.56787
-0.70137164
36.780875
-0.71952381
37.001001
-0.75570926
-0.77762345
37.228848
36.287178
-0.73299757
36.452384
-0.77366859
36.617108
-0.7826592
36.78675
-0.82067686
36.952633
-0.83488644
37.127488
-0.87622702
37.298486
-0.89052149
37.478635
-0.93585913
-0.95834112
37.659353
36.957021
-0.84535123
37.062807
-0.87945422
37.168483
-0.88833577
37.272508
-0.9247015
37.374924
-0.93730256
37.47629
-0.97759314
37.580438
-0.99466924
37.686213
-1.0416347
-1.0638528
37.791725
37.412332
-0.89920875
37.448136
-0.91525876
37.488642
-0.92884198
37.512989
-0.94904803
37.544537
-0.96885075
37.562678
-0.99573455
37.589955
-1.0219458
37.606449
-1.0581282
-1.0900728
37.632669
37.717012
-0.82371702
37.62588
-0.82412722
37.529021
-0.8319825
37.422712
-0.84273966
37.315887
-0.86202595
37.203335
-0.88318216
37.093193
-0.91180424
36.980038
-0.94497275
-0.98128333
36.871249
37.198696
-0.54289501
36.936853
-0.56228423
36.667813
-0.56294255
36.415748
-0.59067464
36.155815
-0.60209289
35.905028
-0.63239509
35.642459
-0.64923499
35.383545
-0.68605893
-0.710876
35.113138
36.072198
-0.20144343
35.715264
-0.20535068
35.402153
-0.24983142
35.037946
-0.22646772
34.669062
-0.23320818
34.219658
-0.18299132
33.769873
-0.19945065
33.248245
-0.16443057
32.742858
-0.20548888
0.75921914
32.174364
-0.19072475
1.028884
34.843473
1.1388231
36.761309
1.1188483
37.652643
1.0036439
37.906929
0.81310549
37.849891
0.58426182
37.457692
0.30470457
37.058657
36.419414
0.79701073
31.648338
-0.27098511
1.0736891
34.566795
1.1774667
36.657532
1.1460872
37.684023
1.033612
38.019405
0.84257739
38.040926
0.59770349
37.702566
0.31287428
37.343487
36.732289
0.86262657
31.059761
-0.27404987
1.1380514
34.29137
1.2412928
36.55429
1.2117496
37.713566
1.0865101
38.144644
0.87859614
38.24884
0.63310003
37.948062
0.33323044
37.643356
37.065519
0.91506482
30.517709
-0.37301259
1.1923626
34.014072
1.2860332
36.46062
1.2415245
37.758075
1.1172347
38.268934
0.90995069
38.456124
0.65251996
38.205493
0.3459628
37.949913
37.411482
1.0000511
29.892194
-0.37453632
1.2760406
33.738083
1.3688272
36.367833
1.321599
37.805303
1.1815504
38.408983
0.95440111
38.683273
0.6886854
38.471208
0.36453539
38.274063
37.776017
1.0743585
29.343982
-0.52614636
1.3393549
33.473086
1.4179823
36.289206
1.35337
37.869915
1.2126544
38.549698
0.98365145
38.912276
0.70951099
38.745349
0.37800464
38.60557
38.154022
1.1899678
28.759453
-0.60543869
1.4463687
33.216685
1.5202523
36.215322
1.4452056
37.944962
1.2865576
38.708346
1.0312149
39.167619
0.74590635
39.030657
0.39977264
38.951703
38.553795
1.2913228
28.363546
-0.89541565
1.518441
32.989567
1.5751603
36.158603
1.4818971
38.038225
1.3188294
38.871414
1.0637026
39.422746
0.77136386
39.322996
0.41213774
39.310929
38.965932
1.4421744
27.853211
-0.9318394
1.6555737
32.776168
1.7022132
36.111964
1.5887421
38.151696
1.4034402
39.056716
1.1140173
39.712169
0.80652881
39.630485
0.43580877
39.68165
39.401741
-0.049007789
39.450749
-0.012084505
39.644726
0.047866961
39.570533
0.16376546
39.59627
0.29946652
38.921015
0.47351613
37.977646
0.65440773
35.931072
0.85517314
32.575403
27.897577
0.81080654
-0.054058735
39.504808
-0.018699156
39.609367
0.031725417
39.520109
0.12170489
39.506291
0.22725263
38.815467
0.36753523
37.837364
0.50245051
35.796157
0.63810779
32.439745
27.914729
0.6209564
-0.054549934
39.559358
-0.032101797
39.586919
0.01433712
39.47367
0.11522044
39.405407
0.22157259
38.709115
0.35808723
37.700849
0.49229981
35.661944
0.63230115
32.299744
27.845068
0.70196172
-0.053976845
39.613334
-0.02758113
39.560523
0.011227399
39.434861
0.077941065
39.338694
0.15095941
38.636096
0.25657229
37.595236
0.35275965
35.565757
0.45487675
32.197627
27.817789
0.48215565
-0.049599214
39.662934
-0.036954768
39.547878
-0.0050046709
39.402911
0.08455727
39.249132
0.16487782
38.555776
0.26676056
37.493354
0.36998186
35.462535
0.46235155
32.105257
27.76325
0.51689092
-0.048746901
39.711681
-0.021007159
39.520139
0.011734594
39.370169
0.054845246
39.206021
0.10012949
38.510492
0.17522388
37.418259
0.23888602
35.398873
0.30293606
32.041207
27.722294
0.3438917
-0.036382246
39.748063
-0.02184068
39.505597
0.0023625548
39.345966
0.081091035
39.127293
0.1373953
38.454187
0.20140346
37.354251
0.27404356
35.326233
0.33691084
31.97834
27.636428
0.42277687
-0.031186869
39.77925
0.0022770634
39.472133
0.036854977
39.311388
0.061966884
39.102181
0.082677901
38.433476
0.12406797
37.312861
0.15331158
35.29699
0.19765982
31.933992
27.552006
0.28208165
-0.0082492755
39.787499
0.014200426
39.449683
0.042067664
39.283521
0.1075387
39.03671
0.14107222
38.399943
0.16978264
37.28415
0.2106497
35.256123
0.25540253
31.889239
27.445667
0.3617415
-0.13320423
27.325183
0.25368793
-0.10373506
31.85977
-0.11126531
35.263653
-0.1072035
37.280089
-0.10651393
38.399253
-0.091937339
39.022133
-0.049443915
39.241027
-0.0054335361
39.405673
39.782065
-0.21094235
27.218728
0.31739805
-0.18623701
31.835065
-0.18054359
35.257959
-0.18507316
37.284618
-0.16983645
38.384017
-0.11805272
38.970349
-0.08277517
39.20575
-0.039359667
39.362258
39.742706
-0.1013243
27.061786
0.25826551
-0.095966014
31.829706
-0.14628617
35.30828
-0.18493505
37.323267
-0.19960397
38.398685
-0.1842457
38.954991
-0.13047702
39.151981
-0.061323225
39.293104
39.681383
-0.19726042
26.976336
0.28271059
-0.20623143
31.838677
-0.24552236
35.347571
-0.27960272
37.357347
-0.27695051
38.396033
-0.23185445
38.909895
-0.17749207
39.097619
-0.10095432
39.216566
39.580428
-0.10054818
26.799261
0.27762354
-0.13777024
31.875899
-0.24315735
35.452958
-0.32000849
37.434199
-0.34736052
38.423385
-0.32407941
38.886614
-0.24348487
39.017024
-0.13396075
39.107042
39.446467
-0.21971639
26.748373
0.27060425
-0.2794944
31.935677
-0.37474384
35.548207
-0.43502612
37.494481
-0.43927912
38.427638
-0.388635
38.83597
-0.30374177
38.932131
-0.17970364
38.983004
39.266764
-0.13827751
26.586409
0.30024152
-0.24205845
32.039458
-0.40869094
35.71484
-0.51682273
37.602613
-0.54980249
38.460618
-0.50409161
38.790259
-0.38482311
38.812863
-0.22261954
38.8208
39.044144
-0.28467166
26.603924
0.26715615
-0.41798764
32.172774
-0.57549144
35.872343
-0.65939236
37.686514
-0.66191939
38.463145
-0.59088515
38.719225
-0.46380781
38.685785
-0.27794797
38.63494
38.766196
-0.22649647
26.50873
0.32169087
-0.42159838
32.367876
-0.65016201
36.100907
-0.77359957
37.809951
-0.79811157
38.487657
-0.72532618
38.646439
-0.55922482
38.519684
-0.33026712
38.405983
38.435929
0.5212638
37.914665
0.91225998
38.014986
1.2234368
38.208507
1.4470334
38.422843
1.5478669
38.386824
1.4841009
37.873717
1.2197959
36.365212
0.82290105
32.764771
26.895138
0.43649353
0.58019177
37.334474
1.0346489
37.560529
1.4001185
37.843037
1.6362625
38.186699
1.7378366
38.285249
1.6694352
37.942118
1.335058
36.699589
0.82417854
33.275651
27.148692
0.57062427
0.63481423
36.699659
1.127844
37.0675
1.5285828
37.442299
1.8322009
37.883081
1.9974709
38.11998
1.9884267
37.951163
1.7123089
36.975707
1.1864012
33.801558
27.82939
0.50570316
0.69968735
35.999972
1.2536805
36.513506
1.7090848
36.986894
2.0217059
37.570459
2.2028919
37.938794
2.2169412
37.937113
1.9103918
37.282257
1.2823793
34.429571
28.426918
0.68485144
0.74992635
35.250046
1.3328668
35.930566
1.8412283
36.478533
2.2309643
37.180723
2.4865516
37.683206
2.5580285
37.865636
2.3641811
37.476104
1.7561431
35.037609
29.578272
0.60478838
0.82827971
34.421766
1.4601209
35.298725
2.0149307
35.923723
2.406607
36.789047
2.6879603
37.401853
2.8055419
37.748055
2.6304414
37.651204
2.041058
35.626992
30.822275
0.79705574
0.87404768
33.547718
1.5295288
34.643244
2.1489257
35.304326
2.6205337
36.317439
2.9735513
37.048835
3.1769863
37.54462
3.1250573
37.703133
2.6727836
36.079266
32.581985
0.91307325
0.94819345
32.599525
1.6526183
33.938819
2.3052689
34.651676
2.7811463
35.841562
3.1732233
36.656758
3.4184285
37.299415
3.398971
37.722591
3.0831118
36.395125
34.112751
1.5523461
0.97745052
31.622074
1.7086789
33.20759
2.4439992
33.916355
3.0076814
35.277879
3.4935113
36.170928
3.8595665
36.933359
3.9936186
37.588539
3.9351214
36.453622
35.220424
2.8274484
-0.56989195
32.191966
-1.5506692
34.188368
-2.6754803
35.041166
-4.1179449
36.720344
-5.7012572
37.754241
-7.4820511
38.714153
-9.3564034
39.462891
-10.974499
38.071718
35.648198
-11.402274
-0.52218422
32.71415
-1.4761366
35.14232
-2.5490074
36.114037
-3.9989068
38.170243
-5.6284247
39.383759
-7.5532268
40.638955
-9.5789068
41.488571
-10.967447
39.460258
34.165832
-9.4850802
-0.43517835
33.149329
-1.3554245
36.062566
-2.44738
37.205993
-3.9430731
39.665937
-5.6345602
41.075246
-7.605865
42.61026
-9.6223461
43.505052
-10.589633
40.427544
27.56331
-3.9871111
-0.39134296
33.540672
-1.2701108
36.941334
-2.2958666
38.231749
-3.7833893
41.153459
-5.5413665
42.833223
-7.65316
44.722054
-9.6455968
45.497489
-10.36573
41.147678
18.141792
-0.94421137
-0.29988396
33.840556
-1.1340625
37.775512
-2.1794896
39.277176
-3.7026567
42.676626
-5.5155062
44.646072
-7.6794996
46.886047
-9.6639953
47.481985
-9.6498204
41.133503
8.7990671
-0.30709605
-0.25384061
34.094396
-1.0404329
38.562105
-2.0237325
40.260475
-3.5466255
44.199519
-5.3997434
46.49919
-7.6845164
49.17082
-9.6682298
49.465698
-8.9487075
40.41398
-0.052947657
-0.096692692
-0.17238672
34.266783
-0.90580641
39.295524
-1.874386
41.229055
-3.3937991
45.718932
-5.3337826
48.439174
-7.6663
51.503338
-9.3637326
51.163131
-5.6469671
36.697215
-6.5046452
0.80473046
-0.1336637
34.400447
-0.81343564
39.975296
-1.7393197
42.154939
-3.269569
47.249181
-5.2163594
50.385964
-7.5048055
53.791784
-8.9081775
52.566503
-4.6441483
32.433186
-11.918588
0.76979456
-0.06772343
34.46817
-0.67899448
40.586567
-1.5762231
43.052168
-3.0746259
48.747584
-5.1028334
52.414172
-7.3473243
56.036275
-8.2589921
53.47817
-3.9599332
28.134127
-16.846441
0.96791925
1.9518252
-19.515581
0.71731568
4.2914711
25.794481
3.5536329
54.216009
2.099139
57.490768
0.83112899
53.682182
0.031541701
49.547171
-0.29902019
43.38273
-0.37970602
40.667253
34.088464
1.8020893
-22.108835
0.79116385
4.0866696
23.509901
3.4111379
54.89154
1.9321126
58.969794
0.63865993
54.975634
-0.10219612
50.288028
-0.39758769
43.678121
-0.43159393
40.70126
33.65687
1.5856859
-24.597156
0.90263541
3.901063
21.194524
3.2931076
55.499496
1.8139069
60.448994
0.5289056
56.260636
-0.2126675
51.029601
-0.45641325
43.921867
-0.45123604
40.696082
33.205634
1.4392918
-26.9959
0.95945247
3.6664855
18.96733
3.1315824
56.034399
1.6446612
61.935916
0.34603474
57.559262
-0.32520007
51.700835
-0.5423759
44.139043
-0.50440704
40.658114
32.701227
1.2495479
-29.258218
1.0127698
3.4718074
16.74507
3.0062933
56.499913
1.5173062
63.424903
0.2390069
58.837562
-0.4256382
52.365481
-0.58878309
44.302188
-0.50974613
40.579077
32.191481
1.1218396
-31.397004
1.0169466
3.221804
14.645106
2.8308917
56.890825
1.3395451
64.916249
0.060113303
60.116993
-0.52504201
52.950636
-0.66120389
44.43835
-0.54904876
40.466921
31.642432
0.92847359
-33.319387
0.99390925
3.029296
12.544284
2.7015566
57.218565
1.2049187
66.412887
-0.041610692
61.363523
-0.6114523
53.520477
-0.69956241
44.52646
-0.53314873
40.300508
31.109284
0.81197869
-35.278325
1.1469598
2.7756143
10.580648
2.5159474
57.478231
1.0336485
67.895186
-0.20937218
62.606543
-0.69869879
54.009804
-0.75892272
44.586684
-0.56057605
40.102161
30.548707
0.61336519
-36.249699
0.35800842
2.5289009
8.6651123
2.3919177
57.615215
0.8839647
69.403139
-0.31687171
63.80738
-0.76638644
54.459319
-0.7848573
44.605154
-0.51980052
39.837104
30.028907
3.2569628
-38.74728
-0.75938173
-0.77470678
12.696782
-4.5568846
61.397392
-6.6993872
71.545642
-7.0678301
64.175823
-5.7905475
53.182036
-4.1718929
42.9865
-2.1280127
37.793224
27.900894
3.0794545
-41.84491
0.018175599
-1.7041762
17.480413
-5.6899476
65.383164
-7.7652759
73.62097
-7.4911731
63.90172
-5.6957919
51.386655
-3.8655499
41.156258
-1.4299492
35.357623
26.470945
2.6312156
-43.238205
-1.2379214
-2.8028782
22.914506
-6.5264685
69.106754
-8.1493257
75.243827
-7.6166924
63.369087
-5.5992605
49.369223
-3.8367697
39.393767
-1.181505
32.702359
25.28944
2.3228418
-43.083955
-2.4770912
-3.3900813
28.627429
-7.3488106
73.065484
-8.8010791
76.696096
-7.5933315
62.161339
-5.2380502
47.013942
-3.2847556
37.440472
-0.15248394
29.570087
25.136956
1.7412601
-41.225958
-3.5992577
-4.3736026
34.742292
-7.9629717
76.654853
-8.6399263
77.37305
-7.346798
60.868211
-4.9270164
44.59416
-2.6952184
35.208674
0.22857696
26.646292
25.365533
1.3650166
-37.943876
-4.6470982
-4.8477219
40.95503
-8.5385547
80.345685
-9.1944462
78.028942
-7.168885
58.84265
-4.0361536
41.461429
-1.2842115
32.456732
1.6597438
23.702336
27.025277
0.5942809
-33.160642
-5.3775153
-5.8356638
47.384975
-9.0690603
83.579082
-8.7048766
77.664758
-6.4126462
56.550419
-3.5808428
38.629625
-0.41559717
29.291487
2.0235625
21.263177
29.048839
-0.015199252
-27.701825
-5.4436178
-6.147805
53.517581
-9.3765072
86.807784
-9.0266939
77.314945
-6.4498994
53.973625
-2.90696
35.086686
1.4424777
24.942049
3.7906846
18.91497
32.839524
-0.81892705
-4.8650764
-22.017821
-7.1902267
59.888881
-9.910103
89.52766
-8.4785701
75.883412
-5.2086047
50.703659
-1.3570783
31.235159
2.8985912
20.686379
3.7488755
18.064685
36.5884
-0.26841269
34.156274
0.2605455
-34.148407
1.3604021
-5.7079123
4.0790975
2.7077907
-51.244715
49.897326
3.1596537
-65.244301
64.792438
3.5040498
-62.256396
61.912
6.1065105
-20.897073
18.294612
9.0593347
14.282422
-17.235246
10.371231
35.628347
-36.940243
32.659172
-33.857084
-0.19174654
34.095087
0.25293303
1.5599424
-7.4596012
3.0015838
-52.686356
3.5394738
-65.782191
3.6946952
-62.411617
5.7877019
-22.990079
8.4992669
11.570857
9.7943454
34.333269
31.418688
-0.13527865
33.983161
0.24720462
1.7558209
-9.3507007
3.3029787
-54.233514
3.8755683
-66.354781
3.9145795
-62.450628
5.6220188
-24.697519
8.1286241
9.0642516
9.3422714
33.119622
30.162696
-0.089379527
33.828986
0.24355535
1.9110976
-11.351178
3.5497204
-55.872137
4.1896402
-66.994701
4.1416763
-62.402664
5.5276
-26.083442
7.9026409
6.6892106
8.9902701
32.031992
28.924266
-0.029838445
33.61979
0.2390337
2.118933
-13.499949
3.8359806
-57.589184
4.5359917
-67.694712
4.4057846
-62.272457
5.4897469
-27.167405
7.7271803
4.4517772
8.73277
31.026403
27.622923
0.024679581
33.359723
0.23538766
2.293794
-15.769064
4.099276
-59.394666
4.8874456
-68.482881
4.6748616
-62.059873
5.4667606
-27.959304
7.4787025
2.4398353
8.5055779
29.999527
26.083481
0.063314308
33.065791
0.23061787
2.4462127
-18.151962
4.3942364
-61.34269
5.2369857
-69.325631
4.8888141
-61.711702
5.4646999
-28.535189
7.2805984
0.62393674
8.3747149
28.905411
24.236813
0.11270288
32.727435
0.22565275
2.6362811
-20.67554
4.7312616
-63.43767
5.6007743
-70.195143
5.0751166
-61.186044
5.5077693
-28.967842
7.2368546
-1.1051485
8.4913184
27.650947
21.974351
0.16468938
0.22032285
32.342423
2.8301642
-23.341015
5.0169007
-65.624407
5.8971114
-71.075354
5.234935
-60.523867
5.6282647
-29.361172
7.3949215
-2.8718053
9.0346546
26.011214
19.015506
-4.9453313
-26.506817
3.4705876
27.981561
-0.49498208
-19.28138
14.831032
6.1011004
25.449118
-32.045202
5.3574039
11.05961
-10.315913
0.17873964
-44.21492
49.393584
-3.7023598
-67.276437
71.157536
-3.8611026
-67.836148
67.994891
-2.0402136
-60.157338
58.336449
-48.302694
46.26248
-5.2186754
-24.308749
3.0206074
-1.6668293
-22.833226
5.4660051
18.316283
6.377219
10.148396
1.9690353
-39.806736
-1.9771843
-63.330217
-3.491185
-66.322147
-2.3375784
-61.310945
-50.640272
-5.255994
-21.316906
2.26415
-2.9123852
-25.176835
4.4109648
10.992933
6.658442
7.9009184
2.8662459
-36.01454
-1.0020443
-59.461927
-2.5787502
-64.745442
-1.9965342
-61.893161
-52.636806
-4.9306336
-18.083238
1.6969666
-3.2969228
-26.810546
3.9224866
3.7735238
6.9381696
4.8852354
4.0463815
-33.122752
0.34823993
-55.763786
-2.0727835
-62.324418
-1.9645057
-62.001439
-54.601312
-4.9488381
-13.979411
0.84501102
-4.0875398
-27.671844
2.9053466
-3.2193627
6.8199672
0.9706147
4.8313141
-31.134099
1.363048
-52.295519
-0.88066954
-60.080701
-1.5158343
-61.366274
-56.117146
-4.8065171
-7.6283257
-1.5445686
-5.2517798
-27.226582
1.6703341
-10.141477
6.6348954
-3.9939467
5.6415545
-30.140758
2.4326944
-49.086659
-0.23859514
-57.409411
-1.358373
-60.246496
-57.475519
-4.5456219
-1.6071577
-1.4755463
-5.9316289
-25.840574
0.73165109
-16.804757
6.4616316
-9.7239271
6.070242
-29.749368
3.3128476
-46.329265
0.91269702
-55.00926
-0.58268002
-58.751119
-58.058199
-4.3940158
3.5779293
-0.79107128
-6.0669346
-24.167655
0.36944193
-23.241134
6.2936904
-15.648175
6.5268143
-29.982492
4.0453688
-43.84782
1.5035781
-52.46747
-0.31634632
-56.931195
-58.374545
-3.6876058
6.7238168
0.54171827
-5.6660586
-22.189202
-0.16862954
-28.738564
5.6087532
-21.425558
6.3198361
-30.693575
4.4877486
-42.015732
2.4310108
-50.410732
0.43260932
-54.932793
-57.941936
-1.2224412
49.073263
-47.850822
-2.282787
44.836215
-43.775869
-3.1292023
42.026877
-41.180462
-3.5180393
37.282511
-36.893674
-3.3455356
34.265084
-34.437588
-2.7894817
33.19867
-33.754724
-2.4088913
37.062108
-37.442699
-0.66586894
30.882341
-32.625363
-3.5086455
1.8797877
0.96298891
-1.2238605
50.297124
-2.3406453
45.953
-3.2075614
42.893793
-3.6264972
37.701447
-3.3892927
34.02788
-2.6106584
32.420035
-2.1573733
36.608823
-0.59519048
29.320158
-4.8099354
0.70609948
-1.1943015
51.491425
-2.3536101
47.112309
-3.2834811
43.823664
-3.7363831
38.154349
-3.4248867
33.716383
-2.4881946
31.483343
-1.8267065
35.947335
-0.3959139
27.889365
-5.8542062
0.64835701
-1.2021443
52.693569
-2.3914708
48.301635
-3.3427023
44.774896
-3.8420251
38.653672
-3.4766177
33.350976
-2.3154544
30.32218
-1.5067041
35.138584
-0.21022742
26.592888
-6.7991431
0.73470957
-1.1437556
53.837325
-2.3871073
49.544987
-3.4061398
45.793928
-3.9548371
39.202369
-3.5055052
32.901644
-2.1298568
28.946531
-1.2542104
34.262938
-0.090081034
25.428759
-7.6580246
0.76880076
-1.1102478
54.947573
-2.4062166
50.840955
-3.4612809
46.848992
-4.0754529
39.816541
-3.6246111
32.450802
-2.0570548
27.378975
-0.95472858
33.16061
0.047871683
24.426159
-8.3160657
0.70591278
-1.0466064
55.994179
-2.376769
52.171118
-3.5086397
47.980863
-4.1729725
40.480874
-3.6220103
31.89984
-1.8872775
25.644243
-0.59666747
31.869999
0.28414423
23.545348
-8.6544663
0.62254483
-1.0219574
57.016137
-2.3860382
53.535199
-3.5532476
49.148072
-4.3077066
41.235333
-3.7646489
31.356782
-1.7322121
23.611806
-0.27136225
30.409149
0.43020434
22.843782
-7.8729289
-0.35133321
-0.92579958
-2.323394
-3.5860537
-4.3664531
-3.7032466
-1.5169989
0.15358608
0.80816572
-0.34094627
1.7611637
-2.0907739
2.2093978
5.4015313
-36.26573
5.4895163
-37.530684
5.6192083
-33.884416
5.3563545
-34.174734
4.5795351
-36.116855
3.3155426
-39.916469
1.7961698
-42.256497
-46.054652
4.4711109
-7.4200359
0.85815116
6.1979244
-37.992544
5.8264108
-37.15917
5.5959636
-33.653968
5.2327764
-33.811547
4.4669829
-35.351061
3.2174548
-38.666941
1.7294689
-40.768511
-44.325183
6.321333
-13.661329
-0.080039591
6.6106169
-38.281828
6.0269068
-36.57546
5.6298912
-33.256953
5.1348206
-33.316476
4.3591367
-34.575377
3.1714031
-37.479208
1.7350215
-39.332129
-42.590162
7.1358412
-20.767041
-0.030129323
6.9360096
-38.081996
6.1887778
-35.828228
5.6189455
-32.68712
5.0352662
-32.732797
4.2513336
-33.791445
3.0617086
-36.289583
1.6781065
-37.948527
-40.912055
7.9258176
-28.529253
-0.16360577
7.3005444
-37.456723
6.2850874
-34.812772
5.5953761
-31.997409
4.9431953
-32.080616
4.138251
-32.9865
3.0081087
-35.15944
1.6702274
-36.610646
-39.241828
8.5965045
-36.371661
-0.75409669
7.5319072
-36.392126
6.3268089
-33.607673
5.5689412
-31.239541
4.8824144
-31.39409
4.0521296
-32.156215
2.9068817
-34.014192
1.5756354
-35.279399
-37.666193
9.1685927
-39.921264
-5.6189898
7.6588326
-34.882366
6.3471977
-32.296038
5.5391272
-30.431471
4.8091327
-30.664095
3.9494159
-31.296499
2.8552523
-32.920029
1.5740561
-33.998203
-36.092136
9.4833331
-38.649279
-10.755318
7.5845699
-32.983602
6.3296473
-31.041116
5.5083159
-29.610139
4.7609709
-29.91675
3.880539
-30.416067
2.7598646
-31.799354
1.4888583
-32.727197
-34.603278
9.4025984
-36.080298
-11.97158
7.445237
-31.026241
6.3122172
-29.908096
5.4745487
-28.772471
4.6783972
-29.120599
3.7812478
-29.518917
2.7085406
-30.726647
1.4793614
-31.498018
-33.123917
0.1992312
34.737227
-34.936459
0.4810482
33.811862
-34.093679
0.76423191
33.497063
-33.780247
1.0980517
33.046523
-33.380343
1.4002263
33.078572
-33.380747
1.6268677
33.010201
-33.236842
1.5568819
33.270133
-33.200147
1.0643764
31.434543
-30.942038
26.613697
-25.998322
0.44900152
0.18547297
34.551754
0.4472551
33.55008
0.76055402
33.183764
1.1404166
32.66666
1.4884341
32.730555
1.7838728
32.714762
1.7505303
33.303476
1.2477275
31.937346
27.290758
0.57066613
0.21373677
34.338018
0.5182407
33.245576
0.83277355
32.869231
1.2263548
32.273079
1.6258308
32.331079
1.9708589
32.369734
2.0774162
33.196918
1.5616726
32.45309
28.416084
0.4363468
0.1881344
34.149883
0.46890639
32.964804
0.82128287
32.516855
1.2564167
31.837945
1.6980339
31.889462
2.1483173
31.919451
2.3337843
33.011451
1.9496138
32.83726
29.787451
0.57824606
0.21501361
33.93487
0.5319018
32.647916
0.8727401
32.176016
1.3108427
31.399843
1.7994154
31.400889
2.3024176
31.416449
2.6793003
32.634568
2.4201353
33.096425
31.516992
0.69059437
0.18677005
33.7481
0.47080019
32.363886
0.84212827
31.804688
1.3184635
30.923507
1.8504115
30.868941
2.4437487
30.823111
2.9286606
32.149656
2.9313162
33.09377
33.374792
1.0735164
0.21133598
33.536764
0.52463888
32.050583
0.87829508
31.451032
1.3387435
30.463059
1.9042802
30.303404
2.5260144
30.201377
3.1723189
31.503352
3.4626341
32.803455
34.675595
2.1618312
0.18711174
33.349652
0.45688563
31.780809
0.83810752
31.06981
1.3206284
29.980538
1.906502
29.717531
2.6074505
29.500429
3.3043233
30.806479
3.9578119
32.149966
35.6973
2.9361069
0.22573514
0.50852626
0.85168922
1.3133102
1.9102421
2.6382001
3.5365831
4.6603082
4.2773106
-0.49658425
-25.846037
0.34429993
-0.76655835
-30.672064
-0.88913974
-33.077566
-0.75530782
-33.370674
-0.57657297
-33.559482
-0.35227338
-33.604642
-0.18121842
-33.951302
-0.056215153
-34.218682
-34.992674
-0.4449744
-25.684208
0.28314543
-0.69518158
-30.421857
-0.79631248
-32.976435
-0.7026542