/*--------------------------------*- C++ -*----------------------------------*\
  =========                 |
  \\      /  F ield         | OpenFOAM: The Open Source CFD Toolbox
   \\    /   O peration     | Website:  https://openfoam.org
    \\  /    A nd           | Version:  11
     \\/     M anipulation  |
\*---------------------------------------------------------------------------*/
FoamFile
{
    format      ascii;
    class       surfaceScalarField;
    location    "19.7";
    object      phi;
}
// * * * * * * * * * * * * * * * * * * * * * * * * * * * * * * * * * * * * * //

dimensions      [0 3 -1 0 0 0 0];

internalField   nonuniform List<scalar> 
8667
(
1.5884067
0.19403527
-0.0046641834
1.397589
0.21227152
-0.021453842
1.205526
0.22275872
-0.030695705
1.0128176
0.24200353
-0.049295096
0.81949452
0.25243807
-0.059115014
0.62514752
0.27483175
-0.080484748
0.43113334
0.28974018
-0.095725997
0.23100165
0.36710692
-0.16697524
0.35262352
-0.17449529
0.052873419
1.5883596
0.38345348
1.3975954
0.4030357
1.205991
0.41436312
1.0130037
0.43499082
0.81956587
0.44587594
0.62478034
0.46961727
0.42932425
0.48519627
0.23038984
0.56604134
0.53162091
0.051392457
1.5885274
0.57270385
1.3976243
0.59393886
1.2064569
0.6055305
1.0134119
0.62803576
0.81964261
0.63964527
0.62445708
0.66480281
0.42864379
0.68100956
0.22877871
0.76590642
0.70998627
0.05041335
1.588594
0.76188769
1.3981112
0.78442162
1.2072653
0.79637639
1.0141062
0.82119486
0.81993501
0.83381647
0.62448524
0.86025258
0.42751123
0.87798357
0.22608275
0.96733489
0.88642134
0.04964768
1.5887364
0.95092886
1.3989085
0.97424954
1.2078667
0.98741818
1.0153487
1.0137129
0.82046548
1.0286997
0.6246725
1.0560456
0.4278221
1.074834
0.22464483
1.1705122
1.0618183
0.04924789
1.5889011
1.1398055
1.3996026
1.163548
1.2086237
1.1783971
1.0162836
1.206053
0.82146301
1.2235203
0.62469164
1.2528169
0.42692953
1.2725961
0.22175963
1.3756821
1.2361066
0.047471328
1.589109
1.3284743
1.400109
1.352548
1.2096616
1.3688445
1.0173689
1.3983456
0.82267083
1.4182184
0.62577029
1.4497175
0.42767124
1.4706951
0.2202067
1.5831466
1.4098252
0.046488083
1.5891607
1.5170915
1.4005731
1.5411356
1.2107146
1.558703
1.0187863
1.5902739
0.82361348
1.6133913
0.6258447
1.6474863
0.42727354
1.6692663
0.21763274
1.7927874
1.5850837
0.042374293
1.5894063
1.7054629
1.4009766
1.7295653
1.2113927
1.7482869
1.0200349
1.7816317
0.82551847
1.8079077
0.62716226
1.8458425
0.42842391
1.8680046
0.21700789
2.0042034
1.7620948
0.039996707
1.8876166
1.5956241
2.0695724
1.595822
2.2510966
1.5962542
2.4326336
1.596241
2.6138148
1.5965949
2.7947895
1.5968033
2.9752971
1.5972704
3.1538665
1.5992086
1.5998708
3.3317737
1.9118164
1.4133731
2.0936589
1.4139795
2.2750644
1.4148487
2.4555683
1.4157372
2.6361003
1.4160628
2.8162575
1.4166461
2.9973922
1.4161357
3.1799602
1.4166405
1.4155399
3.3642912
1.9326552
1.2290048
2.1164916
1.230143
2.3003471
1.2309932
2.4836264
1.2324579
2.6662077
1.2334815
2.8473433
1.2355106
3.0266631
1.2368158
3.2039286
1.2393751
1.240139
3.3793295
1.9684893
1.0421472
2.1547582
1.0438741
2.3409861
1.0447653
2.5272347
1.0462093
2.714026
1.0466902
2.9014229
1.0481136
3.0896789
1.0485598
3.2780255
1.0510285
1.0510957
3.4670688
1.999393
0.85066191
2.1905408
0.85272625
2.3814947
0.8538114
2.5713782
0.85632583
2.7601514
0.857917
2.9474375
0.8608275
3.133474
0.86252333
3.3187948
0.86570772
0.86738231
3.5025081
2.0419678
0.65453655
2.2387463
0.65594776
2.4356535
0.65690426
2.63322
0.65875928
2.8310993
0.66003768
3.0297246
0.66220225
3.2285197
0.66372816
3.4276102
0.66661726
0.66787037
3.6271221
2.0695377
0.45300348
2.2732625
0.45222293
2.4773701
0.45279668
2.6817998
0.45432955
2.8856768
0.45616074
3.0892517
0.45862737
3.2919706
0.46100923
3.4948547
0.46373316
0.46721679
3.6955083
2.2186917
0.23851522
2.4304192
0.24049537
2.6378406
0.24537529
2.8428429
0.24932729
3.0467037
0.25229988
3.2494763
0.2558548
3.4520379
0.25844764
3.6540034
0.26176767
0.26388633
3.8573339
1.9595402
0.041069889
2.1803323
0.019703222
2.4243597
0.0013479545
2.6741011
-0.00041415177
2.9276179
-0.0012169089
3.1848657
-0.0013930515
3.4446534
-0.0013400176
3.7071206
-0.00069949075
3.9703944
0.00061251367
3.3218455
0.0099282675
3.3129797
0.0088657164
3.3043602
0.0086195919
3.2967743
0.0075858096
3.289311
0.0074633429
3.2830915
0.0062195081
3.27686
0.0062314811
3.2721057
0.0047543424
0.0048725672
3.2672331
3.3576194
0.016600049
3.3517695
0.014715634
3.3459721
0.014417012
3.3414499
0.012107994
3.3368729
0.012040357
3.3335916
0.0095007486
3.3301968
0.0096262824
3.3281262
0.0068249174
0.0071973899
3.3258014
3.3764773
0.019452291
3.3742407
0.0169522
3.3722904
0.01636727
3.370915
0.01348342
3.3698574
0.013097984
3.3693506
0.010007507
3.3691777
0.0097992075
3.3695165
0.0064861489
0.0065204798
3.3701934
3.4652333
0.021287756
3.4637084
0.018477049
3.4621498
0.017925913
3.4607256
0.014907668
3.4593147
0.014508796
3.4579215
0.011400765
3.4565591
0.011161544
3.4551417
0.0079035556
0.0079117316
3.4537505
3.5024439
0.021352039
3.5025858
0.018335117
3.5027977
0.01771395
3.5031105
0.014594885
3.5035609
0.014058465
3.5039724
0.010989183
3.5046282
0.010505783
3.5050398
0.0074919738
0.0071606722
3.5057908
3.6265097
0.02196445
3.6255284
0.019316479
3.6248379
0.018404455
3.6233333
0.016099403
3.6219847
0.015407121
3.6195537
0.013420132
3.6171025
0.012957006
3.6135619
0.011032623
0.01069871
3.6100238
3.6980794
0.019393304
3.6990114
0.018384489
3.6995206
0.017895296
3.6986218
0.016998199
3.6974816
0.016547301
3.6949359
0.015965827
3.6921545
0.015738436
3.6880659
0.015121204
0.015547625
3.683217
3.8468549
0.029872268
3.8362718
0.028967562
3.826402
0.027765078
3.8174239
0.025976285
3.8090155
0.024955746
3.7996539
0.025327444
3.7896825
0.025709849
3.7769983
0.027805352
0.030184957
3.762361
3.9987061
0.0015604988
4.0238761
0.0037976087
4.046215
0.0054261261
4.0590696
0.013121717
4.0607442
0.023281107
4.0496561
0.036415622
4.0342614
0.041104475
4.0142013
0.047865525
3.9856478
0.058738414
3.9699934
0.074598893
-0.058944458
3.9398807
0.071099412
-0.040986734
3.9039797
0.068068946
-0.032167949
3.8629564
0.06675538
-0.025732105
3.8185996
0.064738146
-0.020381342
3.7757401
0.06360092
-0.020741384
3.7357422
0.063014594
-0.023016719
3.692528
0.064216313
-0.021002057
0.064620256
3.6448225
-0.016914754
3.7613909
0.075568982
3.7570541
0.075436168
3.7500943
0.075028767
3.7417197
0.075130019
3.7316134
0.074844401
3.7203935
0.074820831
3.7082441
0.075163985
3.69668
0.07578043
0.076914852
3.6843854
3.6888121
0.06997388
3.6929401
0.071308139
3.6949854
0.072983459
3.6958352
0.074280284
3.6948621
0.075817484
3.6927882
0.076894721
3.6894358
0.078516337
3.6855117
0.0797046
0.081578615
3.6808479
3.6202851
0.059712579
3.6308333
0.060759948
3.6399818
0.063835026
3.6493223
0.064939741
3.6570641
0.068075646
3.6647779
0.069180943
3.6708952
0.072399011
3.6770139
0.073585936
0.076958466
3.6816341
3.5181778
0.047325658
3.5311593
0.047778443
3.543444
0.051550275
3.5564342
0.051949525
3.5686377
0.055872136
3.581517
0.056301653
3.5935149
0.060401197
3.6061611
0.060939674
0.065289
3.6178306
3.4661836
0.034892558
3.4789074
0.035054642
3.491624
0.038833632
3.504723
0.038850532
3.5177762
0.042818925
3.5313513
0.042726621
3.5448451
0.046907405
3.5590179
0.046766863
0.051239969
3.5730669
3.3836396
0.021446349
3.3975584
0.021135882
3.4116641
0.024727848
3.4262853
0.024229405
3.4410239
0.028080295
3.4563867
0.027363837
3.4718296
0.031464504
3.4880408
0.03055568
0.034973506
3.5043072
3.3378489
0.0093988761
3.3498836
0.0091012054
3.3631468
0.011464629
3.3763575
0.011018659
3.391003
0.013434821
3.4055517
0.012815115
3.421655
0.01536124
3.4375675
0.014643133
0.017370774
3.4551703
3.276632
3.2857332
3.2971978
3.3082165
3.3216513
3.3344664
3.3498276
3.3644708
3.3818416
3.3984286
-0.016587036
3.4179397
-0.01951111
3.436674
-0.018734287
3.4583569
-0.021682943
3.4795964
-0.021239475
3.5036421
-0.024045653
3.527595
-0.023952912
3.5543497
-0.026754725
-0.027014612
3.5813643
3.4724983
-0.033915098
3.4917003
-0.038713039
3.5105834
-0.037617473
3.531465
-0.042564532
3.5522863
-0.042060731
3.5750123
-0.046771627
3.5978465
-0.046787156
3.6227722
-0.051680407
-0.052174037
3.6479316
3.5214976
-0.051105496
3.5387317
-0.055947139
3.5569967
-0.055882463
3.5755031
-0.061070959
3.5948451
-0.061402661
3.6148377
-0.066764257
3.6355139
-0.067463374
3.6572283
-0.073394823
-0.07440649
3.6794608
3.5879346
-0.065973222
3.6025966
-0.070609138
3.6182099
-0.071495751
3.6336222
-0.076483256
3.649868
-0.077648457
3.6662179
-0.083114133
3.6833958
-0.084641257
3.7007787
-0.090777798
-0.092657044
3.7190293
3.6301593
-0.078301919
3.6413992
-0.081849094
3.6532938
-0.083390295
3.6640083
-0.087197777
3.6754916
-0.089131779
3.6857712
-0.093393663
3.697064
-0.09593412
3.7071374
-0.10085117
-0.103984
3.7184643
3.6863899
-0.083057777
3.6896384
-0.08509757
3.6931267
-0.086878597
3.6951348
-0.089205865
3.6976027
-0.091599754
3.6986078
-0.094398731
3.7002922
-0.097618458
3.7005812
-0.10114018
-0.10524652
3.7018437
3.6764051
-0.078614937
3.6713834
-0.080075935
3.6662533
-0.081748457
3.6601665
-0.083119096
3.6534875
-0.084920728
3.645543
-0.086454225
3.6366886
-0.088764102
3.6268098
-0.0912613
-0.094656511
3.6162197
3.6712198
-0.065449326
3.6552716
-0.064127711
3.6368121
-0.063289006
3.6142338
-0.060540812
3.587921
-0.05860788
3.557143
-0.055676236
3.5241711
-0.055792206
3.489475
-0.056565146
-0.060492054
3.4553105
3.5942918
-0.014918703
3.5445234
-0.014359261
3.4952441
-0.014009753
3.4467927
-0.012089416
3.3975633
-0.0093784621
3.3501752
-0.0082880776
3.3058297
-0.011446731
3.2637413
-0.01447672
3.2215279
-0.018278733
0.064613494
3.1791483
-0.022233829
0.098924378
3.4209996
0.11003794
3.6051062
0.10979148
3.7020901
0.099560826
3.728695
0.080968942
3.7376212
0.057361395
3.7030683
0.029893383
3.6753996
3.6112577
0.071995314
3.1377706
-0.030617609
0.10374494
3.38925
0.115112
3.5937391
0.1136062
3.7035959
0.10178536
3.7405158
0.082258822
3.7571477
0.058150261
3.7271769
0.030458351
3.7030915
3.641716
0.079482454
3.0897773
-0.031489237
0.11051409
3.3582184
0.12168017
3.5825731
0.12063582
3.7046403
0.10961585
3.7515358
0.089651557
3.777112
0.063859303
3.7529691
0.033589747
3.7333611
3.6753058
0.088857342
3.0423896
-0.041469594
0.11672029
3.3303554
0.12760521
3.5716881
0.12515519
3.7070903
0.11226665
3.7644244
0.091229627
3.798149
0.064979695
3.7792191
0.034396597
3.7639442
3.7097024
0.097530213
2.9856019
-0.040742492
0.12587789
3.3020077
0.13624812
3.5613179
0.13373363
3.7096048
0.12136584
3.7767921
0.099512517
3.8200024
0.071209147
3.8075225
0.037801388
3.797352
3.7475038
0.10751028
2.9314842
-0.05339265
0.13310117
3.2764168
0.1428554
3.5515637
0.13872459
3.7137356
0.12438824
3.7911285
0.10139946
3.8429911
0.072757146
3.8361648
0.038954275
3.8311548
3.786458
0.11729859
2.8685883
-0.054402642
0.14436307
3.2493524
0.15361814
3.5423086
0.14913861
3.7182151
0.13497421
3.8052929
0.11071348
3.8672519
0.079527212
3.867351
0.042603864
3.8680782
3.8290619
0.12861303
2.8149322
-0.074956936
0.15238403
3.2255814
0.16060756
3.5340851
0.15436517
3.7244575
0.13815085
3.8215072
0.11272566
3.8926771
0.081424094
3.8986526
0.044084911
3.9054174
3.8731468
0.14146592
2.7577374
-0.084271082
0.16653115
3.2005161
0.17424654
3.5263697
0.16743735
3.7312667
0.15118751
3.8377571
0.12350758
3.920357
0.088765078
3.9333951
0.047947742
3.9462347
3.9210946
-0.0097638913
3.9308585
-0.010014164
3.946485
-0.0065132526
3.9298942
0.0046223455
3.9092214
0.017130007
3.8252494
0.037235014
3.7111617
0.057615541
3.5059892
0.080564852
3.1775668
2.768282
0.070020196
-0.012180324
3.9430388
-0.015104706
3.9494093
-0.015078419
3.9298679
-0.0070486999
3.9011917
0.0045128677
3.8136878
0.023350817
3.6923238
0.040820148
3.4885198
0.05942302
3.1589639
2.7641005
0.063604494
-0.012735112
3.9557739
-0.015729695
3.9524039
-0.014278349
3.9284166
-0.0052095685
3.8921229
0.0047177933
3.8037605
0.022292557
3.674749
0.039182476
3.4716299
0.057860436
3.140286
2.7599977
0.061963312
-0.014920341
3.9706942
-0.020667594
3.9581512
-0.023263622
3.9310126
-0.017779862
3.8866391
-0.008264089
3.7942447
0.0082943321
3.6581906
0.023667972
3.4562563
0.038987946
3.124966
2.7582378
0.04074779
-0.015398302
3.9860925
-0.020943154
3.963696
-0.021618727
3.9316882
-0.014478039
3.8794984
-0.0063513543
3.786118
0.0090773195
3.6427619
0.02396297
3.4413706
0.038934073
3.1099949
2.7526708
0.044501053
-0.017670925
4.0037635
-0.025673656
3.9716988
-0.030476589
3.9364911
-0.027124347
3.8761462
-0.019426785
3.7784204
-0.0049673948
3.6283025
0.0089270025
3.4274762
0.023061232
3.0958607
2.7448798
0.030852242
-0.018144628
4.0219081
-0.025535632
3.9790898
-0.027998604
3.9389541
-0.022537734
3.8706853
-0.015928206
3.7718109
-0.0025268527
3.6149012
0.01104446
3.4139049
0.025625356
3.0812798
2.7335873
0.036917849
-0.020437562
4.0423456
-0.029754694
3.9884069
-0.036370779
3.9455702
-0.034890311
3.8692049
-0.028896797
3.7658174
-0.016443578
3.6024479
-0.0030760277
3.4005374
0.011767749
3.066436
2.7197676
0.025587489
-0.020484451
4.0628301
-0.028726677
3.9966491
-0.032870877
3.9497144
-0.028836526
3.8651705
-0.023649277
3.7606301
-0.012188391
3.590987
0.00080927567
3.3875397
0.015971397
3.0512739
2.7031552
0.032583794
-0.0035372773
2.6840977
0.022594799
0.012096011
3.0356406
0.025271535
3.3743642
0.036049176
3.5802094
0.04056305
3.7561163
0.040541278
3.8651923
0.032282623
3.957973
0.022228307
4.0067034
4.0850584
-0.0091057536
2.6629483
0.030255096
0.0063863533
3.0201485
0.01902559
3.3617249
0.028912888
3.5703221
0.032862569
3.7521666
0.035836588
3.8622183
0.030628382
3.9631812
0.021722561
4.0156093
4.106781
0.0022655578
2.6396516
0.021031155
0.018472957
3.0039411
0.031062994
3.3491349
0.040275418
3.5611097
0.04359396
3.7488481
0.04289409
3.8629181
0.033417834
3.9726575
0.022998164
4.0260289
4.1297791
-0.0046878892
2.6151956
0.029143893
0.010908512
2.9883447
0.022785781
3.3372576
0.031192529
3.5527029
0.033872951
3.7461676
0.036535655
3.8602554
0.030747187
3.9784459
0.021898312
4.0348778
4.1516774
0.0058977761
2.5891546
0.020143248
0.021985573
2.9722569
0.033447822
3.3257954
0.041093463
3.5450573
0.043143669
3.7441174
0.04211614
3.861283
0.032495857
3.9880662
0.022544822
4.0448288
4.1742223
-0.002747113
2.5632165
0.0286852
0.012441308
2.9570685
0.023034727
3.315202
0.029962656
3.5381294
0.031684331
3.7423957
0.033976129
3.8589912
0.028678053
3.9933643
0.020758779
4.0527481
4.194981
0.0069221369
2.536455
0.019839386
0.02218875
2.9418019
0.031918324
3.3054724
0.037908058
3.5321396
0.039311939
3.7409919
0.038133727
3.8601694
0.029254082
4.002244
0.020654772
4.0613474
4.2156358
-0.0034961181
2.511447
0.028504095
0.010498432
2.9278073
0.019200707
3.2967701
0.024810307
3.52653
0.026161039
3.7396411
0.028215381
3.858115
0.024270119
4.0061892
0.018115996
4.0675016
4.2337518
0.0046452533
2.487089
0.019712786
0.018347281
2.9141053
0.026036778
3.2890806
0.030474521
3.5220923
0.03158532
3.7385303
0.030623966
3.8590764
0.023701206
4.013112
0.017318649
4.0738841
4.2510705
0.0010109726
4.2500595
0.0086991743
4.0661959
0.017638569
4.0041726
0.027726314
3.8489886
0.033673985
3.7325827
0.038066238
3.5177
0.039601475
3.2875454
0.039594484
2.9141123
2.4794983
0.047185174
0.0036101315
4.2464494
0.012169261
4.0576368
0.019068259
3.9972736
0.026815747
3.8412412
0.033036006
3.7263624
0.036209261
3.5145268
0.035702838
3.2880518
0.033628203
2.9161869
2.4770344
0.036092059
0.0085653627
4.237884
0.020786481
4.0454157
0.033363267
3.9846968
0.046354246
3.8282502
0.05456964
3.718147
0.059268462
3.509828
0.059294741
3.2880255
0.055851726
2.9196299
2.4822118
0.050674384
0.012113421
4.2257706
0.025445053
4.032084
0.036698918
3.9734429
0.048110578
3.8168385
0.057341516
3.7089161
0.061782845
3.5053866
0.06072324
3.2890851
0.055586244
2.9247669
2.4958211
0.04197696
0.017413576
4.208357
0.034841193
4.0146564
0.052358181
3.9559259
0.069319835
3.7998769
0.081154601
3.6970813
0.087615479
3.4989258
0.087507461
3.2891931
0.082103401
2.930171
2.5249491
0.052975359
0.021180266
4.1871767
0.040191987
3.9956447
0.056963335
3.9391546
0.0729435
3.7838967
0.086560091
3.6834647
0.093774955
3.4917109
0.0936659
3.2893022
0.091793126
2.9320437
2.5775659
0.039176324
0.026707022
4.1604697
0.049948063
3.9724037
0.073400581
3.9157021
0.09517004
3.7621272
0.11190961
3.6667251
0.12186851
3.481752
0.12262563
3.2885451
0.1252776
2.9293918
2.6469366
0.055906872
0.031183999
4.1292857
0.055530727
3.9480569
0.078352197
3.8928806
0.099651635
3.7408278
0.11897705
3.6473997
0.13108922
3.4696398
0.12976562
3.2898687
0.14274139
2.916416
2.7333938
0.056284195
0.037280173
4.0920055
0.06541143
3.9199257
0.094894351
3.8633977
0.1240386
3.7116836
0.14946017
3.6219782
0.16788023
3.4512198
0.16669536
3.2910535
0.18628363
2.8968277
2.7729205
0.14675695
-0.1650801
4.2570856
-0.32387759
4.0787232
-0.48102107
4.0205412
-0.62719242
3.8578549
-0.75994246
3.7547282
-0.87650946
3.5677868
-0.96802157
3.3825656
-1.0020167
2.9308229
2.7463031
-0.97539933
-0.16381083
4.4208965
-0.32632159
4.2412339
-0.48399799
4.1782176
-0.63084991
4.0047068
-0.76693821
3.8908165
-0.88878661
3.6896352
-0.98098328
3.4747623
-0.98148347
2.9313231
2.4976667
-0.73284713
-0.16468426
4.5855807
-0.32573634
4.402286
-0.48587703
4.3383582
-0.63886728
4.1576971
-0.77875771
4.0307069
-0.90111337
3.8119908
-0.98212542
3.5557744
-0.92394526
2.8731429
1.7832694
-0.20954789
-0.16323654
4.7488173
-0.32689473
4.5659442
-0.48817358
4.4996371
-0.64211553
4.311639
-0.78405186
4.1726433
-0.91010393
3.9380429
-0.97823712
3.6239076
-0.86379468
2.7587005
0.97737783
-0.057903133
-0.16237403
4.9111913
-0.32600519
4.7295754
-0.48829906
4.661931
-0.64867859
4.4720186
-0.79375285
4.3177175
-0.920745
4.065035
-0.96752556
3.6706881
-0.74850869
2.5396836
0.2368763
-0.0080071566
-0.16007804
5.0712693
-0.32597336
4.8954707
-0.48799575
4.8239534
-0.65127752
4.6353003
-0.79765851
4.4640985
-0.92201361
4.1893901
-0.92709494
3.6757695
-0.48813667
2.1007254
-0.32080654
0.069546168
-0.158016
5.2292853
-0.32516609
5.0626208
-0.48640375
4.985191
-0.65603179
4.8049284
-0.80280917
4.6108759
-0.91757451
4.3041555
-0.85012196
3.6083169
-0.36439853
1.6150019
-0.747409
0.062203924
-0.15476708
5.3840524
-0.3255498
5.2334035
-0.48616651
5.1458077
-0.6574911
4.976253
-0.80237018
4.755755
-0.90716328
4.4089486
-0.77471217
3.4758658
-0.30580009
1.1460898
-1.112282
0.059072905
-0.15137939
5.5354318
-0.3238195
5.4058436
-0.48359658
5.3055848
-0.660177
5.1528334
-0.80251492
4.8980929
-0.88571303
4.4921467
-0.67411566
3.2642684
-0.21008275
0.68205694
-1.4025462
0.080181421
0.08386158
-1.5309392
0.044531466
0.34293338
0.42298515
0.52334332
3.0838585
0.4816676
4.5338224
0.4002367
4.9795238
0.289065
5.2640051
0.19144909
5.4032007
0.08151939
5.5157733
5.6169512
0.053682678
-1.6356991
0.051077175
0.29887248
0.17779534
0.51165344
2.8710775
0.47666353
4.5688123
0.39567888
5.0605084
0.28243186
5.3772521
0.18675994
5.4988726
0.077763323
5.6247699
5.6947145
0.029172559
-1.7176287
0.052757074
0.25866156
-0.051693657
0.49367816
2.6360609
0.47235145
4.590139
0.39364465
5.1392152
0.28028228
5.4906145
0.18273272
5.5964222
0.07215298
5.7353496
5.7668675
0.020077554
-1.7914389
0.053732659
0.23688755
-0.26850365
0.4746385
2.39831
0.46530173
4.5994758
0.3883024
5.2162146
0.27342987
5.605487
0.17756973
5.6922823
0.068173902
5.8447455
5.8350414
0.028041293
-1.8739975
0.054517273
0.23416064
-0.47462301
0.4519812
2.1804894
0.45923004
4.5922269
0.38547588
5.2899687
0.27082536
5.7201375
0.1727422
5.7903655
0.062332889
5.9551548
5.8973743
0.037662911
-1.9643591
0.052698704
0.23619517
-0.67315527
0.43499413
1.9816905
0.45092954
4.5762915
0.37933311
5.3615652
0.26382083
5.8356498
0.16709305
5.8870933
0.058221672
6.0640262
5.955596
0.042822513
-2.0512831
0.044101478
0.2269387
-0.85727145
0.41205461
1.7965746
0.44383915
4.544507
0.37585316
5.4295512
0.2608002
5.9507028
0.1613296
5.9865639
0.052114699
6.1732411
6.0077107
0.045740271
-2.1479973
0.05097391
0.22109292
-1.0326241
0.3950469
1.6226206
0.43415303
4.5054009
0.36758949
5.4961147
0.25334332
6.0649489
0.15533142
6.0845758
0.048217589
6.2803549
6.0559283
0.049787298
-2.2018354
0.0040508416
0.2062054
-1.1890422
0.36847941
1.4603466
0.42540405
4.4484762
0.36413339
5.5573854
0.25085073
6.1782316
0.14924715
6.1861793
0.042624491
6.3869776
6.0985527
0.36590337
-2.5122444
-0.055494402
0.35918456
-1.1823234
0.29794773
1.5215834
0.26559528
4.4808287
0.17098201
5.6519986
0.056997693
6.2922159
-0.018119822
6.2612969
-0.082651389
6.4515091
6.0159014
0.38602614
-2.9025105
0.0042400262
0.30902488
-1.1053221
0.22403988
1.6065684
0.21697861
4.4878899
0.13068659
5.7382907
0.016357361
6.4065451
-0.077349051
6.3550033
-0.12592028
6.5000804
5.8899811
0.39145216
-3.2285369
-0.065425783
0.2840351
-0.99790507
0.18223745
1.7083661
0.17491258
4.4952148
0.080071197
5.833132
-0.035077216
6.5216935
-0.1120451
6.4319711
-0.13885408
6.5268893
5.751127
0.39021863
-3.4562325
-0.16252303
0.24117034
-0.84885678
0.13512553
1.8144109
0.14633868
4.4840017
0.043744034
5.9357267
-0.078938975
6.6443765
-0.17387314
6.5269053
-0.17520878
6.528225
5.5759182
0.38210558
-3.5354733
-0.30286483
0.20760068
-0.67435188
0.093136444
1.9288751
0.11452835
4.4626098
-0.0063570997
6.0566121
-0.13984041
6.7778599
-0.21345808
6.600523
-0.17699625
6.4917631
5.398922
0.36338242
-3.5005669
-0.39828883
0.17255985
-0.48352931
0.069158571
2.0322764
0.093483896
4.4382844
-0.042727133
6.1928232
-0.18493761
6.9200703
-0.2681098
6.6836952
-0.19908189
6.4227352
5.1998401
0.32963107
-3.3941991
-0.4359988
0.12695543
-0.28085366
0.030700237
2.1285316
0.060946011
4.4080386
-0.10334498
6.3571142
-0.25824878
7.0749741
-0.30265802
6.7281044
-0.18132043
6.3013976
5.0185197
0.29077279
-3.2451109
-0.43986096
0.080081244
-0.07016212
0.013138355
2.1954745
0.04836348
4.3728135
-0.14120594
6.5466836
-0.29702762
7.2307958
-0.33906376
6.7701405
-0.18478468
6.1471186
4.833735
0.24914646
-0.4000862
-3.0941712
0.048692564
0.13029177
0.0081552408
2.2360118
0.019941128
4.3610276
-0.25078896
6.8174137
-0.41092634
7.3909332
-0.37326831
6.7324825
-0.14602418
5.9198744
4.6877108
-0.24123326
2.0721091
0.048854138
-1.8797299
-0.53372456
0.043563331
0.24892796
-0.97367475
-1.868319
2.3082692
-1.5132999
-2.126372
2.6659972
-1.7711329
-0.088515044
0.34634797
-1.6304058
0.54233235
-0.68305941
-1.2465609
-1.2652184
0.88137345
-0.55510009
-0.22152137
-0.4699394
0.57367467
-1.1190425
-0.23110999
2.2553552
0.047863882
-0.49336108
0.30581442
-0.90301836
-1.4586617
-1.4470601
-1.5823303
-1.7495959
0.21402075
-1.64181
0.43454639
-1.3112638
-1.5957646
-0.5240436
-1.0087415
-0.14617435
-0.22563465
2.4323563
0.048633564
-0.45385878
0.53403855
-0.80364522
-1.1088753
-1.3067955
-1.07918
-1.5608524
0.46807769
-1.3829759
0.25666991
-1.1197834
-1.8589571
-0.26750118
-1.8610238
-1.1007347
-0.216421
2.6015818
0.047195452
-0.41113945
0.72875699
-0.70368915
-0.81632557
-1.1412147
-0.64165447
-1.3028298
0.62969284
-0.96608762
-0.080072296
-0.59958255
-2.2254622
0.051443971
-2.5120503
-1.8154422
-0.20539807
2.7581823
0.048797563
-0.36413839
0.88749731
-0.59459324
-0.58587071
-0.96166322
-0.2745845
-1.038717
0.7067466
-0.61613506
-0.50265422
-0.14749984
-2.6940974
0.43952475
-3.0990749
-2.361342
-0.19005106
2.8989986
0.049234782
-0.31321992
1.0106662
-0.49064273
-0.40844791
-0.78038952
0.015162299
-0.68330759
0.60966467
-0.12414138
-1.0618204
0.31858688
-3.1368257
0.81853682
-3.5990248
-2.8091875
-0.17635404
3.0235529
0.051799721
-0.25800989
1.092322
-0.35876159
-0.30769621
-0.56653727
0.22293798
-0.35683822
0.39996562
0.2735911
-1.6922498
0.73170079
-3.5949354
1.1892933
-4.0566173
-3.1795262
-0.15965257
3.1321253
0.051080222
-0.19856338
1.1312328
-0.23675379
-0.2695058
-0.38685166
0.37303586
-0.069042751
0.082156704
0.66763232
-2.4289248
1.1385842
-4.0658872
1.5160303
-4.4340634
-3.4668702
-0.14398065
0.052084736
3.2240212
-0.14726259
1.1345148
-0.13513909
-0.2816293
-0.21087065
0.44876742
0.19662012
-0.32533406
0.98269654
-3.2150012
1.4478531
-4.5310438
1.7743254
-4.7605357
-3.721089
0.17154881
0.75489387
-0.022654751
-0.90378793
0.60210221
2.555598
-2.9861514
0.73589106
2.6778835
-2.8116724
0.1751957
-1.8890561
2.4497515
-0.49217627
-7.4856112
8.1529832
-0.53690885
-8.2099765
8.254709
-0.45249283
-7.5519083
7.4674922
-0.2085122
-6.8180252
6.5740446
-5.1803691
4.9718569
0.14241907
0.65747132
-0.044996509
0.56897705
2.12904
0.78713413
2.4597264
0.38804132
-1.4899633
-0.22942275
-6.8681471
-0.40447951
-8.0349197
-0.42560313
-7.5307846
-0.24604069
-6.9975877
-5.4264098
0.12414634
0.61361161
-0.080286639
0.531002
1.7221843
0.82504358
2.1656848
0.50050148
-1.1654212
-0.13113642
-6.2365092
-0.36183608
-7.8042201
-0.38609237
-7.5065283
-0.24092905
-7.142751
-5.6673389
0.1101558
0.58322754
-0.079771722
0.49614178
1.3361983
0.84464233
1.8171843
0.64134297
-0.96212184
0.073178983
-5.6683452
-0.22689204
-7.504149
-0.33731574
-7.3961046
-0.25791735
-7.2221494
-5.9252562
0.088018615
0.61226843
-0.11705951
0.43163905
0.99257791
0.82513391
1.4236894
0.71919962
-0.85618756
0.19036357
-5.1395092
-0.14595568
-7.1678298
-0.2654011
-7.2766592
-0.23072994
-7.2568205
-6.1559862
0.087443997
0.66887997
-0.14405553
0.37801669
0.70200522
0.7760486
1.0256575
0.77266334
-0.8528023
0.35667526
-4.7235211
0.0090939489
-6.8202485
-0.19003392
-7.0775313
-0.22180537
-7.2250491
-6.3777915
0.069443762
0.70831416
-0.10887795
0.30666039
0.46478859
0.71644565
0.61587226
0.80626832
-0.94262497
0.46620404
-4.3834568
0.10431611
-6.4583605
-0.089564626
-6.8836506
-0.16901204
-7.1456017
-6.5468036
0.051143652
0.67569173
-0.018521223
0.24065615
0.2752761
0.62219884
0.23432956
0.7957749
-1.116201
0.59126233
-4.1789442
0.25050503
-6.1176033
-0.001688169
-6.6314574
-0.13527582
-7.012014
-6.6820794
0.0041916638
0.68081405
-0.009313981
0.1292876
0.15018017
0.54010012
-0.17648296
0.82424462
-1.4003455
0.66864524
-4.0233449
0.33022064
-5.7791786
0.10854631
-6.4097831
-0.061838141
-6.8416296
-6.7439175
-0.12823329
5.9829716
-5.8547384
-0.27730806
5.574196
-5.4251212
-0.40608646
5.2608068
-5.1320284
-0.51282553
4.6735444
-4.5668053
-0.5348948
3.9287824
-3.9067131
-0.44952587
3.0235835
-3.1089525
-0.25013598
2.3490221
-2.5484119
-0.028629789
0.83179481
-1.053301
-0.73119779
0.6519875
0.050580511
-0.12498037
6.107952
-0.27296189
5.7221775
-0.40010682
5.3879517
-0.51916247
4.7926001
-0.54197411
3.9515941
-0.43276654
2.9143759
-0.1994673
2.1157228
-0.00097350636
0.63330102
-0.78555235
0.053381045
-0.1152638
6.2232158
-0.27335805
5.8802718
-0.40803471
5.5226284
-0.52789936
4.9124647
-0.54605698
3.9697517
-0.42171833
2.7900373
-0.15832831
1.8523328
0.028923751
0.44604896
-0.8164844
0.059855806
-0.10925693
6.3324727
-0.26535048
6.0363653
-0.39980415
5.6570821
-0.53173626
5.0443968
-0.55158812
3.9896035
-0.39349664
2.6319458
-0.097942396
1.5567786
0.059922838
0.28818373
-0.81684321
0.060281649
-0.10008121
6.432554
-0.261925
6.1982091
-0.40515837
5.8003154
-0.53800575
5.1772442
-0.55260097
4.0041988
-0.37262382
2.4519687
-0.060182657
1.2443374
0.079256855
0.14874421
-0.79734333
0.059756977
-0.091891532
6.5244455
-0.2518671
6.3581847
-0.39504816
5.9434965
-0.53895073
5.3211468
-0.55657952
4.0218275
-0.34337481
2.238764
-0.041738017
0.94270059
0.072777032
0.034229168
-0.77798432
0.053418028
-0.081669921
6.6061154
-0.24533612
6.5218509
-0.39791898
6.0960794
-0.54325088
5.4664787
-0.55399103
4.0325677
-0.28572346
1.9704964
-0.011844259
0.66882139
0.060968171
-0.038583258
-0.76147482
0.044458671
-0.073937514
6.6800529
-0.23347372
6.6813871
-0.38527915
6.2478848
-0.54218509
5.6233846
-0.55044153
4.0408241
-0.25949266
1.6795475
-0.0013906967
0.41071942
0.053002245
-0.092976195
-0.75165239
0.04317982
-0.063864616
-0.22410711
-0.38600541
-0.54179944
-0.52432017
-0.24511818
-0.010881729
0.046322241
-0.024516101
0.11836212
0.45151155
0.082113828
0.5149342
-1.4498731
0.7385614
-2.7720391
0.8056782
-3.1760693
0.74534838
-3.8463833
0.58717086
-4.4086278
0.40505637
-4.9499139
0.20292409
-5.2229889
-5.6518143
0.1933051
0.17183203
0.086374411
0.62310518
-1.8796732
0.77401778
-2.9229517
0.80079502
-3.2028465
0.73106655
-3.7766549
0.58620536
-4.2637666
0.40646223
-4.7701708
0.2022817
-5.0188084
-5.4495326
0.2878151
-0.20925184
0.093268764
0.71271401
-2.3045721
0.78709927
-2.997337
0.79029808
-3.2060453
0.71495047
-3.7013073
0.57105653
-4.1198727
0.39737624
-4.5964905
0.20611113
-4.8275433
-5.2434214
0.55066376
-0.77094641
0.011030813
0.78089284
-2.5348011
0.79925178
-3.0156959
0.78161423
-3.1884078
0.70061749
-3.6203105
0.56980216
-3.9890574
0.39815277
-4.4248411
0.20392229
-4.6333128
-5.0394991
0.68553795
-1.4397704
-0.016713958
0.80970811
-2.6589713
0.79929197
-3.0052798
0.76867558
-3.1577914
0.68628789
-3.5379228
0.55375231
-3.8565218
0.38638392
-4.2574727
0.20555899
-4.4524879
-4.8339402
0.76849171
-2.1783961
-0.029865961
0.82617321
-2.7166528
0.7999088
-2.9790154
0.75808168
-3.1159642
0.67254885
-3.45239
0.54938543
-3.7333584
0.38672241
-4.0948097
0.20212499
-4.2678905
-4.6318152
0.83399962
-2.7147873
-0.29760843
0.84199409
-2.7246473
0.7961236
-2.9331449
0.74612933
-3.06597
0.65933729
-3.3655979
0.53288434
-3.6069054
0.3724966
-3.934422
0.20070184
-4.0960957
-4.4311133
0.88546433
-2.8184268
-0.78182485
0.84425717
-2.6834401
0.78890669
-2.8777944
0.73466577
-3.0117291
0.64470703
-3.2756392
0.52690626
-3.4891046
0.37252746
-3.7800432
0.19628587
-3.9198541
-4.2348274
0.90019057
-2.7461117
-0.97250566
0.84012123
-2.6233708
0.78214892
-2.8198221
0.72282333
-2.9524035
0.63348294
-3.1862988
0.51244783
-3.3680695
0.35747183
-3.6250672
0.19232541
-3.7547077
-4.042502
-0.012325461
4.009349
-3.9970235
-0.0098745438
3.7935813
-3.7960322
-0.0015466481
3.7071247
-3.7154525
0.016073296
3.5109566
-3.5285765
0.031848917
3.3919213
-3.4076969
0.048640014
3.2058235
-3.2226146
0.058798358
3.0306688
-3.0408272
0.054885486
2.7670581
-2.7631452
2.3318878
-2.3226662
0.045663913
-0.010783583
4.0201326
-0.0055037004
3.7883014
0.00087436563
3.7007466
0.013684014
3.4981469
0.034551392
3.3710539
0.055019779
3.1853551
0.06279374
3.0228949
0.054300395
2.7755514
2.3524711
0.033717117
-0.010603191
4.0307358
-0.0071320249
3.7848303
0.0028974363
3.6907171
0.022769508
3.4782749
0.042988783
3.3508347
0.065555306
3.1627886