/*--------------------------------*- C++ -*----------------------------------*\
  =========                 |
  \\      /  F ield         | OpenFOAM: The Open Source CFD Toolbox
   \\    /   O peration     | Website:  https://openfoam.org
    \\  /    A nd           | Version:  11
     \\/     M anipulation  |
\*---------------------------------------------------------------------------*/
FoamFile
{
    format      ascii;
    class       volVectorField;
    location    "0.3225";
    object      U;
}
// * * * * * * * * * * * * * * * * * * * * * * * * * * * * * * * * * * * * * //

dimensions      [0 1 -1 0 0 0 0];

internalField   nonuniform List<vector> 
880
(
(25 -3.63264863127801e-13 0)
(24.99999999248536 2.810376549296643e-09 0)
(24.99906371621127 -0.0004913240326280951 0)
(24.78883236831341 0.003999830430886827 0)
(25.00000000001534 -2.298360739173011e-12 0)
(24.9999999821126 -2.283292653986539e-08 0)
(24.99846707065908 -0.001156407081511317 0)
(24.71757687548252 -0.153128343696709 0)
(24.99999999986223 -8.164174237220942e-11 0)
(24.99999993513531 -1.159067438728559e-07 0)
(24.99675419811106 -0.00258179180241724 0)
(24.61861006661347 -0.2588264658449873 0)
(24.99999999914805 4.451676546056759e-10 0)
(24.99999965327602 -5.738047617320616e-07 0)
(24.99210281633647 -0.005257334146553482 0)
(24.26737377292037 -0.4110847594504998 0)
(25.0000000065397 -4.708786432653864e-09 0)
(24.99999997940547 2.254035759896334e-08 0)
(24.99999955526371 -2.90923498267215e-07 0)
(24.99999562972284 -2.507105428755609e-07 0)
(24.99999751646474 -2.350102180078258e-06 0)
(24.99997180019894 -1.485717683557063e-05 0)
(24.9998847166205 5.66793767397772e-05 0)
(25.00015850156045 -0.0008565525447018733 0)
(24.97829734166844 -0.008231928380451593 0)
(24.96164810409017 -0.003980818501999927 0)
(24.93987486163705 0.01270946908947054 0)
(24.93653410030326 -0.05629916714030242 0)
(23.55721059806166 -0.1105178084995214 0)
(22.86724943538167 0.6010405378769746 0)
(22.4804081397946 1.276946403865532 0)
(22.43854612440584 1.689601225025861 0)
(24.99991804941687 -2.538263627171776e-05 0)
(24.99978123287946 -0.0002960050262374734 0)
(24.99963141673112 -0.0008700334899483844 0)
(24.99841798526973 -0.003211534019660513 0)
(24.99859899047299 -0.000400795158612821 0)
(24.99279214241736 0.0003498945364764079 0)
(24.98356287566033 0.004898853078845885 0)
(24.96763776314416 0.008249218355341363 0)
(24.79575864930598 -0.00592405872551992 0)
(24.68774097583849 0.08988006349672061 0)
(24.54327162778881 0.2554598072609151 0)
(24.42296286382593 0.3662723607312449 0)
(22.19070396255931 2.270041930614007 0)
(22.19412303962044 2.676541475904306 0)
(22.08393119474721 3.224359105549852 0)
(22.50879681662216 3.620072531374683 0)
(23.52722330851152 4.192051204434611 0)
(24.20946036597892 4.023855022675599 0)
(24.55490089445965 3.615416533491441 0)
(24.83950117450954 3.197841995930416 0)
(24.19485891500533 0.6950822086082535 0)
(24.20597250538929 1.057508093450057 0)
(24.32541654764737 1.274477338524892 0)
(24.48608056758914 1.4160211160181 0)
(24.90641964982248 0.0303511509845215 0)
(24.82882488779411 0.09904601520607412 0)
(24.75424045942946 0.2084353186404383 0)
(24.71737466022473 0.3427294222723405 0)
(24.99183176428927 -0.007528423251316676 0)
(24.98096964186427 -0.01855347657147913 0)
(24.96544681412601 -0.03625430113234438 0)
(24.94821506101172 -0.05957285216364068 0)
(24.9338569029073 -0.08544370884987151 0)
(24.92564980580041 -0.104223776008716 0)
(24.92179146156326 -0.1043726089265769 0)
(24.91958350894902 -0.095068249432644 0)
(24.72125805197268 0.4866081561329947 0)
(24.76892229265234 0.612028168404477 0)
(24.85575632071312 0.6998504518556832 0)
(24.95902140977317 0.7295454967357725 0)
(24.66062224275055 1.514419199819262 0)
(24.86291691537308 1.536418136694203 0)
(25.02138912821281 1.48900595574237 0)
(25.16909290188071 1.399586096036814 0)
(25.02091626182152 2.780510680332119 0)
(25.2440596911589 2.383899036197564 0)
(25.31454489010421 1.996180481117335 0)
(25.44150079464445 1.684654744608805 0)
(25.48994247227547 1.278818796524834 0)
(25.32113876765044 1.269230985696877 0)
(25.06932923322083 0.7296637112319468 0)
(24.91709954991436 -0.08300768821737314 0)
(25.17448362014712 1.290921981037481 0)
(25.40486958737372 1.104453032711491 0)
(25.18950519231554 0.6626681682336618 0)
(24.91863265944068 -0.06232923460276096 0)
(21.62100315518682 1.646279593196187 0)
(25.35844434150698 1.058320727310868 0)
(25.25724511866129 0.5792777381342771 0)
(24.92603569053391 -0.05281635369111591 0)
(15.70578929888794 1.851387536884587 0)
(24.34026061803608 1.291195809898773 0)
(25.2941269648945 0.5485100189917111 0)
(24.96353271550429 -0.05276333594436569 0)
(24.91827574528759 -0.03580569343122506 0)
(25.22471165721441 0.4578051985316826 0)
(22.91465461746352 1.793706404410766 0)
(13.39940131263377 3.521642974692196 0)
(24.90134203332896 -0.04637277189586585 0)
(25.05844824550686 0.4756748572077727 0)
(21.70947893108892 2.650284868074285 0)
(13.55209995964711 5.372105391571911 0)
(24.89182629593704 -0.06313581964288045 0)
(24.70462153758666 0.6655501931146373 0)
(20.14473454773636 3.848026600528606 0)
(13.33855749262187 6.933868126134865 0)
(24.85262609422838 -0.1013412474805032 0)
(24.14348256577859 1.144189536896597 0)
(18.78987715643849 5.280825250784711 0)
(13.49945428317693 8.209680420147102 0)
(14.1075879318581 9.102222283571944 0)
(17.75389619968148 6.690183051578571 0)
(23.28147433983717 2.034555045666855 0)
(24.76111719348633 -0.1538065614947085 0)
(14.96841419158084 9.722075034183915 0)
(17.66131099730323 7.783069006718274 0)
(22.30657576214831 3.30021132083372 0)
(24.57088638370255 -0.1713147577283902 0)
(16.06912490301757 10.00766161713909 0)
(18.00039320204821 8.692400572522171 0)
(21.58262631940554 4.698500316041963 0)
(24.27068144286414 -0.07611232890590212 0)
(17.23060391225301 10.06131260498073 0)
(19.09427074616917 8.97839187489838 0)
(21.29297122132935 6.029612849620866 0)
(23.89538382305041 0.1804966904335781 0)
(23.54194561302324 0.3426241264752925 0)
(22.30833136166245 6.642242185651851 0)
(20.89131079020429 8.857436793957341 0)
(18.72085015251832 10.08407004686684 0)
(23.82165108038465 0.1767943646441286 0)
(23.57808523110021 6.22645383648579 0)
(22.94401340644985 8.422755539318832 0)
(20.75813598614112 9.860847221051301 0)
(24.23853268711036 -0.005749350777981672 0)
(24.94997179788327 5.520772078948147 0)
(25.11967359978533 7.587548612009601 0)
(23.31013971514044 9.17758480947286 0)
(24.50977188283198 -0.4507873253248957 0)
(25.85681077044672 4.375542599046808 0)
(27.04691835165465 6.160705494759348 0)
(26.24677263755067 7.498256255977261 0)
(24.76842819624069 -0.3652478134911005 0)
(26.62927939907874 3.492943867203902 0)
(28.66369118398725 4.71839853742648 0)
(30.43432516737445 4.58553148341426 0)
(25.09752627452939 -0.4327705412894383 0)
(27.12518904189656 2.454890743702774 0)
(29.55478892347184 3.173170719488612 0)
(33.65949055046834 0.5021255198468586 0)
(25.31051588074106 -0.4014947773931474 0)
(27.08711624125044 1.520118619531282 0)
(30.00767223472851 1.126965818364323 0)
(36.59687094491566 -4.495047418955746 0)
(25.40205648913693 -0.3593637371371271 0)
(26.77840447370729 0.9001640100839203 0)
(29.33144442968272 -0.1887406157429974 0)
(34.90046002433571 -7.319721972638776 0)
(28.90382807571433 -3.799705245270895 0)
(28.5213590074455 -1.19198688691204 0)
(26.54399350749927 0.2737790769360436 0)
(25.42394791312225 -0.3337750704206197 0)
(23.9751255450987 -2.160860562709809 0)
(27.87742455037964 -1.8674385569442 0)
(26.24264765225652 -0.1045300078277123 0)
(25.3667251202732 -0.2629421770738825 0)
(22.13497038922711 -3.699611016684706 0)
(27.33896226399071 -2.726740268202467 0)
(25.99290425698727 -0.5130006643278288 0)
(25.26506179411172 -0.1676648612776848 0)
(19.26067633491894 -3.755944102133713 0)
(26.45976929912726 -3.441640566748288 0)
(25.66154110676487 -0.8749219204127515 0)
(25.17095775567914 -0.1223231881865199 0)
(16.60269364181097 -5.700780879696085 0)
(24.92000426613965 -4.327572666288131 0)
(25.16793434109631 -1.035665723486349 0)
(25.05278374011041 -0.09505170109209765 0)
(14.59013161551771 -7.748520969493939 0)
(23.67224227285698 -4.209522801811675 0)
(24.77796633206736 -0.7949310043165445 0)
(24.98513906075943 -0.05019093272393749 0)
(14.2515172848588 -7.572056818872675 0)
(22.83430958412397 -3.515382091707471 0)
(24.67065143544946 -0.4695533448667522 0)
(24.97863996761141 -0.02467211886442761 0)
(15.01177358483057 -6.232031402523078 0)
(23.01851859785677 -2.862211661003403 0)
(24.74296667365441 -0.3854039091693797 0)
(24.9872922948068 -0.01637882985663235 0)
(15.19060106180972 -0.8602013678614635 0)
(21.2283334036365 0.01933181287331996 0)
(24.19504636415204 0.01809984514310896 0)
(24.93975221850944 0.0007382664768134318 0)
(15.33728146016568 -2.309075199079925 0)
(21.21464128112022 -0.06687330206319744 0)
(24.17863992821177 0.03984560670188581 0)
(24.93661157767257 0.002541734392491684 0)
(15.59310228292862 -3.388827275651946 0)
(21.20229610311042 -0.2986798237419987 0)
(24.1682151353419 0.01897549625097611 0)
(24.93290788501901 0.001436943695342392 0)
(15.71798351391533 -3.799171495482678 0)
(21.34346125028913 -0.6073009609390623 0)
(24.1973145046929 -0.0548925878618482 0)
(24.93269887412815 -0.002095254133971501 0)
(15.01177358485167 6.232031402512778 0)
(23.01851859790844 2.862211661000549 0)
(24.74296667375456 0.3854039091125487 0)
(24.98729229491989 0.01637882983245676 0)
(14.25151728488287 7.572056818858905 0)
(22.83430958417465 3.515382091749862 0)
(24.67065143547234 0.4695533448582037 0)
(24.97863996765724 0.02467211892172222 0)
(14.59013161554603 7.74852096951214 0)
(23.67224227289864 4.209522801852904 0)
(24.77796633207185 0.7949310043705806 0)
(24.98513906080396 0.05019093276503633 0)
(16.60269364180501 5.700780879699821 0)
(24.92000426619363 4.327572666336406 0)
(25.16793434110798 1.035665723516125 0)
(25.05278374012434 0.09505170114142639 0)
(25.42394791310225 0.3337750703491558 0)
(26.54399350749023 -0.2737790769460282 0)
(28.52135900743381 1.191986886907079 0)
(28.90382807578182 3.799705245386065 0)
(25.36672512025066 0.2629421770289539 0)
(26.24264765223885 0.1045300078386622 0)
(27.87742455038791 1.867438556940321 0)
(23.97512554509516 2.160860562804029 0)
(25.26506179406603 0.1676648612487712 0)
(25.99290425696632 0.5130006643490271 0)
(27.33896226406473 2.726740268323241 0)
(22.13497038922079 3.699611016738317 0)
(25.17095775564754 0.1223231881880298 0)
(25.6615411067163 0.874921920379249 0)
(26.4597692991766 3.441640566813771 0)
(19.2606763349193 3.755944102173906 0)
(34.90046002438008 7.319721972735948 0)
(29.33144442968034 0.1887406157240855 0)
(26.77840447374541 -0.90016401007856 0)
(25.40205648914826 0.3593637370450599 0)
(36.59687094493585 4.495047419008912 0)
(30.00767223476013 -1.126965818352687 0)
(27.08711624125897 -1.520118619555588 0)
(25.31051588075155 0.4014947773340511 0)
(33.6594905504807 -0.5021255197984755 0)
(29.55478892348996 -3.173170719486681 0)
(27.12518904192941 -2.454890743675243 0)
(25.09752627445664 0.4327705413047145 0)
(30.43432516737296 -4.585531483383742 0)
(28.66369118402873 -4.718398537384048 0)
(26.62927939912287 -3.492943867145561 0)
(24.76842819611529 0.3652478135905602 0)
(23.54194561296275 -0.3426241264531223 0)
(22.30833136159214 -6.642242185669104 0)
(20.89131079014108 -8.857436793969375 0)
(18.72085015251603 -10.0840700468641 0)
(23.82165108037247 -0.1767943646137354 0)
(23.57808523112011 -6.226453836484808 0)
(22.94401340641051 -8.42275553930479 0)
(20.75813598612277 -9.860847221048113 0)
(24.23853268717939 0.005749350815500013 0)
(24.94997179790781 -5.52077207894763 0)
(25.11967359976953 -7.58754861196968 0)
(23.31013971513724 -9.177584809462537 0)
(24.50977188274973 0.4507873254628696 0)
(25.85681077048604 -4.375542598988064 0)
(27.04691835165697 -6.160705494702983 0)
(26.24677263754152 -7.498256255957371 0)
(17.23060391225997 -10.06131260498344 0)
(19.09427074616163 -8.978391874912873 0)
(21.29297122129066 -6.029612849630789 0)
(23.89538382289334 -0.180496690454046 0)
(16.06912490302773 -10.00766161714902 0)
(18.00039320205278 -8.692400572532886 0)
(21.58262631942105 -4.69850031606551 0)
(24.27068144284167 0.07611232890721462 0)
(14.96841419159417 -9.72207503419699 0)
(17.66131099732443 -7.783069006708584 0)
(22.30657576218336 -3.300211320820313 0)
(24.57088638365448 0.1713147577341362 0)
(14.10758793187845 -9.102222283577518 0)
(17.75389619966569 -6.690183051564913 0)
(23.28147433974774 -2.034555045651155 0)
(24.7611171934529 0.1538065615003774 0)
(24.91827574529273 0.035805693438291 0)
(25.22471165723763 -0.457805198494768 0)
(22.91465461749086 -1.793706404431598 0)
(13.39940131266885 -3.521642974697197 0)
(24.90134203321868 0.04637277188986946 0)
(25.05844824546756 -0.4756748571563978 0)
(21.70947893111205 -2.650284868071059 0)
(13.55209995965415 -5.372105391586469 0)
(24.89182629579103 0.06313581964115554 0)
(24.70462153747376 -0.6655501930584249 0)
(20.14473454775628 -3.84802660048952 0)
(13.33855749265218 -6.933868126147591 0)
(24.8526260941697 0.1013412474881561 0)
(24.14348256580915 -1.144189536838761 0)
(18.78987715647839 -5.280825250777172 0)
(13.49945428317788 -8.20968042016051 0)
(24.96353271550998 0.05276333595551935 0)
(24.92603569054449 0.05281635370580096 0)
(24.91863265938912 0.06232923463818781 0)
(24.9170995499061 0.08300768821552902 0)
(25.29412696498888 -0.5485100189974382 0)
(25.25724511868789 -0.5792777381398984 0)
(25.18950519234557 -0.6626681682227722 0)
(25.06932923323857 -0.7296637112491411 0)
(24.34026061811564 -1.291195809923672 0)
(25.35844434153311 -1.058320727315176 0)
(25.40486958744704 -1.104453032730733 0)
(25.32113876769227 -1.269230985695367 0)
(15.70578929893572 -1.851387536884625 0)
(21.6210031552306 -1.64627959319346 0)
(25.17448362013566 -1.290921981020551 0)
(25.4899424722789 -1.278818796503447 0)
(24.9195835089083 0.09506824943669696 0)
(24.95902140971738 -0.7295454967248222 0)
(25.16909290184831 -1.399586096010066 0)
(25.44150079461742 -1.684654744561346 0)
(24.92179146159027 0.1043726089162152 0)
(24.85575632066049 -0.6998504518562974 0)
(25.02138912818691 -1.489005955718725 0)
(25.31454489010855 -1.99618048107919 0)
(24.92564980580342 0.1042237760075476 0)
(24.76892229263213 -0.6120281683547468 0)
(24.86291691542316 -1.536418136702696 0)
(25.24405969123289 -2.383899036208407 0)
(24.9338569029535 0.08544370879847728 0)
(24.72125805197582 -0.4866081561181165 0)
(24.66062224275447 -1.514419199820582 0)
(25.0209162618416 -2.780510680322388 0)
(24.99183176429194 0.007528423177387428 0)
(24.90641964992494 -0.03035115088710924 0)
(24.19485891496719 -0.695082208615001 0)
(23.52722330849278 -4.192051204417067 0)
(24.98096964192583 0.0185534764633019 0)
(24.82882488785058 -0.09904601513212852 0)
(24.20597250537666 -1.057508093409652 0)
(24.20946036597292 -4.023855022677411 0)
(24.9654468140788 0.03625430110752932 0)
(24.75424045946922 -0.2084353185663941 0)
(24.32541654769492 -1.274477338537302 0)
(24.55490089453923 -3.615416533544831 0)
(24.94821506104332 0.05957285210134763 0)
(24.71737466025691 -0.342729422213128 0)
(24.48608056759002 -1.416021115994611 0)
(24.83950117456915 -3.197841995953247 0)
(22.50879681664438 -3.620072531368349 0)
(24.42296286382926 -0.3662723607363313 0)
(24.96763776324956 -0.008249218260810008 0)
(24.99841798521928 0.003211534010621865 0)
(22.08393119477292 -3.224359105536664 0)
(24.54327162777022 -0.2554598072739321 0)
(24.9835628757362 -0.004898853048304507 0)
(24.99963141674588 0.0008700334561397085 0)
(22.1941230396168 -2.676541475878073 0)
(24.68774097585202 -0.08988006350341256 0)
(24.99279214254272 -0.0003498945461013682 0)
(24.99978123291937 0.0002960049188009047 0)
(22.19070396258529 -2.270041930580394 0)
(24.79575864935222 0.005924058725643603 0)
(24.99859899054679 0.0004007951645742395 0)
(24.99991804936604 2.538263935315538e-05 0)
(22.4385461244299 -1.689601225022161 0)
(24.9365341003097 0.05629916715531592 0)
(25.00015850157477 0.0008565525659333242 0)
(24.99999562968628 2.507568571719863e-07 0)
(22.48040813980571 -1.27694640390525 0)
(24.93987486165585 -0.01270946908939001 0)
(24.99988471668668 -5.667937645629241e-05 0)
(24.99999955525299 2.909351946394205e-07 0)
(22.86724943533858 -0.6010405379627708 0)
(24.96164810411779 0.003980818493326393 0)
(24.99997180024296 1.485716827089898e-05 0)
(24.99999997943662 -2.25458611324433e-08 0)
(23.55721059787293 0.1105178084178699 0)
(24.97829734170661 0.008231928376234311 0)
(24.99999751651536 2.35011745307059e-06 0)
(25.00000000647327 4.683161817644288e-09 0)
(25.00000000000001 -5.431450744673798e-13 0)
(24.9999999924806 -2.83135324368243e-09 0)
(24.99906371621047 0.0004913240165318573 0)
(24.78883236822309 -0.003999830479432031 0)
(24.99999999999998 1.508792121829408e-11 0)
(24.99999998217197 2.280428022057867e-08 0)
(24.99846707066444 0.00115640705916163 0)
(24.71757687491706 0.1531283440187307 0)
(24.99999999985602 9.251555878683058e-11 0)
(24.99999993518819 1.159137574998877e-07 0)
(24.99675419812225 0.002581791788351401 0)
(24.61861006605642 0.2588264658647405 0)
(24.99999999911911 -4.293670537999674e-10 0)
(24.99999965333172 5.738168912982141e-07 0)
(24.99210281635781 0.005257334135669087 0)
(24.26737377255258 0.4110847596060316 0)
(24.64364780960501 -2.034233951489508e-10 0)
(24.50393079637305 0.1502497863171921 0)
(24.17004903410736 0.1809626685679241 0)
(23.28293862961719 0.04179915965556428 0)
(24.5039307975321 -0.1502497869170192 0)
(24.26548818604709 -2.911307766715839e-10 0)
(23.64412914796281 -0.04913225963305816 0)
(22.24111945676412 -0.4653108481196278 0)
(24.17004903599738 -0.1809626689865303 0)
(23.64412914927469 0.04913225909575653 0)
(22.39674869807807 -1.567203328699237e-10 0)
(20.31666641335272 -0.5782450123806863 0)
(23.28293863026667 -0.04179916020927048 0)
(22.24111945761608 0.4653108476893159 0)
(20.31666641400817 0.5782450119003449 0)
(18.04722746941787 -3.185768664350335e-10 0)
(17.47753104989874 2.544831662556753 0)
(18.13447612130547 2.953433684856553 0)
(19.80806667769652 2.670341675138866 0)
(21.34973951351845 1.862895357388586 0)
(18.46511533648896 4.283892457628973 0)
(18.53221376879868 4.247082168940602 0)
(19.2734595174157 4.160263502339012 0)
(20.32169541396259 3.973243337554753 0)
(17.9382834334988 5.26991945509062 0)
(19.06405768304661 4.519654437890336 0)
(19.76064956495381 4.721347987162013 0)
(20.30672541329555 4.581101490023211 0)
(18.57590835064559 5.807087470176955 0)
(19.90134735152022 4.756229049313633 0)
(20.40799257362214 4.927584027479051 0)
(20.70101414498329 4.841067417659596 0)
(20.99259182317646 4.976862509187326 0)
(21.20058053139111 5.074834091361758 0)
(21.54655980530583 5.158495124932966 0)
(22.24929541612895 5.301498162082541 0)
(20.90755067721807 5.043232710801735 0)
(21.18723379393763 5.135220582799452 0)
(21.65240033482394 5.158930208567884 0)
(22.73818349346018 5.530199839296096 0)
(20.63934481536192 4.969184995125776 0)
(21.0910715599166 5.137798586827177 0)
(21.66561762937556 5.204950886472915 0)
(24.18215792158864 5.958369118627208 0)
(19.22890437683597 5.916177263394071 0)
(19.77559383591277 5.99332267808628 0)
(20.60431551029109 5.845557223031376 0)
(25.87887350310037 7.1640948280794 0)
(25.92036098647642 3.190772977725631 0)
(26.48506236154119 0.8008037183427035 0)
(25.77191707419611 0.4491959449576337 0)
(25.604619943069 0.4024173936732418 0)
(28.45780762483236 2.198146350520836 0)
(28.70469201817362 0.3412253655985983 0)
(27.55012586319461 0.26290395923341 0)
(26.86753604481105 0.3343637469789372 0)
(31.64848822238738 1.897997856284481 0)
(30.10311371937926 0.04898945039307286 0)
(28.68664046245935 0.03753919150202858 0)
(27.72684241949139 0.1070175865434179 0)
(25.13378703110025 1.946017869354519 0)
(24.15553633721728 0.6057387126600156 0)
(24.03791147066542 0.1363331031003208 0)
(24.09117910132384 -0.2354643909146996 0)
(25.55323902072204 0.3754943180403542 0)
(25.59802390748266 0.3042562641781202 0)
(25.6001044027371 0.2570175658138301 0)
(25.5775085108967 0.2149504849236302 0)
(26.40812056673568 0.3381179319898414 0)
(26.0781633748903 0.2887273022216003 0)
(25.81718004928992 0.2237396304021355 0)
(25.57295700718012 0.176470299807517 0)
(26.99990503691738 0.1393378168537891 0)
(26.40656569524838 0.1343380542598547 0)
(25.95283857858157 0.1245653680368218 0)
(25.49962559650738 0.1015984875607644 0)
(23.94359280557919 -0.4495250807232113 0)
(23.72100674687865 -0.6131350781849961 0)
(23.50099442749619 -0.6616124883310697 0)
(23.1619611274099 -0.5825356819834185 0)
(25.53879379974391 0.2675927398611529 0)
(22.38644064293089 3.613622571021474 0)
(15.76346365083269 4.809799080696447 0)
(10.60253932995384 1.610802573929845 0)
(25.33669029754252 0.4626204937728143 0)
(19.52686295668117 3.910267109337628 0)
(11.17654441861672 3.891027024141779 0)
(5.668405345509386 0.2298762619834579 0)
(24.77988273246195 0.5861026307188864 0)
(15.89962104842407 3.126600257111484 0)
(5.781372153092942 2.78762101928825 0)
(0.2308940410205232 0.4407897059121492 0)
(21.59061408271738 -0.5512787410191 0)
(10.86587297327559 -1.098495384217479 0)
(2.131432201942207 0.03378309792499123 0)
(-1.776739619409548 0.3918573821537772 0)
(9.383089137070831 2.945445262591543 0)
(10.92826555961049 4.516303306670056 0)
(11.53478113080929 6.138338981896479 0)
(12.52119181830654 7.510676799287968 0)
(7.220291676833795 2.386925740848988 0)
(10.17430313910352 4.631679160834546 0)
(11.39270848136804 6.330939291794583 0)
(12.46996167142608 7.608252053095436 0)
(4.023020627838463 0.5093893711551204 0)
(8.403749691926304 3.88347562592259 0)
(10.65422902925307 6.300445924782613 0)
(12.10035640299465 7.63399836462992 0)
(0.673910930820475 0.408042521291999 0)
(4.297574243058993 2.901844903418026 0)
(7.942397514421471 4.387342246991841 0)
(10.43123457455768 5.729398801833911 0)
(13.52353443805709 8.598074154814903 0)
(14.57277128384445 9.484628174871883 0)
(15.69679948006309 10.5206824199395 0)
(16.79730751173259 11.06045682379972 0)
(13.53605758473895 8.644349800984598 0)
(14.53191577741263 9.504923401112137 0)
(15.61787076169942 10.48456254620653 0)
(16.75191551420009 11.09469246639219 0)
(13.36959684822662 8.614407579623618 0)
(14.42612274520516 9.467285921403713 0)
(15.52836481062894 10.40580332550429 0)
(16.71265809167565 11.11905117276738 0)
(12.59017114022454 6.856821983866289 0)
(14.69127879938898 8.252045891645036 0)
(15.58871533135996 10.1130936495899 0)
(16.76984787999365 11.03359772043021 0)
(17.95408512481918 11.47194049521428 0)
(19.6092349572057 11.7819498588398 0)
(21.82839687862629 11.45877948453617 0)
(24.75309931689423 10.1425191240048 0)
(17.80191682742375 11.5201827015055 0)
(19.22574250981909 11.81382377661186 0)
(21.28706357481088 11.6428849661019 0)
(24.91876185513827 12.21416269117043 0)
(17.70593670677862 11.60919793837543 0)
(18.85254735576307 11.87147742015668 0)
(21.40161859378363 12.55925441374418 0)
(31.21237047801549 18.15900721395055 0)
(17.69109444172162 11.59429163676389 0)
(18.76960129694136 11.84858221922333 0)
(22.10710014118647 13.1789205287696 0)
(42.82641169508997 25.1813077572138 0)
(30.3705242143931 5.012485918516107 0)
(31.71216069997735 -3.625261694437137 0)
(12.41174588872763 8.940222831450589 0)
(9.596296561341756 27.86639682168032 0)
(32.0759933482447 4.639804929876044 0)
(25.90056964163117 -1.629967813613774 0)
(9.398645334930638 16.94682650722143 0)
(8.750605727870157 27.01040240163293 0)
(31.78605829152691 3.194845434518319 0)
(16.43320111739357 -3.554896552666571 0)
(4.216860905697672 19.90483432569665 0)
(4.397103213038648 26.99105306244743 0)
(20.24438619566685 -8.373769897398837 0)
(6.720658742755096 -0.01335792152406412 0)
(2.513980679415316 22.53253970616397 0)
(2.437468972596421 26.68906243217517 0)
(6.420675597435197 19.49410420720527 0)
(1.427412889628361 14.40135597175442 0)
(-0.9169882439102774 12.72833072064016 0)
(-2.348655857861235 8.652778388116618 0)
(4.963754678432514 21.72422625469317 0)
(1.158415097684456 17.24324246444996 0)
(-0.6884388090119974 13.46967139668533 0)
(-1.089633393821156 6.932238456757605 0)
(2.923168283140023 21.35203654592858 0)
(1.334202999987836 17.1642081271392 0)
(-0.2897225112635262 11.61586713880395 0)
(-0.6763400707745985 4.621093434005377 0)
(0.752864898683886 20.76082324215049 0)
(-0.2633146975071748 16.6642353770389 0)
(-1.643444349114642 10.48811803574973 0)
(-1.442388224318835 3.217097991769944 0)
(-4.379225859108517 2.859546211736117 0)
(0.2352074593734846 -0.566741176046835 0)
(4.3696423828766 -3.657508218994737 0)
(6.161730378016395 -7.634513135601955 0)
(-5.32990935952128 2.550540352753757 0)
(-3.568397120475452 -0.1736100962945271 0)
(1.461572548308886 -1.750646313790202 0)
(4.983341134783538 -6.761385611944547 0)
(-4.799855997066399 1.702282531449432 0)
(-5.571075507892822 0.383888672403125 0)
(-1.539831006706529 -0.5798529332480117 0)
(3.42826067173025 -5.000941433018069 0)
(-3.500558879311158 1.901518553616031 0)
(-5.569052368277756 1.578770633122996 0)
(-1.990217258478594 2.388735451208834 0)
(4.005312292069839 -2.510320264708978 0)
(4.552279348205808 -7.356793532957198 0)
(4.488965531836829 -7.879982911177846 0)
(4.84218050205099 -7.896036578633697 0)
(5.441003015352845 -7.389453988496777 0)
(3.833980003773437 -7.818794849882647 0)
(3.948176597423924 -7.831021419967765 0)
(4.285612030272095 -7.888804177851483 0)
(4.362564348079077 -7.464980213444282 0)
(3.180447760756323 -6.844538606870009 0)
(3.026343307054233 -5.684604484795489 0)
(3.346343149816718 -4.923596117133934 0)
(2.661990379543057 -3.905864852914827 0)
(5.596000644282043 -5.922414053668033 0)
(4.799169118185098 -2.919308258441311 0)
(3.944856483869637 -0.861122924896959 0)
(1.989436724480109 0.3569552250591089 0)
(0.3462266925662196 1.176824170719026 0)
(-0.7327323098568737 1.355959710943229 0)
(-1.422857170757541 1.029597786746347 0)
(-1.72514472276349 0.3440569097220563 0)
(1.650281616330019 -2.270300873187177 0)
(0.06092000556028821 -1.373206661960712 0)
(-1.073324799977728 -0.4548750989364077 0)
(-1.684084564730981 -0.1910131799038636 0)
(3.932579543708627 -6.177210241614604 0)
(2.904078014453091 -4.819615051515952 0)
(1.622364687415679 -3.03863456231095 0)
(0.6469063063915569 -1.113342589513695 0)
(6.066081887646539 -6.285966438604617 0)
(6.184233714874525 -4.77522660298792 0)
(5.589750853190904 -2.992679408065757 0)
(4.94295682579156 -1.099278781767042 0)
(-1.725144722767789 -0.3440569097182336 0)
(-1.684084564730668 0.1910131798872476 0)
(0.6469063063893918 1.113342589465914 0)
(4.942956825791072 1.099278781720229 0)
(-1.422857170764269 -1.029597786744737 0)
(-1.073324799977823 0.4548750989178444 0)
(1.622364687413503 3.038634562270689 0)
(5.589750853216394 2.992679408022095 0)
(-0.7327323098638364 -1.355959710946015 0)
(0.06092000555553752 1.373206661941669 0)
(2.904078014455945 4.81961505148499 0)
(6.184233714903396 4.775226602961084 0)
(0.3462266925608228 -1.176824170726611 0)
(1.650281616326544 2.270300873167373 0)
(3.93257954371231 6.17721024159436 0)
(6.066081887659597 6.285966438592064 0)
(5.441003015352459 7.389453988494888 0)
(4.842180502041097 7.896036578630755 0)
(4.488965531823159 7.87998291116848 0)
(4.552279348201501 7.356793532949896 0)
(4.362564348086486 7.46498021342773 0)
(4.285612030279245 7.888804177836764 0)
(3.94817659742667 7.831021419951561 0)
(3.833980003773718 7.818794849870488 0)
(2.661990379552011 3.905864852891841 0)
(3.346343149828006 4.923596117118874 0)
(3.026343307063991 5.684604484782357 0)
(3.180447760763605 6.844538606854373 0)
(1.989436724475094 -0.3569552250681574 0)
(3.944856483869721 0.86112292488813 0)
(4.7991691181863 2.919308258437711 0)
(5.596000644281075 5.922414053669082 0)
(4.005312292074398 2.510320264711555 0)
(-1.990217258460506 -2.388735451187487 0)
(-5.569052368243018 -1.578770633101416 0)
(-3.500558879285662 -1.901518553604376 0)
(3.428260671732963 5.000941433003081 0)
(-1.539831006689192 0.5798529332551111 0)
(-5.571075507850308 -0.3838886724068858 0)
(-4.799855997029741 -1.702282531432886 0)
(4.983341134778137 6.761385611929573 0)
(1.461572548317099 1.750646313791513 0)
(-3.568397120432108 0.1736100962862578 0)
(-5.329909359485905 -2.550540352724737 0)
(6.161730378007954 7.634513135593055 0)
(4.369642382868157 3.657508219002221 0)
(0.235207459416488 0.5667411760476799 0)
(-4.379225859069883 -2.859546211691292 0)
(-2.34865585786301 -8.652778388021538 0)
(-0.9169882439714344 -12.72833072063061 0)
(1.427412889627766 -14.40135597193775 0)
(6.420675597515578 -19.49410420751386 0)
(-1.089633393819832 -6.932238456703105 0)
(-0.6884388090379132 -13.46967139666712 0)
(1.158415097723744 -17.24324246452752 0)
(4.963754678545639 -21.72422625479237 0)
(-0.6763400707761632 -4.621093433981101 0)
(-0.2897225112793463 -11.6158671387941 0)
(1.334203000003942 -17.16420812715354 0)
(2.923168283168541 -21.35203654596823 0)
(-1.442388224313149 -3.217097991761793 0)
(-1.643444349127303 -10.48811803573813 0)
(-0.2633146975174799 -16.66423537703101 0)
(0.7528648986893507 -20.76082324218187 0)
(9.596296561331526 -27.86639682185977 0)
(12.41174588855335 -8.940222831776246 0)
(31.7121606998933 3.625261694480665 0)
(30.37052421437534 -5.012485918488941 0)
(8.750605727896207 -27.01040240171532 0)
(9.398645334933914 -16.94682650736664 0)
(25.90056964158643 1.629967813584088 0)
(32.0759933482248 -4.639804929865571 0)
(4.397103213052663 -26.99105306251122 0)
(4.216860905680625 -19.90483432579567 0)
(16.43320111738374 3.554896552625549 0)
(31.7860582915232 -3.194845434513742 0)
(2.437468972607709 -26.68906243225418 0)
(2.513980679413183 -22.53253970627202 0)
(6.72065874278128 0.0133579214719415 0)
(20.24438619569175 8.373769897383482 0)
(24.75309931689827 -10.14251912399468 0)
(21.8283968786346 -11.45877948453993 0)
(19.60923495720575 -11.78194985883902 0)
(17.95408512482254 -11.4719404952321 0)
(24.91876185514147 -12.21416269116821 0)
(21.28706357481642 -11.64288496610104 0)
(19.22574250981555 -11.81382377661316 0)
(17.80191682740841 -11.52018270150523 0)
(31.21237047801248 -18.15900721394518 0)
(21.40161859378595 -12.55925441374011 0)