/*--------------------------------*- C++ -*----------------------------------*\
  =========                 |
  \\      /  F ield         | OpenFOAM: The Open Source CFD Toolbox
   \\    /   O peration     | Website:  https://openfoam.org
    \\  /    A nd           | Version:  11
     \\/     M anipulation  |
\*---------------------------------------------------------------------------*/
FoamFile
{
    format      ascii;
    class       surfaceScalarField;
    location    "6.5";
    object      phi;
}
// * * * * * * * * * * * * * * * * * * * * * * * * * * * * * * * * * * * * * //

dimensions      [0 3 -1 0 0 0 0];

internalField   nonuniform List<scalar> 
10792
(
0.067842278
-0.041662825
-0.0682206
0.042041148
0.067238874
-0.039509135
0.040112539
0.06664337
-0.037218096
0.037813601
0.065991544
-0.03505027
0.035702096
0.065268821
-0.032471312
0.033194035
0.064477653
-0.030194977
0.030986145
0.063675731
-0.027574636
0.028376558
0.062983545
-0.025282532
0.025974718
0.06209238
-0.022482722
0.023373886
0.061366144
-0.019974436
0.020700673
0.06063853
-0.017254197
0.017981811
0.059949991
-0.014570847
0.015259386
0.059365319
-0.011808901
0.012393574
0.058761576
-0.0090415363
0.0096452796
0.058252171
-0.006180304
0.0066897088
0.057757197
-0.0033238079
0.0038187825
0.057503929
-0.00049852213
0.00075179052
0.057311096
0.0024851203
-0.0022922874
0.0053921382
0.057115228
-0.0051962703
0.072036204
-0.041142528
-0.072556501
0.071457531
-0.038930463
0.070897596
-0.036658161
0.070128359
-0.034281033
0.06935968
-0.031702633
0.068618836
-0.029454133
0.067907017
-0.026862817
0.067079929
-0.024455445
0.066235842
-0.021638634
0.065557027
-0.019295621
0.064801763
-0.016498933
0.064182266
-0.013951349
0.063563999
-0.011190634
0.06296179
-0.0084393274
0.062499958
-0.0057184722
0.062070835
-0.0028946848
0.061710038
-0.00013772477
0.06144219
0.0027529687
0.0056281433
0.061206185
0.076599511
-0.040598908
-0.077143131
0.076043489
-0.038374441
0.075395226
-0.036009898
0.074631016
-0.033516823
0.073992509
-0.031064126
0.073284462
-0.028746087
0.07246103
-0.026039385
0.071638789
-0.023633204
0.070894848
-0.020894693
0.070165562
-0.018566336
0.0694303
-0.015763671
0.068788476
-0.013309525
0.068112875
-0.010515033
0.06755623
-0.0078826829
0.067020943
-0.0051831846
0.066567044
-0.0024407856
0.066198684
0.00023063475
0.065918336
0.003033317
0.0058340844
0.065712395
0.081385494
-0.039987855
-0.081996548
0.080911912
-0.037900859
0.080202641
-0.035300627
0.079490845
-0.032805027
0.078859314
-0.030432594
0.077975333
-0.027862106
0.077199219
-0.025263271
0.076421961
-0.022855946
0.075656364
-0.020129096
0.074902706
-0.017812677
0.074117432
-0.014978396
0.073396814
-0.012588907
0.072701803
-0.0098200221
0.07216643
-0.0073473092
0.071627903
-0.0046446582
0.071234562
-0.002047444
0.070860597
0.00060460023
0.070638122
0.0032557918
0.0060103758
0.070461831
0.086678324
-0.039518491
-0.087147688
0.08598956
-0.037212094
0.085207906
-0.034518973
0.08460075
-0.032197871
0.083779308
-0.029611152
0.083004132
-0.02708693
0.082355858
-0.024614997
0.081550009
-0.022050096
0.080840124
-0.019419212
0.080000011
-0.016972564
0.079279457
-0.014257842
0.078584924
-0.011894374
0.077970612
-0.0092057102
0.077434121
-0.0068108179
0.07689637
-0.0041069067
0.076514169
-0.0016652426
0.076096766
0.001022003
0.075908689
0.0034438692
0.0062026822
0.075716382
0.092185708
-0.038834352
-0.092869847
0.091556747
-0.036583133
0.090911731
-0.033873957
0.090183706
-0.031469846
0.089383323
-0.02881077
0.088761112
-0.026464719
0.087942612
-0.023796497
0.087096776
-0.021204261
0.086313301
-0.018635737
0.085489718
-0.016148981
0.084850922
-0.013619046
0.084122863
-0.011166315
0.08352546
-0.0086083066
0.082869855
-0.0061552131
0.082375975
-0.0036130267
0.081894029
-0.0011832958
0.081597961
0.0013180708
0.08135162
0.0036902109
0.0063338117
0.08122049
0.098082273
-0.038238282
-0.098678344
0.097373299
-0.035874159
0.096631013
-0.033131671
0.0959642
-0.030803032
0.095233288
-0.028079858
0.094441987
-0.025673417
0.093574643
-0.022929153
0.092880314
-0.020509933
0.092157608
-0.01791303
0.09142458
-0.015415954
0.090721493
-0.012915959
0.089989679
-0.010434501
0.089402781
-0.0080214087
0.088791577
-0.0055440091
0.088370125
-0.0031915743
0.087892491
-0.00070566165
0.087634047
0.0015765149
0.087354217
0.0039700411
0.0063689181
0.087319111
0.10485094
-0.037611778
-0.10547744
0.1041041
-0.035127324
0.10334432
-0.032371891
0.10255071
-0.03000942
0.10170629
-0.027235437
0.10092281
-0.024889937
0.10015313
-0.022159474
0.099436451
-0.019793254
0.098611158
-0.017087737
0.097827943
-0.014632739
0.09703795
-0.012125965
0.09632045
-0.0097170006
0.095654763
-0.007355722
0.095061129
-0.0049503749
0.094566141
-0.0026965863
0.094138287
-0.00027780745
0.093844754
0.0018700483
0.093567554
0.0042472409
0.0064465276
0.093489945
0.11122438
-0.036771372
-0.11206478
0.11044493
-0.034347872
0.10976564
-0.031692608
0.10900225
-0.029246026
0.10826902
-0.026502211
0.10751218
-0.024133088
0.10667331
-0.021320605
0.10590946
-0.019029404
0.1051253
-0.016303577
0.10449328
-0.014000726
0.10376757
-0.01140025
0.10314509
-0.0090945266
0.10251131
-0.0067219418
0.10198069
-0.0044197497
0.10150127
-0.002217171
0.10104791
0.0001755583
0.10077782
0.002140132
0.10051415
0.0045109208
0.0065068717
0.1004538
0.11938187
-0.036072217
-0.12008102
0.1184923
-0.033458306
0.11766864
-0.030868948
0.11680488
-0.028382265
0.11601822
-0.025715551
0.1151264
-0.023241265
0.11431383
-0.020508042
0.11344952
-0.018165088
0.11256933
-0.015423387
0.1117819
-0.013213299
0.11095055
-0.010568898
0.11027802
-0.0084219988
0.10951433
-0.0059582509
0.10897844
-0.0038838556
0.10837866
-0.0016173947
0.10808372
0.00047049862
0.10774277
0.0024810859
0.10761327
0.0046404209
0.0065904643
0.10752967
0.12682409
-0.03515475
-0.12774155
0.12589291
-0.032527128
0.12508132
-0.03005736
0.12411642
-0.027417361
0.12330432
-0.024903449
0.12244644
-0.022383393
0.12167993
-0.019741524
0.12080652
-0.017291677
0.12007673
-0.014693603
0.11932288
-0.012459446
0.11863215
-0.0098781701
0.11799729
-0.007787139
0.11740213
-0.0053630863
0.11699041
-0.003472142
0.11651679
-0.0011437681
0.11632985
0.00065743929
0.11595502
0.0028559149
0.11589704
0.0046983954
0.0067612435
0.11572626
0.13595997
-0.03411012
-0.1370046
0.13500785
-0.031575006
0.13409765
-0.029147157
0.13317572
-0.026495437
0.13227535
-0.024003073
0.13127732
-0.021385369
0.13042818
-0.018892387
0.12952847
-0.016391968
0.12877517
-0.013940302
0.12784069
-0.011524958
0.1271069
-0.0091443836
0.12629768
-0.0069779211
0.12564239
-0.0047077909
0.12501812
-0.0028478787
0.12455798
-0.00068362169
0.12423126
0.0009841534
0.1239759
0.0031112826
0.12394528
0.0047290151
0.0068395918
0.12386693
0.14464978
-0.033016058
-0.14574384
0.14362732
-0.030552547
0.14260139
-0.028121224
0.14166873
-0.025562778
0.14081143
-0.023145777
0.13992671
-0.020500643
0.1390466
-0.018012283
0.13818665
-0.015532013
0.1374563
-0.013209956
0.13671024
-0.010778901
0.13613674
-0.0085708793
0.13543016
-0.0062713399
0.13488743
-0.0041650654
0.13422946
-0.0021899041
0.13386292
-0.00031708647
0.13341316
0.0014339143
0.13325482
0.0032696273
0.13313907
0.0048447623
0.0067486402
0.13323002
0.15522878
-0.031884321
-0.15636052
0.15409824
-0.029422005
0.15288687
-0.026909862
0.15186877
-0.024544676
0.15086014
-0.022137146
0.14994942
-0.019589927
0.14897282
-0.01703568
0.14794671
-0.0145059
0.14695671
-0.012219957
0.14608532
-0.0099075055
0.14540846
-0.007894029
0.14476802
-0.0056308966
0.14428467
-0.0036817117
0.14378065
-0.0016858871
0.14341335
5.0214422e-05
0.14303709
0.0018101773
0.14294825
0.003358466
0.14278153
0.0050114847
0.0065300002
0.14300017
0.16502291
-0.030741052
-0.16616618
0.16394914
-0.028348238
0.16289139
-0.025852106
0.16186567
-0.023518956
0.16086117
-0.021132652
0.16005795
-0.018786701
0.15928584
-0.016263573
0.15855485
-0.013774911
0.15767132
-0.011336421
0.15681139
-0.0090475742
0.15594715
-0.0070297946
0.15520588
-0.0048896205
0.15463387
-0.0031097102
0.15413687
-0.001188882
0.15376039
0.00042669788
0.15343398
0.0021365873
0.15328352
0.0035089233
0.15316127
0.0051337358
0.0063131572
0.15337811
0.17724819
-0.02951831
-0.17847093
0.17596711
-0.027067158
0.17475204
-0.024637043
0.17347403
-0.02224094
0.17220421
-0.019862835
0.17104018
-0.017622667
0.17006565
-0.015289048
0.16927609
-0.012985351
0.16852014
-0.010580469
0.1678351
-0.0083625348
0.16707261
-0.0062673056
0.16640056
-0.0042175657
0.16574924
-0.0024583981
0.16526902
-0.0007086562
0.16484998
0.00084573403
0.1646063
0.0023802652
0.16445365
0.0036615746
0.16447274
0.0051146502
0.0060903775
0.16469552
0.18866394
-0.028262939
-0.18991931
0.18737688
-0.0257801
0.18640028
-0.023660441
0.185362
-0.02120266
0.18440523
-0.018906064
0.1832881
-0.016505536
0.18221174
-0.014212692
0.18119001
-0.011963623
0.18033228
-0.0097227375
0.17957294
-0.007603193
0.17885625
-0.0055506129
0.17824367
-0.0036049885
0.17763896
-0.0018536916
0.17719091
-0.00026060849
0.17678947
0.0012471822
0.17655348
0.0026162545
0.17637538
0.0038396718
0.17642034
0.0050696924
0.0059362114
0.1765745
0.20243205
-0.026612863
-0.20408213
0.20086911
-0.024217156
0.19939855
-0.022189884
0.19804918
-0.019853288
0.19695878
-0.01781566
0.19588606
-0.015432817
0.19491621
-0.013242843
0.19390355
-0.010950963
0.19304642
-0.0088656139
0.19222608
-0.0067828484
0.19155914
-0.0048836722
0.19096552
-0.0030113702
0.19046278
-0.001350948
0.19004004
0.00016213129
0.18972703
0.0015601864
0.18954085
0.002802443
0.18946613
0.0039143873
0.18962033
0.0049154949
0.0056813205
0.18987522
0.21618577
-0.024970737
-0.21782789
0.21477164
-0.022803028
0.21330894
-0.020727181
0.21199737
-0.018541719
0.21066145
-0.016479738
0.20946254
-0.014233909
0.20844152
-0.01222183
0.20748928
-0.009998714
0.20667366
-0.0080499983
0.20589332
-0.0060025062
0.20523837
-0.0042287196
0.20463256
-0.0024055641
0.20415927
-0.00087766148
0.2037914
0.00053000014
0.20351854
0.0018330472
0.20335106
0.0029699245
0.20331092
0.003954525
0.20341598
0.0048104364
0.0054132683
0.20368404
0.2314809
-0.023121352
-0.23333028
0.22987279
-0.021194919
0.2283986
-0.019252992
0.22709256
-0.017235677
0.22577472
-0.015161901
0.22460686
-0.013066047
0.22341398
-0.011028949
0.22239921
-0.0089839419
0.22143695
-0.0070877452
0.22063716
-0.0052027135
0.21994529
-0.0035368462
0.21939527
-0.0018555491
0.21896272
-0.00044511189
0.21862474
0.00086798519
0.21844415
0.0020136375
0.2183994
0.0030146682
0.21848945
0.0038644757
0.21871684
0.0045830501
0.0050459381
0.21908417
0.24794311
-0.020966104
-0.25009836
0.2459484
-0.01920021
0.24416895
-0.017473536
0.24262902
-0.015695753
0.24131993
-0.013852803
0.2401774
-0.011923517
0.23910258
-0.0099541322
0.23817027
-0.0080516296
0.23726606
-0.0061835376
0.23651263
-0.0044492887
0.23577953
-0.0028037449
0.23525677
-0.0013327828
0.23481576
-4.1052333e-06
0.2345183
0.0011654412
0.23432675
0.0022051886
0.23427684
0.0030645821
0.23435557
0.0037857489
0.23458841
0.0043502027
0.0046784978
0.23495585
0.26588998
-0.018650143
-0.26820594
0.26380727
-0.017117503
0.26192342
-0.015589689
0.26012404
-0.013896364
0.25851424
-0.012243006
0.25709025
-0.010499532
0.25588402
-0.0087479017
0.25487455
-0.0070421522
0.25405304
-0.0053620356
0.25335582
-0.0037520625
0.25281174
-0.0022596669
0.25238273
-0.00090376885
0.25201521
0.00036341256
0.25184059
0.0013400602
0.2518064
0.0022393755
0.25192544
0.0029455464
0.25212708
0.0035841113
0.25250985
0.0039674326
0.0042376123
0.25295073
0.28545954
-0.015743141
-0.28836655
0.28293369
-0.014591645
0.28071963
-0.01337563
0.27879796
-0.011974702
0.27705807
-0.01050311
0.27555355
-0.0089950171
0.27422284
-0.007417187
0.27307959
-0.0058989007
0.27215575
-0.0044382018
0.27137189
-0.0029682002
0.27079626
-0.0016840348
0.27037418
-0.00048168862
0.27019062
0.00054697633
0.27010011
0.0014305645
0.27017296
0.0021665249
0.27038046
0.0027380523
0.27073006
0.0032345126
0.27121821
0.0034792798
0.0036749976
0.27178082
0.30678921
-0.012458852
-0.3100735
0.30377784
-0.011580273
0.30105056
-0.010648354
0.29869626
-0.0096203982
0.29676125
-0.008568097
0.29509937
-0.0073331348
0.29378955
-0.0061073762
0.29270993
-0.004819278
0.29186085
-0.0035891203
0.29126145
-0.002368798
0.29080023
-0.0012228213
0.29047132
-0.00015277134
0.29029962
0.00071867516
0.29030821
0.0014219699
0.2904639
0.0020108387
0.29074896
0.0024529942
0.2911965
0.0027869658
0.29176517
0.0029106122
0.002969829
0.29247034
0.33051095
-0.008773588
-0.33419621
0.32710107
-0.0081703956
0.32396505
-0.007512337
0.32113296
-0.0067883023
0.31865612
-0.0060912652
0.31652222
-0.0051992275
0.31476143
-0.0043465922
0.31335885
-0.0034166998
0.31229768
-0.0025279409
0.31159521
-0.0016663343
0.31121926
-0.0008468748
0.31120851
-0.00014201605
0.31138319
0.0005439976
0.31169832
0.0011068328
0.31213169
0.0015774704
0.31266072
0.0019239699
0.31325891
0.0021887687
0.31396309
0.0022064321
0.0022066662
0.31472626
0.35578857
-0.004615341
-0.35994682
0.35194991
-0.004331737
0.34842119
-0.0039836189
0.34525638
-0.0036234853
0.34240026
-0.0032351497
0.33999316
-0.0027921275
0.3379822
-0.0023356272
0.33642255
-0.0018570585
0.33527384
-0.0013792222
0.33453634
-0.00092883955
0.33416654
-0.00047707633
0.33409545
-7.0924155e-05
0.33439592
0.00024353215
0.33493878
0.00056396692
0.3356689
0.00084735747
0.33648077
0.0011120991
0.33732706
0.0013424707
0.33831925
0.0012142497
0.001350285
0.33917563
0.3838565
-0.38847184
0.37952476
0.37554114
0.37191766
0.36868251
0.36589038
0.36355476
0.3616977
0.36031847
0.35938964
0.35891256
0.35884163
0.35908517
0.35964913
0.36049649
0.36160859
0.36295106
0.36416531
0.3655156
0.056846836
0.0087110698
-0.0084426774
0.056670845
0.011701298
-0.011525307
0.056589864
0.014709919
-0.014628938
0.056709213
0.017734563
-0.017853912
0.056996422
0.020788097
-0.021075307
0.057438003
0.023987522
-0.024429102
0.058017251
0.02707508
-0.027654329
0.058665964
0.030342876
-0.030991589
0.059402647
0.033482294
-0.034218977
0.060174871
0.036777383
-0.037549607
0.060956623
0.040001345
-0.040783097
0.061785904
0.043290494
-0.044119775
0.062610262
0.046569743
-0.0473941
0.063418059
0.050004341
-0.050812138
0.064095526
0.053510781
-0.054188248
0.06454965
0.05697595
-0.057430074
0.064840025
0.060488897
-0.060779271
0.06483629
0.063972172
-0.063968437
0.067853104
0.064280145
-0.067296958
0.060891973
0.0090252825
0.060782097
0.011811174
0.060847841
0.014644175
0.061141133
0.017441271
0.0615272
0.020402031
0.062125157
0.023389564
0.062748063
0.026452175
0.063500097
0.029590843
0.06428585
0.032696542
0.065111435
0.035951798
0.065928084
0.039184696
0.066757138
0.042461441
0.067536184
0.045790697
0.068303352
0.049237173
0.069031671
0.052782462
0.069652439
0.056355182
0.070109397
0.060031939
0.070216013
0.063865556
0.068141209
0.069927908
0.065359728
0.0093779502
0.065214287
0.011956615
0.06526145
0.014597013
0.065530751
0.01717197
0.065923925
0.020008856
0.066564283
0.022749206
0.067232855
0.025783603
0.068115653
0.028708045
0.069000102
0.031812093
0.07002769
0.03492421
0.071017753
0.038194633
0.072021557
0.041457637
0.072966961
0.044845294
0.073924033
0.048280101
0.074867828
0.051838667
0.075741442
0.055481567
0.07659748
0.059175902
0.077313983
0.063149052
0.067226514
0.078228678
0.070181725
0.0096580559
0.070059375
0.012078966
0.0701873
0.014469088
0.070442352
0.016916917
0.070930833
0.019520376
0.071551965
0.022128075
0.072299543
0.025036025
0.073210788
0.0277968
0.074218491
0.03080439
0.075268199
0.033874503
0.076502793
0.036960039
0.07770141
0.04025902
0.079040322
0.043506381
0.080320648
0.046999776
0.081845105
0.05031421
0.083389655
0.053937018
0.085262616
0.057302941
0.087236159
0.061175509
0.064344738
0.090117935
0.075456862
0.0099175761
0.075311246
0.012224583
0.075520462
0.014259872
0.075783778
0.016653601
0.076368344
0.01893581
0.076943548
0.02155287
0.077839766
0.024139808
0.078763097
0.026873469
0.079893226
0.02967426
0.081038016
0.032729713
0.082478469
0.035519587
0.083891949
0.03884554
0.085654115
0.041744216
0.087440056
0.045213834
0.089791652
0.047962615
0.092225232
0.051503438
0.095592863
0.053935309
0.099429745
0.057338628
0.058946632
0.10482785
0.080932619
0.010205448
0.080845669
0.012311532
0.081090046
0.014015495
0.081446407
0.01629724
0.082126981
0.018255237
0.082808941
0.02087091
0.083859731
0.023089018
0.084881009
0.025852192
0.086211285
0.028343984
0.087588504
0.031352495
0.089279806
0.033828285
0.091071227
0.037054119
0.093269601
0.039545842
0.095750574
0.042732861
0.098897169
0.04481602
0.10264019
0.047760417
0.10743819
0.049137309
0.11313746
0.051639362
0.051600983
0.12048311
0.086966119
0.010558439
0.087059809
0.012217843
0.087235139
0.013840165
0.087731666
0.015800712
0.088335895
0.017651008
0.089194717
0.020012088
0.090300213
0.021983523
0.091548588
0.024603817
0.093069084
0.026823489
0.094776858
0.029644721
0.096758838
0.031846304
0.09909436
0.034718597
0.10190936
0.036730841
0.10529636
0.03934586
0.10937146
0.040740926
0.11434945
0.042782428
0.12017858
0.043308179
0.12720531
0.044612631
0.04350442
0.13530187
0.093148524
0.010899861
0.093330042
0.012036325
0.093464245
0.013705963
0.094170986
0.015093971
0.094823484
0.01699851
0.096047239
0.018788333
0.09723666
0.020794102
0.098773962
0.023066515
0.10047913
0.025118325
0.1025891
0.027534742
0.1050031
0.029432306
0.1079952
0.0317265
0.11147453
0.033251507
0.11572845
0.035091949
0.12064442
0.035824948
0.12646665
0.036960198
0.13301322
0.036761615
0.14035037
0.037275481
0.035569486
0.1482853
0.10022569
0.011127972
0.10046661
0.011795407
0.10069337
0.013479198
0.10144424
0.014343101
0.10218068
0.01626207
0.10355421
0.017414805
0.10481541
0.019532896
0.10672
0.021161934
0.10864908
0.023189239
0.1112322
0.024951623
0.11400018
0.026664324
0.11763084
0.028095849
0.12160397
0.02927837
0.12657113
0.030124793
0.13194792
0.030448156
0.13824198
0.030666144
0.14473063
0.030272963
0.15180593
0.030200182
0.028747655
0.15862776
0.10744726
0.011210389
0.10762206
0.0116206
0.10807072
0.013030546
0.10890705
0.013506771
0.10987033
0.015298783
0.11132374
0.015961394
0.11283066
0.018025975
0.11504556
0.018947037
0.11730263
0.020932169
0.12043017
0.021824086
0.12363092
0.02346357
0.12785503
0.023871746
0.132201
0.0249324
0.13762614
0.024699647
0.14304213
0.025032166
0.14925237
0.02445591
0.155119
0.024406324
0.16135602
0.023963165
0.023519771
0.1665839
0.11576938
0.011167275
0.1157743
0.011615679
0.11647608
0.012328767
0.11730873
0.012674118
0.11857794
0.014029573
0.12007788
0.014461455
0.12196966
0.016134195
0.1243459
0.016570794
0.12704161
0.018236458
0.13039023
0.01847547
0.13400042
0.019853386
0.13847835
0.01939381
0.14297951
0.020431239
0.14843053
0.019248627
0.15333989
0.020122807
0.15888151
0.018914296
0.1635416
0.019746228
0.16823263
0.019272139
0.019935391
0.17181701
0.12403774
0.010996464
0.12405448
0.011598942
0.12498052
0.011402727
0.12579578
0.011858851
0.12736091
0.012464443
0.12899342
0.012828943
0.13132104
0.013806583
0.13388615
0.014005682
0.13698654
0.015136068
0.14046242
0.014999586
0.14440694
0.015908868
0.14882525
0.014975495
0.15339647
0.015860027
0.1583025
0.014342597
0.16250474
0.015920564
0.16700279
0.014416243
0.17011287
0.016636146
0.17334125
0.016043762
0.018557695
0.17471895
0.13334519
0.010881299
0.13365413
0.011289997
0.13466607
0.010390796
0.13555149
0.010973426
0.13742747
0.010588459
0.13907488
0.011181542
0.14166568
0.011215782
0.14427652
0.011394834
0.14760561
0.011806986
0.15113759
0.011467602
0.15521145
0.01183501
0.15931829
0.010868655
0.16344714
0.011731171
0.16721201
0.01057773
0.17049626
0.012636318
0.17318592
0.011726586
0.17462266
0.015199403
0.17571847
0.01494795
0.019716148
0.17456002
0.14298045
0.010901012
0.14365795
0.010612503
0.14449528
0.009553466
0.14572031
0.009748397
0.14763203
0.0086767376
0.14944147
0.0093721036
0.15233872
0.0083185274
0.15493421
0.0087993489
0.15852843
0.0082127631
0.16189514
0.0081008865
0.16572303
0.0080071278
0.16910693
0.0074847533
0.17258548
0.0082526228
0.17524697
0.0079162393
0.17729368
0.010589604
0.17803754
0.010982726
0.17770807
0.015528873
0.17634627
0.016309752
0.022925756
0.17313666
0.15347106
0.010808062
0.15437312
0.0097104416
0.15507751
0.0088490813
0.15675669
0.0080692122
0.15843617
0.006997255
0.16073495
0.0070733263
0.16349537
0.0055581133
0.16621372
0.0060809972
0.16981699
0.0046094916
0.17262921
0.0052886678
0.17609358
0.0045427587
0.17865499
0.0049233432
0.18114491
0.005762697
0.18210251
0.0069586404
0.18264151
0.010050605
0.1815319
0.012092337
0.17967634
0.017384436
0.17631682
0.019669271
0.027612317
0.17163026
0.16504548
0.010458099
0.16596591
0.0087900129
0.1669101
0.0079048934
0.1687766
0.006202706
0.170349
0.0054248625
0.17298463
0.0044376916
0.17531051
0.0032322324
0.17833464
0.003056866
0.18126569
0.0016784449
0.18387097
0.0026833837
0.18678048
0.0016332491
0.18804518
0.0036586439
0.18914305
0.0046648287
0.18837603
0.0077256599
0.18729639
0.011130244
0.18439716
0.014991572
0.18127086
0.020510739
0.17622537
0.02471476
0.033787362
0.17005032
0.17707458
0.0099580236
0.17785868
0.0080059118
0.17901283
0.0067507473
0.18077932
0.0044362104
0.1826102
0.0035939812
0.18530428
0.0017436128
0.18738139
0.0011551259
0.19031829
0.00011996249
0.19235581
-0.00035907346
0.19482908
0.00021011565
0.19619957
0.00026276345
0.19649346
0.0033647536
0.19639651
0.0047617752
0.19432096
0.0098012103
0.1920676
0.013383603
0.18766043
0.019398743
0.18299968
0.025171492
0.17618652
0.031527912
0.041190697
0.16878319
0.19057653
0.0092567145
0.19139087
0.0071915645
0.192805
0.0053366235
0.19447388
0.0027673264
0.1965427
0.0015251608
0.19885574
-0.00056942096
0.20081968
-0.00080881702
0.20322707
-0.0022874263
0.2045458
-0.0016778046
0.20608508
-0.0013291677
0.20572818
0.00061966753
0.20545109
0.0036418411
0.20361406
0.0065988106
0.20069303
0.012722235
0.19715864
0.016917996
0.19167315
0.024884232
0.18649428
0.030350366
0.17937197
0.038650217
0.04646878
0.17409389
0.20430747
0.0086332837
0.20517229
0.0063267434
0.20667148
0.0038374284
0.20812556
0.0013132498
0.21011861
-0.00046788544
0.21192761
-0.0023784274
0.21390982
-0.002791029
0.21554113
-0.0039187367
0.21624964
-0.002386313
0.21674048
-0.0018200035
0.21574903
0.0016111183
0.21466419
0.00472668
0.2112561
0.010006905
0.20786338
0.01611495
0.20304479
0.021736582
0.19814395
0.029785077
0.1940025
0.034491817
0.19005814
0.042594577
0.045392128
0.19113479
0.2198813
0.0078361484
0.2210129
0.0051951429
0.22235756
0.0024927727
0.22373581
-6.4995628e-05
0.2255305
-0.0022625799
0.22691149
-0.0037594199
0.22862716
-0.0045066963
0.22928084
-0.0045724138
0.22954973
-0.0026552048
0.22893446
-0.0012047349
0.22727388
0.0032717012
0.2248748
0.0071257632
0.22103508
0.013846623
0.21792344
0.019226586
0.21377505
0.025884978
0.21196156
0.031598564
0.21113996
0.035313417
0.21416975
0.039564791
0.03729754
0.22226433
0.23576412
0.0070278782
0.23687739
0.0040818758
0.23820203
0.0011681295
0.23963966
-0.0015026188
0.24092101
-0.0035439278
0.24194009
-0.0047785049
0.24273032
-0.0052969265
0.24238729
-0.0042293847
0.24229783
-0.0025657439
0.24061533
0.00047776765
0.23851435
0.0053726805
0.23543644
0.01020367
0.2324642
0.016818867
0.23050098
0.021189811
0.22953865
0.026847299
0.23185319
0.029284033
0.23593689
0.031229717
0.24529862
0.030203058
0.026720514
0.25587564
0.25391238
0.0060662254
0.25497305
0.0030212062
0.25612558
1.5604179e-05
0.25723274
-0.0026097806
0.25814446
-0.0044556511
0.25884018
-0.0054742169
0.25883478
-0.0052915261
0.25853888
-0.0039334843
0.25769853
-0.0017253944
0.25552881
0.0026474856
0.25357382
0.0073276739
0.25103169
0.012745797
0.25013572
0.017714837
0.25045625
0.020869277
0.25324873
0.024054822
0.25850258
0.024030187
0.26616865
0.023563645
0.27637533
0.019996374
0.019185045
0.2839108
0.27279744
0.0050496087
0.27382616
0.0019924904
0.27470363
-0.00086186974
0.27520402
-0.0031101737
0.27554024
-0.00479187
0.27534043
-0.0052744087
0.27454259
-0.0044936794
0.27354651
-0.0029374129
0.2717599
6.121583e-05
0.27008266
0.0043247323
0.2686587
0.0087516353
0.26835135
0.013053149
0.27027102
0.015795163
0.27343212
0.017708182
0.27910143
0.018385508
0.2861318
0.016999811
0.29405722
0.015638229
0.30035606
0.013697532
0.016331353
0.30320975
0.29355644
0.0039635077
0.29446139
0.0010875469
0.29508998
-0.0014904642
0.29537809
-0.0033982835
0.29539401
-0.0048077943
0.29509365
-0.0049740422
0.29453047
-0.0039305039
0.29339934
-0.0018062816
0.29194134
0.0015192213
0.29103937
0.0052266933
0.29086543
0.00892558
0.2924016
0.011516979
0.29527712
0.012919641
0.29950041
0.013484898
0.30543278
0.012453134
0.3112809
0.011151699
0.31606347
0.010855656
0.31807585
0.011685148
0.016679402
0.3177278
0.31597308
0.0027166895
0.31673145
0.00032917273
0.31663274
-0.0013917558
0.31606497
-0.0028305085
0.31495269
-0.0036955204
0.31347711
-0.0034984562
0.31191426
-0.0023676574
0.3106088
-0.00050081695
0.30995201
0.0021760024
0.31048257
0.0046961417
0.31270753
0.0067006185
0.31653713
0.0076873728
0.32139709
0.0080596873
0.32705218
0.0078298068
0.33239164
0.007113669
0.33589406
0.0076492849
0.33774344
0.0090062729
0.33769309
0.011735498
0.016363768
0.33800873
0.34058298
0.0013093345
0.34108666
-0.00017450571
0.34067981
-0.00098490637
0.33964485
-0.0017955464
0.33844869
-0.0024993644
0.33743026
-0.0024800172
0.33664853
-0.0015859305
0.33637359
-0.0002258813
0.33712124
0.0014283578
0.33893581
0.002881567
0.34154824
0.0040881956
0.34487211
0.004363496
0.34808853
0.0048432717
0.35124806
0.0046702777
0.35295853
0.0054031939
0.35457903
0.006028786
0.35631665
0.0072686598
0.35957521
0.0084769327
0.0093985648
0.36654041
0.36682493
0.36665042
0.36566552
0.36386997
0.36137061
0.35889059
0.35730466
0.35707878
0.35850714
0.3613887
0.3654769
0.3698404
0.37468367
0.37935394
0.38475714
0.39078593
0.39805459
0.40653152
0.41593008
0.058567741
0.076231552
-0.070519147
0.05228306
0.079827255
-0.073542574
0.045141813
0.084112333
-0.076971086
0.037429987
0.087926691
-0.080214865
0.027605253
0.092527037
-0.082702303
0.015815517
0.097294632
-0.085504896
-0.00047898461
0.10057917
-0.084284665
-0.022207821
0.093360193
-0.071631356
-0.044885998
0.080643231
-0.057965054
-0.06541717
0.078977513
-0.058446341
-0.085535511
0.077045192
-0.056926851
-0.10290488
0.074443289
-0.057073919
-0.11752829
0.07186575
-0.057242346
-0.12910362
0.06433682
-0.052761488
-0.13644008
0.052482773
-0.045146312
-0.14035878
0.041655802
-0.037737099
-0.1410113
0.034040365
-0.03338785
-0.1391546
0.028107806
-0.029964505
0.024424859
-0.1343751
-0.029204359
0.064416958
0.081742502
0.058032513
0.0862117
0.051031226
0.091113621
0.042846289
0.096111628
0.033281281
0.10209205
0.021786095
0.10878982
0.0061667239
0.11619854
-0.017502053
0.11702897
-0.046595417
0.10973659
-0.071638051
0.10402015
-0.093260034
0.098667176
-0.11084864
0.092031893
-0.12553375
0.08655086
-0.13800088
0.076803956
-0.14810792
0.062589804
-0.15487945
0.048427338
-0.15716296
0.036323873
-0.15496968
0.025914526
0.018073149
-0.14861797
0.073236251
0.086734929
0.067598884
0.091849067
0.062085716
0.09662679
0.055529224
0.10266812
0.048848239
0.10877303
0.041660582
0.11597747
0.033518132
0.12434099
0.019071663
0.13147544
-0.0038657542
0.13267401
-0.030411817
0.13056621
-0.05760886
0.12586422
-0.081970294
0.11639333
-0.10033855
0.10491912
-0.11430383
0.090769233
-0.125499
0.07378498
-0.13341891
0.056347241
-0.13727447
0.040179434
-0.13770435
0.026344413
0.016524363
-0.13615557
0.085922599
0.090930266
0.082150254
0.095621411
0.07840232
0.10037472
0.075286
0.10578444
0.072557735
0.1115013
0.070752973
0.11778224
0.070299408
0.12479455
0.069443498
0.13233135
0.064900807
0.1372167
0.056782773
0.13868424
0.045660431
0.13698656
0.031194526
0.13085923
0.016150262
0.11996338
0.0013497916
0.1055697
-0.012838901
0.087973673
-0.026450392
0.069958732
-0.039172321
0.052901362
-0.051520145
0.038692237
0.028151934
-0.063147716
0.10202181
0.093736304
0.10010895
0.097534271
0.098311656
0.10217202
0.097713317
0.10638278
0.097817105
0.11139751
0.099560303
0.11603904
0.10296719
0.12138767
0.10873618
0.12656236
0.11448094
0.13147194
0.11901815
0.13414704
0.12215356
0.13385115
0.1218522
0.13116059
0.11820317
0.12361242
0.11064927
0.11312359
0.099426906
0.099196041
0.085224553
0.084161085
0.068342182
0.069783734
0.049929219
0.0571052
0.046917033
0.03116412
0.11864507
0.095574338
0.11747205
0.098707292
0.11738933
0.10225474
0.11784303
0.10592908
0.11946094
0.1097796
0.1224218
0.11307817
0.12687425
0.11693522
0.13349637
0.11994023
0.14140386
0.12356445
0.14989002
0.12566088
0.15809863
0.12564255
0.16469277
0.12456644
0.16818026
0.12012493
0.16735589
0.11394796
0.16205814
0.10449379
0.15251341
0.093705812
0.13852847
0.083768678
0.12153175
0.074101915
0.065890645
0.10255814
0.13389641
0.096979799
0.13293555
0.09966815
0.13316835
0.10202194
0.13376511
0.10533232
0.13559049
0.10795422
0.13843585
0.11023282
0.14268692
0.11268415
0.14768026
0.11494689
0.15416881
0.11707591
0.16203715
0.11779254
0.16983659
0.11784311
0.17744146
0.11696157
0.18236801
0.11519839
0.18545084
0.11086513
0.1842604
0.10568423
0.17889654
0.099069671
0.17022758
0.092437644
0.15832898
0.086000507
0.080459705
0.14375992
0.14675206
0.098513044
0.14599793
0.10042228
0.14563696
0.10238291
0.14599096
0.10497832
0.14710654
0.10683864
0.14915553
0.10818382
0.15227844
0.10956124
0.15573401
0.11149133
0.1607957
0.11201422
0.1666403
0.11194793
0.17265177
0.11183164
0.17851757
0.11109577
0.18399938
0.10971658
0.18845658
0.10640793
0.18980634
0.10433447
0.18755155
0.10132445
0.18257994
0.097409253
0.17513845
0.093441998
0.089970689
0.16562747
0.15668246
0.10045835
0.15530439
0.10180034
0.15411933
0.10356797
0.15426663
0.10483102
0.15455921
0.10654607
0.15572438
0.10701865
0.15739221
0.10789341
0.1600282
0.10885535
0.1634078
0.10863461
0.16751103
0.1078447
0.1714321
0.10791057
0.17528553
0.10724233
0.17884276
0.10615936
0.181113
0.10413769
0.18325223
0.10219524
0.18427072
0.10030596
0.18301882
0.09866116
0.1789529
0.097507913
0.096412655
0.17251094
0.1642634
0.10277885
0.16195192
0.10411182
0.16019738
0.10532251
0.15910474
0.10592366
0.15872382
0.10692698
0.15888211
0.10686037
0.15932973
0.10744579
0.16100662
0.10717845
0.16297884
0.1066624
0.16526836
0.10555518
0.16719174
0.10598719
0.1705147