/*--------------------------------*- C++ -*----------------------------------*\
  =========                 |
  \\      /  F ield         | OpenFOAM: The Open Source CFD Toolbox
   \\    /   O peration     | Website:  https://openfoam.org
    \\  /    A nd           | Version:  11
     \\/     M anipulation  |
\*---------------------------------------------------------------------------*/
FoamFile
{
    format      ascii;
    class       volScalarField;
    location    "0.0985";
    object      p;
}
// * * * * * * * * * * * * * * * * * * * * * * * * * * * * * * * * * * * * * //

dimensions      [0 2 -2 0 0 0 0];

internalField   nonuniform List<scalar> 
880
(
80
80
80
80.00014429112935
80
80
80.00000000000803
80.00079504297995
80
79.99999999999999
80.00000000122782
80.00415988962669
80
80
80.00000003830255
80.00636305483211
80
80.00000000000001
79.99999999999994
80.00000000025953
79.99999999999999
80
79.99999999999983
80
79.99999962205847
80.00000161009525
80.02027816230679
79.95855187812582
80.76307331083562
83.1107683491895
85.06706729011475
85.97837185560425
80.0000033980774
80.00001036340305
80.00001225897668
80.00000655971535
80.00007553913071
80.00019614929242
80.00040400065832
80.00025438413708
80.04932086855976
80.09325930956651
80.14285321010829
80.13575874540231
86.97699986953695
88.2007089916053
89.49717411229628
90.73291808121272
89.85454291654052
87.64452633681549
85.85266995141964
84.53682535616237
80.23718067054305
80.43824592715455
80.56203553623622
80.47897214249529
80.00079926427247
80.00197604962808
80.00372392768799
80.00364440927751
80.00003137889094
80.00006585828217
80.00010326274014
80.00009145305626
80.00004689472991
80.0000104512615
80.00000075624493
80.00000001181876
80.00247798936239
80.00090262519943
80.00014676666632
80.00000881594661
80.33986207942037
80.15445240828794
80.0384894474773
80.00440392601122
83.27490073061205
82.07773640300476
80.9918753943135
80.2713038293051
80.02976334593259
80.00015817134276
80.00000015573444
80.00000000028902
80.00196393601499
80.00001986907984
79.99999999716385
79.99999999802144
79.99738880159416
79.9998342756151
80.00000119827243
80.00000038550202
81.52413602383032
80.00387524905354
79.9996952309298
79.99998146024377
79.99997526789113
79.9998578647678
80.04617603495417
94.09398767218168
79.99999531591938
80.0002945917978
80.23382000608552
106.1924447174802
80.0000450158974
80.00115504593583
80.46942143922942
112.5586060841854
80.00010753463252
80.00300944161883
80.83880767991707
119.0272751414662
124.6817142271562
81.10485543890297
80.00383754907455
80.00014487662983
130.9584434563036
81.53156748836541
80.00651322245071
80.00023120247926
134.6759610362516
81.73732555612671
80.00717225537424
80.0002557551157
139.260109395321
82.24483588723861
80.01201370314672
80.00045442071321
80.00047793735743
80.01295614121739
82.71136593054165
144.5458866252784
80.00069559671891
80.01889590792553
83.44542823486553
147.0163166872461
80.00114970188437
80.02586266257291
83.70589057770724
140.4543821061251
79.99990517195066
80.00900371573583
82.09629343052158
119.947240760193
80.00230462486097
80.06641796384633
82.60234505211051
95.26591236788563
80.00189726018384
80.07286651499004
80.95663959790602
70.89668433095706
79.99935746973453
80.00900652983412
79.62564571518934
58.67104991974106
79.99935204269332
79.94318957858275
77.8272660815785
51.51430110908447
49.25197005838914
77.21595825352659
79.93865989401048
79.99974690752182
46.71365787339821
76.96693642206938
79.94828933331036
79.99981080191822
45.31457473648123
77.30453119676199
79.97101785192706
79.9999221025527
43.57951285387261
77.16682560530607
79.97061414648495
79.99992022310096
51.15550557833394
78.64206335990843
79.99069860207395
79.99997374728839
59.88768352345812
79.51437954778289
79.99776727549187
79.99999457219795
66.3304004181805
79.80779916320679
79.99930260263473
79.99999855952667
71.92597740829214
79.93062411382253
79.99976878715724
79.99999915561057
72.29814890642501
79.63090993725282
79.99471376220909
79.99996935299268
72.58808454821651
79.64012127933533
79.99475998450968
79.99996945187821
73.09163644328301
79.64734248065103
79.99475743055945
79.99996943826497
74.26782074793577
79.68231867519629
79.99491367808183
79.99997055128185
71.92597740811463
79.93062411346098
79.99976878665657
79.99999915620312
66.33040041775978
79.80779916275847
79.99930260134228
79.99999855961232
59.88768352322911
79.51437954809847
79.99776727545606
79.99999457233291
51.15550557855977
78.64206336090427
79.99069860210696
79.99997374695359
79.99974690776011
79.93865989528791
77.2159582540293
49.25197005829087
79.9998108025013
79.94828933371915
76.96693642238789
46.7136578735775
79.9999221018486
79.97101785279122
77.30453119644289
45.31457473668376
79.99992022328848
79.97061414668569
77.16682560652185
43.57951285356991
51.5143011084009
77.82726608083128
79.94318957759158
79.99935204251543
58.67104991885085
79.62564571443802
80.00900652882801
79.99935746798876
70.89668433080146
80.95663959708079
80.07286651514724
80.00189726012823
95.26591236809455
82.60234505189369
80.06641796336022
80.0023046264098
80.00047793686946
80.01295614249396
82.71136593147432
144.545886626486
80.00069559688089
80.01889590818305
83.44542823491932
147.016316687221
80.00114970263274
80.02586266256358
83.70589057695133
140.4543821060552
79.99990517370645
80.00900371568268
82.09629342997688
119.9472407600289
139.2601093971899
82.24483588586081
80.01201370449101
80.00045442067116
134.6759610376325
81.73732555817995
80.00717225515255
80.00025575544531
130.9584434555889
81.53156749023199
80.00651322448137
80.00023120210629
124.6817142282533
81.10485543691556
80.00383754908088
80.00014487631806
79.99997526873669
79.99985786551439
80.04617603522063
94.09398767099239
79.99999531532643
80.00029459086205
80.23382000586379
106.1924447178488
80.00004501536147
80.00115504595567
80.46942144010951
112.5586060840464
80.00010753402491
80.0030094414895
80.83880767929652
119.0272751423809
79.99998145999034
80.00000038586876
79.99999999811537
80.00000000023988
79.99969523005099
80.00000119824661
79.9999999980158
80.0000001552896
80.00387524931455
79.99983427589468
80.00001986854392
80.00015817103598
81.52413602402389
79.99738880192446
80.00196393587136
80.02976334592111
80.00000001109535
80.00000881601346
80.00440392648439
80.2713038296254
80.00000075609121
80.00014676635979
80.03848944905657
80.99187539444061
80.0000104517583
80.00090262525796
80.15445240741889
82.07773640299229
80.00004689500447
80.00247798922406
80.33986208015953
83.2749007302846
80.00003137784365
80.00079926334836
80.23718067014994
89.85454291631872
80.00006585736797
80.001976049733
80.43824592726249
87.64452633606824
80.00010326238352
80.00372392877502
80.56203553625578
85.85266995110263
80.00009145272317
80.00364440996556
80.47897214254911
84.53682535565288
90.73291808157957
80.13575874639943
80.00025438353092
80.00000655919503
89.49717411254602
80.14285321114428
80.00040400052998
80.000012259047
88.20070899260831
80.09325930933768
80.00019614952323
80.00001036328324
86.97699986933394
80.04932086795151
80.00007553872979
80.00000339837533
85.97837185583785
79.95855187957591
80
80.0000000003659
85.06706728983328
80.02027815943823
80
79.99999999999999
83.11076834965574
80.00000160988992
80
79.99999999999999
80.76307331070085
79.99999962171688
80
79.99999999999989
80
79.99999999999997
80
80.00014429041153
80.00000000000003
80.00000000000001
79.99999999998458
80.00079503465525
80
80
80.00000000128853
80.00415988745486
80
80
80.00000003786934
80.00636305408158
80.00023465598184
80.00104849490242
80.00673607895347
80.18069876388701
80.0010485114624
80.00113497605648
80.00366851129209
80.71694768214174
80.00673607497637
80.00366849450671
80.26824242074713
84.83450846049686
80.1806987530085
80.7169476809397
84.83450853546884
102.298073006506
132.4917933268203
111.2633480124838
99.89123316646806
88.96924990431371
127.4799933176758
122.837776831834
120.2334504752738
111.0502492469124
124.6311391555747
123.491844723375
123.2762102273572
119.0022750814819
125.3924888425967
123.9879669889867
123.4716211425171
120.9328201138256
123.0340947766117
124.0899825024433
125.3243867517835
128.0290395128779
124.3861181988701
125.5062823228767
126.6084271231192
130.0273377913665
124.6621828526152
125.4309472447343
126.5924154570137
129.3873996923031
124.9011774565469
125.122638042553
126.2137081606338
127.3579836713621
107.5039564836174
87.76054988697044
82.30420891277753
81.48290277154901
97.90437603858807
80.41026522209913
80.09421444041726
81.23027660321668
88.25742354862747
76.94606921839873
80.73380735291342
82.30478339789728
69.31047864882035
71.37561681392287
79.10034045107328
81.58367289780452
81.79045973217437
82.23900271179467
81.76150622995438
80.76164260374232
81.90289484903164
82.26051128703105
81.66488041068571
80.75977389617758
82.61902152998698
82.63463116665498
81.87761982491092
80.90110321577826
81.96309496712119
82.212390690717
81.52919073140204
80.55276369450058
80.16343316074507
80.01442109459173
79.99689258792404
101.9145735354447
80.19835890010141
80.02231706586123
79.99704795247264
114.1653302095001
80.26153036726828
80.03156903910356
80.00059238835574
120.367865915579
80.09331271266271
80.00155265771498
80.00098957471496
122.7154182121601
191.7657040428481
204.3650880779667
205.4024816428851
207.5064158880722
215.3334589047182
215.1642123145157
211.02434601556
211.4254351119508
213.9609879243197
208.9582805701914
211.450433930226
211.8784020774207
226.9096302827742
216.1451780685734
212.2637376419158
211.4288564833503
210.9436875748045
217.7598567035091
220.6663497969244
222.7809853149932
212.9445408774588
218.7409197824535
221.4640345363394
223.1962258682979
212.7934203127851
217.9425427803367
221.1858973879808
222.9794350906806
212.1979777140249
217.0334693463421
220.1536526266674
222.1198134386711
221.8141809555381
215.5044837320546
199.380035589591
165.6571567072001
221.8338092098654
215.6547652507728
199.2153875085322
175.9668017058779
222.0847488163463
216.0427255526986
200.3002195986253
187.069613307772
221.4063858371549
216.8308835977163
202.4311027042338
207.6814090239767
101.1274409667574
21.74500153264258
7.01062656785708
8.121259159066721
78.26705803216579
12.7642381457741
7.581275651481586
8.251781550336901
52.4246197286222
7.558381280372507
6.765452235873153
8.730476705346812
29.21756055170612
3.906152715497222
7.885132256569007
9.124912722104428
9.628094380974792
10.46001239279672
10.57146615002686
8.962283283301714
9.3058342637078
9.562212990956082
8.96466842567051
7.297867148898247
9.664360829530752
9.446913601760444
8.504992819929464
7.894186189307753
9.800097463358243
9.099868084626156
7.976928994097478
9.093247836279573
21.68299918388963
32.77994877854715
40.48888341157329
51.7147863111655
21.42591935039814
31.27489828343976
36.99203753668231
49.58735505291617
19.40025634523184
31.02151859639179
38.54054680648903
47.60586156738101
14.55936511926007
25.2299558020062
34.86841634933555
47.43044177782056
36.65677398005461
23.07233652074832
9.858515579550438
8.403035059189264
32.96204158219393
18.18785564417486
8.54181493528767
5.922451064974871
25.32477153121417
11.47905041723872
4.118737134052382
5.514076496843191
17.09866584484329
4.739761338936564
1.94337508951107
6.235587419340553
12.80340843149849
15.91236572490248
20.51376194525351
22.03926625333481
12.3365675272967
15.93691178261517
18.84433123087267
19.6324301752169
12.56041938019388
18.22834140024122
20.12254170110915
20.87025804742978
20.79834891971012
33.86245042344689
33.71306712774634
31.71407940487981
22.03926625333267
19.63243017520853
20.87025804742548
31.71407940486489
20.51376194526635
18.84433123084818
20.12254170110565
33.71306712766423
15.91236572490885
15.93691178260565
18.22834140021307
33.86245042336821
12.80340843151114
12.33656752731457
12.56041938021255
20.79834891951057
8.403035059105282
9.858515579498478
23.07233652060354
36.65677397977932
5.9224510649814
8.541814935265
18.18785564417188
32.96204158204614
5.514076496864343
4.118737134033125
11.4790504171703
25.3247715311697
6.235587419338864
1.943375089508818
4.739761338932084
17.09866584480728
47.43044177773699
34.8684163492883
25.22995580185889
14.55936511905412
47.60586156732713
38.54054680648994
31.02151859630828
19.40025634500176
49.58735505284355
36.99203753664757
31.27489828337658
21.42591935019879
51.71478631104488
40.48888341144521
32.77994877839348
21.68299918372242
8.96228328318783
10.57146615013163
10.46001239282666
9.628094380914861
7.297867148858095
8.96466842574973
9.562212990984998
9.305834263674738
7.894186189289285
8.504992820007722
9.446913601803594
9.664360829483471
9.093247836241128
7.976928994153811
9.099868084679018
9.800097463288907
8.121259158945692
7.010626567705351
21.74500153245731
101.1274409666862
8.251781550232073
7.58127565135053
12.76423814567488
78.26705803171602
8.730476705225938
6.76545223574125
7.558381280353895
52.42461972843662
9.124912721931976
7.885132256381663
3.906152715442678
29.21756055164768
165.6571567069413
199.3800355894251
215.5044837321889
221.8141809563986
175.9668017057218
199.215387508474
215.6547652510761
221.8338092109761
187.0696133076456
200.3002195987132
216.0427255533023
222.0847488174683
207.6814090239248
202.4311027046718
216.8308835983336
221.4063858384221
222.7809853165266
220.6663497974527
217.759856702219
210.9436875754615
223.1962258696346
221.4640345365211
218.7409197812062
212.9445408782188
222.9794350917835
221.1858973878761
217.9425427793221
212.7934203140477
222.1198134398814
220.1536526262858
217.0334693452227
212.1979777158942
207.506415891482
205.402481640652
204.3650880788273
191.765704041767
211.425435115642
211.0243460128801
215.1642123157551
215.3334589037092
211.8784020809443
211.4504339269399
208.9582805710653
213.9609879230036
211.4288564866743
212.2637376383207
216.1451780697113
226.9096302808794
101.9145735342067
79.99689258476808
80.01442109609548
80.1634331605638
114.1653302076528
79.99704794894241
80.0223170676167
80.19835889988379
120.3678659134707
80.00059238648674
80.03156904060347
80.26153036703855
122.7154182097773
80.00098957326854
80.00155265974441
80.09331271218872
80.76164260390971
81.76150622980575
82.2390027118299
81.79045973213617
80.75977389609469
81.66488041058382
82.26051128703395
81.90289484890502
80.90110321563999
81.87761982483647
82.63463116652107
82.61902152969098
80.55276369436289
81.52919073119637
82.21239069066543
81.96309496679723
81.48290277102824
82.30420891250775
87.76054988679493
107.5039564837628
81.23027660260766
80.09421444016509
80.41026522191011
97.90437603874315
82.30478339735042
80.73380735273604
76.94606921810409
88.25742354874002
81.58367289717015
79.10034045099212
71.37561681353702
69.31047864862994
128.0290395125492
125.3243867507426
124.0899825026564
123.0340947780644
130.0273377906184
126.6084271224552
125.5062823236586
124.3861182002775
129.387399691467
126.5924154564391
125.4309472454071
124.6621828537505
127.3579836708544
126.2137081605376
125.1226380437444
124.9011774572261
120.9328201135152
119.002275081733
111.0502492472558
88.96924990661087
123.471621142316
123.2762102270146
120.2334504765337
99.89123315638926
123.9879669889223
123.4918447242126
122.8377768334229
111.2633479941872
125.3924888420567
124.6311391556253
127.4799933181428
132.4917933340108
74.85424555070276
79.9064551757704
79.999329449325
79.99999746912906
73.90277189912338
79.86769710356883
79.99878751746824
79.999994240574
74.10973552757514
79.82473388537532
79.99789394341079
79.99998855937498
74.16074167981407
79.74533605339147
79.99604805005154
79.99997785657919
79.99996935347151
79.99471376231827
79.63090993672341
72.29814890596943
79.99996945223958
79.99475998511527
79.64012127846151
72.5880845482754
79.99996943770849
79.99475743108725
79.64734248033228
73.09163644255428
79.99997054959219
79.9949136787932
79.68231867374836
74.26782074755543
79.99997785604823
79.9999885588096
79.99999423855949
79.99999746710267
79.99604805031355
79.9978939433831
79.99878751720838
79.99932944859886
79.74533605324721
79.82473388465566
79.86769710421009
79.90645517542254
74.16074167967658
74.10973552676116
73.90277189884519
74.85424555091097
)
;

boundaryField
{
    back
    {
        type            empty;
    }
    inlet
    {
        type            zeroGradient;
    }
    front
    {
        type            empty;
    }
    top
    {
        type            zeroGradient;
    }
    outlet
    {
        type            fixedValue;
        value           uniform 80;
    }
    bottom
    {
        type            zeroGradient;
    }
    wall
    {
        type            zeroGradient;
    }
}


// ************************************************************************* //
