/*--------------------------------*- C++ -*----------------------------------*\
  =========                 |
  \\      /  F ield         | OpenFOAM: The Open Source CFD Toolbox
   \\    /   O peration     | Website:  https://openfoam.org
    \\  /    A nd           | Version:  11
     \\/     M anipulation  |
\*---------------------------------------------------------------------------*/
FoamFile
{
    format      ascii;
    class       volVectorField;
    location    "0.345";
    object      U;
}
// * * * * * * * * * * * * * * * * * * * * * * * * * * * * * * * * * * * * * //

dimensions      [0 1 -1 0 0 0 0];

internalField   nonuniform List<vector> 
880
(
(25 -1.125312023687461e-12 0)
(24.99999998756029 -5.80907254111135e-09 0)
(24.99862804175958 -0.0005701046149341292 0)
(24.74531413268833 0.006224424634423718 0)
(25.00000000000932 -1.359388730280237e-11 0)
(24.99999996399387 -4.662565635071127e-08 0)
(24.99790982039234 -0.0014836797738263 0)
(24.66579111470375 -0.1573401822782428 0)
(24.99999999975109 -1.509266106644071e-10 0)
(24.99999984705669 -2.042606153072987e-07 0)
(24.99582883906937 -0.003168206036236065 0)
(24.55471518591744 -0.2626551741833416 0)
(24.99999999865312 7.277138093167542e-10 0)
(24.999999200065 -8.858302209250887e-07 0)
(24.99034837281205 -0.006299195249830861 0)
(24.18796691015539 -0.4134155406289358 0)
(25.0000000098633 -4.685879129577164e-09 0)
(24.99999997926302 1.620913609836607e-08 0)
(24.9999996184862 -6.661981919444068e-07 0)
(24.99999377038079 -8.275574587082359e-06 0)
(24.99999532536306 -3.489710784604104e-06 0)
(24.99996548564733 -1.785006598144946e-05 0)
(24.99986803242007 2.964367359006395e-05 0)
(25.0001709926052 -0.001003957449975191 0)
(24.97440617769241 -0.009423392273808751 0)
(24.95569340281952 -0.005404727786552433 0)
(24.93051166281266 0.01153054142261245 0)
(24.9232377339938 -0.06289669316440505 0)
(23.46238803075082 -0.1020243016995991 0)
(22.75810968316764 0.6213212061793342 0)
(22.34883379230418 1.313404502360992 0)
(22.32097602696467 1.723749036818363 0)
(24.9998951174358 -1.331961771085606e-05 0)
(24.99967783659859 -0.0003378074115417285 0)
(24.99942316833868 -0.00126511261715594 0)
(24.99788717136668 -0.003988945168403363 0)
(24.99826871259556 -0.0005909027971715813 0)
(24.99130734559613 -5.304335615223754e-05 0)
(24.97978910275209 0.005327814162433132 0)
(24.95974852286929 0.008669927573494078 0)
(24.77114246434234 -0.008947160956736599 0)
(24.65265108564338 0.09527433674649544 0)
(24.49335519149971 0.2698913603949457 0)
(24.35897446886845 0.3907534996155004 0)
(22.05862544525185 2.314406041343296 0)
(22.06375889613799 2.741414636672987 0)
(21.95899045443998 3.282788044962125 0)
(22.40276702482357 3.704792755496332 0)
(23.43845643517959 4.273648583307343 0)
(24.1478033308669 4.117899260103084 0)
(24.49415897899696 3.709372963558182 0)
(24.83260712224013 3.272659097502108 0)
(24.12427071155983 0.7263138884171619 0)
(24.13542965611166 1.088784755013801 0)
(24.24731767166658 1.32033996964536 0)
(24.42159572150687 1.454754285980019 0)
(24.88793910254783 0.03342425890275004 0)
(24.79475687475809 0.1091866703415629 0)
(24.70856331569534 0.2287103352654767 0)
(24.6665341846152 0.3750413694133076 0)
(24.98953127716023 -0.009313694141197938 0)
(24.97590843210023 -0.02197953228637413 0)
(24.95639034480472 -0.04104462099947307 0)
(24.93386849091354 -0.06656015263180536 0)
(24.91488358675193 -0.09574509925193343 0)
(24.90365613058484 -0.1223234100297726 0)
(24.89963803529892 -0.1301097329380715 0)
(24.90292908066347 -0.1209620973921686 0)
(24.666695964263 0.5317906455124576 0)
(24.71036138243106 0.677223896473492 0)
(24.79798586231493 0.789137449726509 0)
(24.91009801666958 0.8340016142394382 0)
(24.59024894396568 1.574551813516631 0)
(24.79353807982879 1.610454845550246 0)
(24.97080458775642 1.578637649378958 0)
(25.1194453388411 1.498616767128942 0)
(24.9935495239325 2.861807457690901 0)
(25.20182330915095 2.451859315657576 0)
(25.29732105855665 2.061539837761662 0)
(25.3899647372678 1.749586925050477 0)
(25.45700869073001 1.333159299908551 0)
(25.27270495631106 1.387147976260146 0)
(25.0281908053888 0.8463520681896541 0)
(24.90469988231081 -0.1057441201943177 0)
(24.85645270581156 1.456262174663324 0)
(25.36646530307386 1.21637272736098 0)
(25.16729832606812 0.7878909570999311 0)
(24.90872298951734 -0.08250264693026169 0)
(20.14129710415991 1.712748376158404 0)
(25.2561770463797 1.201639978223702 0)
(25.26469793546377 0.6856155734887909 0)
(24.9185454564808 -0.06876113989323088 0)
(14.6697419652955 2.000827917132879 0)
(23.97531480634629 1.487955249501374 0)
(25.29355922600278 0.689488646480759 0)
(24.95978776281973 -0.07588855711570622 0)
(24.93122772688799 -0.05221145274732367 0)
(25.22903945874075 0.6171692694538942 0)
(22.39878913448224 2.080931526322236 0)
(12.8235410716357 3.729966766356771 0)
(24.85614566373502 -0.07113511512128812 0)
(25.03489195956161 0.6750616935620621 0)
(21.04850073377711 3.063442014322987 0)
(13.06909221579487 5.54566566900606 0)
(24.83133697634347 -0.09345357238784749 0)
(24.58598361175227 0.9519380678965504 0)
(19.36324740336628 4.341231908863184 0)
(12.89276473747768 7.047706266254885 0)
(24.76558206521183 -0.139049517275409 0)
(23.83970892854474 1.60190046289716 0)
(18.04538909017698 5.781864721613738 0)
(13.21660092467844 8.192793297423936 0)
(14.0575904900215 8.960601227939403 0)
(17.19655942283716 7.113575591165212 0)
(22.77432086571751 2.706225830812053 0)
(24.62722840477951 -0.1809865857546503 0)
(15.09429008422503 9.519072411947757 0)
(17.39238421364201 8.077796658520928 0)
(21.63386088429001 4.131113909992671 0)
(24.36473534943659 -0.1310947242467302 0)
(16.30819997277593 9.805789076553573 0)
(18.08007331959481 8.759179968537733 0)
(21.01532149888567 5.524739958871182 0)
(23.94677837071226 0.08887560453681911 0)
(17.47625707473131 9.859384840321795 0)
(19.24780388415297 8.917320254397824 0)
(20.97964068125286 6.684291480239037 0)
(23.48698663092619 0.4916693807050013 0)
(23.14945803297285 0.6502535398117845 0)
(22.14522813329902 6.952489566055768 0)
(21.02086016368013 8.84669300180285 0)
(18.89516839445458 9.950072577680135 0)
(23.59933844699047 0.4657834660391487 0)
(23.52389201151253 6.56425255025374 0)
(23.04379316687264 8.432725361681603 0)
(20.85675443088388 9.812066757186903 0)
(24.10321603647324 0.1978883496825554 0)
(24.94342617273199 5.791704695268617 0)
(25.17884074975697 7.626421671611546 0)
(23.39779533341486 9.207225838116251 0)
(24.51196192295648 -0.3341540931982964 0)
(25.99238300411665 4.564240941946407 0)
(27.14094171025145 6.21058902118555 0)
(26.34812619975888 7.559671275872708 0)
(24.83478697141715 -0.335050880570669 0)
(26.81672868296286 3.61657995727293 0)
(28.92063996971689 4.795984492944331 0)
(30.59276629128 4.685682278218001 0)
(25.21665862289618 -0.4799599544128609 0)
(27.36476117397429 2.580059654457654 0)
(29.89291840607445 3.348616794563284 0)
(33.87136155540959 0.6020472070116512 0)
(25.44897906658568 -0.4934926059694817 0)
(27.37270876080123 1.63308998948074 0)
(30.51987795028385 1.225991727513267 0)
(36.39495192510321 -4.438678857510654 0)
(25.55143933745895 -0.4768418096025421 0)
(27.04470216929831 1.008302323514924 0)
(29.91264434469993 -0.2531744273801149 0)
(36.61239878863061 -8.500208018889102 0)
(32.35530499411549 -5.918316429800656 0)
(28.87547563332771 -1.300922038091502 0)
(26.78966423059005 0.3442116802469835 0)
(25.58320655429472 -0.4658792700128907 0)
(24.6537006512672 -2.732443477275068 0)
(28.08789210871801 -1.891820450659014 0)
(26.49545850070356 -0.09052196180527183 0)
(25.52004449643114 -0.3878721705173583 0)
(22.48526595544364 -3.705960069083938 0)
(27.5939862595193 -2.793387724399667 0)
(26.24062175845673 -0.5328953539096571 0)
(25.40444471779196 -0.2738706024214884 0)
(19.58195337302015 -3.548020215718816 0)
(26.81998111837957 -3.448430636394739 0)
(25.89988333789273 -0.9186826684871543 0)
(25.29367636391778 -0.2056939488697572 0)
(17.58492792881189 -5.059123232899328 0)
(25.43947964518105 -4.383745096432317 0)
(25.35445790714558 -1.195162970365036 0)
(25.11961220522763 -0.1592009596289651 0)
(15.11639007402723 -7.269089941981199 0)
(23.91456115273662 -4.490306146949757 0)
(24.83882565941505 -0.995532893682429 0)
(24.99056404284642 -0.08038043972529882 0)
(14.30511181180748 -7.302932128032863 0)
(22.93268033437679 -3.869457733540864 0)
(24.65331258357461 -0.6244822344349813 0)
(24.9736013688198 -0.03741819043500691 0)
(14.53793040168529 -6.033000889919168 0)
(22.86423590839938 -3.33510733945925 0)
(24.69496352365294 -0.5111348324319335 0)
(24.98077541736296 -0.02718394824383535 0)
(14.57756245398339 -0.7596689255866599 0)
(20.66931481137647 -0.04985566338229146 0)
(23.87550831568412 0.01619429614486011 0)
(24.89565479622604 0.001531606164710497 0)
(14.6529987889233 -2.020302295827748 0)
(20.65538116757957 -0.3389957292528604 0)
(23.87699479357616 0.02469542286290994 0)
(24.89194120181451 0.004145842915113837 0)
(14.88141031426579 -3.519209224908242 0)
(20.66465338197914 -0.7133240594234357 0)
(23.89252381502964 -0.02296451692877744 0)
(24.88895528877488 0.00140864520882911 0)
(14.98578383033722 -4.477333271078042 0)
(20.85486959900104 -1.043934554538213 0)
(23.96220536581889 -0.1284997262926907 0)
(24.89249752799635 -0.006161671921426566 0)
(14.53793040170441 6.033000889903511 0)
(22.86423590844474 3.335107339454331 0)
(24.69496352374803 0.5111348323832288 0)
(24.98077541747607 0.02718394822262822 0)
(14.30511181183942 7.302932128014072 0)
(22.93268033443328 3.869457733588604 0)
(24.65331258360396 0.6244822344227868 0)
(24.97360136886736 0.03741819048642908 0)
(15.11639007406951 7.269089942004215 0)
(23.91456115278456 4.490306146992499 0)
(24.83882565941049 0.9955328937300986 0)
(24.99056404289524 0.08038043977219776 0)
(17.58492792882394 5.059123232903811 0)
(25.43947964524327 4.383745096488958 0)
(25.35445790715841 1.195162970397275 0)
(25.11961220523744 0.1592009596789376 0)
(25.58320655428106 0.4658792699417728 0)
(26.78966423059947 -0.3442116802690615 0)
(28.87547563331411 1.300922038085472 0)
(32.35530499421517 5.918316429965768 0)
(25.5200444964155 0.3878721704629235 0)
(26.49545850070006 0.09052196180908166 0)
(28.08789210872345 1.891820450660418 0)
(24.65370065128412 2.732443477396498 0)
(25.40444471774899 0.2738706023771605 0)
(26.24062175844829 0.5328953539392041 0)
(27.59398625959345 2.793387724527534 0)
(22.48526595544705 3.705960069125789 0)
(25.29367636388307 0.2056939488568151 0)
(25.89988333784244 0.9186826684575559 0)
(26.81998111843223 3.448430636472654 0)
(19.58195337303552 3.548020215747157 0)
(36.61239878866654 8.500208018991058 0)
(29.91264434471294 0.2531744273608592 0)
(27.04470216934568 -1.008302323518848 0)
(25.55143933746249 0.4768418095338064 0)
(36.39495192510121 4.438678857570866 0)
(30.51987795031778 -1.225991727482856 0)
(27.37270876081802 -1.633089989491161 0)
(25.44897906656975 0.4934926059553295 0)
(33.87136155540809 -0.6020472069643492 0)
(29.89291840608312 -3.34861679454935 0)
(27.36476117400309 -2.580059654427119 0)
(25.21665862280242 0.4799599544673416 0)
(30.59276629126861 -4.685682278198386 0)
(28.92063996974291 -4.795984492903273 0)
(26.81672868300413 -3.616579957226867 0)
(24.8347869713015 0.3350508806681347 0)
(23.14945803291506 -0.6502535397926512 0)
(22.14522813323384 -6.952489566068264 0)
(21.02086016363379 -8.846693001810083 0)
(18.89516839445865 -9.950072577674373 0)
(23.59933844697951 -0.465783466001255 0)
(23.52389201151267 -6.564252550249288 0)
(23.04379316683549 -8.43272536167099 0)
(20.8567544308696 -9.812066757181691 0)
(24.10321603653498 -0.1978883496614893 0)
(24.94342617275936 -5.791704695273844 0)
(25.17884074973045 -7.626421671584783 0)
(23.39779533340884 -9.207225838108208 0)
(24.51196192290189 0.3341540932925991 0)
(25.99238300416627 -4.564240941909307 0)
(27.14094171024089 -6.210589021140472 0)
(26.34812619974056 -7.559671275862574 0)
(17.47625707474667 -9.859384840324097 0)
(19.24780388415184 -8.91732025440688 0)
(20.9796406812194 -6.684291480240653 0)
(23.48698663076756 -0.4916693807212461 0)
(16.3081999727911 -9.805789076563608 0)
(18.08007331960132 -8.759179968543016 0)
(21.01532149888822 -5.524739958886141 0)
(23.94677837068704 -0.08887560453565893 0)
(15.09429008423962 -9.519072411961147 0)
(17.39238421366143 -8.07779665850927 0)
(21.63386088430328 -4.131113909969053 0)
(24.36473534939234 0.1310947242535436 0)
(14.05759049003878 -8.960601227940064 0)
(17.19655942283532 -7.113575591145896 0)
(22.77432086563045 -2.70622583078575 0)
(24.62722840474377 0.1809865857578567 0)
(24.93122772689322 0.05221145276333294 0)
(25.2290394587689 -0.6171692694244554 0)
(22.39878913451835 -2.080931526339875 0)
(12.82354107166982 -3.729966766358955 0)
(24.85614566362307 0.07113511511667325 0)
(25.03489195951507 -0.6750616935139372 0)
(21.04850073379904 -3.063442014322829 0)
(13.06909221581009 -5.545665669020734 0)
(24.83133697618737 0.09345357238205228 0)
(24.58598361164301 -0.9519380678343333 0)
(19.36324740337363 -4.341231908822853 0)
(12.89276473750222 -7.047706266266296 0)
(24.76558206514877 0.1390495172801886 0)
(23.839708928581 -1.601900462827362 0)
(18.04538909022254 -5.781864721588932 0)
(13.21660092468141 -8.192793297431807 0)
(24.95978776282537 0.07588855713062387 0)
(24.91854545648892 0.06876113990684642 0)
(24.90872298946514 0.08250264696249235 0)
(24.90469988230333 0.1057441201919771 0)
(25.29355922609563 -0.6894886464859855 0)
(25.26469793549791 -0.6856155734843524 0)
(25.16729832609145 -0.7878909570901784 0)
(25.02819080539583 -0.8463520682061518 0)
(23.97531480643724 -1.487955249522022 0)
(25.25617704641281 -1.201639978229849 0)
(25.36646530314631 -1.216372727377935 0)
(25.27270495634988 -1.387147976254822 0)
(14.66974196533792 -2.000827917132916 0)
(20.14129710422087 -1.712748376155907 0)
(24.85645270581058 -1.456262174637735 0)
(25.4570086907241 -1.333159299883512 0)
(24.90292908062462 0.1209620973968893 0)
(24.9100980166073 -0.8340016142235298 0)
(25.11944533880386 -1.498616767101701 0)
(25.389964737242 -1.749586924997356 0)
(24.89963803532472 0.1301097329231121 0)
(24.79798586226228 -0.7891374497210731 0)
(24.97080458773738 -1.578637649355047 0)
(25.29732105857025 -2.061539837719716 0)
(24.90365613058652 0.1223234100243503 0)
(24.71036138241624 -0.6772238964206084 0)
(24.79353807988402 -1.610454845562067 0)
(25.20182330922237 -2.451859315662942 0)
(24.91488358680444 0.09574509918205848 0)
(24.66669596426948 -0.5317906454932455 0)
(24.59024894396954 -1.574551813516593 0)
(24.99354952395118 -2.861807457683277 0)
(24.98953127716529 0.009313694060379261 0)
(24.88793910265604 -0.03342425880325493 0)
(24.12427071152574 -0.7263138884177263 0)
(23.43845643516029 -4.273648583285978 0)
(24.9759084321579 0.0219795321739651 0)
(24.79475687482279 -0.1091866702701096 0)
(24.13542965609761 -1.088784754976327 0)
(24.14780333085874 -4.117899260102007 0)
(24.95639034475342 0.04104462097380992 0)
(24.70856331574137 -0.2287103351942243 0)
(24.24731767171217 -1.320339969650028 0)
(24.49415897908973 -3.709372963607783 0)
(24.93386849094832 0.06656015256485369 0)
(24.66653418465835 -0.3750413693576767 0)
(24.4215957215111 -1.454754285946366 0)
(24.83260712230927 -3.272659097530899 0)
(22.40276702484315 -3.704792755483976 0)
(24.35897446887831 -0.390753499619567 0)
(24.9597485229616 -0.008669927478208498 0)
(24.9978871713189 0.003988945156651581 0)
(21.95899045446497 -3.282788044945444 0)
(24.49335519148257 -0.2698913604025641 0)
(24.97978910282841 -0.005327814129413452 0)
(24.99942316836101 0.001265112582279596 0)
(22.06375889613708 -2.741414636651227 0)
(24.65265108566699 -0.09527433675127127 0)
(24.99130734573256 5.304335658421447e-05 0)
(24.99967783664311 0.0003378072938762773 0)
(22.05862544527139 -2.314406041325717 0)
(24.77114246439357 0.008947160953220661 0)
(24.99826871267517 0.0005909028113784973 0)
(24.99989511738186 1.3319630649027e-05 0)
(22.32097602696695 -1.723749036828487 0)
(24.92323773399738 0.06289669317289107 0)
(25.00017099262279 0.001003957470215143 0)
(24.99999377034492 8.275616854090837e-06 0)
(22.3488337922721 -1.313404502377031 0)
(24.93051166283348 -0.01153054142536939 0)
(24.99986803248903 -2.964367454337427e-05 0)
(24.99999961846786 6.662095751725943e-07 0)
(22.75810968305936 -0.6213212061982011 0)
(24.95569340285131 0.005404727777693083 0)
(24.99996548569858 1.785005933750933e-05 0)
(24.99999997929117 -1.623568540400943e-08 0)
(23.46238803052555 0.1020243016952195 0)
(24.97440617773044 0.009423392269192714 0)
(24.99999532541569 3.489723363658061e-06 0)
(25.00000000980158 4.675537351896751e-09 0)
(25.00000000000001 2.223582891352897e-12 0)
(24.99999998755522 5.791236569906587e-09 0)
(24.99862804176156 0.0005701045964731044 0)
(24.74531413262832 -0.006224424452581013 0)
(24.99999999998546 2.77728027604631e-11 0)
(24.9999999640439 4.659936115678125e-08 0)
(24.99790982040033 0.001483679751737485 0)
(24.66579111435363 0.1573401822863978 0)
(24.99999999973882 1.651044831312284e-10 0)
(24.99999984711244 2.042651169333875e-07 0)
(24.99582883908385 0.003168206022644511 0)
(24.55471518550847 0.2626551740809914 0)
(24.99999999862977 -7.085618860111245e-10 0)
(24.99999920012717 8.858424283961153e-07 0)
(24.99034837283715 0.006299195239411804 0)
(24.1879669098577 0.4134155406893326 0)
(24.57171889664101 1.356478053189061e-10 0)
(24.41623743687597 0.1500024614277066 0)
(24.04957916862057 0.1759721766418071 0)
(23.13281122986487 0.02798942198838856 0)
(24.41623743723601 -0.1500024612759805 0)
(24.15939007379882 -5.742514741677876e-11 0)
(23.49883545070161 -0.05738678507771267 0)
(22.06931694171323 -0.4775052772629533 0)
(24.04957916949191 -0.1759721766940305 0)
(23.4988354514616 0.05738678505451293 0)
(22.23231187281322 -1.587991257670627e-11 0)
(20.14164825964802 -0.5804757240819628 0)
(23.13281123040396 -0.0279894221050059 0)
(22.06931694244927 0.4775052771011772 0)
(20.14164826030224 0.5804757237573049 0)
(17.8892709692119 -3.152842170416313e-10 0)
(17.34289577860743 2.530520501510955 0)
(17.98975794917912 2.931407743282726 0)
(19.64502112930278 2.661218783699419 0)
(21.18758062155799 1.877680081485182 0)
(18.32949930301154 4.260901012875836 0)
(18.3936823443599 4.220179959765745 0)
(19.12873532172541 4.132789163417718 0)
(20.16742172560368 3.961487539434325 0)
(17.77956650675975 5.222306917941439 0)
(18.9304116210424 4.499251147516243 0)
(19.61443147123932 4.699195554066131 0)
(20.14559899460927 4.567029675099092 0)
(18.42756041072281 5.779161350138425 0)
(19.77930875682086 4.735119010666056 0)
(20.28230827729043 4.908666099854682 0)
(20.57077080026313 4.821275092190749 0)
(20.86755186643752 4.947881543727019 0)
(21.09162661555413 5.066428337817318 0)
(21.4567836415373 5.13491622112773 0)
(22.19255423525775 5.288626332385807 0)
(20.79824804124074 5.010750412871329 0)
(21.09227187090352 5.114750206269995 0)
(21.5825118376557 5.13250643466713 0)
(22.68315768366947 5.511704105530111 0)
(20.54006060921216 4.946480377380488 0)
(21.02003214511563 5.12077463889047 0)
(21.60034108222724 5.176518651743341 0)
(24.13134598097531 5.949035204750581 0)
(19.06826331445437 5.871511655687388 0)
(19.66392640810416 5.914435144031799 0)
(20.54288264750813 5.77330630956706 0)
(25.84997278489717 7.139098701481037 0)
(25.85493154295308 3.187964471847616 0)
(26.43265298639939 0.8083943855815228 0)
(25.74428385823355 0.4758253265513501 0)
(25.60285240054139 0.3837868713354191 0)
(28.40752369919428 2.197167499325923 0)
(28.69503234526197 0.3408133704078989 0)
(27.56245192778403 0.2788672837600628 0)
(26.89052736874406 0.3148728937393587 0)
(31.58767496832969 1.9003374867455 0)
(30.13259324556082 0.04580335333132783 0)
(28.72983476353864 0.0491263472999621 0)
(27.76839238720452 0.09497595732996696 0)
(25.09261295336257 1.986960589401589 0)
(24.19305958114624 0.612315187630845 0)
(24.06329171641851 0.1154761124357298 0)
(24.13869278223407 -0.2197789158646868 0)
(25.62078536136978 0.388228709923461 0)
(25.66451664850078 0.3247646722889448 0)
(25.6634808219974 0.2305883938707347 0)
(25.62321892606132 0.1984341342169257 0)
(26.48587706794502 0.3460973160510086 0)
(26.15901721740492 0.2959910351219804 0)
(25.89538655889428 0.2097750373722578 0)
(25.66916664341993 0.1419486909726254 0)
(27.09208105490585 0.1469427317084838 0)
(26.51171338659311 0.1488247373507992 0)
(26.04160697670534 0.1139079512285446 0)
(25.59444274239782 0.09212358992281128 0)
(24.05513792748539 -0.4600455877361665 0)
(23.83514228559411 -0.6132060124093752 0)
(23.62829058875304 -0.7047523948429126 0)
(23.29046069289927 -0.6413723884895752 0)
(25.40904151753971 0.5156378113985152 0)
(21.12653124936015 4.562692180015942 0)
(14.46244182738295 4.316079877394331 0)
(9.744366250983358 1.228038291111088 0)
(25.01071922129006 0.8778633388739736 0)
(17.49091344255307 4.588373039668828 0)
(9.703556574823857 3.216839303460615 0)
(4.849136992981855 -0.05706685835692436 0)
(24.10856580208591 0.9743525843776391 0)
(13.33689830224656 3.485382688879751 0)
(4.064397202454875 2.385055259916854 0)
(-0.4905909933480128 0.2829349915415638 0)
(20.44603152880227 -0.6338201570521261 0)
(8.667269314276826 -0.9570204216552458 0)
(0.8311645293753013 0.3758742037590714 0)
(-2.390151888183202 0.2468555574357251 0)
(8.83617788705617 2.777294331439813 0)
(10.6305532080264 4.552102383241424 0)
(11.13424288909701 6.185556202042174 0)
(12.34094410145001 7.627807673959046 0)
(6.481676731709853 2.146642143226595 0)
(9.701598542314043 4.462954099477984 0)
(11.01052630952138 6.308775232775985 0)
(12.30101081711801 7.714349410425667 0)
(3.282115478208257 0.1725051278624469 0)
(7.74055696819501 3.489067379172584 0)
(10.31683588989254 6.158233186897129 0)
(11.98229293848006 7.662568132078069 0)
(0.3543964328598784 0.06059411409142947 0)
(3.725143027639504 2.618248336441789 0)
(7.674301694355819 4.175043482482369 0)
(10.60546017234413 5.588879245728182 0)
(13.61271749642173 8.764867892227763 0)
(14.86211886053099 9.715748808895027 0)
(15.83704124825464 10.53949946769728 0)
(16.81680933157971 10.89175933399485 0)
(13.54213490150092 8.798129322844852 0)
(14.67014863048894 9.685115640276633 0)
(15.7440082557959 10.51007499196986 0)
(16.73065104140466 10.92632231462104 0)
(13.30201177829227 8.726809571474528 0)
(14.39580168131365 9.622429007497161 0)
(15.67195855951575 10.4987257761691 0)
(16.68280553897668 11.01598083594651 0)
(12.93694850406605 6.807542197073303 0)
(14.37268126530131 9.166708215905041 0)
(15.78686973455114 10.34602996927051 0)
(16.72794753557045 10.97765407141518 0)
(17.87742804259639 11.34159820977342 0)
(19.48969454119722 11.80059637684705 0)
(21.75558679540726 11.59890590225932 0)
(24.75184377576452 10.30788299811587 0)
(17.70148751897386 11.36952552384933 0)
(19.13613222380763 11.80129792069452 0)
(21.21846599173906 11.72952810380775 0)
(24.94147892428876 12.37251491449633 0)
(17.58348100257322 11.4657486232239 0)
(18.7850892595415 11.85115908183968 0)
(21.37476729906137 12.59023601537543 0)
(31.38647099931238 18.35712892121461 0)
(17.55629396417611 11.48872884185179 0)
(18.6958456595218 11.85561674092112 0)
(22.0849243044226 13.18843666098522 0)
(43.09894741899446 25.40369150608587 0)
(30.51356967693473 5.137608285071186 0)
(31.86018326093622 -3.567267779693245 0)
(12.63153602859211 9.209270444121683 0)
(8.867710869542647 30.12499715268659 0)
(32.15188055545363 4.796646642615842 0)
(26.20935589609616 -1.784310727530288 0)
(9.19762450481436 17.47285283302238 0)
(8.751724860651493 28.33566433870388 0)
(31.89484537353164 3.27558923497495 0)
(16.89885206043128 -3.949047765597359 0)
(4.069032882521699 20.98580664456881 0)
(4.45928197238175 28.2326115931665 0)
(20.31435045840596 -8.346244191095792 0)
(7.120359531671624 -0.3967577810156671 0)
(2.319116718545038 24.10624356272693 0)
(2.587830022638392 27.97349535045059 0)
(7.451766906377058 23.0375538184235 0)
(1.793611710191222 16.1283349710431 0)
(-1.052563213750731 14.20431900789211 0)
(-2.870608743039756 9.542530939356983 0)
(6.092479493007461 23.10106746639502 0)
(1.258318090468483 18.33000154565929 0)
(-0.7636305828829598 14.36712153289715 0)
(-1.327446731972111 7.34567490395928 0)
(3.040436959743865 22.14254815161421 0)
(1.150603615440745 17.7062316410169 0)
(-0.4887276298312833 11.97029040978915 0)
(-0.7823813111772336 4.714876888062638 0)
(0.7626160130473891 21.52141935074334 0)
(-0.4209933821073562 17.08304561178177 0)
(-1.831714390089686 10.70477588487863 0)
(-1.61676731692776 3.194628528626312 0)
(-5.416839748403588 2.970187990150612 0)
(-1.124180160129448 -0.3023230541431206 0)
(3.209286826229108 -2.920877520474239 0)
(5.060670034034877 -6.894302152743477 0)
(-6.115355947011944 2.65051075246884 0)
(-5.009164127988314 -0.2357842384136425 0)
(-0.2363866528465104 -1.350935477636383 0)
(3.40035453194522 -6.113199316668607 0)
(-5.565834787063327 1.849428667199393 0)
(-6.906512892453788 0.3123255654207165 0)
(-3.348862037349654 -0.109015224613241 0)
(1.228722015813357 -4.423019676556725 0)
(-4.129002614124269 2.031444706077156 0)
(-6.550820532970589 2.047133104951482 0)
(-3.87894955266435 2.842663490645622 0)
(1.242748988352334 -1.517716379339189 0)
(2.986197901216587 -6.922114641124084 0)
(2.94111206319395 -7.628636459115966 0)
(3.644507993844694 -7.502025006566402 0)
(4.829027563005083 -7.022088868524655 0)
(2.05068269095504 -7.107549544036042 0)
(2.508239081327975 -6.795275637793632 0)
(3.540243340558089 -6.488783187334456 0)
(4.195496097933055 -5.696603334149263 0)
(1.129501129018659 -5.374491460366281 0)
(1.34643895526631 -4.089663373771835 0)
(2.24962914456545 -3.451121126450098 0)
(2.406648061747244 -2.37262116981259 0)
(2.751593949178619 -3.259140002263977 0)
(2.282056515669117 -1.303047132249874 0)
(2.549119931883808 -0.3271017914819718 0)
(1.77100889329179 0.7015254090892669 0)
(0.614735485194138 1.168789636296926 0)
(-0.3136469951901856 1.286365746782221 0)
(-0.9816931693893042 0.9628976516583244 0)
(-1.312581882046961 0.3264379895131967 0)
(1.691710426532335 -1.45317248892545 0)
(0.5830893652573449 -0.7812212920176698 0)
(-0.4340561966960009 -0.1983577851273715 0)
(-0.9975623964867467 -0.1042367793836499 0)
(3.669112281082821 -4.6507650415727 0)
(2.745051755526094 -3.515135645977468 0)
(1.644319001252372 -2.145337673475479 0)
(0.8011540113289399 -0.8058341842063651 0)
(5.511147542661897 -5.471699425137993 0)
(5.545189924067083 -3.938412929085516 0)
(4.920610125987523 -2.337834178149965 0)
(4.219966035843639 -0.8509981242253928 0)
(-1.312581882049672 -0.3264379894937041 0)
(-0.997562396486445 0.1042367793847658 0)
(0.8011540113274063 0.8058341841866387 0)
(4.21996603584444 0.8509981241991886 0)
(-0.9816931693940426 -0.9628976516422834 0)
(-0.4340561966960111 0.1983577851281147 0)
(1.644319001251954 2.145337673460841 0)
(4.920610126015074 2.33783417812576 0)
(-0.313646995194726 -1.286365746772397 0)
(0.5830893652556914 0.781221292014925 0)
(2.745051755528934 3.515135645966962 0)
(5.545189924092237 3.938412929077795 0)
(0.6147354851918712 -1.168789636293398 0)
(1.691710426535256 1.453172488920305 0)
(3.669112281081353 4.650765041569156 0)
(5.511147542668533 5.47169942513507 0)
(4.82902756300521 7.022088868517596 0)
(3.644507993847911 7.502025006558849 0)
(2.941112063190861 7.628636459106465 0)
(2.986197901223548 6.922114641114443 0)
(4.195496097939492 5.696603334139891 0)
(3.540243340571281 6.488783187323416 0)
(2.50823908133981 6.795275637775825 0)
(2.050682690967243 7.107549544019784 0)
(2.406648061754365 2.372621169805084 0)
(2.24962914457542 3.451121126441278 0)
(1.346438955277471 4.089663373760095 0)
(1.129501129029971 5.374491460352123 0)
(1.771008893293559 -0.7015254090908171 0)
(2.549119931889364 0.3271017914794207 0)
(2.282056515674779 1.303047132246759 0)
(2.751593949181725 3.259140002258071 0)
(1.242748988362374 1.517716379338528 0)
(-3.87894955264005 -2.842663490626068 0)
(-6.550820532929109 -2.047133104929542 0)
(-4.129002614090039 -2.031444706068051 0)
(1.228722015821907 4.423019676546391 0)
(-3.348862037325412 0.1090152246275696 0)
(-6.906512892402039 -0.3123255654139406 0)
(-5.565834787020365 -1.849428667174855 0)
(3.400354531949211 6.113199316652906 0)
(-0.2363866528255047 1.350935477644994 0)
(-5.009164127931219 0.235784238431922 0)
(-6.115355946967788 -2.650510752426927 0)
(5.06067003403686 6.894302152732214 0)
(3.209286826237664 2.920877520481781 0)
(-1.124180160058883 0.3023230541552081 0)
(-5.416839748338629 -2.970187990102092 0)
(-2.870608743028927 -9.542530939253332 0)
(-1.052563213795849 -14.20431900788192 0)
(1.79361171022386 -16.12833497126538 0)
(7.451766906392482 -23.0375538186842 0)
(-1.327446731962295 -7.345674903897559 0)
(-0.7636305828946651 -14.36712153287687 0)
(1.258318090537401 -18.33000154575005 0)
(6.092479493087883 -23.10106746646227 0)
(-0.7823813111763112 -4.714876888034528 0)
(-0.4887276298358247 -11.97029040978124 0)
(1.150603615469018 -17.70623164103791 0)
(3.040436959769887 -22.14254815164874 0)
(-1.616767316919403 -3.194628528627735 0)
(-1.831714390091586 -10.70477588487521 0)
(-0.420993382108438 -17.08304561178142 0)
(0.762616013059811 -21.52141935077873 0)
(8.867710869409368 -30.12499715284492 0)
(12.63153602837561 -9.209270444455008 0)
(31.86018326085218 3.567267779733971 0)
(30.5135696769057 -5.137608285054815 0)
(8.751724860624426 -28.33566433878461 0)
(9.197624504790955 -17.47285283318002 0)
(26.2093558960541 1.7843107275038 0)
(32.15188055543529 -4.796646642602938 0)
(4.459281972398771 -28.23261159324008 0)
(4.0690328824878 -20.98580664467293 0)
(16.8988520604211 3.949047765559413 0)
(31.8948453735281 -3.275589234972729 0)
(2.587830022654684 -27.97349535053603 0)
(2.319116718532931 -24.10624356284088 0)
(7.120359531696654 0.3967577809556582 0)
(20.31435045842918 8.3462441910763 0)
(24.75184377576211 -10.30788299810977 0)
(21.75558679541715 -11.59890590225856 0)
(19.48969454119845 -11.80059637683218 0)
(17.87742804260662 -11.34159820977555 0)
(24.94147892428632 -12.37251491449374 0)
(21.21846599173519 -11.72952810379058 0)
(19.13613222379946 -11.80129792067231 0)
(17.70148751897091 -11.36952552383297 0)
(31.38647099930507 -18.35712892120572 0)
(21.37476729904879 -12.59023601535784 0)