/*--------------------------------*- C++ -*----------------------------------*\
  =========                 |
  \\      /  F ield         | OpenFOAM: The Open Source CFD Toolbox
   \\    /   O peration     | Website:  https://openfoam.org
    \\  /    A nd           | Version:  11
     \\/     M anipulation  |
\*---------------------------------------------------------------------------*/
FoamFile
{
    format      ascii;
    class       volScalarField;
    location    "0.3075";
    object      T;
}
// * * * * * * * * * * * * * * * * * * * * * * * * * * * * * * * * * * * * * //

dimensions      [0 0 0 1 0 0 0];

internalField   nonuniform List<scalar> 
880
(
500
500.000000099456
500.0103727800297
502.3633630771317
499.999999999986
500.0000002000242
500.0157249229806
503.6474816024277
500.0000000000499
500.0000007344848
500.0320394367337
505.2419219506807
500.0000000059122
500.0000036638876
500.0729153997987
507.6682806250173
499.9999999330233
499.9999999810628
500.0000032535573
500.0001747334147
500.0000244345048
500.000048891501
500.0011485519747
500.0016316329205
500.1767547973516
500.3086739422059
500.5439879882173
500.6184620146467
512.8963275768971
518.8646989743086
523.9292403615191
526.3934016378332
500.0002778805789
500.0021864546439
500.0055573347037
500.0233195971835
500.0169219255084
500.059142488109
500.1240717855296
500.2497237867393
501.8610913722954
502.9456482780903
504.2296266362054
505.836676234838
528.7045795610519
531.6695826910952
532.5112193191574
532.018887957459
522.1408409247613
517.3844489594287
515.6957204726284
513.9960975202247
509.4296512694634
510.9231716912362
511.9301458783778
512.1587233566593
500.7903673752235
501.3883404502445
502.0651166039288
502.664939486982
500.0831873130384
500.2139934637597
500.4236031190457
500.7057809424169
501.005571548194
501.296711537017
501.5246676047254
501.5893255037502
503.1009060967635
503.3903073246572
503.5787831284399
503.5698722300328
511.8393306981449
511.2893442933681
510.3241611621208
509.5001324367061
512.5386497489924
511.7384963511733
510.4243221896152
509.9940555759173
508.7438539502596
508.6390002488428
503.5825970159495
501.5732543569993
512.3128106425693
507.4863695236492
503.496511461396
501.4371139683718
541.118337312011
508.4973509587844
502.8842760941627
501.0980760858172
597.8572167770752
515.91835531819
503.1672874962417
500.9757302312323
500.4647566230462
503.5316684783443
528.1826457051354
627.2547655312038
500.3505482282768
504.3748675594267
540.7510120626167
628.3582667835722
500.5251465300175
506.7600860222747
558.0920438282665
633.5786850189512
501.1127152996838
511.5525687685297
575.2371429026488
635.9711973201632
633.5010531821237
590.9564952514386
520.3049873270209
502.4020821729268
628.7245238674587
600.572270963215
532.7239165894213
504.9275017141768
621.1845128675884
601.9867558530117
545.9978083134255
509.0534279382272
611.9643053924462
599.0776490120481
555.4978227910976
515.1765997606931
522.7807887403093
556.5813074626399
585.7592392842926
600.9201341490125
523.1103239536253
546.3908103268443
568.2679949831636
585.2174683355762
521.3813115043611
536.1179699806513
549.64317950151
563.6374490233131
518.3477866657732
525.8588039722349
529.49424972576
534.5014663655624
516.746367099204
517.9691131929196
514.4190094224944
500.9680845399048
512.7882555376821
510.131937311567
498.8469491877048
463.0910601374414
509.1486053419783
505.265650000338
494.2984906876818
419.5306880916941
506.2153468493922
504.955621698012
498.1433904885168
412.0827492959722
478.7160187153408
500.9657362082961
503.6695365728621
503.6308874570714
521.8876000526645
503.4603556162873
502.4412815204481
501.9142477247221
546.696475658998
505.3630118225298
501.4320096241761
500.811023446249
546.0267474928437
508.8277982606677
500.5704935005807
500.2518968633824
536.8981449849665
507.2053116796997
498.7339024958667
499.5749221023941
519.2594958518384
502.2021579221527
497.6916296088079
499.4548029519812
503.0350149647278
498.5259528205439
497.8532469869062
499.6743849844542
492.9646775775614
495.0608954337686
498.1418357750726
499.8524170723879
453.4265425444926
476.2225712987568
495.0175080892411
499.6130660201256
452.270357775773
477.1924095969936
494.9387846071507
499.6002841142921
450.3551159431474
478.6339854210289
494.8466386216078
499.5864521274696
454.237681930815
480.8479058797766
494.9181746374212
499.5747374713151
492.9646775776815
495.0608954338393
498.1418357755435
499.8524170719671
503.0350149647767
498.5259528201456
497.8532469867905
499.6743849837928
519.259495851665
502.2021579215744
497.6916296080333
499.4548029512467
536.8981449848486
507.205311678927
498.7339024956132
499.5749221021594
503.630887456884
503.6695365731175
500.9657362089426
478.7160187149543
501.9142477244808
502.4412815204387
503.4603556165204
521.8876000524961
500.8110234463638
501.4320096241873
505.3630118217424
546.6964756590862
500.2518968634283
500.5704935009348
508.8277982597784
546.0267474928153
412.0827492958399
498.1433904889387
504.9556216981075
506.2153468492004
419.5306880917206
494.2984906878356
505.2656500007456
509.1486053417451
463.0910601376378
498.8469491879374
510.131937311838
512.7882555377163
500.9680845402827
514.419009422508
517.9691131925634
516.746367099301
522.7807887404468
556.5813074632878
585.7592392849442
600.9201341493609
523.1103239533101
546.3908103268914
568.2679949833818
585.2174683360472
521.3813115035198
536.1179699810299
549.6431795016744
563.637449023665
518.3477866655955
525.8588039719471
529.4942497257832
534.5014663660263
611.9643053926386
599.0776490122006
555.4978227911839
515.1765997616482
621.1845128678078
601.9867558531731
545.9978083135943
509.0534279381268
628.7245238677576
600.5722709634723
532.7239165892622
504.9275017142696
633.5010531824485
590.9564952516827
520.3049873275469
502.402082172881
500.4647566230683
503.5316684783609
528.1826457050913
627.2547655311189
500.3505482289276
504.3748675598767
540.7510120627144
628.3582667831772
500.5251465309397
506.7600860234733
558.0920438288065
633.5786850187928
501.1127152998776
511.5525687678298
575.2371429027896
635.9711973205822
500.9757302310203
501.0980760856657
501.4371139687721
501.5732543571146
503.16728749541
502.8842760939186
503.4965114612442
503.5825970158308
515.9183553177104
508.4973509587122
507.4863695231716
508.639000248683
597.8572167766037
541.1183373117227
512.3128106427534
508.743853950501
501.5893255040939
503.5698722303242
509.5001324371262
509.994055576276
501.5246676047101
503.57878312883
510.3241611625251
510.4243221896277
501.2967115371022
503.3903073248333
511.2893442933087
511.7384963505963
501.0055715478478
503.100906096509
511.839330698402
512.5386497489566
500.0831873126257
500.7903673751031
509.4296512699001
522.1408409250796
500.2139934630744
501.3883404501298
510.9231716919895
517.3844489596347
500.4236031192398
502.0651166037954
511.9301458784933
515.695720471847
500.7057809420621
502.6649394868303
512.1587233571246
513.9960975196871
532.0188879574715
505.8366762349844
500.2497237866925
500.023319597475
532.5112193192201
504.2296266363282
500.1240717851614
500.0055573345123
531.6695826915114
502.9456482780804
500.0591424870199
500.0021864540648
528.7045795612872
501.861091372139
500.0169219250749
500.0002778812578
526.3934016378566
500.6184620149258
500.0016316330616
500.0001747341258
523.9292403615895
500.5439879881884
500.0011485516507
500.0000032538589
518.8646989745048
500.3086739421069
500.0000488912635
499.9999999811487
512.8963275770773
500.1767547973192
500.0000244342643
499.9999999330876
500.0000000000005
500.0000000999103
500.0103727799876
502.3633630736866
500.0000000000155
500.0000001995759
500.0157249229624
503.6474815986936
500.0000000002742
500.0000007342515
500.0320394367268
505.2419219471029
500.0000000063718
500.0000036636188
500.0729153997447
507.6682806248875
504.5259147838246
506.7739061618289
510.4869160399065
518.5408395435009
506.7739061580583
509.6099871090095
515.6868261650931
527.6447061837957
510.4869160386392
515.6868261640824
525.4800914971078
540.4920590643206
518.5408395419088
527.644706183494
540.4920590665666
557.1581726636043
574.9017752681566
561.3424845065617
554.0162433277071
541.3097187017595
572.8219265394742
568.7113010840981
567.3271236242439
561.2628240882055
573.1699662012581
571.9623367497165
571.2313284026792
569.2088936113304
570.2248047809918
569.6979638253954
569.604801684419
568.6552504970963
565.9059343508234
564.4482154566488
559.9543661611042
553.8582866300262
565.728828985437
564.0793201282384
559.8636123538666
554.4518110568727
565.777276758262
564.1534659438362
559.8780477642877
555.0501765588534
565.9769396908935
563.9332581426382
559.9553525105612
551.012444833821
513.3222138901269
494.2142059445566
491.6196499180257
492.4174841497426
502.8731397777639
489.9733725360732
491.842328423605
493.0010149821556
492.6219850492907
489.856271014129
493.3703110542312
494.7001071050672
470.5831877112393
485.1290060579127
491.824353514187
493.3550552531896
493.1353938639031
494.1610241402577
495.5158634667141
497.092569698034
493.6970827933341
494.5277235400567
495.6896649039161
497.3804756791455
495.0732823096485
495.5888906867629
496.5129535049757
497.6263689873217
494.0188513715885
494.8845592570258
496.0051019692712
497.9233850359861
499.4443406142697
537.6268607847304
605.90540082005
651.9658666812213
500.8575997528504
550.4554642078616
616.2056697624771
647.3325094147682
502.6307034677672
557.5191548351901
620.5027085980553
649.0050663536194
504.0141965102682
565.3604919988358
624.5356948576474
648.2374864298067
687.4145957314038
676.8667458641954
672.8101131339517
667.0374440689293
695.6732196954009
684.7690205069986
678.1809665520776
672.2471972871033
702.8174803062918
692.5116871079664
683.3593608049857
676.4433650472182
701.5296418967781
697.0813488051753
686.123172789919
678.3664286689201
656.5016629736178
645.1793702476076
632.8532303934946
622.3737623752049
660.9223449284751
648.6459801499942
636.1717966633038
624.2907059305099
665.3064422828852
652.4904602035858
640.1771061425926
627.1290023946785
667.9052789681331
656.5272922375987
644.9094936881089
630.5096343036807
614.0121155515234
604.5493913226222
589.2661428629569
566.5837736334545
614.7692627931501
604.6084878995612
591.2268096969693
593.6209373932558
615.7760217974329
604.2628261335819
598.4080967348204
619.9057576849418
618.0475421827425
607.8208518244008
610.4694583716675
602.7590486478774
524.684849514724
455.9815343578531
357.4260606597859
274.3639025121713
511.2977580090985
414.1299798526202
278.1184878345207
243.2539171589467
468.9908688351976
362.4436655214709
248.6576188501936
238.1371973764851
368.906902261613
284.2428812700598
233.0406156718629
245.9241185604944
362.361859757202
430.2558733903758
475.1153681460692
511.2965422044982
324.8528940076999
389.292283512485
436.2548079823308
473.9049656079292
304.5385228421065
353.0804963875332
395.3223482878579
430.3191046582932
306.4265017077012
350.1627491171054
391.7677384880798
417.776984114326
490.4272577643664
502.3298072462447
492.1129909076396
485.3187199364693
443.3502292143276
473.9827174776256
483.2205745836006
489.7808703482398
407.7033615941481
439.5205170832702
466.988338092401
503.8240498407201
390.2619183646567
414.5149730304801
447.708007477578
523.5141674321636
477.3164477896447
465.72184059671
457.4522776882063
450.4128678198325
478.5616603212799
480.17242365061
478.0384013812194
474.0668084913085
483.489722512976
498.8300121010332
496.3106839946371
486.1482162376019
466.7362994560776
487.1538123052691
484.2335488983599
473.9737533107958
455.9317450425833
438.8012565044423
430.0872328418396
428.026356058214
471.198621146321
453.6534532462614
441.0595246162493
437.4478001366944
471.8477064513058
466.3811955072193
458.1622746142677
453.8663148490548
453.2669813908042
458.1390782525106
460.2356005108403
461.4245728955729
428.0263560582108
437.4478001366933
453.8663148490797
461.424572895657
430.0872328417584
441.0595246161308
458.1622746142461
460.2356005110533
438.8012565042419
453.6534532460611
466.3811955071705
458.1390782526947
455.9317450423376
471.1986211461561
471.8477064512618
453.2669813908586
450.412867819728
457.4522776881472
465.7218405968594
477.3164477897785
474.0668084912705
478.0384013812817
480.172423650758
478.5616603214094
486.1482162375709
496.3106839947267
498.8300121011356
483.4897225130526
473.9737533106969
484.2335488984282
487.1538123053889
466.7362994561299
523.5141674321474
447.7080074779298
414.5149730310133
390.2619183653649
503.8240498407802
466.9883380926086
439.5205170836768
407.7033615948133
489.7808703483449
483.2205745837398
473.9827174778432
443.3502292149774
485.3187199365959
492.1129909077122
502.3298072463054
490.4272577646257
511.2965422047997
475.1153681465155
430.2558733904485
362.3618597565597
473.9049656085456
436.2548079831195
389.2922835128176
324.8528940075038
430.3191046589851
395.3223482886697
353.0804963880461
304.5385228421948
417.7769841149926
391.7677384889082
350.1627491178219
306.4265017080137
274.3639025124339
357.4260606586125
455.9815343581385
524.6848495151748
243.2539171589947
278.1184878340368
414.1299798528312
511.2977580094991
238.137197376713
248.6576188498885
362.4436655219387
468.9908688357341
245.9241185608381
233.0406156716979
284.2428812706187
368.9069022622471
566.5837736339566
589.266142863429
604.5493913232104
614.0121155520743
593.6209373938009
591.2268096973895
604.6084878999671
614.7692627934579
619.9057576853854
598.4080967351792
604.2628261337609
615.7760217974055
602.7590486483776
610.4694583719082
607.8208518245377
618.0475421825405
622.373762375471
632.8532303936458
645.1793702480276
656.5016629740099
624.2907059306444
636.1717966635067
648.6459801503155
660.9223449287819
627.129002394673
640.1771061427647
652.4904602038108
665.3064422831668
630.5096343036056
644.9094936882761
656.5272922378256
667.9052789684596
667.037444069259
672.8101131340162
676.8667458638188
687.4145957312263
672.2471972873541
678.1809665523429
684.7690205065149
695.6732196951616
676.443365047472
683.3593608052104
692.5116871072621
702.8174803059245
678.3664286692322
686.1231727900721
697.0813488043855
701.5296418963952
651.9658666808889
605.9054008196638
537.626860784944
499.4443406147218
647.3325094144433
616.2056697620518
550.4554642078483
500.8575997532831
649.0050663532019
620.5027085976109
557.5191548349939
502.6307034680921
648.2374864293407
624.5356948571674
565.3604919985564
504.0141965105579
497.092569698566
495.5158634667878
494.1610241396912
493.1353938637076
497.3804756795474
495.6896649037494
494.5277235393755
493.6970827931985
497.626368987591
496.512953504617
495.5888906860962
495.0732823095415
497.9233850362198
496.0051019689071
494.8845592562666
494.0188513715826
492.4174841490355
491.6196499173736
494.2142059448035
513.3222138905321
493.0010149812514
491.8423284228813
489.9733725364642
502.8731397780626
494.7001071039367
493.3703110535992
489.8562710145872
492.6219850494527
493.3550552519431
491.8243535134498
485.1290060583209
470.5831877113323
553.8582866302654
559.954366161506
564.4482154574233
565.9059343512919
554.4518110569961
559.8636123542036
564.079320128938
565.7288289859143
555.0501765588757
559.8780477646461
564.1534659444845
565.7772767586149
551.0124448338195
559.955352510901
563.933258143322
565.9769396912333
568.6552504968965
569.2088936110941
561.2628240879571
541.3097187022449
569.604801684216
571.2313284023725
567.3271236236825
554.0162433273447
569.6979638251873
571.9623367493455
568.711301083165
561.3424845053951
570.224804780762
573.1699662008658
572.8219265384589
574.901775266374
491.1026723897407
493.4180924524762
497.9109453189624
499.853484057872
485.052129128543
488.8840875444202
496.8499964162098
499.775551520702
476.2459199286044
485.4958071053903
495.9286459304753
499.6816134245447
464.7044479075756
482.740001289928
495.2808887858553
499.611112394377
499.6130660200308
495.017508089501
476.2225712987802
453.42654254453
499.6002841140922
494.9387846075672
477.1924095967865
452.270357775973
499.5864521275051
494.8466386217845
478.6339854207065
450.3551159433867
499.5747374715031
494.918174637393
480.8479058795731
454.2376819308407
499.6111123942892
499.681613424252
499.7755515211043
499.8534840579703
495.2808887855969
495.9286459302535
496.8499964158876
497.9109453191371
482.7400012899542
485.4958071055833
488.884087544889
493.4180924529651
464.704447907307
476.2459199282983
485.0521291283792
491.1026723898245
)
;

boundaryField
{
    back
    {
        type            empty;
    }
    inlet
    {
        type            zeroGradient;
    }
    front
    {
        type            empty;
    }
    top
    {
        type            zeroGradient;
    }
    outlet
    {
        type            fixedValue;
        value           uniform 500;
    }
    bottom
    {
        type            zeroGradient;
    }
    wall
    {
        type            zeroGradient;
    }
}


// ************************************************************************* //
