/*--------------------------------*- C++ -*----------------------------------*\
  =========                 |
  \\      /  F ield         | OpenFOAM: The Open Source CFD Toolbox
   \\    /   O peration     | Website:  https://openfoam.org
    \\  /    A nd           | Version:  11
     \\/     M anipulation  |
\*---------------------------------------------------------------------------*/
FoamFile
{
    format      ascii;
    class       volScalarField;
    location    "0.105";
    object      Ma;
}
// * * * * * * * * * * * * * * * * * * * * * * * * * * * * * * * * * * * * * //

dimensions      [0 0 0 0 0 0 0];

internalField   nonuniform List<scalar> 
880
(
1.11801663592382
1.118016635923784
1.118016591782217
1.118011244668983
1.11801663592382
1.118016635923482
1.118016467669258
1.117938775934092
1.11801663592382
1.118016635931194
1.1180159174434
1.117469608610155
1.118016635923821
1.11801663572783
1.118006667172073
1.113239070677168
1.11801663592368
1.118016635922344
1.118016635916213
1.118016633954492
1.118016636544616
1.118016635065139
1.118016642285997
1.118016459662781
1.117953491320525
1.117878082280021
1.117796889525093
1.118009587071096
1.094953630185211
1.07483941118849
1.067019688549765
1.065567312673639
1.118016596714673
1.118016368446513
1.118015717447222
1.118015955354538
1.118013745808254
1.118009224168379
1.118008179499233
1.118008555194827
1.116778219143272
1.116228305072095
1.116173986329691
1.116042611183667
1.064404650944892
1.061197047882083
1.063840181432997
1.06535664373168
1.101637797517029
1.12032605421815
1.130585916473565
1.136316100363087
1.114287629729569
1.113729622070589
1.116764839002507
1.118463028395937
1.117987487423034
1.11793970266518
1.117963470745288
1.118000025085818
1.11801472970578
1.118012001597993
1.118008758824003
1.118008552481769
1.118010269191318
1.118013313576855
1.118015616153796
1.118016474097681
1.118027199245737
1.118035252089452
1.118026189614869
1.118018723528022
1.119515637057242
1.119540253467275
1.118970914564318
1.118378216791556
1.136765928034365
1.134310501997821
1.130206835835005
1.125327576011382
1.120992060363075
1.118088573051075
1.118016825040522
1.118016624891278
1.118454529911551
1.118021546546874
1.118016641984987
1.118016635669143
1.116838489469403
1.118012885133002
1.11801662896142
1.11801663560844
1.067068703680542
1.117450905732249
1.118016093564573
1.118016725847917
1.1180164795214
1.118004699128991
1.113548322515673
0.8890058687386859
1.118015776769588
1.117979674374926
1.109232719566048
0.8694768451046186
1.118014165774755
1.11792829755536
1.103352049605575
0.8480762010126441
1.118008593570872
1.117888322028877
1.098258832070448
0.8482087317534029
0.8516905740745933
1.09239779937784
1.117803083175398
1.118006407235743
0.8600811797700598
1.088355415885926
1.117769611850746
1.117995214179487
0.8601850172710906
1.081584567760676
1.11761630135474
1.117994270529914
0.8572449422858071
1.074720549654353
1.117514513381643
1.117973956627623
1.117966888353762
1.11721308774663
1.062589522335999
0.8595799885734389
1.11793010056478
1.116971759755361
1.062520078800109
0.8886464325242368
1.117941398038286
1.117193859646034
1.080599581498313
0.9653808212941959
1.117916939527493
1.117500640356075
1.105836348111406
1.061422677046966
1.117893247279256
1.117540306971991
1.128705490598085
1.225649944153275
1.117921461941815
1.119840169233759
1.135885847546223
1.244450654006959
1.118018637219935
1.118690859086773
1.126294635057572
1.13163118506356
1.118019512890769
1.117887961257957
1.106807099108483
0.9509245974094273
0.8624270742181538
1.096528480916069
1.117690386477938
1.118016064158486
0.8125476231802268
1.089403409156777
1.117380496462052
1.118013450459417
0.7941044348329962
1.087841873291605
1.117545984398655
1.118015929262609
0.7460606939270169
1.083207934576548
1.117464819352063
1.118015140696336
0.8354006729865288
1.095851404563824
1.117751875142738
1.118016080111976
0.9501255115082295
1.106976498254847
1.117927930386491
1.118016449539016
1.034793678943384
1.113577593603568
1.117993357478057
1.118016604185823
1.08268307473767
1.116895478778129
1.118017017744036
1.118016641191597
1.041248478124194
1.113388095142968
1.117923621727951
1.118015944696931
1.044704717466513
1.113621559795086
1.117926639635096
1.118015958705779
1.042679485390089
1.113676081901816
1.117929652020377
1.118015977033831
1.042260332570488
1.11399677128577
1.117940087778902
1.118016051526755
1.082683074737703
1.116895478778996
1.118017017745243
1.118016641192839
1.034793678943526
1.11357759360472
1.117993357479083
1.118016604186321
0.9501255115082535
1.106976498255725
1.117927930386658
1.118016449539353
0.8354006729856579
1.095851404564543
1.117751875142355
1.118016080111928
1.118016064157298
1.117690386477661
1.096528480914907
0.86242707421675
1.118013450459262
1.117380496462085
1.089403409156044
0.8125476231788553
1.118015929262371
1.1175459843991
1.087841873292412
0.7941044348315726
1.118015140696232
1.117464819351009
1.083207934576729
0.7460606939260277
0.9509245974078212
1.106807099107949
1.11788796125818
1.118019512891256
1.131631185062565
1.126294635057715
1.11869085908642
1.118018637220055
1.244450654006756
1.135885847546274
1.119840169233772
1.117921461941202
1.225649944153265
1.128705490598753
1.117540306972787
1.117893247278564
1.117966888354448
1.11721308774257
1.062589522334103
0.8595799885733036
1.117930100564481
1.116971759755298
1.062520078798915
0.8886464325239855
1.117941398038357
1.117193859646294
1.080599581498223
0.9653808212945959
1.117916939527891
1.117500640356597
1.105836348111577
1.061422677047075
0.8572449422857283
1.074720549654686
1.117514513385271
1.117973956625474
0.8601850172705128
1.081584567759449
1.117616301352659
1.117994270530078
0.8600811797698601
1.08835541588571
1.11776961185148
1.117995214179372
0.8516905740747794
1.092397799376388
1.117803083174876
1.118006407235476
1.118016479521255
1.118004699128271
1.113548322515056
0.8890058687383481
1.118015776768422
1.11797967437524
1.109232719568706
0.8694768451053489
1.118014165773583
1.117928297554065
1.103352049603377
0.8480762010127579
1.118008593570896
1.117888322029248
1.098258832072972
0.848208731753881
1.118016725847834
1.118016635608564
1.118016635668567
1.11801662489133
1.11801609356573
1.118016628961914
1.118016641985346
1.118016825040717
1.11745090573283
1.118012885132789
1.118021546547237
1.118088573051394
1.067068703681011
1.116838489469248
1.118454529911337
1.120992060362991
1.118016474097385
1.118018723527649
1.118378216791186
1.125327576011382
1.118015616153983
1.118026189614248
1.118970914564251
1.130206835834697
1.118013313576793
1.118035252089239
1.119540253467896
1.134310501998615
1.118010269191579
1.118027199246008
1.119515637056916
1.136765928034511
1.118014729708209
1.117987487423512
1.114287629729382
1.101637797516589
1.118012001599731
1.117939702664625
1.113729622070211
1.120326054218048
1.11800875882375
1.117963470745683
1.116764839003018
1.130585916473974
1.118008552481807
1.118000025086185
1.118463028395912
1.136316100363681
1.065356643731914
1.116042611183543
1.118008555196134
1.118015955354483
1.063840181433333
1.116173986328969
1.118008179500762
1.118015717455304
1.061197047882135
1.116228305072365
1.118009224170743
1.118016368436301
1.064404650945286
1.11677821914407
1.118013745809981
1.118016596709988
1.065567312673826
1.118009587069585
1.118016459662722
1.118016633954177
1.06701968855002
1.117796889525862
1.118016642286054
1.118016635916198
1.074839411188801
1.117878082280448
1.118016635066463
1.11801663592239
1.094953630185655
1.117953491320914
1.118016636544266
1.118016635923695
1.118016635923821
1.118016635923788
1.118016591781892
1.118011244668929
1.11801663592382
1.118016635923675
1.118016467669182
1.117938775934675
1.11801663592382
1.118016635931399
1.118015917443366
1.117469608610021
1.11801663592382
1.118016635728429
1.118006667172326
1.113239070677494
1.117991030713405
1.11776400632039
1.115759922375143
1.099414332935565
1.117764006321447
1.116536441425766
1.107097476338137
1.060844726078808
1.115759922376233
1.107097476340311
1.067475306946879
0.9686343322265489
1.099414332935527
1.060844726079955
0.9686343322295734
0.8441921044688637
0.8015524304419405
0.8475378845185754
0.9339138785830077
1.010840984959015
0.8608160606910745
0.8731914227331393
0.9117476520292978
0.9665061205878835
0.8997598432295318
0.9103243840755862
0.9422507488444248
0.9790462528284846
0.9308137560835678
0.9387547338199278
0.9622403577390617
0.984125584574534
0.9983418124524419
1.004445891739856
1.009872907439589
1.020477969499604
0.990036921820725
1.004546958991663
1.010478947084984
1.043309957895959
0.9721950922416152
1.000184763894242
1.008973102233926
1.105579289463674
0.933817515042075
0.9433936501473934
0.9561385411116485
1.187815462295568
1.189857774936907
1.210079368461466
1.175615050477814
1.161141221397046
1.278812987125205
1.280560144934616
1.222531311872913
1.191585625597873
1.42350825043033
1.325261025868817
1.246130956815546
1.208383561653105
1.155871322982701
1.050185092781328
1.025753188232139
1.039574717745373
1.15166312323171
1.144899141094668
1.140006635022925
1.133794020597016
1.172450387701504
1.159164848604189
1.150051990552635
1.140347905924568
1.185280124264435
1.168899917811518
1.157395490803117
1.145453531815517
1.06524661143348
1.08994942442645
1.105015120086087
1.112480479692088
1.125762137402135
1.119596745043885
1.098420304927808
0.851011968191495
1.129478779724161
1.120351457990496
1.074740945275083
0.7013047250300879
1.132618151959798
1.120980222700735
1.029722794349926
0.5684691041518143
1.116172183608801
1.119866500581391
0.9283083862356407
0.3283715857861004
0.6305878348653506
0.688534236474173
0.720253447482472
0.7498578741103826
0.5744471065889355
0.6660883430457064
0.7168691730318087
0.7481000846305267
0.4692725827145107
0.6024855348055022
0.6887794705206951
0.7377622849615034
0.2548000829300156
0.4004056825569393
0.5348960408737384
0.6324372114801073
0.7675453499563357
0.7760963349244208
0.7851609940120412
0.7923382612388099
0.7640643259754503
0.7730955731258021
0.7840016463828887
0.7926177968595326
0.7611486191728457
0.7718565145859567
0.7840961715212017
0.7934654010244976
0.7001295633601563
0.7309380685150028
0.7469953320992596
0.7534592253242525
0.80386145975651
0.8381737989786326
0.9093462761233722
1.01513394145689
0.8041281923301302
0.8378358000715043
0.9125592835629909
1.052786294866859
0.8039359999549804
0.8310922236724007
0.9339453294042478
1.339040182972902
0.7746227687837138
0.8060962832611493
0.9544321349749051
1.85609012277213
1.205841708264618
1.311495679948808
0.4785303079065674
0.224569285867572
1.287243328156042
1.119660170198041
0.2715627789128642
0.08604672952211491
1.393751836047626
0.7896684028374714
0.07246667706698588
0.05257233220485048
1.13289116806384
0.3424285738441532
0.05933502195999971
0.0102261472652693
0.1259724006362362
0.07384284526034582
0.03463810101508153
0.05275382195072887
0.03240091151109149
0.02823013812547465
0.06521759768259391
0.1191504175119621
0.02189919922064902
0.04966497943304978
0.1097629181173045
0.1863531989999812
0.01017586748628257
0.05571409033268571
0.1546312134487209
0.2009853490619816
0.3813666457939963
0.7751736454336917
1.002035621094088
1.147237892167003
0.1527789788165407
0.5591143202223288
0.8663354887464195
1.081587891383055
0.06000766724312795
0.2632881627232392
0.6302367392048069
1.013258168132275
0.1230816541947563
0.07948109335207167
0.4757883515190487
1.081200139631617
1.357519075820844
1.739740531815031
1.731755957695301
1.105700163531352
1.298761474435003
1.631475501597855
1.309146188121453
0.7793008872942786
1.30769025483099
1.149784125924482
0.7206420513087547
0.3749201766902889
1.046627558152719
0.4143446648827364
0.2921729298779976
0.2877600201536439
0.2908737550712285
0.2696917829275627
0.2184142216617678
0.1585226125983322
0.2471470051977806
0.2393897114146674
0.2331458141761049
0.195677176325816
0.2382626636346407
0.07877018507460422
0.1534673673458854
0.1511071359320088
0.6623970403022399
0.4227505781471088
0.2806867464635314
0.2412281581187624
0.1585226125982407
0.1956771763257432
0.1511071359320328
0.2412281581184917
0.2184142216615921
0.2331458141759253
0.1534673673458464
0.2806867464634829
0.2696917829273482
0.2393897114145113
0.07877018507452627
0.4227505781470843
0.2908737550711071
0.2471470051977969
0.2382626636345893
0.6623970403021132
1.105700163530523
1.731755957694319
1.73974053181513
1.357519075820525
0.7793008872941457
1.309146188121264
1.631475501597885
1.298761474434818
0.3749201766902971
0.7206420513087568
1.149784125924403
1.307690254830897
0.2877600201536228
0.2921729298779766
0.4143446648827201
1.046627558152745
1.081200139631555
0.4757883515190319
0.07948109335207588
0.1230816541947413
1.013258168132156
0.6302367392046042
0.2632881627230979
0.06000766724324781
1.081587891382744
0.8663354887460817
0.5591143202218452
0.1527789788156287
1.147237892166476
1.002035621093677
0.7751736454330357
0.3813666457926164
0.05275382195171812
0.03463810101499076
0.07384284525990677
0.1259724006360996
0.1191504175117845
0.06521759768356114
0.02823013812579408
0.03240091151134456
0.1863531989997727
0.1097629181176845
0.04966497943344329
0.02189919922041459
0.2009853490618703
0.1546312134493179
0.05571409033285181
0.01017586748617417
0.2245692858667763
0.4785303079034856
1.311495679942991
1.205841708263944
0.08604672952246242
0.2715627789118636
1.119660170196254
1.287243328156564
0.0525723322052218
0.07246667706738696
0.7896684028356464
1.393751836047434
0.0102261472655342
0.0593350219603279
0.3424285738424456
1.132891168064752
1.015133941457187
0.9093462761237319
0.8381737989787551
0.8038614597567145
1.052786294866962
0.9125592835632207
0.8378358000715336
0.8041281923302693
1.339040182972741
0.9339453294043607
0.8310922236724071
0.8039359999550194
1.856090122771557
0.9544321349749705
0.806096283261143
0.774622768783587
0.792338261239049
0.7851609940119548
0.7760963349245139
0.7675453499563362
0.7926177968596305
0.7840016463828284
0.7730955731258612
0.7640643259754444
0.7934654010245517
0.784096171521189
0.7718565145860307
0.7611486191727461
0.7534592253244663
0.7469953320993149
0.7309380685151751
0.700129563359904
0.7498578741112207
0.7202534474820592
0.6885342364752746
0.6305878348650111
0.7481000846311529
0.716869173031556
0.6660883430463379
0.5744471065890976
0.7377622849617008
0.6887794705206913
0.6024855348057274
0.4692725827149762
0.6324372114796312
0.5348960408744168
0.400405682556615
0.2548000829305657
0.8510119681918149
1.098420304927674
1.119596745043226
1.125762137402033
0.7013047250304046
1.074740945275097
1.120351457989978
1.129478779724822
0.568469104152847
1.029722794350786
1.120980222700373
1.132618151961398
0.3283715857877412
0.9283083862365227
1.119866500578848
1.116172183608011
1.133794020596337
1.140006635023423
1.144899141095548
1.151663123231852
1.14034790592293
1.150051990553726
1.159164848604439
1.172450387701906
1.145453531812493
1.15739549080525
1.168899917810387
1.185280124265346
1.112480479689011
1.105015120090479
1.089949424422744
1.065246611434724
1.16114122139744
1.175615050478164
1.210079368461125
1.189857774936239
1.191585625598224
1.222531311873506
1.280560144933941
1.278812987124473
1.208383561653394
1.246130956816322
1.325261025867985
1.423508250429547
1.03957471774542
1.025753188233044
1.050185092781322
1.155871322982879
1.020477969499878
1.009872907440376
1.004445891739408
0.9983418124524507
1.043309957896179
1.010478947085497
1.004546958991287
0.9900369218203413
1.105579289463605
1.008973102234187
1.000184763893739
0.9721950922409508
1.187815462295114
0.9561385411117581
0.9433936501474072
0.9338175150435668
0.9841255845749872
0.9790462528284997
0.9665061205881594
1.010840984958735
0.9622403577392536
0.9422507488445541
0.9117476520298023
0.9339138785833464
0.9387547338206859
0.9103243840761274
0.8731914227336702
0.847537884519856
0.9308137560849046
0.8997598432307458
0.8608160606915948
0.8015524304431568
1.081753743493089
1.116231307277917
1.11799969347307
1.118016565894055
1.08292322170253
1.116271617904344
1.117993936995783
1.118016506063202
1.060102429896318
1.115562821929093
1.117982085125848
1.118016412935602
1.039604343163229
1.114465589608737
1.117959624904953
1.11801623290248
1.118015944696325
1.117923621727837
1.11338809514287
1.041248478122898
1.118015958705855
1.117926639634753
1.113621559794877
1.044704717466945
1.118015977033729
1.117929652020999
1.113676081901628
1.042679485390831
1.118016051526644
1.117940087779498
1.113996771285389
1.042260332571269
1.118016232903046
1.118016412935195
1.118016506062852
1.118016565894836
1.117959624905577
1.117982085125865
1.117993936995497
1.117999693472708
1.114465589608772
1.115562821929104
1.116271617903942
1.116231307278396
1.039604343163453
1.060102429896351
1.082923221702229
1.081753743492871
)
;

boundaryField
{
    back
    {
        type            empty;
    }
    inlet
    {
        type            calculated;
        value           nonuniform List<scalar> 
16
(
1.11801663592382
1.11801663592382
1.11801663592382
1.11801663592382
1.118016635923679
1.11801663592394
1.118016635920219
1.118016635036752
1.118016635037113
1.118016635920215
1.11801663592394
1.118016635923693
1.11801663592382
1.11801663592382
1.11801663592382
1.11801663592382
)
;
    }
    front
    {
        type            empty;
    }
    top
    {
        type            calculated;
        value           uniform 0;
    }
    outlet
    {
        type            calculated;
        value           nonuniform List<scalar> 
16
(
1.118015751137655
1.118015767153551
1.118015787463226
1.118015875566499
1.118016543892181
1.118016467917035
1.118016347794033
1.1180161128716
1.118015751137152
1.118015767153607
1.11801578746318
1.118015875566404
1.118016112872109
1.118016347793638
1.118016467916757
1.118016543892924
)
;
    }
    bottom
    {
        type            calculated;
        value           uniform 0;
    }
    wall
    {
        type            calculated;
        value           uniform 0;
    }
}


// ************************************************************************* //
