/*--------------------------------*- C++ -*----------------------------------*\
  =========                 |
  \\      /  F ield         | OpenFOAM: The Open Source CFD Toolbox
   \\    /   O peration     | Website:  https://openfoam.org
    \\  /    A nd           | Version:  11
     \\/     M anipulation  |
\*---------------------------------------------------------------------------*/
FoamFile
{
    format      ascii;
    class       volScalarField;
    location    "0.105";
    object      p;
}
// * * * * * * * * * * * * * * * * * * * * * * * * * * * * * * * * * * * * * //

dimensions      [0 2 -2 0 0 0 0];

internalField   nonuniform List<scalar> 
880
(
79.99999999999999
80.00000000000529
80.00000855478828
80.0011990609264
80.00000000000001
80.00000000011902
80.00002949773706
80.01789226671977
80
80.00000000528368
80.00025633807039
80.13613088514828
79.99999999999996
79.99999998299097
80.00050326084153
80.50662024226328
80.00000000002021
79.99999999998282
80.00000000173486
80.00000045014184
80.00000004460755
79.99999997114782
80.00000086422855
80.00001339620134
80.00566444943958
80.01221525440535
80.05096542072539
79.97299753901888
82.07529874248115
84.32498543343003
85.87540762835064
86.55352816695844
80.00000578884126
80.00006016266337
80.00009232484517
80.00006988381791
80.00023012456478
80.00064872119428
80.00181770424965
80.00164157923727
80.09074411549298
80.18629505275911
80.31733194123019
80.35787947968028
87.41829196428966
88.70764739930769
89.89841062615488
90.95816498797515
88.57057637515565
86.89127295516882
86.12467962154042
85.16380064509057
80.63559360668927
81.02958906197681
81.09660565569989
80.97117273264548
80.00455248678
80.01245954309832
80.01815637278698
80.01816282094552
80.00023293557201
80.0006084814498
80.00081089749217
80.00072363258138
80.00045689217977
80.00017294229266
80.00003411127221
80.00000299632934
80.01452105319902
80.00823856092016
80.00283465962831
80.00052828709342
80.77955538019934
80.51799169279697
80.25011662431233
80.08165233687699
84.12623021735051
83.14970790239244
82.20859239745921
81.27549932390066
80.50245664762916
80.01499336554826
80.00004570596093
80.00000015919377
80.07255406089548
80.00088700470828
80.00000116220878
79.99999998818684
80.21093900842833
80.00068320403236
80.00000101731635
80.00000005828156
85.60016802052573
80.06259328459174
80.00012977732032
79.99999104059557
80.00001387709059
80.001217744001
80.42036800169416
104.8839050452232
80.00012857044008
80.00403327007585
80.87065847242665
110.8414842052243
80.0004408308891
80.00850186491752
81.47293334882484
116.23077487112
80.00097996911607
80.01974211270208
82.34642614516034
121.5325945931111
126.3355053017266
83.20279526614571
80.02788583573387
80.00144863397105
132.0933163772423
84.33225570973805
80.04907055384521
80.00237051779466
137.3376219912075
85.25653858661443
80.05904862713211
80.00295425891555
142.6387420002945
86.71981053120258
80.09565584055176
80.00485454253503
80.00619693943472
80.12466528627465
88.35871388665116
146.3222642691959
80.01033133474698
80.18852276212908
89.46451343113156
141.416959745154
80.01462885083853
80.17881887817815
87.36366975732071
125.6910790179889
80.00121509068772
80.09826595146083
83.70042378572252
104.4448736371029
80.01721590198434
80.2461291655957
82.95711935989303
83.07419398652483
80.00856279552116
80.10469997866569
80.96945376319418
67.94031654642681
79.99933548559946
80.01943891908233
79.56844171126444
59.18585882576251
79.99841728162916
79.89798896716609
77.50344219797525
54.08191823306618
51.82031164604037
76.59440616013767
79.8773457674729
79.99904853674947
49.89377569443662
76.22520879064488
79.88408804604325
79.99921379700041
48.58041285502365
76.36517169168289
79.92295086669414
79.99966363754564
44.82273911300721
76.03023851783244
79.92537126554168
79.99969640659572
48.98526696221722
77.43468533571475
79.9666794018525
79.99985625078699
55.01257739687814
78.76080014013802
79.98927578222138
79.99996057670946
60.39199733125146
79.34717377362493
79.99550028136107
79.99998518480697
66.09514011379105
79.75797816255059
79.99861298363076
79.9999928789221
72.08459220002253
79.40488091119047
79.9870740793519
79.99990038584482
72.80737593768811
79.43573150403118
79.98742144335142
79.99990219840852
73.22086957638626
79.46039242724343
79.98779198437281
79.9999046402847
73.96337765926035
79.52669890296124
79.98919405164884
79.99991518765894
66.0951401137828
79.75797816250154
79.99861298359988
79.99999287882231
60.3919973312459
79.34717377357316
79.99550028128138
79.99998518475982
55.01257739683552
78.76080014007481
79.98927578218185
79.99996057667848
48.98526696219962
77.43468533563937
79.96667940187554
79.99985625078689
79.99904853677738
79.87734576751693
76.59440616016816
51.82031164586184
79.99921379697054
79.8840880460542
76.22520879069666
49.8937756942803
79.99966363757086
79.92295086666059
76.36517169159102
48.58041285492552
79.99969640660262
79.92537126564504
76.03023851781792
44.82273911299631
54.08191823295093
77.50344219790897
79.89798896711039
79.99841728169022
59.18585882567017
79.5684417112526
80.01943891912984
79.99933548558793
67.9403165463268
80.96945376321015
80.10469997866232
80.00856279555991
83.07419398650852
82.95711935984163
80.24612916548587
80.01721590205138
80.00619693938638
80.12466528604186
88.35871388679102
146.3222642693755
80.01033133477101
80.18852276202125
89.4645134312721
141.4169597452986
80.01462885075678
80.17881887830504
87.36366975732393
125.6910790179715
80.00121509072873
80.09826595142086
83.70042378571648
104.4448736370866
142.6387420004467
86.71981053124402
80.09565584110094
80.00485454268276
137.3376219913714
85.25653858657304
80.05904862682279
80.00295425892395
132.0933163773448
84.33225570976002
80.04907055395906
80.00237051779411
126.3355053017082
83.20279526621127
80.0278858357609
80.00144863399281
80.00001387710908
80.00121774393828
80.42036800154344
104.8839050451248
80.00012857053535
80.00403327032414
80.87065847264384
110.8414842053774
80.00044083099577
80.00850186491502
81.47293334861399
116.2307748709345
80.00097996910432
80.01974211266594
82.34642614540954
121.5325945931689
79.99999104059809
80.00000005826517
79.99999998823658
80.00000015919717
80.00012977721957
80.00000101727174
80.00000116217875
80.00004570593785
80.06259328454065
80.00068320406277
80.00088700467225
80.01499336551059
85.60016802048824
80.2109390084436
80.07255406091244
80.50245664763308
80.00000299634235
80.00052828711563
80.08165233690504
81.27549932390565
80.00003411126907
80.00283465968526
80.25011662432887
82.20859239750506
80.00017294228775
80.00823856095457
80.517991692739
83.14970790229471
80.00045689211701
80.01452105318761
80.77955538022699
84.12623021733687
80.00023293563082
80.00455248675928
80.63559360669768
88.57057637519529
80.00060848142293
80.01245954306957
81.0295890620197
86.89127295517633
80.00081089753218
80.01815637269129
81.09660565567637
86.12467962145432
80.00072363252229
80.01816282092913
80.97117273269177
85.16380064502897
90.95816498794146
80.35787947964317
80.00164157942719
80.00006988415066
89.89841062610517
80.31733194125319
80.00181770439195
80.00009232524152
88.70764739932609
80.18629505277555
80.00064872077921
80.0000601611864
87.41829196427246
80.0907441155546
80.00023012396356
80.00000579030915
86.55352816692529
79.97299753902465
80.00001339619158
80.00000044996864
85.87540762834075
80.05096542067335
80.00000086416124
80.00000000173621
84.32498543341349
80.01221525440289
79.9999999711715
79.9999999999828
82.07529874244619
80.0056644494032
80.0000000445671
80.00000000001822
79.99999999999999
80.00000000000469
80.00000855481098
80.00119906091444
80
80.00000000009861
80.00002949773696
80.01789226659348
80
80.00000000526275
80.00025633806644
80.1361308851513
80
79.99999998295519
80.0005032608249
80.50662024219297
80.00889947930054
80.06433568541911
80.34943088029372
82.06359705383304
80.06433568544382
80.19710798652822
81.14535567025283
85.47462262027021
80.34943088034834
81.14535567040645
84.54911959614378
92.58101480346976
82.06359705403376
85.47462262025026
92.58101480302329
103.9151449463123
116.5359317779508
106.3164142841001
101.4266425424839
93.21785526274769
113.3945923322921
110.9580958110075
110.9084054581627
106.0639199945852
113.0212529649136
111.9387684919873
112.1038656782482
109.9418102577931
113.6842347047424
113.3620881948091
113.5486238807171
112.0405214684533
112.5339032367234
112.9221038686034
113.359345918094
113.3182727673214
113.2710527196316
113.2253399159662
113.6606127277701
113.6261829034443
113.6783420598513
113.3371467045212
113.6652988713678
113.519580943127
114.2341111840872
113.3975961256773
113.5792057261175
111.8169453806901
90.21547906926678
81.29321352400517
81.64445538361191
82.19378032810397
82.78573266025498
78.23958264087125
81.11098305481707
81.94407349360711
75.93291006139614
78.40879295172066
81.75420265426978
82.36852545067696
65.61653927346619
75.94872640111258
80.58718042997441
81.44318486910883
82.24883953016639
82.21784922463202
82.39238708111834
81.91756060711603
82.0469773678583
82.31685822240969
82.37953807978819
81.81628946853066
82.43484608067794
82.73119932324535
82.61418365291313
81.95227849247146
81.78460550603013
82.33998700268297
82.43369347183251
81.68235728368384
81.02713486506268
80.24365598732423
84.22311460881029
116.591645289134
80.99261800805405
80.27613416302813
86.99315168690852
123.3534210218417
81.10646469320669
80.33148721981611
89.84207829935309
127.5620080941838
80.85439442391767
80.27909997339664
91.29787723330951
129.380959419038
174.4801426554119
172.7726573192898
171.6022563582356
170.7101748010393
180.9298765295876
176.609450481882
172.9911549800931
171.2810953119191
179.1715454690865
175.8775362774487
173.4747526090157
171.9228536062608
182.6469983689605
178.3220356192381
174.1438552781
172.0894824833278
170.1646281052413
173.3155854963726
176.2677829227827
178.869469171254
170.5333645560847
173.1808830913002
175.8915364878415
178.512716905834
170.5591338114311
172.8540601351017
175.4444086432765
178.2403938636753
170.5640150710913
172.5622263527736
175.1500074145395
178.0956774030774
178.3906696784882
170.3584499054309
154.0621995071988
125.649995924327
178.2706783086482
170.9358421278313
155.4282109139401
135.1204858923465
178.390682823599
172.2646840340265
156.9584449802577
143.9019636169221
178.4634248171482
174.128922673067
161.0487536746278
161.2761423812081
82.75894112416474
23.67504234012723
11.91599765057375
14.55497177611929
65.2601524722935
14.82996064080028
11.62717144574346
14.28704112666008
42.7962750725473
9.6690314204217
11.24530106603565
14.85866400539506
24.30733362789578
7.626437098094676
12.4650219563552
15.13730974134128
16.99918003299133
17.94634041704073
18.36532686369494
16.75338550630948
16.57082257650459
17.43153567920714
17.56202498126089
16.40003670004717
16.9238345992936
17.60332884699383
17.50374038150465
16.97050138881711
16.81826070036761
17.54713181192641
17.60927492413218
18.34438757017208
25.75247807278281
31.86337310731598
37.56945979781703
43.65270157979135
24.89474069400422
30.83451256508614
34.88103912399611
41.83041198746264
23.19131949090993
29.58499057369427
33.73194304684083
40.33534779049553
20.47728522076974
26.65946557660634
31.01791363009898
40.66224697292165
31.42702010005245
17.72000185393939
17.13486057869909
28.10119130595186
29.29189405956856
16.50696446512761
21.94458340444353
24.03058922509156
24.38213823191154
22.109142423775
26.67386253630183
23.75757029660345
18.92256198880237
26.26523369222836
27.05282647763011
26.09945238794781
24.6166267743416
23.3361077201128
22.48814142243177
22.30157062782766
21.17822041677251
20.87974999130998
21.26648231158189
21.09802923299871
21.32766746820857
22.22938635767211
23.97285369336554
25.20922063430807
34.70816348455428
34.50084212887989
34.04585068599082
34.08989504867937
22.30157062782785
21.09802923299879
25.20922063430915
34.08989504868145
22.48814142243297
21.26648231158331
23.97285369336841
34.04585068599633
23.3361077201137
20.8797499913115
22.22938635767418
34.500842128885
24.61662677434215
21.17822041677261
21.32766746820942
34.70816348455822
28.10119130597293
17.13486057871314
17.72000185393544
31.42702010004845
24.0305892250921
21.94458340444526
16.50696446512586
29.29189405956576
23.75757029660321
26.67386253629892
22.10914242377457
24.38213823191024
26.09945238794676
27.05282647762799
26.26523369222808
18.92256198880062
40.66224697291761
31.01791363009711
26.65946557661479
20.47728522078692
40.33534779049271
33.73194304683491
29.58499057369917
23.19131949092342
41.83041198745468
34.88103912398511
30.83451256508857
24.89474069401607
43.65270157978978
37.56945979780901
31.86337310730923
25.75247807278513
16.75338550634093
18.36532686372557
17.94634041704565
16.99918003298194
16.40003670008133
17.56202498129398
17.43153567922945
16.57082257650892
16.97050138884547
17.50374038153413
17.60332884701483
16.92383459930422
18.34438757020236
17.60927492416363
17.5471318119466
16.81826070038467
14.55497177612444
11.91599765053626
23.67504234005207
82.75894112413512
14.28704112666871
11.62717144574303
14.82996064074918
65.26015247217256
14.85866400540591
11.24530106605238
9.669031420429166
42.79627507252558
15.13730974135432
12.46502195637226
7.62643709810161
24.30733362789697
125.6499959242684
154.0621995071603
170.3584499053752
178.3906696784146
135.1204858923202
155.4282109139128
170.9358421277828
178.2706783085779
143.9019636168928
156.9584449802213
172.2646840339774
178.3906828235415
161.2761423811772
161.0487536745987
174.1289226730258
178.4634248170944
178.8694691711746
176.2677829228237
173.3155854963646
170.1646281052567
178.5127169057719
175.8915364878812
173.1808830912968
170.5333645560862
178.2403938636354
175.4444086433135
172.8540601350924
170.5591338114159
178.0956774030339
175.150007414579
172.5622263527726
170.5640150710758
170.7101748009726
171.6022563581273
172.7726573192922
174.4801426554747
171.2810953118576
172.9911549799822
176.6094504819283
180.9298765296565
171.9228536061833
173.4747526089465
175.8775362775198
179.1715454691737
172.0894824832482
174.1438552780571
178.322035619321
182.646998369107
116.5916452892317
84.2231146088145
80.24365598731328
81.02713486500849
123.3534210219781
86.99315168687224
80.27613416299131
80.99261800794493
127.5620080943245
89.84207829928347
80.33148721981711
81.10646469305441
129.3809594190955
91.29787723321104
80.27909997340313
80.85439442378377
81.91756060725528
82.39238708107646
82.21784922448551
82.24883953020307
81.81628946881591
82.37953807960594
82.31685822235339
82.04697736786196
81.95227849283467
82.61418365263981
82.73119932332104
82.43484608063149
81.68235728412624
82.43369347144058
82.3399870028905
81.78460550592372
82.19378032804804
81.64445538355271
81.29321352404057
90.21547906932076
81.94407349355544
81.11098305476243
78.23958264092721
82.78573266029282
82.36852545063071
81.75420265422191
78.40879295178456
75.93291006141386
81.44318486907102
80.5871804299057
75.94872640119127
65.61653927350918
113.3182727672992
113.3593459180398
112.9221038686959
112.5339032367029
113.6261829034091
113.6606127277258
113.2253399160648
113.2710527196142
113.5195809430839
113.665298871337
113.3371467046183
113.6783420598219
111.8169453806124
113.5792057260926
113.3975961257717
114.234111184051
112.0405214683476
109.9418102578183
106.0639199946193
93.21785526274297
113.5486238805977
112.103865678291
110.9084054581685
101.4266425425042
113.3620881946643
111.9387684919863
110.9580958109974
106.3164142840773
113.6842347046506
113.0212529649209
113.3945923322339
116.5359317778451
70.80476507042506
79.74265824201829
79.99742949853611
79.99998870964659
70.92096043910087
79.6998345886693
79.99648343564229
79.99998036359187
72.29414935635739
79.65526219013415
79.99489844266917
79.99996698381675
73.49939583310719
79.58655095650852
79.99201099014267
79.99994156018739
79.99990038592638
79.98707407933658
79.40488091117487
72.08459219996146
79.99990219839471
79.98742144335547
79.43573150404455
72.80737593768636
79.99990464030995
79.98779198432307
79.46039242723882
73.22086957639266
79.99991518766066
79.98919405163207
79.52669890297291
73.96337765924234
79.99994156013813
79.99996698384149
79.99998036362348
79.99998870958058
79.99201099009466
79.99489844265179
79.99648343563767
79.99742949855271
79.58655095652166
79.6552621901115
79.69983458869861
79.74265824200688
73.49939583307311
72.29414935630732
70.92096043907162
70.80476507044581
)
;

boundaryField
{
    back
    {
        type            empty;
    }
    inlet
    {
        type            zeroGradient;
    }
    front
    {
        type            empty;
    }
    top
    {
        type            zeroGradient;
    }
    outlet
    {
        type            fixedValue;
        value           uniform 80;
    }
    bottom
    {
        type            zeroGradient;
    }
    wall
    {
        type            zeroGradient;
    }
}


// ************************************************************************* //
