/*--------------------------------*- C++ -*----------------------------------*\
  =========                 |
  \\      /  F ield         | OpenFOAM: The Open Source CFD Toolbox
   \\    /   O peration     | Website:  https://openfoam.org
    \\  /    A nd           | Version:  11
     \\/     M anipulation  |
\*---------------------------------------------------------------------------*/
FoamFile
{
    format      ascii;
    class       volVectorField;
    location    "2.425";
    object      U;
}
// * * * * * * * * * * * * * * * * * * * * * * * * * * * * * * * * * * * * * //

dimensions      [0 1 -1 0 0 0 0];

internalField   nonuniform List<vector> 
4455
(
(100.01363 0.30992004 0)
(99.930991 1.0077819 -2.0048262e-18)
(99.671855 1.5063295 6.8876363e-18)
(99.459603 1.8716226 2.672159e-20)
(98.920479 2.1880678 6.4714602e-18)
(98.42115 2.3421915 -2.4465158e-17)
(97.551334 2.7609171 1.0898993e-17)
(96.670983 2.5959122 0)
(95.01212 3.1438544 -6.624897e-17)
(100.0232 0.37164877 -1.2917557e-17)
(99.983374 1.0775035 1.2626154e-17)
(99.679303 1.6856606 -1.5572944e-17)
(99.446251 2.0174611 2.6022016e-17)
(98.937849 2.3931836 -5.0037056e-17)
(98.456455 2.5122103 5.4669943e-17)
(97.507797 2.8017676 -5.2350657e-18)
(96.506361 2.5499724 7.6244554e-18)
(94.582006 2.3413296 2.8725741e-16)
(100.08606 0.37626206 -1.3340584e-17)
(99.947484 1.2002796 1.6957025e-17)
(99.776385 1.7886978 1.5252322e-17)
(99.407786 2.2543569 -1.5202143e-17)
(98.99678 2.5815673 6.6467299e-17)
(98.391511 2.7886502 -3.7647473e-17)
(97.467725 3.0355528 4.8344149e-18)
(96.429485 2.6645337 -1.0742903e-16)
(94.376363 2.7594739 -2.0344658e-16)
(100.12512 0.40771626 2.185961e-19)
(99.983267 1.2637188 -2.0728333e-18)
(99.784556 1.9272827 3.5795799e-17)
(99.454305 2.4067375 4.9264846e-18)
(99.02604 2.8414325 -1.8502404e-19)
(98.466557 3.0285157 -7.1816311e-18)
(97.41076 3.4836538 7.9878215e-17)
(96.276581 2.8821935 2.1481061e-16)
(94.207914 3.447794 1.6902255e-16)
(100.15737 0.4255935 2.5809918e-17)
(100.01604 1.3139559 -2.9001793e-17)
(99.802177 2.0330894 3.6686772e-17)
(99.53531 2.5817457 3.652699e-20)
(99.082123 3.0640509 -4.5282281e-17)
(98.517326 3.2627168 -1.389731e-17)
(97.397664 3.7570319 -6.2965291e-17)
(96.1362 3.0779405 -1.0093589e-16)
(93.745245 3.7432112 -4.9850483e-16)
(100.18278 0.43480402 0)
(100.05927 1.341824 0)
(99.830932 2.1333876 -6.423508e-17)
(99.616043 2.7111192 -7.3750785e-17)
(99.178358 3.31303 0)
(98.589576 3.5507834 -9.9872831e-17)
(97.413627 4.1262136 -8.5028105e-18)
(96.044523 3.3997917 -6.0370981e-18)
(93.400514 4.2793926 6.1504362e-16)
(100.20479 0.43652881 0)
(100.10257 1.3406891 -1.7233174e-18)
(99.869974 2.2193798 1.9396733e-18)
(99.689907 2.8054917 7.2084055e-17)
(99.281567 3.4753832 -5.3255288e-18)
(98.685761 3.7328459 2.1229597e-16)
(97.462268 4.3968633 0)
(95.880188 3.6172794 0)
(92.939439 4.7977336 2.8152859e-16)
(100.21899 0.42955365 4.7578054e-17)
(100.13849 1.3244512 0)
(99.917664 2.2786047 0)
(99.810751 2.9227032 0)
(99.404943 3.7128676 0)
(98.78108 4.0163814 -1.0577981e-16)
(97.519606 4.7515643 -1.1344628e-16)
(95.832895 3.9809857 1.6483437e-16)
(92.531197 5.4428158 1.1814098e-18)
(100.23254 0.41539466 -4.6850729e-17)
(100.16968 1.2742497 -1.6405313e-18)
(99.967167 2.2878251 -1.8718554e-18)
(99.879059 2.9341716 4.2192441e-18)
(99.550681 3.7928171 1.63284e-16)
(98.935821 4.1668002 1.8489736e-16)
(97.613215 5.0633706 3.603957e-16)
(95.662316 4.2732962 -1.6178189e-16)
(92.089004 6.0824086 -4.8442385e-16)
(100.2379 0.39592421 0)
(100.24161 0.36606148 8.5719903e-17)
(100.232 0.33464388 -8.5034044e-17)
(100.21906 0.29144864 8.083526e-17)
(100.20074 0.25776572 -7.901885e-17)
(100.17217 0.20529431 1.5692906e-16)
(100.14335 0.16404951 -1.5234646e-16)
(100.11257 0.11602548 0)
(100.04326 0.053021265 0)
(100.20221 1.2493189 0)
(100.23084 1.1932501 1.4930905e-18)
(100.26458 1.129125 0)
(100.27889 1.042191 4.224843e-18)
(100.30323 0.94183191 8.5693993e-17)
(100.3221 0.8424389 -2.5541677e-16)
(100.30791 0.70688423 1.6516579e-16)
(100.34603 0.61365026 -2.5093493e-18)
(100.26796 0.4053616 1.5817542e-16)
(100.05003 2.3107773 1.0958998e-16)
(100.11801 2.3223501 -2.1540253e-16)
(100.19624 2.2665224 2.0468938e-16)
(100.28494 2.2235452 -6.8355822e-18)
(100.32676 2.1025801 -9.5957125e-17)
(100.45172 2.0266369 -2.9037156e-18)
(100.45843 1.8617093 0)
(100.62288 1.7525123 5.4336661e-18)
(100.60181 1.4344209 -2.6317198e-18)
(99.998071 3.0379998 1.1479348e-16)
(100.13395 3.0873249 -2.3274409e-16)
(100.24009 3.1146167 2.20313e-16)
(100.41847 3.1089598 -1.0651354e-16)
(100.49745 3.0446278 -6.630665e-18)
(100.69353 3.0012766 3.1734557e-18)
(100.74952 2.8592977 0)
(100.97465 2.7785469 -2.9617131e-18)
(100.97806 2.4600885 1.7766571e-16)
(99.656073 3.9715577 -1.3115319e-16)
(99.895755 4.1660231 0)
(100.01352 4.2496816 -1.1943199e-16)
(100.27242 4.3872812 1.2315175e-16)
(100.41328 4.3761802 -1.1007762e-16)
(100.6852 4.4732423 1.1375216e-16)
(100.83808 4.3868288 0)
(101.16254 4.4583852 0)
(101.28187 4.2272395 6.3046517e-18)
(99.050299 4.386006 -1.6130067e-16)
(99.282002 4.713376 -1.5266611e-16)
(99.453267 4.8458334 1.4675616e-16)
(99.693392 5.1250158 1.3918079e-16)
(99.903914 5.1604578 -1.3418138e-16)
(100.17698 5.3954927 0)
(100.39826 5.3385359 2.4445951e-16)
(100.69782 5.515408 -1.8210963e-18)
(100.8948 5.3232561 -4.5228233e-16)
(97.716196 5.3417304 -1.9070199e-16)
(97.888995 5.9813246 0)
(98.125115 6.159019 0)
(98.381765 6.7215363 5.1701337e-18)
(98.71131 6.8277701 0)
(99.078484 7.3640863 0)
(99.469617 7.3918721 0)
(99.908673 7.8921316 0)
(100.28985 7.7997787 0)
(95.660788 4.7046101 7.4920176e-18)
(95.516884 5.5509406 0)
(95.673997 6.065896 6.6458978e-18)
(95.73007 6.9510859 -1.2258657e-17)
(96.067956 7.3517523 -1.8372366e-16)
(96.346575 8.1104673 -1.7196987e-16)
(96.798149 8.3825953 3.3251456e-16)
(97.197363 8.9478421 3.1695956e-16)
(97.783397 9.1444023 -2.9996079e-16)
(91.487814 6.8157825 9.0434271e-16)
(91.08115 8.8042589 -5.6244776e-16)
(91.200328 9.9704161 5.1111627e-16)
(91.609438 11.888652 -4.8727073e-16)
(92.285075 12.751612 -6.7736551e-16)
(93.193505 14.390942 1.2593728e-15)
(94.239752 14.898871 -7.9258215e-16)
(95.203409 16.359179 -3.6829016e-16)
(96.134506 16.372062 3.4643661e-16)
(100.08002 0.093294249 -2.0803789e-19)
(100.12763 0.12529563 2.1295281e-16)
(100.20561 0.16894519 -2.5064265e-19)
(100.30965 0.21809042 -2.1434073e-16)
(100.43574 0.26874436 2.0904851e-19)
(100.58548 0.31987833 2.1474225e-16)
(100.75895 0.37241683 -2.157862e-16)
(100.9576 0.42551596 -2.0939297e-19)
(101.20172 0.49558567 -1.0776885e-16)
(100.37341 0.45379267 -2.2699718e-16)
(100.45383 0.61076745 2.2805641e-16)
(100.64076 0.619281 -2.2818859e-16)
(100.77759 0.81999969 0)
(101.02144 0.79993601 2.2873013e-16)
(101.20994 1.0263401 -4.4915007e-19)
(101.4945 0.97373926 -3.2318915e-19)
(101.73023 1.2124489 -2.2878689e-16)
(102.0644 1.124472 1.1429577e-16)
(100.81741 1.534483 2.418476e-16)
(100.9308 1.8077427 -2.4271497e-16)
(101.18479 1.8524595 -2.432652e-16)
(101.30233 2.115971 2.4385355e-16)
(101.58059 2.1422992 -2.4458174e-16)
(101.72741 2.419143 2.4373405e-16)
(102.04558 2.4316442 -2.4458577e-16)
(102.22911 2.7383621 7.471786e-19)
(102.59542 2.7317068 2.4410172e-16)
(101.22761 2.5753688 -2.5976332e-16)
(101.337 2.8808262 -1.0173239e-18)
(101.6109 2.9521692 1.0216859e-18)
(101.71882 3.2449532 0)
(102.01961 3.2980419 -2.1112466e-21)
(102.15214 3.6118377 -2.5987843e-16)
(102.48762 3.6553972 2.641647e-16)
(102.65403 4.0010872 1.0213e-18)
(103.03058 4.0203046 1.0199961e-18)
(101.59042 4.4369502 -1.096272e-18)
(101.69593 4.7776503 -2.8108877e-16)
(101.96599 4.8936899 3.4140443e-20)
(102.03496 5.1969747 2.8278702e-16)
(102.31067 5.2854393 2.827916e-16)
(102.40548 5.6019797 -2.842033e-16)
(102.72761 5.6785091 -1.1018686e-18)
(102.86181 6.0325783 -1.1010996e-18)
(103.23802 6.0867507 -1.1001952e-18)
(101.18354 5.5725912 3.0866272e-16)
(101.27886 5.8533581 0)
(101.53517 6.1218279 0)
(101.62617 6.3065365 3.0676344e-16)
(101.90371 6.546036 -3.1088238e-16)
(102.00284 6.811853 -3.0903398e-16)
(102.35465 6.9418558 6.1706563e-16)
(102.49386 7.3144809 -2.1435433e-18)
(102.90055 7.3695489 -6.1511296e-16)
(100.68585 8.21008 -1.3454507e-18)
(100.76608 8.6073346 0)
(101.05101 8.8756029 1.3397007e-18)
(101.09008 9.1678854 3.4031073e-16)
(101.4023 9.376928 -3.4236835e-16)
(101.49488 9.6695535 3.3975537e-16)
(101.8647 9.8493849 -3.4048882e-16)
(102.02613 10.134313 -1.3196665e-18)
(102.42923 10.297174 3.3648339e-16)
(98.229312 9.5642233 -3.8004264e-16)
(98.688685 10.100267 3.8504292e-16)
(99.152933 10.408551 -3.8104379e-16)
(99.62894 10.823684 3.7911742e-16)
(100.09776 11.023191 -3.718714e-16)
(100.60394 11.33789 2.8080339e-18)
(101.05769 11.449315 3.7410621e-16)
(101.56937 11.684034 2.8785469e-18)
(101.99638 11.673233 1.8268466e-16)
(97.071262 17.215162 0)
(97.674882 17.518166 -4.1679898e-16)
(98.4466 18.093734 6.5414542e-18)
(99.04666 18.207102 8.0387751e-18)
(99.844354 18.437176 8.1613191e-16)
(100.48106 18.122451 -4.062821e-16)
(101.39842 17.840269 -3.982272e-16)
(102.14561 16.932566 3.9984398e-16)
(103.12373 15.915585 1.9723865e-16)
(103.67081 14.524409 -2.3031395e-16)
(103.79608 13.254321 0)
(104.10548 12.391605 2.2500331e-16)
(103.73201 11.59357 -2.2505129e-16)
(103.46761 11.017861 0)
(102.55565 10.209419 0)
(102.00784 9.8155131 0)
(100.85785 9.096813 -2.3240287e-16)
(100.20493 8.9118027 2.3240351e-16)
(102.41024 11.801285 -2.0806054e-16)
(102.68549 11.790583 0)
(102.97692 11.799343 0)
(103.14845 11.671366 0)
(103.27028 11.613737 0)
(103.29468 11.488049 0)
(103.23327 11.451989 0)
(103.07519 11.361517 1.9761438e-16)
(102.91803 11.469204 -3.954853e-16)
(102.61173 10.535364 -2.9239141e-18)
(102.95991 10.741656 -3.6707944e-16)
(103.12655 10.923543 0)
(103.4602 11.082283 -1.7920671e-16)
(103.57702 11.234814 1.7920267e-16)
(103.85955 11.366853 0)
(103.93168 11.497384 0)
(104.14307 11.621566 0)
(104.14503 11.760374 0)
(103.03675 7.7733146 3.2995867e-16)
(103.46587 7.9083414 0)
(103.61433 8.2615528 1.6123249e-16)
(104.0375 8.4048009 -3.2120475e-16)
(104.15162 8.7341101 1.5995068e-16)
(104.56532 8.8745487 0)
(104.67238 9.2274366 0)
(105.07704 9.3637601 0)
(105.15494 9.7196413 1.535805e-16)
(103.37804 6.4668732 0)
(103.78165 6.5434411 2.9284364e-16)
(103.93942 6.9288011 -4.3820035e-16)
(104.36513 6.9941908 1.4533985e-16)
(104.53447 7.3890052 1.430454e-16)
(104.96864 7.4447646 -1.1944201e-18)
(105.14081 7.8436229 -2.8242881e-16)
(105.59438 7.903856 2.7992286e-16)
(105.76854 8.3277234 -1.3932647e-16)
(103.21437 4.392162 0)
(103.62055 4.4170821 1.3366297e-16)
(103.8362 4.8056508 -1.3366639e-16)
(104.27365 4.8086752 0)
(104.51615 5.2050282 -2.6122675e-16)
(104.97972 5.1908885 2.6122882e-16)
(105.24219 5.5960376 1.2831866e-16)
(105.73546 5.5716768 -2.5539891e-16)
(106.01846 5.9980724 1.270808e-16)
(102.79788 3.0674932 0)
(103.21141 3.0765769 0)
(103.43192 3.3922952 0)
(103.88291 3.4804466 -1.2155297e-16)
(104.15163 3.6615631 2.4217357e-16)
(104.57235 3.9313756 -2.4026363e-16)
(104.9738 3.9278235 1.1960967e-16)
(105.30397 4.3364165 -1.1747164e-16)
(105.84062 4.2924665 2.3384905e-16)
(102.31599 1.3722265 -2.3120674e-16)
(102.7354 1.3092554 7.189903e-19)
(102.98349 1.5188683 1.1455218e-16)
(103.48722 1.5360868 -1.129489e-16)
(103.7458 1.6405208 1.1294816e-16)
(104.2846 1.7480138 0)
(104.60759 1.7500898 1.1012832e-16)
(105.13435 1.9576126 -2.1919617e-16)
(105.58442 1.8335172 1.0905436e-16)
(101.34694 0.55741081 5.2434342e-19)
(101.66542 0.629393 1.087078e-16)
(101.9707 0.75502313 1.0755245e-16)
(102.3173 0.80771402 -1.0755246e-16)
(102.64823 0.91194752 0)
(103.02853 0.95832541 0)
(103.41873 1.0536736 -1.0466128e-16)
(103.86198 1.1192063 2.0843017e-16)
(104.3125 1.2081876 -1.0376886e-16)
(104.81508 1.2715095 0)
(105.32656 1.3683604 -1.0065784e-16)
(105.86902 1.4476868 1.188284e-18)
(106.45654 1.5167479 1.2665585e-18)
(107.05428 1.6083165 1.3474205e-18)
(107.68962 1.689349 9.6855572e-17)
(108.36552 1.7745039 9.3895388e-17)
(109.06133 1.8517104 -9.3895398e-17)
(109.81225 1.9346096 0)
(106.04394 2.1852431 0)
(106.62157 1.9606707 0)
(107.09574 2.3424626 -1.0417104e-16)
(107.69787 2.1256701 1.3921767e-18)
(108.22602 2.5501856 1.467072e-18)
(108.88961 2.2999102 1.0128919e-16)
(109.45028 2.7600416 9.8142689e-17)
(110.14032 2.5137839 -9.8149061e-17)
(110.81683 3.0067661 0)
(106.15297 4.7116638 -1.1633355e-16)
(106.72187 4.6691346 0)
(107.09126 5.140032 0)
(107.70866 5.0724244 -1.1105023e-16)
(108.0924 5.5825272 2.2058004e-16)
(108.77043 5.5182346 -1.5740965e-18)
(109.19169 6.0761987 -1.6462229e-18)
(109.92704 6.0063926 -1.0632809e-16)
(110.38404 6.6259474 0)
(106.54923 5.9683055 -1.2446143e-16)
(106.84778 6.4209578 1.2446037e-16)
(107.42225 6.3970186 0)
(107.73009 6.885566 0)
(108.3468 6.873285 1.1854493e-16)
(108.66231 7.4069028 -1.1854195e-16)
(109.33389 7.4167642 1.1523014e-16)
(109.66198 8.0136315 -5.8492013e-17)
(110.39847 8.0446141 -5.6729054e-17)
(106.25161 8.404941 -1.3667368e-16)
(106.41895 8.8565053 1.3666355e-16)
(106.9351 8.9622785 0)
(107.09111 9.4559612 0)
(107.64245 9.6004485 0)
(107.7828 10.145131 0)
(108.37655 10.334257 0)
(108.50816 10.954817 0)
(109.16581 11.193084 0)
(105.55769 9.8891658 -1.5358281e-16)
(105.60766 10.282511 1.5105764e-16)
(106.01335 10.488142 -1.5106118e-16)
(106.02327 10.917751 1.4849922e-16)
(106.4505 11.18872 -1.4847197e-16)
(106.41668 11.682685 0)
(106.87225 12.032572 0)
(106.79147 12.622061 0)
(107.3054 13.05173 0)
(104.2964 11.936461 0)
(104.2094 12.116604 -1.7143968e-16)
(104.32364 12.387087 1.7140413e-16)
(104.12882 12.633817 0)
(104.24211 13.010416 1.6931633e-16)
(103.94213 13.349557 -1.6933859e-16)
(104.08614 13.852231 0)
(103.67875 14.319207 8.3730423e-17)
(103.88669 14.962211 -1.6713912e-16)
(102.632 11.409392 1.9781197e-16)
(102.34113 11.661044 1.9811474e-16)
(101.97731 11.678082 -1.9819654e-16)
(101.50615 12.062281 1.9894532e-16)
(101.10703 12.207946 -3.9846197e-16)
(100.50242 12.753648 3.9969242e-16)
(100.04811 13.013335 -4.0116226e-16)
(99.301078 13.73826 2.0096444e-16)
(98.852616 14.177921 0)
(98.974411 8.3520948 -2.3730095e-16)
(98.246158 8.3955884 2.3728429e-16)
(96.917847 7.9917092 0)
(96.136255 8.2366794 0)
(94.717073 7.9382307 0)
(93.911917 8.3754019 0)
(92.355396 8.2196986 0)
(91.523619 8.9183852 -1.2863275e-16)
(89.768616 8.961764 1.2863006e-16)
(88.940709 10.00913 1.3192767e-16)
(97.950047 15.098297 0)
(103.38315 15.600661 8.3415972e-17)
(107.19159 13.764016 0)
(109.29814 11.913687 0)
(110.74852 8.7201423 0)
(111.19483 6.5529448 5.0435771e-17)
(111.50823 2.7872226 4.6385201e-17)
(110.57269 2.0415529 4.4365944e-17)
(86.955385 10.301795 -1.3192107e-16)
(97.527709 15.737809 0)
(103.69544 16.389595 0)
(107.79224 14.276257 6.9364994e-17)
(110.04084 12.197084 0)
(111.56665 8.772154 -5.3828209e-17)
(111.71011 7.2430841 -9.9874835e-17)
(112.25966 3.3044097 -9.1779414e-17)
(111.40971 2.118592 -8.7765681e-17)
(86.188939 11.786027 0)
(96.492057 16.887223 0)
(103.12399 17.247139 8.2200814e-17)
(107.65831 15.142572 -6.9365494e-17)
(110.19087 13.038081 0)
(111.95342 9.5432132 5.3828066e-17)
(112.56986 7.162319 4.9435092e-17)
(113.04381 3.0794544 4.5394447e-17)
(112.25278 2.2117082 4.3399732e-17)
(83.994598 12.410992 1.3709314e-16)
(96.17945 17.778519 0)
(103.5606 18.155623 -1.6386381e-16)
(108.37995 15.730538 0)
(111.04232 13.358306 0)
(112.86588 9.604481 -5.1624629e-17)
(113.20221 7.9213321 -4.7261718e-17)
(113.83418 3.6878596 0)
(113.17565 2.3050751 -4.1294384e-17)
(83.151353 14.553934 -1.3709392e-16)
(95.047336 19.236882 -1.0311498e-16)
(102.97624 19.317508 8.1656977e-17)
(108.25614 16.785359 0)
(111.23206 14.338014 0)
(113.31316 10.48237 5.1625182e-17)
(114.07968 7.8418704 4.7264887e-17)
(114.71017 3.4318933 0)
(114.10785 2.4117644 4.1294381e-17)
(81.00754 15.718586 0)
(94.856969 20.365107 1.031085e-16)
(103.54606 20.318492 -8.023218e-17)
(109.12698 17.42695 0)
(112.21517 14.679429 0)
(114.33901 10.536071 -4.9145793e-17)
(114.87066 8.6416701 -4.4851804e-17)
(115.59196 4.103646 0)
(115.12051 2.5004118 -3.8950014e-17)
(80.067317 18.805685 0)
(93.704368 22.243911 0)
(103.02198 21.833972 8.0232092e-17)
(109.07554 18.706711 -3.2109526e-17)
(112.47719 15.81386 -2.7315218e-17)
(114.87208 11.498102 7.3053428e-17)
(115.76368 8.5920901 6.6626592e-17)
(116.50245 3.8536098 0)
(116.14515 2.6062228 5.7793835e-17)
(78.176898 20.714016 0)
(93.75463 23.616305 -5.1318674e-17)
(103.77574 22.910804 0)
(110.10218 19.36508 3.2091392e-17)
(113.6096 16.149043 2.7300696e-17)
(115.99861 11.638062 -7.3003229e-19)
(116.70068 9.3581686 -4.2856136e-17)
(117.54126 4.5522096 0)
(117.24928 2.6869232 -1.8843821e-17)
(77.439397 25.053857 -7.0966395e-17)
(92.689412 26.109591 5.1306128e-17)
(103.39017 24.937675 0)
(110.22676 21.032869 0)
(114.02811 17.552116 0)
(116.6901 12.533188 -4.5552434e-17)
(117.70536 9.401308 7.3078231e-19)
(118.47179 4.3324964 0)
(118.34207 2.7904406 0)
(119.79997 2.8577093 0)
(119.6472 5.0245144 0)
(118.72449 10.079953 -4.6726014e-19)
(117.95009 12.691719 2.3472103e-17)
(115.24526 17.651807 0)
(111.43088 21.408632 -3.9066595e-18)
(104.51579 25.809902 -6.6028066e-19)
(93.388153 27.499956 -4.1980574e-17)
(76.472424 27.849665 1.316302e-16)
(121.10359 2.8708714 -8.1099477e-18)
(120.63284 4.6484865 -1.1092412e-18)
(119.9177 9.9675527 1.0242748e-17)
(118.78937 13.508701 -4.671925e-20)
(116.12821 18.845 -1.0422069e-17)
(112.11704 23.000518 1.4127409e-17)
(104.86271 28.019641 -4.9354642e-18)
(93.39924 30.533515 5.4014217e-17)
(77.033639 33.185697 -6.6664182e-17)
(122.3823 2.8663284 1.5970673e-17)
(121.92082 5.3092288 0)
(121.10276 10.58976 1.8632763e-17)
(120.21028 13.488534 -9.992056e-18)
(117.54149 18.991647 1.0539394e-17)
(113.60891 23.255926 -2.6394704e-17)
(106.72359 28.619366 -2.2112324e-17)
(95.686782 31.518695 1.192064e-17)
(80.062196 34.828704 1.6871498e-18)
(123.7688 2.8658371 -7.8730217e-18)
(122.97892 4.8476526 -1.0314514e-18)
(122.41426 10.488977 -8.0949101e-18)
(121.35071 14.195782 1.1399512e-17)
(118.70496 20.046108 4.1550844e-18)
(114.84788 24.895014 1.3951144e-17)
(107.73267 30.993448 1.7589815e-17)
(96.433799 34.526657 6.3507338e-18)
(80.971417 39.059958 -7.2736579e-18)
(125.20624 2.8602294 1.7634927e-18)
(124.47216 5.4788347 -1.9001123e-18)
(123.73238 10.927945 -1.0824596e-18)
(122.7762 14.231458 3.4698896e-18)
(120.43649 20.144734 -4.2002569e-18)
(116.57244 25.014906 -4.7437528e-18)
(109.92251 31.311907 -4.5724371e-18)
(99.174395 35.21009 5.1626099e-18)
(83.910204 40.318548 -8.7255885e-18)
(126.67221 2.8472925 -1.7832208e-18)
(125.51088 5.0614837 1.9230746e-18)
(125.17343 10.780225 -1.0302185e-18)
(124.14585 14.740915 -4.9593887e-20)
(121.71884 21.078299 -1.2683666e-18)
(118.14254 26.490706 3.2254824e-18)
(111.27202 33.668047 -4.4099067e-18)
(100.22326 38.199426 4.9914826e-18)
(84.728584 44.041682 0)
(128.15201 2.8098587 -1.5617582e-18)
(127.14999 5.5936865 -8.8878551e-19)
(126.54741 11.116396 -9.0135908e-19)
(125.72056 14.628121 -1.0945435e-18)
(123.66162 20.988568 -1.1632074e-18)
(120.01373 26.464329 3.1795174e-18)
(113.60039 33.72002 -7.782105e-18)
(103.04642 38.620171 1.0666552e-17)
(87.852187 44.826943 -6.7875076e-18)
(129.64609 2.7509461 4.4877172e-18)
(128.28265 5.1857166 3.1925065e-18)
(128.14034 10.906977 4.4551084e-18)
(127.17439 15.200481 4.8277128e-18)
(125.14645 21.811632 3.6033951e-18)
(121.86866 27.810792 -1.3329401e-18)
(115.30937 36.016691 -4.0188236e-18)
(104.4718 41.578564 -1.0965684e-18)
(88.96853 48.219195 -7.5538044e-18)
(131.14137 2.6641168 -8.3124991e-18)
(129.94167 5.5878062 -3.232327e-18)
(129.54403 11.049161 -1.0834555e-17)
(128.87859 14.840702 -2.9642329e-18)
(127.15211 21.566212 6.9875768e-18)
(123.88652 27.606106 4.0166111e-18)
(117.74799 35.754244 -1.9630924e-17)
(107.47748 41.694157 4.3170377e-18)
(92.217371 48.626452 1.4509241e-17)
(93.611743 51.831165 -1.3673459e-17)
(109.25879 44.555271 5.186658e-18)
(119.90039 37.934948 2.7460489e-17)
(125.98151 28.697664 -3.6787921e-18)
(128.86334 22.09949 1.091604e-18)
(130.42371 15.169198 4.7614011e-18)
(131.17424 10.709576 7.3272163e-18)
(131.1097 5.1254799 -3.5577995e-19)
(132.62673 2.5552117 1.0671484e-17)
(96.882196 51.942605 5.0546782e-17)
(112.56236 44.447807 3.6968965e-18)
(122.4633 37.261841 -3.5807153e-17)
(128.18263 28.203163 -1.0168093e-18)
(130.91002 21.582438 -6.5604647e-18)
(132.09862 14.710785 -5.8068636e-18)
(132.60514 10.74682 -1.1469748e-17)
(132.78793 5.4621663 0)
(134.09423 2.4170079 -4.9698997e-18)
(98.57732 55.050664 -6.4477462e-17)
(114.65131 47.121509 3.6311694e-17)
(125.03985 39.213864 1.8290591e-17)
(130.47497 28.995974 -8.9458208e-19)
(132.75333 21.895899 1.145163e-17)
(133.7977 14.736652 -5.8609875e-22)
(134.23679 10.211605 2.5530125e-18)
(133.9571 4.9370994 8.4309881e-18)
(135.52699 2.2602548 7.952741e-18)
(101.94272 54.868477 -1.1742012e-17)
(118.31151 46.858248 2.8563338e-18)
(127.72279 38.141858 -2.5209439e-18)
(132.79838 28.136263 0)
(134.81699 21.055672 -1.1618499e-17)
(135.44013 14.155754 0)
(135.61424 10.083885 9.2006356e-18)
(135.5233 5.1089251 -1.6665163e-17)
(136.90502 2.0800942 -1.0254779e-18)
(104.04062 57.981144 -4.527987e-18)
(120.73634 49.265742 -2.4143243e-17)
(130.64552 39.72969 2.1144271e-18)
(135.21338 28.550534 0)
(136.73157 21.087302 -8.4226499e-18)
(137.05954 13.922109 7.5902289e-18)
(137.16153 9.4585171 4.8827264e-19)
(136.6762 4.5992269 1.5243886e-17)
(138.21928 1.8819057 -7.1082684e-18)
(107.55207 57.448831 -4.411141e-17)
(124.7336 48.748602 -1.4432854e-17)
(133.48841 38.245022 -4.8283408e-19)
(137.60503 27.341587 -1.0387295e-18)
(138.66504 19.953812 1.5306051e-18)
(138.70539 13.113582 -1.3996872e-17)
(138.49318 9.0605238 4.1219106e-19)
(138.14388 4.5916361 -7.1798785e-18)
(139.45328 1.6674341 0)
(110.2091 60.582141 3.0434042e-17)
(127.51197 50.732125 2.1020054e-17)
(136.6026 39.343136 -4.0690433e-19)
(140.0384 27.329267 -6.7418283e-19)
(140.59578 19.601559 5.7637092e-18)
(140.18364 12.564913 6.6396978e-18)
(139.86667 8.3669854 3.7403845e-19)
(139.12641 4.0882459 -3.4272256e-19)
(140.59755 1.4446658 0)
(113.92693 59.59096 0)
(131.91078 49.830871 -7.5591411e-19)
(139.60259 37.311344 6.4465448e-19)
(142.37082 25.63795 -1.7780479e-18)
(142.37255 18.162754 -1.6545555e-19)
(141.66887 11.572736 6.7383135e-18)
(141.02884 7.7738069 -7.9941364e-18)
(140.47422 3.9429697 8.7005944e-18)
(141.63989 1.2147889 7.2542049e-18)
(117.39658 62.74102 4.3174846e-17)
(134.98065 51.252331 7.1112633e-19)
(142.73856 37.701819 -6.7556714e-20)
(144.72495 25.16864 2.0060516e-18)
(144.07984 17.478877 -1.4323428e-19)
(142.93089 10.869372 -7.0197675e-18)
(142.21091 6.996689 8.6337884e-18)
(141.28272 3.4369492 -9.049785e-18)
(142.57422 0.98849119 -1.4982215e-18)
(143.40013 0.76854215 -5.8251055e-18)
(142.39649 3.1936862 5.4216412e-18)
(143.16872 6.2511707 0)
(144.26839 9.6681352 -7.1603074e-20)
(145.7181 15.693192 -2.341281e-18)
(146.89302 22.960712 -8.3446646e-18)
(145.92227 34.883323 0)
(140.11552 49.717388 -1.3750449e-17)
(121.71758 60.959168 -4.1968056e-17)
(144.11806 0.56623964 0)
(143.04033 2.6694159 -5.6164503e-18)
(144.08918 5.3983542 0)
(145.238 8.6611081 9.2874495e-20)
(147.1315 14.492205 7.9224834e-18)
(149.17322 21.688555 9.4519861e-18)
(149.2399 34.087199 -2.4011022e-17)
(144.13508 50.183102 1.5102854e-17)
(127.5377 64.447224 2.0635743e-18)
(144.72709 0.38922644 0)
(143.87988 2.3812158 0)
(144.81025 4.5663671 -1.5017966e-18)
(146.18261 7.2622893 0)
(148.41072 12.361507 -5.6825488e-18)
(150.90724 18.882044 1.790174e-17)
(152.31086 30.247904 2.1819743e-17)
(149.98808 47.302317 2.2061757e-18)
(132.81451 61.207912 -2.3970121e-17)
(145.23977 0.24351871 0)
(144.30293 1.9730389 0)
(145.35229 3.7964709 1.5329584e-18)
(146.80235 6.2462267 -3.0475161e-18)
(149.34336 11.061815 -1.0257168e-17)
(152.61879 17.229876 -1.9393401e-17)
(155.03349 28.458739 0)
(153.94231 46.409686 -6.2647749e-17)
(140.7883 63.816606 1.8994414e-17)
(145.66923 0.1335645 2.6728448e-20)
(144.8834 1.6928699 -2.9338119e-20)
(145.83269 2.98622 0)
(147.25179 4.8450477 -1.0101108e-18)
(150.12465 8.7539691 2.4697755e-17)
(153.75372 14.101379 -1.1870919e-18)
(157.40551 23.820783 -4.5261986e-17)
(159.29888 42.062932 6.8961875e-17)
(146.61808 59.060493 -8.6739783e-17)
(146.03742 0.061897433 -1.9654825e-20)
(145.10199 1.4362629 2.16051e-20)
(146.04226 2.3833643 0)
(147.53728 4.0071536 5.1551625e-18)
(150.4484 7.5172532 -1.4771324e-17)
(154.72295 12.335492 1.3496187e-18)
(159.14461 21.277222 4.681419e-17)
(162.36373 39.685117 0)
(157.27542 59.842322 8.741189e-17)
(146.36932 0.02819315 1.5452369e-20)
(145.47766 1.2657166 9.1560606e-19)
(146.26141 1.7061649 9.6420834e-20)
(147.55269 2.7598074 -4.9518346e-18)
(150.73932 5.280693 -1.5456931e-17)
(155.15664 9.2227095 0)
(160.4443 16.366154 0)
(165.9358 33.657069 1.019677e-16)
(163.281 53.492174 0)
(146.69415 0.031037865 0)
(145.56441 1.1787953 -9.5174876e-19)
(146.26806 1.3621735 0)
(147.45621 2.2187855 6.1700582e-18)
(150.42363 4.2321606 1.4526582e-17)
(155.38112 7.7058185 -3.1885494e-17)
(160.85227 13.9995 0)
(167.02557 29.724486 -1.1481605e-16)
(175.57368 52.035539 2.4159789e-16)
(147.07984 -0.043942508 0)
(145.7961 1.1541669 0)
(146.29088 0.92011419 9.1070945e-20)
(147.12347 1.1686897 4.8782522e-19)
(150.21296 1.9690322 -6.6293414e-19)
(155.23214 4.4551891 3.2912828e-17)
(161.224 8.6751742 0)
(167.76142 19.544126 0)
(177.6716 41.395261 -2.4346004e-16)
(147.03237 0.05346839 -3.0465319e-20)
(145.80956 1.2801761 2.6188704e-20)
(146.18763 0.88079346 -6.9215497e-19)
(146.77374 1.1170552 0)
(149.62443 1.5273021 0)
(155.2438 3.8948681 2.4171385e-18)
(161.79614 9.1727418 5.5031292e-17)
(167.5005 22.079735 -2.287029e-18)
(187.76853 43.854245 0)
(148.05323 0.054879835 -3.2141075e-20)
(145.96251 1.5647493 2.0706783e-20)
(146.17046 0.83788715 6.8907895e-19)
(146.34898 0.79841969 0)
(149.35875 0.78737654 0)
(156.01276 3.4134468 -2.5729262e-18)
(163.64022 8.7372447 -1.7740596e-16)
(171.44645 24.765227 2.5066433e-18)
(184.1479 41.767731 -5.0686252e-16)
(148.21627 0.19847033 0)
(146.0045 1.8328643 3.765328e-18)
(146.1646 0.82531196 0)
(146.25248 0.56853132 -4.9382163e-19)
(149.497 -0.032233519 5.3937584e-19)
(156.83398 1.7600774 2.8505611e-18)
(166.44297 8.1203834 2.5760567e-16)
(172.88686 23.272223 -2.8781269e-18)
(170.70128 42.672994 4.8267858e-16)
(149.40816 0.40101779 4.6994878e-19)
(146.32406 2.3252844 -3.6106255e-18)
(146.08118 0.83606671 1.2347576e-19)
(146.02369 0.043568636 -6.0765934e-18)
(149.42379 -1.4346868 2.9028755e-17)
(157.8713 0.57898613 -7.0307643e-17)
(169.33349 6.0820557 -1.3887064e-16)
(172.44417 21.87665 -2.6205988e-16)
(152.40084 52.411983 0)
(149.78907 0.58055138 -4.3639955e-19)
(146.46341 2.7292027 4.9046861e-18)
(145.99815 0.97029441 -1.2009109e-19)
(145.7456 -0.025988306 1.1686006e-18)
(149.49082 -2.3048218 -2.8011457e-17)
(158.59012 -1.6930011 -3.1807326e-18)
(170.46175 4.551346 0)
(171.24466 23.022995 2.4885033e-16)
(120.80501 74.098986 0)
(151.16279 0.85214459 -9.7331389e-19)
(146.99405 3.5362586 -4.7227089e-18)
(145.67603 1.1496921 2.3224795e-18)
(145.09807 -0.39488009 4.5640672e-18)
(148.97215 -3.9181624 1.4648912e-18)
(158.7783 -2.9633255 6.9069913e-17)
(171.82442 2.6794104 -1.6828758e-16)
(168.48309 24.97534 -3.1615988e-16)
(95.308671 84.007437 3.5266395e-16)
(151.97953 0.99150079 8.3044063e-19)
(147.23708 4.1397663 9.8813106e-20)
(145.67902 1.5362727 -2.3506921e-18)
(144.66252 -0.14391822 -3.9520064e-19)
(148.62749 -4.6988062 4.2661831e-19)
(159.23323 -5.3841937 7.4892247e-17)
(170.7123 0.66984373 3.4508748e-16)
(161.53579 24.540286 3.001033e-16)
(34.462065 38.925618 -3.342817e-16)
(153.63297 1.2798208 -2.4585008e-20)
(148.09268 5.3019759 2.6096656e-20)
(145.19686 1.9908759 4.9732587e-18)
(143.61409 -0.27582346 1.9424305e-18)
(147.70829 -6.3708917 2.2905096e-17)
(159.15312 -6.4923151 -1.4620009e-16)
(169.42725 -2.0849826 -3.6211236e-16)
(147.12906 21.299602 -3.1997574e-16)
(-4.2964708 10.922459 3.4983139e-16)
(154.99285 1.4463121 -5.1862988e-18)
(148.48974 6.0517626 -8.9425257e-20)
(145.34876 2.5658154 1.5735924e-18)
(143.17219 0.24534281 -1.884207e-18)
(147.1572 -6.9902025 -2.0766991e-17)
(158.93093 -8.9782541 7.3984759e-17)
(165.28935 -5.6058196 1.8153307e-16)
(124.81764 21.265358 3.041879e-16)
(-7.5535136 26.569655 -3.3335843e-16)
(-13.869087 28.516889 -5.5979796e-16)
(112.43473 18.448468 -3.6320229e-18)
(161.85511 -7.3208695 2.9410767e-18)
(156.76318 -10.264106 -2.5066857e-18)
(145.82649 -8.4927993 0)
(141.86461 0.40962787 -1.1714839e-19)
(144.84689 3.4702644 -1.4638201e-17)
(149.76665 7.4145515 -6.2472985e-18)
(156.81111 1.6412532 1.2423547e-17)
(-17.539793 30.870499 5.4292207e-16)
(105.63359 15.067858 0)
(159.77578 -12.011294 0)
(155.92567 -13.653116 1.7092599e-16)
(145.03252 -8.9381036 0)
(141.57373 1.4005261 2.3465578e-17)
(145.38584 4.3244391 2.7158852e-17)
(150.58361 8.3845937 5.9488796e-18)
(158.68745 1.7684251 1.202585e-17)
(-21.846032 31.889322 4.3670206e-18)
(94.76153 13.727094 -3.5187902e-18)
(155.44928 -12.699873 0)
(152.93085 -14.29488 -1.6724185e-16)
(143.17461 -9.9063839 0)
(140.0808 2.0253964 -2.3214372e-17)
(144.9005 5.679937 -1.8460011e-17)
(152.36335 9.8188232 -8.362149e-20)
(160.65708 1.7954722 -1.897122e-17)
(-26.334185 32.184669 1.0113849e-15)
(87.753244 10.499794 -9.6688659e-16)
(152.30938 -17.026633 5.2066063e-18)
(151.44638 -17.773009 0)
(141.90672 -9.8416673 -1.3859591e-17)
(139.99109 3.3891048 0)
(145.84035 6.7027799 1.1608977e-19)
(153.58535 10.832286 -6.2721172e-20)
(162.95587 1.9020324 -3.9699164e-20)
(-31.483513 32.015429 -9.7165964e-16)
(76.348311 9.4497973 -2.5617199e-17)
(147.20072 -17.24696 5.255931e-16)
(147.7723 -18.17897 -2.3537708e-18)
(139.69714 -10.352309 1.1505561e-17)
(138.31471 4.5485072 0)
(145.51509 8.5763021 2.365264e-17)
(155.86572 12.279914 0)
(165.11316 1.7184409 0)
(-36.736852 32.52927 4.0409211e-18)
(70.013055 5.2440929 9.194438e-16)
(143.55875 -21.752884 -1.0119622e-15)
(145.83005 -21.818853 1.3609964e-16)
(137.65155 -10.127416 2.0584031e-18)
(138.56429 6.221658 -5.0570668e-17)
(146.95126 9.658357 -2.2957249e-17)
(157.52061 13.250484 6.6433922e-21)
(167.674 1.7596198 -4.3784789e-17)
(-39.831878 31.302944 3.9275779e-18)
(57.884057 4.7516677 -9.2820435e-16)
(138.02305 -21.764783 4.9972891e-16)
(141.59112 -22.298427 -1.3335347e-16)
(135.59095 -10.148772 -2.8886296e-19)