/*--------------------------------*- C++ -*----------------------------------*\
  =========                 |
  \\      /  F ield         | OpenFOAM: The Open Source CFD Toolbox
   \\    /   O peration     | Website:  https://openfoam.org
    \\  /    A nd           | Version:  11
     \\/     M anipulation  |
\*---------------------------------------------------------------------------*/
FoamFile
{
    format      ascii;
    class       volScalarField;
    location    "0.13";
    object      Ma;
}
// * * * * * * * * * * * * * * * * * * * * * * * * * * * * * * * * * * * * * //

dimensions      [0 0 0 0 0 0 0];

internalField   nonuniform List<scalar> 
880
(
1.11801663592382
1.118016635923169
1.118016433089323
1.117961338668593
1.11801663592382
1.118016635920077
1.118015883669181
1.117655136218595
1.11801663592382
1.118016635938149
1.118012811370649
1.116608285683843
1.118016635923821
1.11801663531669
1.117993758682592
1.110210982152698
1.118016635923557
1.118016635922803
1.11801663589442
1.118016633235678
1.118016637121938
1.118016634896257
1.11801663723156
1.118016172968165
1.117891963367601
1.117758364720944
1.117541014018659
1.118067589198132
1.087230936183901
1.063289176337367
1.054218434096908
1.051900644326237
1.118016579989504
1.118016107199052
1.118014298413971
1.118014184825972
1.118011109800967
1.117998874460908
1.117989498575932
1.117987878017641
1.116111074742846
1.114769522294045
1.114074913278187
1.11390363482715
1.050511781604025
1.045322751309705
1.047496092587728
1.04920323894846
1.093731839850552
1.115581791238459
1.125587193807317
1.135608334757309
1.109349163756837
1.109503542262182
1.113807674756614
1.117909569022088
1.117896727629758
1.117742396978099
1.117751546294876
1.117911781729693
1.118009456118922
1.117998819869666
1.117981435370219
1.117971674723437
1.117972688940605
1.117981600813631
1.117996002517448
1.118008663023839
1.1180218474347
1.118100578808555
1.118118089611674
1.118078510946424
1.120218373966561
1.12150086236925
1.12158656693641
1.120722634003728
1.141033066543141
1.141555279568836
1.139259614920802
1.135470401079434
1.131007528170902
1.119434998841585
1.118035862933811
1.118014851566936
1.125798918167596
1.118511411737058
1.118019536172084
1.118016441091994
1.115577773547223
1.118039904642929
1.118016702005378
1.118016625348397
1.036485260062622
1.116606981283377
1.118011984170376
1.118016518914751
1.118016055462865
1.117979365709853
1.109038193210766
0.8307059060486294
1.118012836302101
1.117915306963263
1.101141690008972
0.8155732766080713
1.118009181410856
1.117744450023271
1.089443817449074
0.7969821096292045
1.117988611543448
1.117563924883964
1.078285134415093
0.8016498732340249
0.8066955370777429
1.064979624773937
1.117181518871414
1.117975658164457
0.8162519994493354
1.055363346290474
1.116928954119463
1.117921431459948
0.8219367008586098
1.042025462516317
1.116292572045158
1.117901751486041
0.8289653127464116
1.02997633148125
1.11569590253584
1.117803754653141
1.117741095211239
1.114336635747327
1.01333845958205
0.8470497022052152
1.117541699215293
1.11380264252053
1.026784600427191
0.8953335560101394
1.117721358112542
1.115168491470061
1.064433204485058
0.9842184612681205
1.117422095847622
1.116445609814874
1.101688412493313
1.085671537014052
1.117490519760398
1.117200190805978
1.137302343419191
1.258495727951594
1.117499637679328
1.122710592815579
1.152129550659417
1.317618468614248
1.117913946391209
1.121572041979905
1.142854667983559
1.222730503296341
1.118039859356464
1.118882726493186
1.119701506754456
0.9988741803954836
0.8788749949384344
1.101709234335412
1.117807873130725
1.118030789349
0.8085475148221667
1.085854499959302
1.117092502550763
1.118006663727445
0.7678687698639628
1.076070595483554
1.116857531985804
1.118014525272722
0.7178691753273605
1.067157394408247
1.116505348688136
1.118009141416575
0.7780795567936807
1.079446928074054
1.117122225157368
1.118013616660922
0.8808149209099376
1.094211618615756
1.117636495287342
1.118015427663521
0.9747938480263584
1.105754587335908
1.11788306197461
1.118016316448801
1.040312403575933
1.113097279578904
1.117998819820602
1.118016599004322
1.003646265818104
1.109113622693181
1.117734396460534
1.118013558417446
1.012844515304007
1.109678270304499
1.117748820670889
1.118013648920837
1.011956453467985
1.109533631063439
1.11776181283751
1.118013818493291
1.010801614448797
1.110109672162943
1.11779834971521
1.11801429919492
1.040312403576412
1.113097279581202
1.117998819823729
1.118016599007302
0.9747938480266337
1.1057545873384
1.11788306197676
1.118016316450077
0.8808149209102686
1.094211618617495
1.117636495287715
1.118015427664273
0.7780795567925468
1.079446928075689
1.117122225156479
1.118013616660752
1.118030789347511
1.117807873129537
1.101709234333326
0.8788749949372998
1.118006663726481
1.117092502550859
1.085854499957711
0.8085475148205246
1.11801452527204
1.116857531986311
1.076070595485251
0.7678687698624383
1.118009141416284
1.116505348686152
1.067157394409234
0.7178691753262658
0.9988741803934115
1.11970150675408
1.118882726494323
1.118039859356825
1.222730503294589
1.142854667983898
1.121572041979179
1.117913946391348
1.31761846861426
1.152129550659407
1.122710592815265
1.117499637678189
1.258495727951504
1.137302343420826
1.117200190807998
1.117490519758848
1.117741095212776
1.114336635740813
1.013338459578476
0.8470497022054148
1.117541699215208
1.113802642518394
1.02678460042473
0.8953335560096995
1.117721358109853
1.115168491468198
1.064433204485034
0.9842184612686066
1.117422095851823
1.116445609815842
1.101688412493488
1.085671537014032
0.8289653127471097
1.029976331481516
1.115695902544466
1.11780375464714
0.8219367008579103
1.042025462514686
1.116292572035617
1.117901751487381
0.8162519994495446
1.055363346290691
1.116928954126625
1.117921431458816
0.8066955370777833
1.064979624772732
1.117181518868187
1.117975658164251
1.118016055462505
1.11797936570853
1.10903819320952
0.8307059060468792
1.118012836299205
1.117915306962857
1.101141690014116
0.8155732766100808
1.118009181407828
1.117744450021245
1.089443817446268
0.7969821096301254
1.117988611543274
1.11756392488638
1.078285134417486
0.8016498732343919
1.118016518914644
1.118016625348749
1.118016441090912
1.118014851567051
1.118011984173321
1.11801670200666
1.118019536173136
1.118035862934291
1.116606981284839
1.11803990464224
1.118511411737987
1.119434998842386
1.036485260063797
1.115577773546891
1.12579891816713
1.131007528171085
1.118008663023134
1.118078510945381
1.120722634002985
1.135470401078975
1.117996002518024
1.118118089610107
1.121586566936403
1.139259614920493
1.117981600813623
1.118100578807985
1.121500862370431
1.141555279570627
1.11797268894174
1.118021847435229
1.120218373966106
1.141033066543878
1.11800945611884
1.11789672763159
1.109349163756627
1.093731839849288
1.117998819871654
1.117742396977778
1.109503542261282
1.115581791238381
1.117981435368681
1.117751546296319
1.113807674757603
1.125587193808668
1.117971674724064
1.11791178173022
1.117909569021908
1.13560833475851
1.049203238948998
1.113903634827
1.11798787801946
1.118014184824932
1.047496092588727
1.114074913276912
1.117989498578548
1.118014298414244
1.045322751309787
1.114769522293603
1.11799887446385
1.118016107199417
1.050511781604496
1.116111074743308
1.118011109802342
1.1180165799874
1.051900644326907
1.118067589195921
1.118016172968369
1.118016633234543
1.0542184340976
1.117541014020507
1.118016637232913
1.118016635894409
1.06328917633812
1.117758364721914
1.118016634898286
1.118016635922795
1.08723093618483
1.117891963368368
1.1180166371206
1.118016635923615
1.118016635923821
1.118016635923156
1.11801643308864
1.117961338667592
1.11801663592382
1.11801663592076
1.118015883669006
1.117655136219583
1.11801663592382
1.118016635938713
1.118012811370666
1.116608285683845
1.11801663592382
1.118016635318766
1.117993758683331
1.110210982153329
1.117821861817065
1.117133561656529
1.113538348472679
1.091859061250946
1.117133561655252
1.114679118787236
1.101447052546251
1.049415800524328
1.11353834847248
1.101447052546447
1.055338861948965
0.9545743778109893
1.091859061251305
1.04941580052502
0.9545743778100868
0.8323302341480795
0.7929809482219868
0.8376851460881545
0.9224734649375114
0.9998656556677475
0.8481259285136808
0.860484778773887
0.8998905391121212
0.9554093635825319
0.8781929578255809
0.8924412216193793
0.9269641433097379
0.9623399147473541
0.9124666503483015
0.9203314940225006
0.9439629581469516
0.9673342919986031
0.9811833097198808
0.990761006120771
0.9978649586760381
1.013095707552045
0.9677643192245636
0.988960264063305
0.9980845005209367
1.036406729610843
0.9482616470845862
0.98000381537893
0.9949693774645724
1.098931158523356
0.9292978623942652
0.9354392082576158
0.9456474853410242
1.181937024329893
1.205406605048287
1.213026568896266
1.175800917822972
1.164785877142666
1.294144426685444
1.289260639475208
1.229003407577982
1.196668331203935
1.435070459462719
1.338075346790032
1.256798956384471
1.213837808449435
1.162480828080255
1.057070592790378
1.029223981271989
1.033413880363586
1.160275575292255
1.154172115127889
1.14769047097709
1.141173873064794
1.180177455865322
1.167664525604246
1.15734554999489
1.149033858595488
1.190399534306552
1.175244798812764
1.163780371263039
1.154885493658733
1.047564559946292
1.066415459344725
1.083747805957601
1.100214364617621
1.137626248867182
1.130933246582363
1.074720309838914
0.8013250243335888
1.143920424387949
1.134900737722176
1.031222239949409
0.6467428834531518
1.148908310003521
1.138024891037932
0.9546745744310987
0.4855086338274989
1.111455475736519
1.119352077660587
0.8054949557318825
0.23647111204401
0.593355667005123
0.6530924804422055
0.6881445903245803
0.7281859940053516
0.5394891689056552
0.6324723735907377
0.6853598738376306
0.7290789897257171
0.4273857905590224
0.5661538212132311
0.6555334691829866
0.7162782327956881
0.2110992624114677
0.3537534855167688
0.4998861381632539
0.6037410765236215
0.7502591760919152
0.7589422567325271
0.7616109091873632
0.7691820641309829
0.7488275241678477
0.7575300184782535
0.7620315815096825
0.771473168344064
0.7453513355385086
0.7558693568666059
0.7618805711870337
0.7720064329405911
0.678507282381418
0.7148195720704797
0.7320557456860585
0.7392976881296074
0.7874334875665453
0.8397855582804867
0.9305236768971039
1.045921375815262
0.7917600117963765
0.8386910890446443
0.9242788896402473
1.076104054399053
0.7931557011300309
0.8306443250544319
0.9413511178581974
1.366828674147987
0.7696940881825532
0.807644388014457
0.9618680430581725
1.90321733996009
1.253699901085764
1.476037152163779
0.5372464648246923
0.2259464394636904
1.334626317082824
1.22344337900942
0.240082217476531
0.1462293962367087
1.41879038255385
0.877024782634155
0.1715483852149606
0.1683032153038699
1.137533588486052
0.3712124298772591
0.1976419867599706
0.1391394506481094
0.1358906168631742
0.09627382251383336
0.07637965064116044
0.04926118844019695
0.08016574022593281
0.03729030116869673
0.03807498725591062
0.07020930300554445
0.11388172369229
0.09280387952632783
0.1021376792429419
0.1198663198069601
0.1067756119636198
0.1019612297887972
0.1272795898413784
0.1283463312685023
0.3242230671460001
0.6636106766572412
0.8922842924751153
1.095903138804526
0.1406347541875439
0.4807038251530908
0.7633910848533533
1.007672269086846
0.08039204415493513
0.2469663921472883
0.5540969906777632
0.9009678702894911
0.0754262350134651
0.06151747810089649
0.4215189428175932
0.9604717087051657
1.295917078283301
1.476477165214862
1.342878906492733
0.9173875254810046
1.154953389548068
1.17258830185412
1.011110237974757
0.6643274650142067
1.050017611687158
0.8375238612541243
0.5606937516228264
0.2783167996251799
0.8234476439200088
0.3922353789483113
0.1962562722362426
0.1415954330527677
0.152597183669178
0.1558611397074659
0.1323560124209973
0.1027710534447275
0.1168884246840041
0.1141773419164263
0.1609018711562969
0.1630713148752042
0.2049820185111587
0.07642890148047934
0.1488496604864638
0.1606138256828522
0.512547697217407
0.3105461275413373
0.2127244625173446
0.1838798476556088
0.1027710534445586
0.1630713148752059
0.1606138256830845
0.1838798476541017
0.1323560124206259
0.1609018711560065
0.148849660486544
0.2127244625176392
0.1558611397069829
0.1141773419159943
0.07642890148043417
0.3105461275420042
0.1525971836687647
0.1168884246839487
0.2049820185114505
0.5125476972178954
0.9173875254802638
1.342878906491535
1.476477165214289
1.295917078282619
0.6643274650142635
1.011110237974767
1.172588301854399
1.154953389547703
0.2783167996252823
0.5606937516229608
0.8375238612542397
1.050017611687285
0.1415954330526492
0.1962562722361351
0.3922353789482263
0.8234476439203887
0.9604717087052181
0.4215189428176567
0.06151747810107453
0.07542623501336183
0.9009678702893882
0.5540969906777907
0.2469663921475602
0.08039204415511257
1.007672269086254
0.7633910848530527
0.4807038251529319
0.140634754187207
1.095903138803688
0.8922842924746218
0.6636106766568646
0.3242230671452146
0.04926118844113742
0.0763796506406817
0.0962738225124716
0.1358906168643205
0.07020930300536603
0.03807498725658699
0.03729030117003891
0.08016574022691378
0.1198663198066184
0.1021376792430872
0.09280387952733885
0.1138817236927731
0.1283463312683265
0.1272795898418217
0.1019612297894744
0.1067756119635892
0.2259464394622009
0.5372464648187412
1.476037152160284
1.253699901084959
0.1462293962363257
0.2400822174741589
1.223443379007091
1.33462631708272
0.168303215303017
0.1715483852152897
0.8770247826320511
1.418790382553453
0.1391394506472506
0.1976419867604667
0.3712124298757131
1.137533588486583
1.045921375815429
0.9305236768976809
0.8397855582802976
0.7874334875666407
1.076104054398939
0.9242788896401468
0.8386910890446136
0.7917600117966667
1.366828674147513
0.9413511178581451
0.8306443250544795
0.7931557011304368
1.903217339959209
0.9618680430581492
0.8076443880145378
0.7696940881827059
0.7691820641314873
0.7616109091871134
0.7589422567327891
0.7502591760920427
0.7714731683446123
0.7620315815094398
0.757530018478378
0.7488275241681348
0.7720064329411512
0.7618805711867935
0.7558693568667659
0.7453513355387105
0.7392976881303517
0.7320557456859987
0.7148195720701733
0.6785072823792532
0.7281859940056399
0.6881445903246757
0.6530924804437663
0.5933556670040241
0.7290789897259179
0.6853598738377155
0.6324723735916629
0.539489168905281
0.7162782327955496
0.6555334691831665
0.5661538212134173
0.4273857905591408
0.6037410765224982
0.4998861381650699
0.3537534855161588
0.2110992624120074
0.8013250243338831
1.074720309839654
1.13093324658132
1.137626248866857
0.6467428834535969
1.031222239950487
1.134900737721484
1.143920424387493
0.4855086338293951
0.9546745744329258
1.138024891037058
1.148908310002946
0.2364711120456519
0.805494955733759
1.119352077658502
1.111455475735258
1.14117387306269
1.147690470978264
1.154172115128478
1.160275575292725
1.149033858592644
1.157345549997154
1.167664525604416
1.180177455865951
1.154885493656029
1.163780371265623
1.175244798813484
1.190399534306927
1.100214364614608
1.083747805960644
1.06641545934345
1.047564559946788
1.16478587714385
1.175800917824153
1.21302656889569
1.205406605047188
1.196668331205167
1.229003407579415
1.289260639473546
1.294144426684342
1.213837808450834
1.25679895638606
1.338075346788007
1.435070459461444
1.033413880363423
1.029223981274325
1.057070592790062
1.162480828081672
1.01309570755272
0.9978649586776701
0.9907610061204262
0.9811833097197186
1.036406729611498
0.9980845005220081
0.9889602640624811
0.9677643192242202
1.098931158523377
0.9949693774650236
0.9800038153775478
0.9482616470844241
1.181937024329185
0.9456474853414288
0.9354392082569828
0.9292978623955892
0.9673342920001898
0.9623399147476238
0.9554093635830979
0.9998656556679233
0.9439629581482332
0.9269641433099272
0.8998905391126335
0.9224734649377355
0.9203314940247929
0.89244122161996
0.8604847787742081
0.8376851460889327
0.9124666503514447
0.878192957827165
0.8481259285140953
0.7929809482232987
1.050869905793225
1.111913100141901
1.117930599496836
1.118016219626673
1.047074274889515
1.112450689200516
1.117919724717986
1.11801598162447
1.033553292220212
1.112018057989468
1.117897670814808
1.118015683798608
1.005030366838733
1.11077391772003
1.117849142010601
1.118015061935709
1.118013558416131
1.117734396460216
1.109113622693042
1.003646265814112
1.118013648920883
1.117748820670054
1.109678270304279
1.012844515306152
1.118013818492981
1.117761812839166
1.109533631063001
1.011956453469857
1.118014299194911
1.117798349716707
1.110109672162134
1.010801614450103
1.118015061936917
1.118015683797756
1.118015981623752
1.118016219628599
1.117849142012011
1.117897670814763
1.117919724717491
1.117930599496021
1.110773917719937
1.112018057989688
1.112450689199858
1.1119131001431
1.005030366838845
1.03355329222029
1.047074274888882
1.050869905793145
)
;

boundaryField
{
    back
    {
        type            empty;
    }
    inlet
    {
        type            calculated;
        value           nonuniform List<scalar> 
16
(
1.11801663592382
1.11801663592382
1.11801663592382
1.11801663592382
1.118016635923557
1.118016635924185
1.118016635912674
1.118016634486938
1.11801663448669
1.118016635912668
1.118016635924174
1.118016635923615
1.11801663592382
1.11801663592382
1.11801663592382
1.11801663592382
)
;
    }
    front
    {
        type            empty;
    }
    top
    {
        type            calculated;
        value           uniform 0;
    }
    outlet
    {
        type            calculated;
        value           nonuniform List<scalar> 
16
(
1.118012644910633
1.118012744250401
1.11801295284247
1.118013546444909
1.118016090527883
1.118015790149646
1.118015398615065
1.118014563979677
1.118012644909555
1.118012744250362
1.11801295284232
1.118013546444899
1.118014563980746
1.118015398614188
1.118015790149066
1.118016090529731
)
;
    }
    bottom
    {
        type            calculated;
        value           uniform 0;
    }
    wall
    {
        type            calculated;
        value           uniform 0;
    }
}


// ************************************************************************* //
