/*--------------------------------*- C++ -*----------------------------------*\
  =========                 |
  \\      /  F ield         | OpenFOAM: The Open Source CFD Toolbox
   \\    /   O peration     | Website:  https://openfoam.org
    \\  /    A nd           | Version:  11
     \\/     M anipulation  |
\*---------------------------------------------------------------------------*/
FoamFile
{
    format      ascii;
    class       volScalarField;
    location    "0.08";
    object      T;
}
// * * * * * * * * * * * * * * * * * * * * * * * * * * * * * * * * * * * * * //

dimensions      [0 0 0 1 0 0 0];

internalField   nonuniform List<scalar> 
880
(
300
300
300
300.0000299840801
300
300
300.0000000000622
300.0003913958114
300
300
299.9999999994576
300.0019652353917
300.0000000000001
300
300.0000000003847
299.9986952047917
300
300
299.9999999999999
300.0000000002087
300
300
299.9999999999997
300
299.9999998556094
300.0000031346286
300.0106708144492
299.9705455667969
300.6100727959982
303.0312961717367
305.398374448753
306.6355383471275
300.0000013824374
300.0000026124715
300.0000030212643
300.0000012916448
300.0000496752928
300.0001001442573
300.0001413767022
300.0000714750659
300.0493538061349
300.0693919432097
300.0856782540011
300.0739408418079
307.9456042247251
309.1482156554879
309.8818151634125
310.8155111054515
309.9051960552071
307.5668941761251
305.2097499591412
303.2852171506918
300.148297164156
300.2124993016928
300.2202158565588
300.1442296065951
300.0003306440907
300.0005796052213
300.0007008248843
300.0005097540336
300.0000089636691
300.0000133396621
300.0000144207054
300.0000091176496
300.0000025369564
300.0000002406434
300.0000000046631
300.0000000000965
300.0002084233192
300.0000390844521
300.0000023007207
300.0000000254614
300.0623134584415
300.0158511600025
300.001468853448
300.0000317429735
301.757788941796
300.6495346821661
300.1179231059174
300.0069342898108
300.0000807955525
299.9999999256972
299.9999999944426
300
300.0000113158292
299.9999999116484
299.9999999810727
299.9999999988442
299.9982086848724
299.9999791137379
300.000002263222
300.0000003147151
301.0907346363554
299.9979055560391
299.9995753547852
299.9999960810403
299.9999898835052
299.9998314719808
300.021744502824
314.1952164838497
299.9999992200321
300.0001059645595
300.1493577359568
327.0541991485029
300.0000153627361
300.0006422948737
300.3775581146116
336.8009640456453
300.0000265776681
300.0012131162887
300.6278954247351
345.601755795782
350.7357920698294
300.7635488294579
300.0014994411359
300.0000342525863
354.3850377191216
300.9725661223189
300.0022078834891
300.0000487967112
356.4172809058329
301.0723183118472
300.0024282972074
300.0000581953809
359.0876808765757
301.3999098252793
300.0040085532343
300.0000969064692
300.0000958112099
300.0039294479841
301.5771314521639
363.2116206214109
300.0001286529663
300.0053527742643
301.9604965846927
364.9833538750372
300.0001829691566
300.0070048771222
302.1273878158405
360.659775341379
300.0000366957304
300.0007428474355
301.0290565754293
343.3494213428298
300.0002763219175
300.0229332348827
302.0127295435783
325.7899498519388
299.999530296215
300.0094879085329
301.5141785468219
313.1989599657391
299.9993251199846
299.9809287740335
300.376476819996
306.72151443377
299.9998555097653
299.9525539908321
299.2553890020993
302.1103354735324
295.1281899376092
298.9468403670261
299.9807070387882
299.9999510972686
289.2246013845116
298.9205993322993
299.985924039981
299.9999625464609
285.6966043081569
299.1545638002189
299.9930549320961
299.9999837133067
288.7920168536827
299.2304670909568
299.9926834413661
299.9999823826229
288.8909654770229
299.7153994785759
299.9981757479268
299.9999950527696
289.7126687289038
299.8890294218482
299.9995935747884
299.99999916064
292.6703714644452
299.9493739196883
299.9998675422161
299.9999997928707
296.5131756509454
299.9768914805823
299.9999297847541
299.9999997970115
297.7362283681167
299.8906831240457
299.9985040994828
299.9999930028762
297.8625028928242
299.891206790476
299.9985045200024
299.999993004115
297.9583878930724
299.8903476047784
299.9985001206367
299.9999929751187
298.6624068743336
299.8965691659161
299.9984907719125
299.9999930124032
296.5131756502367
299.9768914800652
299.9999297838814
299.9999997980115
292.6703714639949
299.9493739190406
299.9998675404536
299.9999997931174
289.7126687288494
299.8890294224549
299.9995935750055
299.9999991607088
288.8909654772668
299.7153994803177
299.9981757480641
299.9999950522342
299.9999510977401
299.9807070412547
298.9468403665892
295.1281899372233
299.9999625480331
299.9859240403353
298.9205993325594
289.2246013842986
299.9999837123739
299.9930549332101
299.1545638000173
285.6966043095707
299.9999823827147
299.9926834419783
299.2304670926737
288.7920168533486
302.1103354725469
299.2553890014309
299.9525539884305
299.9998555091715
306.7215144326822
300.3764768189021
299.9809287724625
299.999325116995
313.1989599656537
301.51417854574
300.0094879088949
299.9995302963503
325.7899498522816
302.0127295433761
300.0229332341341
300.000276324473
300.0000958105089
300.0039294495883
301.577131452823
363.2116206220919
300.0001286530743
300.0053527752765
301.9604965850654
364.9833538751539
300.0001829703498
300.0070048771494
302.1273878149352
360.6597753414566
300.0000366978396
300.0007428475204
301.029056574608
343.3494213426466
359.0876808777138
301.399909824342
300.0040085552311
300.0000969062519
356.417280907066
301.0723183164236
300.0024282968285
300.0000581957516
354.3850377185752
300.972566122078
300.0022078863618
300.000048796279
350.735792069988
300.7635488258989
300.001499439819
300.000034252178
299.9999898844745
299.9998314728728
300.0217445029035
314.1952164829599
299.9999992193315
300.0001059633577
300.1493577362805
327.0541991481735
300.0000153620979
300.0006422943928
300.377558114895
336.8009640458467
300.0000265768759
300.0012131174225
300.6278954260664
345.6017557966119
299.9999960808912
300.0000003151455
299.9999999988428
300
299.9995753537268
300.0000022632094
299.9999999819983
299.9999999941631
299.9979055563815
299.9999791140209
299.9999999110291
299.9999999253919
301.0907346363927
299.9982086850467
300.0000113159062
300.0000807955918
299.999999999565
300.000000025473
300.0000317436776
300.0069342903065
300.0000000044328
300.0000023003251
300.0014688558815
300.1179231058343
300.0000002412258
300.0000390845842
300.015851158227
300.6495346821167
300.0000025372257
300.0002084232894
300.0623134599879
301.757788941118
300.0000089623089
300.0003306429288
300.148297164171
309.9051960549072
300.0000133383915
300.0005796052471
300.2124993017327
307.5668941752841
300.000014420094
300.0007008260002
300.2202158563147
305.2097499588024
300.0000091171575
300.0005097548817
300.1442296062257
303.2852171500174
310.8155111056563
300.0739408447246
300.0000714743963
300.0000012910216
309.8818151639112
300.0856782565323
300.0001413764631
300.0000030215257
309.1482156569368
300.0693919412024
300.0001001448463
300.000002612062
307.9456042242119
300.0493538000337
300.0000496746391
300.000001382892
306.6355383476734
299.9705455726291
300
300.0000000002266
305.3983744481906
300.010670809826
300
300.0000000000001
303.0312961720982
300.0000031343366
300
300
300.6100727957718
299.9999998553691
300
299.9999999999999
300
299.9999999999999
300
300.0000299869708
300.0000000000002
300
300.0000000000317
300.0003913890637
300
300
299.9999999995683
300.0019652349054
300
300
300.0000000000146
299.9986952054192
300.0000340051151
300.0003432451919
300.0024891961333
300.1402995216945
300.0003432607892
300.0001188532631
299.9997062818702
300.5915102417265
300.0024891828695
299.9997062433625
300.2078354347976
304.6576528866641
300.1402995317729
300.5915102450633
304.6576529299538
323.387018374625
352.3326974053172
332.5749455143895
319.5512731718325
308.4330121316332
348.5613914032862
343.4593559187319
338.7533722520376
329.6117619829623
345.1664504313619
343.0325808371203
341.1006824010781
337.319651014883
343.0939818309048
342.2418211471828
341.9498632266479
340.1575819703397
343.2215979086601
344.9197841977089
345.4531687458589
347.9438758778133
343.0400693983141
344.2287031091402
345.0246972956935
348.4007493731989
342.7623391866567
343.7440370273331
344.8048024258952
346.6606289787335
342.8442884338059
343.6833469864708
345.1069806562029
343.1771245239368
331.526748837231
314.2388885829604
306.1856454592103
303.9800919350418
322.9681576043267
307.251519955693
304.4871901001486
303.9005272956969
312.940650061519
302.019113478085
304.544943433899
304.2423453234035
288.6950096168309
292.9184449018657
302.755981003731
303.4295244233314
302.833543262639
301.3257504374458
300.3613316944554
300.0466209540944
302.9257854444505
301.468934922096
300.4415178231897
300.0673773475739
303.4587122336171
301.9242897673975
300.631828132683
300.103554578032
303.076767681005
301.5166432317208
300.2657685830387
299.9992359592244
300.0017856432478
299.9999816147769
300.0000699286758
321.0033620057162
300.0031469344202
300.000008385855
300.0000619246906
335.845543879059
300.0049615305879
300.0000089597144
300.000121122345
345.2696751025881
299.9957904174879
299.9998040050059
300.000165617154
348.0833299998844
394.7980531898401
409.4892941552058
417.4357967100707
425.9404976468986
412.6244254052763
414.9200775829955
416.3106557054086
421.6511946477793
419.0389682923237
412.1381185930891
412.9862063448193
415.3692847758189
429.5834822805517
416.4995717288992
411.552440321404
413.3555614733725
431.1634500211739
434.0472351194138
434.3891973691862
434.6996873878041
425.1511314670699
427.5132633459049
427.8998016814388
427.9698967953821
418.3123149861639
420.6500686005324
421.2101514254842
421.2119520174173
416.2105879485969
418.667134308654
419.3491069855069
419.3551842484696
434.4286212728281
431.5854071706231
420.8608444728109
398.0219005695452
427.5849726622899
425.0296894779436
416.3617801971253
412.194777260085
420.9480764287974
418.6990710684013
413.1899266672773
421.6886682125849
418.8791378449611
417.3435852957785
415.5276574486799
404.6140659948127
356.8209750005378
308.9309318512304
233.8650173205531
208.385505146266
345.1301756485324
271.7338264820688
212.1858797907254
185.751994101224
306.7294135341074
235.7587847942213
181.7275327614441
159.5745522134035
240.734697696984
178.5739844707601
174.3234526492842
148.5229402530735
209.4571395706064
208.8666924159001
208.8461309599834
201.9493489404325
182.8372596166064
180.9791383189794
179.3971161015328
177.2085067356742
153.5963780587042
153.1049402973238
157.0612810050977
181.3238021558438
141.2749224007153
142.5138300213853
148.7972205480793
184.8798351918797
252.3844027835651
260.648964015456
264.6394571820629
274.6286920679327
264.795657252583
266.6894999433831
262.9783396307755
275.2307920881627
262.4195706065704
284.0105912912468
278.2938585958965
285.0980776363456
239.3068343620441
275.1260355028178
286.6750449424082
290.2704308469845
251.8532194457814
214.605085839503
196.7925484785273
224.2996958067082
245.9461674534928
211.2582456742192
156.943380375482
139.4032752340468
241.0498964464127
186.3944835306419
124.2104722237978
112.2553952092437
203.7162199949162
129.7279690873002
81.20880970022982
87.11497004895855
105.5968254356406
130.8799305200242
166.2224772047023
190.5633012633242
119.9402425513824
147.8130706031622
191.7810153643564
221.2396496386308
161.7350561093616
185.1005075647798
224.6979915255795
254.3150862835538
240.4040634588398
240.4737488013044
257.6449900082415
274.7708840995191
190.5633012634337
221.2396496386521
254.3150862835459
274.7708840994781
166.2224772049319
191.7810153643307
224.6979915256614
257.6449900081819
130.8799305200388
147.8130706031604
185.1005075644308
240.473748800925
105.5968254356877
119.9402425515348
161.735056108982
240.4040634581
224.2996958057421
196.7925484779497
214.6050858390499
251.853219444857
139.4032752337971
156.9433803755426
211.2582456743392
245.9461674530651
112.2553952094348
124.2104722235231
186.3944835302292
241.0498964461896
87.11497004904064
81.20880970025057
129.7279690872186
203.7162199946991
290.2704308467334
286.6750449424232
275.1260355030172
239.3068343613054
285.0980776361209
278.293858595893
284.0105912915081
262.4195706058815
275.2307920879597
262.9783396306673
266.6894999436384
264.795657252451
274.6286920674457
264.6394571819025
260.6489640156726
252.3844027836808
201.9493489398677
208.8461309612127
208.8666924158858
209.4571395700029
177.2085067354782
179.3971161024815
180.9791383193292
182.8372596162866
181.3238021560205
157.0612810056481
153.1049402977245
153.5963780587227
184.8798351919965
148.7972205483569
142.5138300216178
141.2749224009396
208.3855051450274
233.8650173187367
308.9309318511679
356.8209750006377
185.7519940997875
212.1858797897279
271.7338264813374
345.1301756475148
159.574552212446
181.7275327605453
235.7587847942491
306.7294135341212
148.5229402529531
174.3234526482044
178.5739844701999
240.7346976969528
398.0219005694748
420.8608444733339
431.5854071708142
434.4286212730453
412.1947772599735
416.3617801973184
425.0296894782732
427.5849726628333
421.6886682125248
413.1899266672445
418.6990710688999
420.9480764294684
404.6140659948285
415.5276574489346
417.3435852962887
418.8791378456895
434.6996873876885
434.3891973681467
434.0472351205507
431.163450021416
427.9698967958107
427.8998016809803
427.5132633463055
425.1511314670173
421.2119520179141
421.2101514256562
420.6500686004907
418.3123149861938
419.3551842490738
419.349106985906
418.6671343084968
416.2105879485879
425.9404976469223
417.4357967098071
409.4892941546605
394.7980531897147
421.6511946490578
416.3106557046629
414.9200775830518
412.624425405053
415.3692847773109
412.986206343929
412.1381185930956
419.0389682918819
413.3555614741407
411.5524403206418
416.4995717290188
429.5834822800032
321.00336200544
300.0000699278173
299.9999816146807
300.0017856433877
335.8455438786589
300.0000619239755
300.0000083859108
300.0031469346745
345.2696751021329
300.0001211218517
300.0000089597335
300.0049615309794
348.0833299996571
300.000165617252
299.9998040049035
299.9957904181431
300.0466209542441
300.3613316940379
301.3257504376654
302.8335432615291
300.0673773476073
300.4415178231022
301.4689349219192
302.9257854435946
300.1035545779233
300.6318281329774
301.9242897668105
303.4587122330843
299.9992359589747
300.2657685833572
301.5166432310365
303.0767676803524
303.980091934818
306.1856454589961
314.2388885823884
331.5267488367543
303.9005272953847
304.4871900999586
307.2515199552139
322.9681576040427
304.2423453230371
304.5449434336104
302.0191134776045
312.9406500614188
303.4295244227667
302.7559810032772
292.9184449011137
288.695009616742
347.9438758764337
345.4531687453851
344.919784199468
343.2215979114206
348.4007493723347
345.0246972956651
344.2287031103521
343.040069399811
346.6606289781391
344.8048024257679
343.7440370276333
342.7623391873601
343.1771245235394
345.1069806560074
343.6833469866373
342.8442884341534
340.1575819705414
337.3196510146352
329.6117619838519
308.4330121310934
341.9498632266396
341.1006824010725
338.753372253078
319.5512731719018
342.2418211472255
343.0325808371451
343.4593559198013
332.5749455124329
343.0939818309011
345.1664504308396
348.5613914033076
352.332697407722
297.7424461891253
299.9702965674782
299.9998161408172
299.9999994021331
297.5543555417359
299.9553295082662
299.9996236575903
299.999998490128
298.7581707986901
299.9395850481085
299.9992811263753
299.9999968390853
298.7503416858675
299.9048065895436
299.9986966106515
299.9999941743928
299.9999930036814
299.9985040993328
299.8906831237975
297.7362283675918
299.9999930046899
299.9985045208289
299.8912067894279
297.8625028929225
299.9999929742086
299.9985001216355
299.8903476040239
297.9583878922327
299.9999930099362
299.9984907730872
299.8965691629041
298.6624068736853
299.9999941738627
299.999996838322
299.9999984871123
299.9999993992683
299.9986966109136
299.9992811263471
299.9996236571799
299.9998161396719
299.9048065896727
299.9395850472988
299.9553295091952
299.9702965666032
298.750341685073
298.7581707976266
297.5543555415371
297.742446189391
)
;

boundaryField
{
    back
    {
        type            empty;
    }
    inlet
    {
        type            zeroGradient;
    }
    front
    {
        type            empty;
    }
    top
    {
        type            zeroGradient;
    }
    outlet
    {
        type            fixedValue;
        value           uniform 300;
    }
    bottom
    {
        type            zeroGradient;
    }
    wall
    {
        type            zeroGradient;
    }
}


// ************************************************************************* //
