/*--------------------------------*- C++ -*----------------------------------*\
  =========                 |
  \\      /  F ield         | OpenFOAM: The Open Source CFD Toolbox
   \\    /   O peration     | Website:  https://openfoam.org
    \\  /    A nd           | Version:  11
     \\/     M anipulation  |
\*---------------------------------------------------------------------------*/
FoamFile
{
    format      ascii;
    class       volVectorField;
    location    "0.08";
    object      U;
}
// * * * * * * * * * * * * * * * * * * * * * * * * * * * * * * * * * * * * * //

dimensions      [0 1 -1 0 0 0 0];

internalField   nonuniform List<vector> 
880
(
(25 -7.768126373978579e-16 0)
(25 -3.286640302084756e-16 0)
(25 -5.068669311970486e-14 0)
(25.00000027387674 -1.873430962788612e-06 0)
(25 1.210301178234613e-15 0)
(25 -2.016476821900237e-15 0)
(25.00000000000002 -1.817742000373627e-13 0)
(24.99998074129765 -7.223846059708986e-05 0)
(25 0 0)
(25.00000000000001 2.004017271092316e-15 0)
(25.00000000007384 -4.389486798947972e-11 0)
(24.99993229970968 -0.0001572373538596284 0)
(25 0 0)
(25 -1.211631609894412e-15 0)
(25.00000000207792 -1.899063929043863e-09 0)
(24.99943229039994 -0.002117710699265199 0)
(25 -6.320466855157429e-16 0)
(25 -9.277026215216861e-16 0)
(25.00000000000001 -1.93951981818002e-13 0)
(25.00000000007498 8.012095831061252e-11 0)
(25 -2.891851791680015e-15 0)
(25 5.801313154681574e-15 0)
(25.00000000000003 1.766957180997671e-14 0)
(25 2.99447558869723e-13 0)
(25.00000018617028 -1.4894643740785e-07 0)
(24.99999872053599 1.161352065945136e-06 0)
(25.00060366510948 0.001357370348038965 0)
(24.99901359131818 -0.004043066524539229 0)
(24.93634309223712 0.04904605119849442 0)
(24.74716006835336 0.2710463211185323 0)
(24.63744879997477 0.5440333897254226 0)
(24.62674986035982 0.735208426731087 0)
(24.99999984566612 -1.642268208237747e-07 0)
(24.99999963482156 -3.162095377659536e-07 0)
(24.99999942498289 -4.951553799787462e-07 0)
(24.99999978454316 -1.757903237924117e-07 0)
(24.99999650503068 5.950927452045399e-06 0)
(24.99999689462055 1.345116263219579e-05 0)
(24.99999820636641 1.942868319629988e-05 0)
(24.99999567347107 8.476382860478026e-06 0)
(24.99757543929004 0.00537173026406917 0)
(24.99762663189379 0.007738549534085524 0)
(24.99804144240679 0.01002260253777255 0)
(24.99676957652351 0.007864648517971549 0)
(24.63834164856851 0.8766564905136239 0)
(24.64630173169655 1.043231633496701 0)
(24.71908125227272 1.146804424062736 0)
(24.6008403366866 1.228110279182446 0)
(24.89275877929958 1.264576639481028 0)
(25.18357097544809 1.079383326926849 0)
(25.34933013883366 0.7058920913687209 0)
(25.31827111304372 0.3857024314983338 0)
(24.99620761825149 0.01700259390796431 0)
(24.99123703371167 0.02885298258190413 0)
(24.99454219730357 0.03379288232690115 0)
(25.00075379822252 0.02524941121279147 0)
(24.99999092785319 4.417891176266972e-05 0)
(24.99998436106 8.609406274031273e-05 0)
(24.99998031358117 0.0001147906642752722 0)
(25.00000217137041 8.709811370685013e-05 0)
(24.9999987822483 -1.057016888384913e-06 0)
(24.99999774868943 -1.700131950823573e-06 0)
(24.99999734593126 -1.91271267748121e-06 0)
(24.99999796304469 -1.307645408927925e-06 0)
(24.9999991715783 -4.311767545694003e-07 0)
(24.99999986435493 -6.205172217094791e-08 0)
(24.99999999322414 -2.833081634300588e-09 0)
(24.9999999999371 -3.756617721244921e-11 0)
(25.00001161181254 3.248300212599604e-05 0)
(25.0000032453026 5.169080121788797e-06 0)
(25.00000021425673 2.722793704716627e-07 0)
(25.00000000283651 2.637931111709064e-09 0)
(25.00399008165079 0.009881021105524168 0)
(25.00150010127108 0.001937082911791071 0)
(25.00015174620395 0.0001506504198281085 0)
(25.00000345952994 3.023381378565007e-06 0)
(25.19800211085333 0.1839627306809327 0)
(25.07855200070302 0.06123402875135076 0)
(25.01479312382011 0.01008247318889635 0)
(25.00088082453975 0.0005602133029410868 0)
(25.00001025700397 7.05177606446056e-06 0)
(25.00000000193664 -1.764043398420127e-08 0)
(24.99999999985623 -9.127838653977999e-10 0)
(25 -1.367954813165505e-12 0)
(25.00000106785717 1.610614532866623e-06 0)
(25.0000000095172 -1.811437006951389e-08 0)
(25.00000000075054 -2.671468591545486e-09 0)
(25.0000000000428 -1.499211217377061e-10 0)
(24.99995783124891 -0.0003005420081898805 0)
(24.99999576292608 -4.278475816705715e-06 0)
(24.99999982078293 3.372708067289685e-07 0)
(24.99999997190095 4.590294812913635e-09 0)
(24.93222356763977 0.120525796258682 0)
(25.00049161909376 -9.132822542446069e-05 0)
(25.00003741385316 -5.483989245640832e-05 0)
(25.00000013400512 -5.421072289052688e-07 0)
(24.99999995735505 -1.360207757674335e-06 0)
(24.99999245659126 -3.554065294421951e-05 0)
(24.99743860101373 -2.090744892979315e-05 0)
(23.70406707760453 0.5445552037453562 0)
(24.9999999426358 -2.677457478586457e-07 0)
(24.99996528001513 7.649081800405168e-06 0)
(24.98224731784635 0.01010360388284828 0)
(22.5309420234053 1.582175836636305 0)
(24.99999808767387 -2.021433837159172e-06 0)
(24.99995247727623 7.458917207258716e-05 0)
(24.97088639609856 0.03176956945609282 0)
(22.0536088644387 2.862393807188859 0)
(24.99999609947519 -3.664632848827384e-06 0)
(24.99995269935682 0.0001402210481694996 0)
(24.96794205248316 0.05385942297478338 0)
(22.12646978642171 3.747239225579581 0)
(22.12403542187407 4.273422594132249 0)
(24.96059253075864 0.06813108134083801 0)
(24.99992946759407 0.0001783765219718447 0)
(24.99999519668197 -4.865664326293434e-06 0)
(22.16100982228485 4.532714568120777 0)
(24.95860161992772 0.08504637096071642 0)
(24.99993281450869 0.0002562041491332099 0)
(24.99999242887953 -6.836712332020174e-06 0)
(21.94896201288356 4.776275063650445 0)
(24.94317230814958 0.0965061909112724 0)
(24.99987135321474 0.0002908743520095878 0)
(24.99999196673588 -8.308867613460914e-06 0)
(21.81562315124066 5.007847124823142 0)
(24.93583116258906 0.1271886720682196 0)
(24.99986686525711 0.0004845221887945352 0)
(24.99998519759384 -1.326373414808122e-05 0)
(24.99998527506118 -1.446105705834964e-05 0)
(24.99984982628214 0.0004655603555251406 0)
(24.921659679881 0.1413357447159765 0)
(21.49761858966059 5.460395927617837 0)
(24.99998079305523 -1.875939459286591e-05 0)
(24.99977077018039 0.0006364516954691558 0)
(24.90484081204533 0.178906942366389 0)
(21.55343336637279 5.74628958560912 0)
(24.99997265416928 -2.758913928332679e-05 0)
(24.99975424483902 0.0008532610833959326 0)
(24.90434370623267 0.1986393013754084 0)
(21.92513016227307 5.484904341557742 0)
(24.99999467256557 -5.937996782983731e-06 0)
(24.99944674388889 0.0004990283895240597 0)
(24.9055099913916 0.1379531740672791 0)
(23.2643803617313 4.206172819440146 0)
(24.99991325706654 -4.903655283555657e-05 0)
(25.00154515822491 0.002334139313563707 0)
(25.09031786113885 0.1790177501715639 0)
(25.67190329638893 2.486139023426246 0)
(24.99998784445553 -1.675678513326586e-05 0)
(25.00204837338212 -0.0005871327269036709 0)
(25.10448735415461 0.01147372125053124 0)
(26.11908503107713 -0.08453658371546111 0)
(24.99999043802202 -2.693845468854282e-05 0)
(24.99888728746197 -0.002008765651740943 0)
(24.95350166064247 -0.1191939365393452 0)
(24.20146695861597 -1.934877948424422 0)
(24.99999141117127 -1.239160055661766e-05 0)
(24.99627741210362 -0.003435847082476406 0)
(24.74881072813124 -0.1651190051136703 0)
(21.62080788804022 -1.997320641165091 0)
(20.39605502421657 -1.385850058170512 0)
(24.71429988279297 -0.1549826434216582 0)
(24.99781557438535 -0.002288297850847149 0)
(24.99999669908513 -6.602219855033849e-06 0)
(20.12126675632836 -0.5429028752441859 0)
(24.70076118038793 -0.1067031677763357 0)
(24.99770478146335 -0.001614111311635286 0)
(24.99999615827553 -4.774258525081563e-06 0)
(20.46177917974514 -0.06955024867587017 0)
(24.78812159674553 -0.07887940201261867 0)
(24.99898176598994 -0.0009429435747031471 0)
(24.99999884999002 -2.307989525210021e-06 0)
(20.16500066802396 0.2299536926913371 0)
(24.76617553717956 -0.07378958672076281 0)
(24.99876995439246 -0.0009902963799878427 0)
(24.99999836880388 -2.507803221965814e-06 0)
(21.75544524289311 0.5220857536634593 0)
(24.8903556830831 -0.03033581245367638 0)
(24.99957364803997 -0.0002861599628654636 0)
(24.99999941307976 -7.175720422573204e-07 0)
(23.31905664286985 0.5205929434399666 0)
(24.96606083404172 -0.01160679840529948 0)
(24.99991934554279 -6.052070570101741e-05 0)
(24.99999990620663 -1.18076256024608e-07 0)
(24.33753601100122 0.2073102180419051 0)
(24.99300863648801 -0.004711574264262539 0)
(24.99998920562061 -1.595082366835877e-05 0)
(24.99999999188897 -2.792619212984363e-08 0)
(24.8854487292796 -0.1801309104727442 0)
(25.0008352551461 -0.004265344630010086 0)
(25.00000664216432 -1.597377008839845e-05 0)
(24.99999999963003 -3.367336385350192e-08 0)
(24.2151202899721 -0.02923256557806863 0)
(24.97368689941938 -0.0002584515209321749 0)
(24.99973759551742 -6.743251908342686e-07 0)
(24.99999891856018 -6.917151996255488e-10 0)
(24.22650882922855 -0.08719547823135065 0)
(24.97385738403153 -0.0007228550623890672 0)
(24.99973882256817 -1.742570345852134e-06 0)
(24.99999891927495 -7.568907171329998e-10 0)
(24.21440682497089 -0.1727455505384536 0)
(24.97392968963209 -0.001507960815537892 0)
(24.99973942723556 -3.689149776385007e-06 0)
(24.9999989155692 -1.051356003088784e-09 0)
(24.18191926613592 -0.1795014085453865 0)
(24.97411128979965 -0.00180642084717415 0)
(24.99974279161238 -6.013891601805091e-06 0)
(24.99999892871127 -1.134449846329224e-08 0)
(24.88544872935154 0.1801309104432763 0)
(25.00083525519966 0.00426534465189693 0)
(25.00000664224284 1.597379282653719e-05 0)
(24.99999999954623 3.373366593973146e-08 0)
(24.33753601107242 -0.2073102179914519 0)
(24.99300863655531 0.00471157425505227 0)
(24.99998920577859 1.595085625270021e-05 0)
(24.99999999187073 2.792543252111031e-08 0)
(23.31905664284413 -0.5205929433212573 0)
(24.96606083400773 0.01160679848617398 0)
(24.99991934553314 6.052076810778648e-05 0)
(24.99999990619896 1.180704349555487e-07 0)
(21.75544524279572 -0.5220857537360825 0)
(24.89035568293478 0.03033581243404975 0)
(24.99957364801967 0.0002861599457941041 0)
(24.99999941311923 7.175660222487396e-07 0)
(24.99999669894785 6.602124907602537e-06 0)
(24.99781557409782 0.002288297986117366 0)
(24.71429988271308 0.1549826433384026 0)
(20.39605502416672 1.385850058121006 0)
(24.99999615818356 4.774386551169378e-06 0)
(24.99770478146906 0.001614111311752359 0)
(24.70076118029673 0.106703167763714 0)
(20.12126675623925 0.5429028751572654 0)
(24.99999885008262 2.308004271421283e-06 0)
(24.99898176589661 0.000942943532369781 0)
(24.78812159671901 0.07887940203370908 0)
(20.4617791796299 0.06955024861580335 0)
(24.99999836879794 2.507775058534124e-06 0)
(24.99876995434982 0.00099029640685539 0)
(24.76617553707536 0.07378958664709595 0)
(20.16500066806475 -0.2299536925492294 0)
(21.62080788814893 1.997320641138434 0)
(24.74881072827292 0.1651190051040708 0)
(24.99627741227943 0.003435846856894198 0)
(24.9999914112689 1.239152456125709e-05 0)
(24.20146695869418 1.934877948564705 0)
(24.95350166074003 0.119193936539086 0)
(24.99888728760901 0.002008765693272299 0)
(24.99999043816606 2.693836204920187e-05 0)
(26.1190850310808 0.08453658370849836 0)
(25.10448735427535 -0.01147372121004078 0)
(25.00204837339921 0.0005871327213283809 0)
(24.99998784457582 1.675706980917374e-05 0)
(25.67190329636249 -2.486139023433952 0)
(25.09031786119035 -0.1790177501805205 0)
(25.00154515826333 -0.002334139238764972 0)
(24.99991325687231 4.903649565995123e-05 0)
(24.99998527513033 1.446105289600099e-05 0)
(24.99984982615963 -0.0004655603894596183 0)
(24.92165967982853 -0.1413357447112955 0)
(21.49761858955496 -5.460395927591446 0)
(24.99998079303842 1.875937982122341e-05 0)
(24.99977077010423 -0.0006364517049268382 0)
(24.90484081199974 -0.1789069423361865 0)
(21.55343336637209 -5.7462895855978 0)
(24.99997265405596 2.758912062686126e-05 0)
(24.99975424483462 -0.0008532610522832301 0)
(24.90434370632261 -0.1986393013436925 0)
(21.92513016227842 -5.484904341565947 0)
(24.99999467238006 5.937980768117157e-06 0)
(24.9994467438909 -0.0004990283416354367 0)
(24.9055099914484 -0.1379531740452555 0)
(23.26438036174496 -4.206172819441643 0)
(21.8156231510982 -5.007847124839251 0)
(24.93583116269008 -0.1271886719996834 0)
(24.999866865089 -0.0004845222337885648 0)
(24.99998519759561 1.326374557856462e-05 0)
(21.94896201277343 -4.776275063608574 0)
(24.94317230786137 -0.09650619094597784 0)
(24.99987135321622 -0.0002908743583940342 0)
(24.99999196669455 8.308867112518512e-06 0)
(22.16100982224744 -4.532714568108127 0)
(24.95860161981432 -0.0850463710047839 0)
(24.99993281429122 -0.0002562041817833098 0)
(24.9999924289253 6.836710380853083e-06 0)
(22.12403542168562 -4.273422594285678 0)
(24.96059253100018 -0.0681310812779153 0)
(24.99992946766668 -0.000178376527483675 0)
(24.99999519671544 4.865664209321751e-06 0)
(24.99999995726741 1.360212983991501e-06 0)
(24.99999245648249 3.554066246286148e-05 0)
(24.99743860105496 2.090745620140939e-05 0)
(23.70406707769679 -0.5445552037462879 0)
(24.99999994271877 2.677413406732867e-07 0)
(24.99996528014639 -7.649081155799595e-06 0)
(24.98224731772155 -0.01010360392579353 0)
(22.53094202351827 -1.582175836605842 0)
(24.99999808773595 2.021433137277762e-06 0)
(24.9999524772822 -7.458917513827431e-05 0)
(24.97088639611839 -0.03176956941384074 0)
(22.05360886423786 -2.862393807299241 0)
(24.99999609954742 3.664632702669822e-06 0)
(24.99995269929071 -0.0001402210664437072 0)
(24.9679420524561 -0.05385942302040697 0)
(22.1264697866313 -3.747239225397216 0)
(25.00000013401339 5.421048762974375e-07 0)
(24.99999997185948 -4.586711317991882e-09 0)
(25.00000000004545 1.466128106063163e-10 0)
(25 3.172341670745966e-12 0)
(25.00003741397162 5.48398930914418e-05 0)
(24.99999982079225 -3.372755034763787e-07 0)
(25.00000000065221 2.684511774801504e-09 0)
(24.99999999988174 9.121719741098162e-10 0)
(25.00049161905569 9.132821192454997e-05 0)
(24.99999576289249 4.278491746225039e-06 0)
(25.0000000095826 1.810929649779587e-08 0)
(25.0000000019762 1.762819553165362e-08 0)
(24.93222356763907 -0.1205257962549654 0)
(24.99995783124214 0.0003005420214473305 0)
(25.00000106785194 -1.61061851562259e-06 0)
(25.00001025699994 -7.051781508538436e-06 0)
(24.99999999996055 3.685484302789342e-11 0)
(25.00000000283799 -2.639985097790871e-09 0)
(25.00000345948714 -3.023414166374193e-06 0)
(25.00088082449367 -0.0005602132942078027 0)
(24.99999999325012 2.831769499969174e-09 0)
(25.00000021428715 -2.722753421650826e-07 0)
(25.00015174598179 -0.0001506504434152143 0)
(25.01479312382708 -0.0100824731388778 0)
(24.99999986430838 6.204696838146399e-08 0)
(25.00000324530291 -5.169079999812306e-06 0)
(25.00150010139602 -0.001937082831764223 0)
(25.07855200069227 -0.06123402877579184 0)
(24.99999917154764 4.31189478741439e-07 0)
(25.00001161183986 -3.248303479052573e-05 0)
(25.00399008151732 -0.009881021165725905 0)
(25.19800211091798 -0.1839627306061711 0)
(24.99999878238641 1.056988777161944e-06 0)
(24.99999092796194 -4.417892693997836e-05 0)
(24.99620761827369 -0.01700259404295427 0)
(24.8927587792988 -1.264576639499129 0)
(24.99999774879916 1.70012261175645e-06 0)
(24.99998436105569 -8.609401734000037e-05 0)
(24.99123703375002 -0.0288529825653482 0)
(25.18357097552277 -1.079383326949559 0)
(24.99999734597461 1.912727733393532e-06 0)
(24.99998031344416 -0.0001147906419225347 0)
(24.99454219733997 -0.03379288231579785 0)
(25.34933013887368 -0.7058920913494183 0)
(24.99999796307903 1.307659804321343e-06 0)
(25.00000217127312 -8.709815543715964e-05 0)
(25.00075379824502 -0.02524941114994853 0)
(25.31827111310843 -0.3857024315348214 0)
(24.6008403366494 -1.228110279116214 0)
(24.99676957628041 -0.00786464863055906 0)
(24.99999567354558 -8.476402899981207e-06 0)
(24.99999978460674 1.757568717696916e-07 0)
(24.7190812522956 -1.14680442409952 0)
(24.9980414421239 -0.01002260252142234 0)
(24.99999820639833 -1.942868270184272e-05 0)
(24.99999942494872 4.951909969938457e-07 0)
(24.64630173156333 -1.043231633542525 0)
(24.99762663176088 -0.007738549201794968 0)
(24.99999689461832 -1.345121946469758e-05 0)
(24.99999963485642 3.162076322410428e-07 0)
(24.63834164859997 -0.8766564905144042 0)
(24.99757543988618 -0.005371729919530714 0)
(24.9999965050399 -5.950878961765484e-06 0)
(24.99999984563213 1.642197745325667e-07 0)
(24.62674986032702 -0.7352084267308036 0)
(24.99901359124346 0.004043065867080814 0)
(25 -3.461564235288856e-13 0)
(25.00000000007412 -7.977963335544216e-11 0)
(24.6374487999794 -0.5440333897277611 0)
(25.00060366520987 -0.001357370007047602 0)
(25 1.070974734078613e-16 0)
(25.00000000000001 2.004317929145627e-13 0)
(24.74716006829193 -0.2710463210806449 0)
(24.99999872058032 -1.161351157423103e-06 0)
(25 -1.427338871208745e-16 0)
(25.00000000000001 2.284674036607913e-15 0)
(24.93634309222556 -0.04904605123175098 0)
(25.00000018617058 1.489397744688533e-07 0)
(25 -1.986043000611352e-15 0)
(25.00000000000002 -6.201078910940829e-15 0)
(25 1.420908939734042e-15 0)
(25 2.15896581034495e-15 0)
(25 5.044568247706731e-14 0)
(25.00000027430132 1.875275184616993e-06 0)
(24.99999999999999 -2.843418720158383e-19 0)
(25 2.195821489874659e-15 0)
(25 5.912677305450914e-13 0)
(24.99998074124876 7.223702993676907e-05 0)
(25 -1.366459512028481e-15 0)
(25 -2.142331425844575e-15 0)
(25.00000000007001 4.293061610927651e-11 0)
(24.99993229992937 0.0001572368597856834 0)
(25 -1.804790554331833e-15 0)
(25 -7.090161374785876e-16 0)
(25.00000000211078 1.894429038168679e-09 0)
(24.99943229058002 0.002117710668789506 0)
(25.00000130025358 1.20686980439879e-09 0)
(24.9999969399763 5.317148294282358e-05 0)
(25.00004515859037 0.0001945524129076136 0)
(24.9949853458628 4.574312106830278e-05 0)
(24.99999693953201 -5.317300057031352e-05 0)
(25.00003309943261 -7.299635665596684e-10 0)
(25.00037066642652 -0.001506036086131522 0)
(24.91824830078445 -0.05760723081268503 0)
(25.0000451606913 -0.0001945459053438675 0)
(25.00037066836785 0.001506037039877776 0)
(24.97118517081618 7.588022606255857e-09 0)
(24.41845354645884 -0.136193398172981 0)
(24.99498534521822 -4.574302443079295e-05 0)
(24.91824830171801 0.05760722457415593 0)
(24.41845354965866 0.1361934038565635 0)
(22.10872397961588 -2.304051421285453e-09 0)
(19.73901560899683 2.444905895347223 0)
(20.79951097476746 3.076906053218512 0)
(23.24891729733205 2.115972621819558 0)
(24.34684410411514 0.9121089415821207 0)
(20.26219676118425 4.530753666876623 0)
(20.53635145433807 4.697928041788691 0)
(21.66587773841929 4.375825109980259 0)
(22.82075283763766 3.422064375818092 0)
(21.0329214900355 5.585006031378798 0)
(21.51736547804353 5.049889709500454 0)
(22.20876780950122 5.089179860120008 0)
(22.9450423522343 4.681834117123781 0)
(21.43799238637751 5.532902963647718 0)
(22.47413651864973 5.406162366629246 0)
(22.87013021791721 5.36025592764895 0)
(23.24893274208716 5.115652219640934 0)
(23.43907229382296 5.320375795081122 0)
(23.55478222019608 5.510946641650845 0)
(23.66494681801944 5.59763865369868 0)
(23.4551751503766 5.837566756314787 0)
(23.28657776897055 5.561030893236294 0)
(23.51911767777359 5.747245896156646 0)
(23.65404066894672 5.784875059382043 0)
(23.77388911103326 6.25328982686958 0)
(23.08016483410126 5.675656015550955 0)
(23.39272127674753 5.812884818679699 0)
(23.500208362172 5.824255935425404 0)
(25.12411092562465 6.555485780637398 0)
(21.73457583923813 5.530701602522162 0)
(22.02936460234898 5.628347266945081 0)
(22.15497363298706 5.656770567622063 0)
(26.80537115975206 7.655549523214396 0)
(25.44897003940358 4.258647403089921 0)
(27.16486812025958 1.662426084152069 0)
(26.68812353547023 0.1254312993019392 0)
(25.97553812466904 -0.02764535852014431 0)
(26.89218823373117 3.519086859952943 0)
(28.22277297017209 0.9743526376351809 0)
(27.16985223319145 -0.1923335604108823 0)
(26.32749820148032 -0.1990780779234873 0)
(29.69871897139052 2.746800331615152 0)
(29.17082289243261 0.4647994461242598 0)
(27.40915518097136 -0.3112335468368799 0)
(26.46779798517986 -0.2798746358342464 0)
(21.61732188092557 1.648004438389186 0)
(21.51707179991057 1.045027622230606 0)
(22.1594783716429 0.5027939254629933 0)
(23.29478611279636 -0.1904093260262374 0)
(25.53147919712722 0.02348198559658661 0)
(25.21963124196713 0.04885371309718342 0)
(25.06039672965952 0.02075359026686958 0)
(25.00740111308036 0.002755267949225676 0)
(25.79416719063067 -0.06948483690123365 0)
(25.39154721761813 0.01586680015881532 0)
(25.12370602223881 0.02026856309522881 0)
(25.0176325833962 0.00397479105080102 0)
(25.98355945049089 -0.131757059390501 0)
(25.55831872700247 -0.06957262006783632 0)
(25.20449470158973 -0.03292901768343773 0)
(25.03344819572066 -0.006781889818399241 0)
(24.30657827636315 -0.3436617267771043 0)
(24.65554380253562 -0.2218650959991097 0)
(24.8770917198851 -0.09588809219415094 0)
(24.97774386002074 -0.0188570577124215 0)
(25.00026404711952 8.95442828142221e-05 0)
(24.99999819738482 4.286097891590267e-07 0)
(25.00004973997957 2.893133727224972e-05 0)
(23.51325249376342 1.929185364885174 0)
(25.0007368954926 0.000173545189316584 0)
(25.00000490187037 2.733357571167631e-07 0)
(25.00001004308145 6.169821976445222e-06 0)
(21.74886936708926 2.404916535420028 0)
(25.00160513595582 -0.0004023091987399826 0)
(25.00001448322548 -6.09945242067354e-06 0)
(25.00000172169254 1.110482234023553e-06 0)
(20.00462375970599 1.749697021240163 0)
(24.99869191630538 -0.00118898983956816 0)
(25.00000075142636 -1.38996436294515e-05 0)
(25.00000488953451 -7.091566871519493e-07 0)
(16.47556249029254 0.5584355931725746 0)
(16.0203508147729 7.240858138281382 0)
(16.68064424968907 8.592967088901368 0)
(16.99471159652251 9.581576197588625 0)
(17.24710538067615 10.55144692617816 0)
(13.25098882625574 7.486925881858467 0)
(15.2855989661863 8.990793110779888 0)
(16.42155095163003 10.07504225575886 0)
(16.93534067378593 10.83322459211822 0)
(11.08724053542911 6.700634841700358 0)
(13.7965444010917 8.781920710407503 0)
(15.72565551841665 10.07559026868838 0)
(16.69165478769042 10.7330788590989 0)
(9.835663716426048 3.678425966491371 0)
(12.85246074629605 6.630611969003859 0)
(13.47361878817289 9.044206712328215 0)
(14.48297277239012 10.25027209792459 0)
(17.3729551002436 11.13155742334504 0)
(17.48900033326155 11.31260177542442 0)
(17.40834219536231 11.39266591293558 0)
(17.37873198229061 11.40792954873788 0)
(17.15611094694803 11.37079853297352 0)
(17.31336200263053 11.55544115711654 0)
(17.33110616353452 11.60831503797126 0)
(17.35617618082137 11.57342808256631 0)
(17.05038426136997 11.16119440559397 0)
(17.20531398145186 11.34651640030548 0)
(17.22996991751932 11.40672343831084 0)
(17.24298562916446 11.40057262618 0)
(15.26746246550167 10.6329021150456 0)
(15.68517613319276 10.73851622230136 0)
(15.81129854204324 10.75044993384486 0)
(15.7547134379648 10.71694410842572 0)
(17.23994685641268 11.53044298838766 0)
(17.51640351750505 11.46857570536417 0)
(18.4729061633035 10.83059963679738 0)
(20.64350799648732 9.189331373185212 0)
(17.31953750621313 11.61515572076826 0)
(17.60091063909314 11.50366508805816 0)
(18.70502892543384 11.10416863737353 0)
(21.30460446713361 11.06819143529373 0)
(17.23369597149942 11.42813578453713 0)
(17.45187133308755 11.38908822432802 0)
(19.00512208688336 11.42631069003354 0)
(25.91256496538434 16.00560976421438 0)
(15.93175295816672 10.80719405136358 0)
(16.3111149998937 10.72385997398752 0)
(18.8727318068006 11.59895329082088 0)
(35.15031544481568 20.79791152067455 0)
(25.25606252159933 4.48785492152957 0)
(25.91615052324217 -3.528611963722102 0)
(7.039901832408107 -5.407550967284746 0)
(3.191298697630327 -1.184245783266402 0)
(26.10634183336827 4.624293460064254 0)
(21.06093271836937 -3.080626236686688 0)
(2.107782469344926 -6.882142930683385 0)
(-0.5042356962372112 -1.590039627094429 0)
(26.0064347417909 2.971457801331415 0)
(13.28899105205773 -5.903773224638445 0)
(0.4819708620069125 -4.56893327615566 0)
(0.3020721522576161 -1.405396313756914 0)
(16.59880415063787 -6.754934278334417 0)
(4.497549727474277 -2.853507054133089 0)
(-1.545526170906455 -2.729894507400221 0)
(-0.4319445353186262 -1.372452863468145 0)
(1.90840366891654 -0.1692420445230964 0)
(1.916918506633062 0.5238046493847268 0)
(2.408699087970375 0.8611151263936367 0)
(1.349495625616379 1.941078671709682 0)
(-1.715331844150883 0.3359293973005177 0)
(-0.8517008749303032 1.914888456385752 0)
(0.2078296936823423 2.822912445863407 0)
(0.7177778395750675 3.748188623716907 0)
(0.1734379828626356 0.2874879232404302 0)
(0.7830523442573731 1.924758889070626 0)
(1.491445280921316 3.325402977605993 0)
(1.08896637563059 5.435113787408838 0)
(-0.4329490398609819 0.2130162790050297 0)
(0.01560686951313795 1.835366967678086 0)
(0.8965830023408695 3.492947708659051 0)
(-0.2662545463211633 5.92956903061798 0)
(15.97187740242159 -6.518537440742485 0)
(21.11430206816525 -4.844919822202194 0)
(23.45025822180061 -4.483313673615699 0)
(24.2923686761128 -3.516615577101967 0)
(10.50737090823881 -4.613368677979724 0)
(17.50754561002273 -4.914530775002325 0)
(21.27570895204462 -5.757343632803678 0)
(23.55523083869052 -3.938571534832624 0)
(2.31534809202085 -1.488378131581247 0)
(9.581322720485884 -3.181736308785177 0)
(16.07871072266197 -5.109398812814165 0)
(24.17809274915651 -3.028601289418958 0)
(-0.1414800573121811 1.552981183115345 0)
(4.102688973646997 2.204220934840778 0)
(12.5296602814116 1.149437415710276 0)
(28.24772922718814 -1.40581271395085 0)
(25.5087856910559 -7.507253401319158 0)
(26.94365049927412 -13.22568127074599 0)
(29.13072848195871 -19.78078364983761 0)
(18.38990315052724 -15.62523561998203 0)
(25.76301067126144 -8.634241193666643 0)
(26.54908760543999 -15.88910632073784 0)
(28.45424845830424 -24.43331600871515 0)
(20.00505898182015 -15.50531471106567 0)
(26.12968509932472 -10.9624623126617 0)
(25.88164265737848 -14.90320762473335 0)
(21.00207288954573 -23.1008083751747 0)
(12.01412494804476 -12.68232729647088 0)
(17.28379043462055 -12.00901958112004 0)
(9.519876593051448 -16.27127373338904 0)
(4.250541999469027 -13.32321656990664 0)
(1.106871545052999 -5.963377980480378 0)
(0.8458935619800874 -4.008683677580983 0)
(-0.4448469196384767 -2.395757197016328 0)
(-1.952022381632035 0.5223588439929103 0)
(-3.513869529870421 -0.2866538877610908 0)
(6.110994207318845 -5.71894449821174 0)
(1.033829698114206 -4.276215489588632 0)
(-2.616941294374566 0.1589727357345228 0)
(-4.020066736923425 -0.4907156502852472 0)
(7.622155308284316 -9.598648778528494 0)
(1.394495114053138 -9.10205002295988 0)
(0.3074051139864638 -4.146901080053548 0)
(0.9511071953203225 -1.729978231571657 0)
(10.4388650746197 -11.5174547854528 0)
(7.215713903684716 -9.785050725406935 0)
(6.724229937417419 -5.4350376561788 0)
(7.585499238216359 -2.096458484878862 0)
(-3.513869529869961 0.2866538877598334 0)
(-4.020066736922706 0.4907156502698207 0)
(0.9511071953276685 1.729978231553136 0)
(7.585499238211439 2.09645848483061 0)
(-1.952022381628427 -0.5223588439946764 0)
(-2.616941294368544 -0.158972735753682 0)
(0.3074051140012098 4.146901080002536 0)
(6.724229937432757 5.435037656110343 0)
(-0.4448469196367939 2.395757197025878 0)
(1.03382969811946 4.276215489596003 0)
(1.394495114092035 9.102050022962484 0)
(7.215713903709084 9.785050725385249 0)
(0.8458935619819425 4.008683677587946 0)
(6.110994207302046 5.718944498194665 0)
(7.622155308327073 9.598648778545908 0)
(10.43886507463796 11.51745478546686 0)
(18.38990315057573 15.62523561999316 0)
(29.13072848205213 19.78078364978173 0)
(26.94365049937548 13.22568127077152 0)
(25.50878569116384 7.507253401331103 0)
(20.00505898181114 15.50531471108123 0)
(28.4542484582593 24.43331600873061 0)
(26.54908760548268 15.88910632068983 0)
(25.76301067133832 8.634241193655834 0)
(12.01412494806442 12.68232729641173 0)
(21.00207288953986 23.10080837514898 0)
(25.88164265740059 14.90320762474603 0)
(26.12968509937404 10.96246231265319 0)
(1.106871545053693 5.963377980471368 0)
(4.250541999467241 13.32321656991498 0)
(9.519876593063117 16.27127373338689 0)
(17.28379043463561 12.00901958112712 0)
(28.2477292272296 1.405812713941065 0)
(12.52966028141817 -1.149437415700256 0)
(4.102688973650524 -2.204220934852107 0)
(-0.1414800573615195 -1.552981183212608 0)
(24.1780927492127 3.02860128940406 0)
(16.07871072270855 5.109398812798317 0)
(9.581322720467712 3.181736308774739 0)
(2.315348091939113 1.488378131487888 0)
(23.5552308387572 3.93857153480952 0)
(21.27570895211881 5.757343632832843 0)
(17.50754560999189 4.91453077503424 0)
(10.5073709081259 4.613368677796228 0)
(24.2923686761799 3.5166155770768 0)
(23.45025822186507 4.483313673661939 0)
(21.11430206813915 4.844919822277008 0)
(15.97187740237963 6.5185374406349 0)
(1.349495625634077 -1.941078671597131 0)
(2.408699087870152 -0.8611151263462793 0)
(1.916918506584957 -0.5238046494627159 0)
(1.908403668928189 0.1692420444460553 0)
(0.7177778396656654 -3.748188623779397 0)
(0.2078296936156343 -2.822912445811984 0)
(-0.8517008749586646 -1.91488845639219 0)
(-1.715331844075447 -0.3359293973388485 0)
(1.088966375680874 -5.435113787468746 0)
(1.491445280891827 -3.325402977583774 0)
(0.7830523442329559 -1.92475888906716 0)
(0.1734379828796029 -0.2874879232710383 0)
(-0.2662545463118985 -5.929569030645856 0)
(0.8965830023347928 -3.492947708651633 0)
(0.01560686950786651 -1.835366967674961 0)
(-0.4329490398498324 -0.2130162790328663 0)
(3.191298697699196 1.184245783203002 0)
(7.039901832377345 5.407550967383651 0)
(25.91615052316489 3.52861196375164 0)
(25.25606252159979 -4.487854921530894 0)
(-0.504235695995936 1.590039627020758 0)
(2.107782469410401 6.882142930696748 0)
(21.06093271835603 3.080626236630216 0)
(26.10634183344405 -4.624293460077114 0)
(0.3020721523606361 1.405396313688517 0)
(0.481970862035186 4.568933276118914 0)
(13.28899105202922 5.903773224657043 0)
(26.00643474184971 -2.971457801392252 0)
(-0.4319445352605567 1.37245286340517 0)
(-1.545526170869188 2.729894507367515 0)
(4.49754972748284 2.853507054164822 0)
(16.59880415071949 6.754934278324178 0)
(20.64350799650836 -9.189331373162617 0)
(18.47290616326393 -10.8305996368092 0)