/*--------------------------------*- C++ -*----------------------------------*\
  =========                 |
  \\      /  F ield         | OpenFOAM: The Open Source CFD Toolbox
   \\    /   O peration     | Website:  https://openfoam.org
    \\  /    A nd           | Version:  11
     \\/     M anipulation  |
\*---------------------------------------------------------------------------*/
FoamFile
{
    format      ascii;
    class       volScalarField;
    location    "0.074";
    object      rho;
}
// * * * * * * * * * * * * * * * * * * * * * * * * * * * * * * * * * * * * * //

dimensions      [0 0 0 0 0 0 0];

internalField   nonuniform List<scalar> 
880
(
0.3733250556165154
0.3733250556165154
0.3733250556165154
0.3733251030131738
0.3733250556165154
0.3733250556165154
0.3733250556165152
0.3733257603421976
0.3733250556165154
0.3733250556165153
0.3733250556165191
0.3733300356140354
0.3733250556165154
0.3733250556165154
0.3733250556207801
0.3733299717036921
0.3733250556165154
0.3733250556165155
0.3733250556165152
0.3733250556165155
0.3733250556165154
0.3733250556165154
0.3733250556165151
0.3733250556165154
0.3733250555873506
0.3733250536875741
0.3733446688043083
0.3732711940227337
0.3747912187566749
0.3797892700693509
0.3842965101824887
0.3867859151378373
0.3733250583481457
0.3733250600610372
0.3733250608474837
0.3733250577126463
0.3733251473954807
0.373325226000469
0.3733252892228083
0.3733251671393143
0.3734109937323316
0.3734376115324606
0.3734671716186421
0.3734381018360003
0.388690558084012
0.3910001859609279
0.3932965516442334
0.3942818604532757
0.3924469914337739
0.3880266409567695
0.384212601188519
0.3806524521249098
0.3735663737248565
0.3737467911733512
0.3738087376093447
0.3736305118388948
0.3733256112913386
0.3733260427804846
0.3733262426740769
0.3733258319908007
0.373325071825907
0.3733250764528721
0.3733250753329772
0.3733250661431888
0.3733250579344464
0.3733250557678652
0.3733250556180477
0.3733250556165155
0.373325303636198
0.3733250871787676
0.3733250567218703
0.3733250556088453
0.3734287461601223
0.3733421505820125
0.3733259329371205
0.3733250640756838
0.3770350276904898
0.3743785065558809
0.3734397031227617
0.3733281685069256
0.3733250596605447
0.3733250549733125
0.3733250556077316
0.3733250556165154
0.3733250554435948
0.3733250548971842
0.3733250555666581
0.3733250556142947
0.3733227095255368
0.3733250933299602
0.3733250641163366
0.3733250563599526
0.3752091413691038
0.3733119237296263
0.373323757632911
0.3733250494323439
0.3733250387215026
0.3733246036469077
0.3733682670635475
0.3989088156179194
0.3733250563678904
0.3733252662894362
0.3735774590139654
0.4209083664010898
0.3733250842434113
0.3733260718745706
0.3738539936927663
0.4321021632355483
0.3733251006318701
0.3733267567737321
0.374124072749921
0.443704778666863
0.450712520895851
0.3742706093336643
0.3733271588232129
0.3733251134982642
0.4582332750994004
0.3745320773340153
0.3733280469336463
0.3733251357922975
0.4626191179606043
0.3746862359357659
0.3733285177393171
0.3733251538441234
0.4698016640071125
0.3751009906298776
0.3733305112608494
0.3733252140786466
0.3733252092165143
0.3733303378408785
0.3753119234614614
0.4788248207145603
0.3733252560429817
0.3733320109806121
0.3757503656327201
0.4845097833389767
0.3733253261226194
0.3733340723493936
0.3760089020989145
0.4775481643981118
0.3733251662832094
0.3733284011459583
0.3746634900484891
0.4405670750141541
0.3733250225569715
0.3733498167587977
0.3752346081757173
0.388507808988972
0.3733248639199765
0.3733158408694043
0.3727569967779673
0.3260452139947483
0.373324983012073
0.3732945610346665
0.3699928972482402
0.2840826119262503
0.3733249298491587
0.3732625854419777
0.3665723332730774
0.2512564797454914
0.247267360049465
0.3673068379483166
0.3732861662764972
0.3733249682564279
0.2449662482474919
0.3674101285769855
0.3732895969406981
0.3733249839789572
0.2550920857405557
0.3693085353977654
0.3733072437716823
0.3733250227735707
0.2509233095303489
0.3689683730846036
0.3733051033271034
0.3733250192430614
0.2924364757281884
0.3716933259614726
0.3733193824797273
0.373325044902058
0.3319079893900808
0.3729340137289823
0.3733240830817919
0.3733250540834415
0.3547802423591361
0.3732257253725866
0.3733248353814603
0.37332505531525
0.3656663017603439
0.3732791132105578
0.3733249261556544
0.3733250552689125
0.3516365435552736
0.3728094907343489
0.3733211523241125
0.3733250417650343
0.3520485984732598
0.372815595324356
0.3733211614101391
0.373325041749473
0.352874686104753
0.3728196268774805
0.3733211568370337
0.3733250416544289
0.3547502543049623
0.3728403009926462
0.3733212404892143
0.3733250418407068
0.3656663017601557
0.3732791132098913
0.3733249261547734
0.3733250552695961
0.3547802423578322
0.3732257253715991
0.3733248353789723
0.3733250553155136
0.3319079893892629
0.3729340137291735
0.3733240830815032
0.3733250540837876
0.2924364757288691
0.371693325963205
0.3733193824798292
0.3733250449014985
0.3733249682577065
0.3732861662787169
0.3673068379486053
0.2472673600490459
0.3733249839799354
0.3732895969418193
0.367410128577526
0.2449662482478164
0.3733250227721003
0.3733072437731921
0.3693085353977423
0.255092085741456
0.3733250192435498
0.3733051033271875
0.3689683730874925
0.2509233095294919
0.2512564797435972
0.3665723332723926
0.3732625854411348
0.3733249298491371
0.2840826119239819
0.3699928972468532
0.3732945610322463
0.3733249830083993
0.3260452139940976
0.3727569967760444
0.3733158408694988
0.3733248639186694
0.3885078089894159
0.3752346081750785
0.3733498167581174
0.3733250225598567
0.3733252092158739
0.3733303378425594
0.375311923463103
0.4788248207164654
0.3733252560435464
0.373332010980744
0.3757503656323719
0.4845097833385471
0.3733253261241074
0.3733340723494459
0.3760089020973812
0.4775481643978329
0.373325166286181
0.3733284011458389
0.3746634900475487
0.4405670750138054
0.4698016640109218
0.3751009906275437
0.3733305112633287
0.3733252140782665
0.4626191179643758
0.3746862359368787
0.3733285177405409
0.3733251538447696
0.4582332750989636
0.374532077339927
0.3733280469346787
0.3733251357917808
0.4507125208943022
0.3742706093322676
0.3733271588246193
0.3733251134977061
0.3733250387229815
0.3733246036485511
0.3733682670637177
0.3989088156152273
0.3733250563663008
0.3733252662877894
0.3735774590137787
0.4209083664018654
0.3733250842425838
0.3733260718748193
0.3738539936960456
0.4321021632351335
0.3733251006308902
0.3733267567734048
0.3741240727446887
0.4437047786714309
0.3733250494320324
0.3733250563606149
0.3733250556142659
0.3733250556165154
0.3733237576307172
0.3733250641160085
0.3733250555683417
0.3733250556072528
0.3733119237300259
0.3733250933309797
0.3733250548961611
0.3733250549726662
0.3752091413691675
0.3733227095257992
0.3733250554436031
0.3733250596604589
0.3733250556159918
0.3733250556088204
0.3733250640759869
0.3733281685074031
0.3733250556178901
0.3733250567214563
0.3733259329401466
0.3734397031229748
0.3733250557683503
0.373325087178681
0.3733421505807379
0.374378506556262
0.3733250579349571
0.3733253036355934
0.3734287461613521
0.3770350276900327
0.3733250718239462
0.3733256112893626
0.3735663737238102
0.392446991433101
0.3733250764512851
0.3733260427811468
0.3737467911736556
0.3880266409550106
0.3733250753325834
0.373326242676628
0.3738087376090639
0.3842126011880433
0.3733250661427321
0.3733258319921749
0.3736305118390331
0.3806524521240454
0.3942818604539018
0.3734381018381308
0.373325167137838
0.3733250577116909
0.3932965516437876
0.373467171621794
0.3733252892223194
0.3733250608478573
0.3910001859631776
0.3734376115313963
0.3733252260012517
0.3733250600605321
0.3886905580838552
0.3734109937282427
0.3733251473946196
0.3733250583486715
0.38678591513851
0.3732711940281473
0.3733250556165154
0.3733250556165164
0.384296510181539
0.373344668798228
0.3733250556165154
0.3733250556165154
0.3797892700699922
0.3733250536872376
0.3733250556165154
0.3733250556165153
0.37479121875648
0.3733250555867242
0.3733250556165154
0.3733250556165151
0.3733250556165154
0.3733250556165154
0.3733250556165154
0.3733251030326992
0.3733250556165152
0.3733250556165155
0.3733250556165153
0.3733257603262325
0.3733250556165154
0.3733250556165154
0.3733250556165247
0.3733300356094989
0.3733250556165154
0.3733250556165154
0.3733250556203032
0.3733299717040075
0.3733250756547015
0.3733255499613994
0.3733307720850391
0.3736998128020417
0.3733255500136112
0.3733245886915781
0.3733241817574848
0.3749024840765982
0.373330771988565
0.3733241816525193
0.3738783803637837
0.3854655254682734
0.3736998128194804
0.3749024840694308
0.385465525531282
0.435295288169678
0.5192375172841994
0.4591100471125553
0.4288697584489146
0.3974613960042083
0.5098815802439755
0.4958090769366766
0.4891879674217547
0.4613372890377154
0.505173224658735
0.5013110038674159
0.4999423565512627
0.4887434469371761
0.505827112113043
0.504050919805733
0.5046742932308206
0.498515721527423
0.5053338739855225
0.5085243189244404
0.5102743198720373
0.5165375721038308
0.5090853082719188
0.5133939546198533
0.5156544049430805
0.5258915855795766
0.5088663043139595
0.5133895697363622
0.5157324948634355
0.5256524341765004
0.5099752667909675
0.5158226434416835
0.5188873604893757
0.5277077365923484
0.4554333696496072
0.3915410537581898
0.3776447944150903
0.3793133954381843
0.4262906079187344
0.3699681093606564
0.3714570875782027
0.3777293200585855
0.3979760689775474
0.3679424023354708
0.3730255025805242
0.379604760302382
0.3423503214953655
0.353377675144231
0.3703913350846084
0.3784864053907967
0.3790331136047715
0.3759608598043256
0.3738451724743277
0.3733587369253342
0.3782672180697964
0.3761596453375428
0.3740470841585357
0.3733847688102335
0.3798573574002181
0.3771925451392892
0.3743916779478801
0.3734215262223003
0.3790542309687815
0.375687401928041
0.3735711435886568
0.3732983896412678
0.3733255320908982
0.3733250539600466
0.3733251584669766
0.4170977091565659
0.3733261196469058
0.3733250526699593
0.3733254058061641
0.44105913912527
0.3733269461946633
0.3733250462626284
0.3733255627030219
0.4553072465005469
0.3733231915388951
0.3733249995907327
0.3733256127719876
0.4575266989706198
0.6493048430931749
0.6628581752837879
0.670216487099453
0.6830265900687716
0.7119828292440409
0.6996051358512527
0.6987529443504049
0.712831297786952
0.7067751921593124
0.6915239193249146
0.704322066129648
0.7194180378733421
0.7373057586837273
0.7081407034968848
0.7053903749597779
0.7182642145856788
0.693294106803569
0.6997327318614112
0.700450824623836
0.7018984364658636
0.7238055741609152
0.7308280582531406
0.7315810646847735
0.7315942788946797
0.7332697105809748
0.7417679263027969
0.7431477115296585
0.7430586544537404
0.7344777480688714
0.7444899280338462
0.7467556236587107
0.7469230332431459
0.7017592981806081
0.6936112344565118
0.6603438027151683
0.5761314088013992
0.7290174660209623
0.7198075788996561
0.6838006036149752
0.6066296199964343
0.7423852928713921
0.7331235207933788
0.6950195602751209
0.6377759605993786
0.7462159817946588
0.7387786930976977
0.697984736037266
0.743355005013838
0.3983324982335021
0.1210655881311906
0.05855839352996247
0.05038079368588581
0.3259794171054657
0.0807409207045223
0.05652231293344941
0.05462788825079086
0.243769788502855
0.06035413743550933
0.06240358167311916
0.07233629449752875
0.1788308874341517
0.0421262935243524
0.07819496919977868
0.09027037078878761
0.0562033045683813
0.05941530479939523
0.0635092424327983
0.05489971995141372
0.05519563709266444
0.05961295028633491
0.06103403712892137
0.04677916384918999
0.0741957959278024
0.07862631564865126
0.0736177401422039
0.05311345114999679
0.09453686739880916
0.09826093330904319
0.08330799527062872
0.05974126652012113
0.1379474593423995
0.2213928601138892
0.2634611105799435
0.3008698965499511
0.1084942771581262
0.18569233460564
0.2299839541054012
0.2824625732022225
0.1040640258326952
0.1742066931027184
0.2202863833619043
0.2717938765216829
0.08552177966232892
0.1447076412137117
0.1993408783997534
0.2499282518911947
0.2391400448107659
0.1565667845112515
0.1283809715003839
0.1530005664076824
0.2042711811355857
0.1285094933018401
0.06857951072617471
0.067347541989632
0.171408302697999
0.09278476823059237
0.0457607480744187
0.05108855258397317
0.1234520343186681
0.06334658480088676
0.03077297792315036
0.05055244155091531
0.07477091783814879
0.09409654159972006
0.1282851474011967
0.1664639690951067
0.06723456444927869
0.08754443743418759
0.139592975981114
0.20007891705581
0.09572891171816403
0.1180790550909547
0.1538943656780826
0.2165301226859986
0.1623374746231368
0.1592316133889874
0.1678177636662732
0.1976953760613374
0.166463969094971
0.2000789170558381
0.2165301226861369
0.1976953760615058
0.1282851474009529
0.1395929759809473
0.1538943656783754
0.1678177636664553
0.09409654159955981
0.08754443743398556
0.1180790550906157
0.1592316133885757
0.0747709178381754
0.06723456444929336
0.09572891171796814
0.1623374746224945
0.1530005664068633
0.1283809714997974
0.1565667845110568
0.239140044809723
0.06734754198948685
0.06857951072609941
0.1285094933016645
0.2042711811352152
0.05108855258403591
0.04576074807443019
0.09278476823046987
0.1714083026978799
0.05055244155100489
0.03077297792316689
0.06334658480092868
0.1234520343187356
0.2499282518914023
0.1993408784002805
0.1447076412141519
0.08552177966211984
0.2717938765216367
0.2202863833621088
0.1742066931029604
0.1040640258324798
0.2824625732021092
0.2299839541049613
0.1856923346056348
0.1084942771580571
0.300869896549704
0.2634611105791536
0.2213928601135415
0.1379474593418837
0.05489971995067271
0.06350924243335808
0.05941530479957708
0.05620330456803886
0.04677916384882003
0.0610340371291288
0.05961295028653235
0.05519563709272809
0.05311345114978224
0.07361774014243631
0.07862631564884714
0.07419579592774615
0.05974126651999732
0.08330799527077599
0.09826093330921365
0.09453686739856007
0.05038079368495629
0.05855839352873907
0.1210655881305909
0.3983324982331692
0.05462788825066122
0.05652231293314722
0.08074092070420304
0.3259794171042219
0.07233629449718039
0.06240358167273404
0.06035413743558506
0.243769788502314
0.09027037078786093
0.07819496919929313
0.04212629352442419
0.1788308874340417
0.5761314088005117
0.6603438027157628
0.6936112344562817
0.7017592981814841
0.6066296199955129
0.6838006036157895
0.7198075789001767
0.7290174660224632
0.6377759605987505
0.6950195602755448
0.7331235207944155
0.7423852928725254
0.7433550050138595
0.6979847360353019
0.7387786930984896
0.7462159817963185
0.701898436469069
0.7004508246285177
0.6997327318594128
0.6932941067986166
0.7315942788969559
0.7315810646880561
0.7308280582519467
0.7238055741564248
0.7430586544541972
0.743147711531327
0.7417679263028176
0.7332697105787781
0.7469230332440829
0.7467556236599604
0.7444899280339493
0.7344777480680441
0.6830265900771563
0.6702164870972289
0.662858175285446
0.6493048430917068
0.7128312977931149
0.6987529443484238
0.6996051358526418
0.7119828292431426
0.7194180378781193
0.7043220661277596
0.6915239193253467
0.7067751921582205
0.7182642145893402
0.7053903749575716
0.7081407034973405
0.73730575868239
0.4170977091564307
0.3733251584648761
0.3733250539598683
0.3733255320909594
0.4410591391245223
0.3733254058042412
0.3733250526696399
0.3733261196474038
0.4553072464984863
0.3733255627003301
0.3733250462623786
0.3733269461955647
0.4575266989696167
0.3733256127727139
0.3733249995905671
0.3733231915404172
0.3733587369254175
0.3738451724740778
0.3759608598054119
0.3790331136035944
0.3733847688097688
0.3740470841583577
0.376159645338242
0.378267218068061
0.3734215262213116
0.3743916779484333
0.377192545139298
0.3798573573988564
0.3732983896400227
0.3735711435893521
0.3756874019280608
0.3790542309667732
0.3793133954376763
0.3776447944147908
0.391541053757543
0.4554333696502638
0.37772932005796
0.3714570875779721
0.3699681093603718
0.4262906079194515
0.3796047603015928
0.3730255025802634
0.3679424023349318
0.3979760689786318
0.3784864053898009
0.37039133508405
0.3533776751428759
0.3423503214962727
0.5165375721039792
0.5102743198700098
0.5085243189235321
0.5053338739858195
0.5258915855789214
0.5156544049422791
0.5133939546198416
0.5090853082737492
0.5256524341757651
0.5157324948629928
0.5133895697367783
0.508866304316033
0.5277077365921079
0.5188873604889941
0.5158226434418937
0.5099752667925761
0.4985157215282576
0.4887434469361146
0.4613372890404442
0.3974613960057802
0.5046742932314835
0.4999423565504497
0.4891879674238243
0.4288697584525983
0.5040509198065493
0.5013110038671319
0.4958090769401167
0.4591100471119141
0.505827112113588
0.5051732246587722
0.5098815802450166
0.5192375172926147
0.3655582316190511
0.3732442216637049
0.3733246456759485
0.3733250544553319
0.3620495461143012
0.3731747650086238
0.3733241216100873
0.3733250525249218
0.3597820240918453
0.3730695949398733
0.3733232059303901
0.3733250490505045
0.3542271237396737
0.3728792343494615
0.3733216793063828
0.3733250436753124
0.3733250417660044
0.3733211523240276
0.3728094907333709
0.3516365435531419
0.3733250417501148
0.3733211614112001
0.3728155953225951
0.3520485984730007
0.3733250416535262
0.3733211568379838
0.3728196268772231
0.352874686103662
0.3733250418377529
0.3733212404905088
0.3728403009893865
0.3547502543038928
0.3733250436745734
0.3733250490499234
0.3733250525218207
0.373325054451716
0.3733216793067967
0.3733232059303326
0.3733241216095693
0.373324645674483
0.3728792343499828
0.3730695949384281
0.3731747650100553
0.3732442216628721
0.3542271237392155
0.3597820240901409
0.3620495461139987
0.3655582316197229
)
;

boundaryField
{
    back
    {
        type            empty;
    }
    inlet
    {
        type            calculated;
        value           nonuniform List<scalar> 
16
(
0.3733250556165154
0.3733250556165154
0.3733250556165154
0.3733250556165154
0.3733250556165154
0.3733250556165155
0.3733250556165152
0.3733250556165156
0.3733250556165164
0.3733250556165154
0.3733250556165154
0.3733250556165151
0.3733250556165154
0.3733250556165152
0.3733250556165154
0.3733250556165154
)
;
    }
    front
    {
        type            empty;
    }
    top
    {
        type            calculated;
        value           nonuniform List<scalar> 
40
(
0.3733250583481458
0.3733250600610372
0.3733250608474837
0.3733250577126463
0.373325071825907
0.3733250764528721
0.3733250753329772
0.3733250661431888
0.3733250579344464
0.3733250557678652
0.3733250556180477
0.3733250556165155
0.3733250556165154
0.3733250556142947
0.3733250563599526
0.3733250494323439
0.3733250387215026
0.3733250563678904
0.3733250842434113
0.3733251006318701
0.3733251134982642
0.3733251357922975
0.3733251538441234
0.3733252140786466
0.3733252092165143
0.3733252560429817
0.3733253261226194
0.3733251662832095
0.3733250225569716
0.3733248639199765
0.373324983012073
0.3733249298491587
0.3733249682564279
0.3733249839789572
0.3733250227735707
0.3733250192430614
0.373325044902058
0.3733250540834415
0.37332505531525
0.3733250552689125
)
;
    }
    outlet
    {
        type            calculated;
        value           uniform 0.3733250556165154;
    }
    bottom
    {
        type            calculated;
        value           nonuniform List<scalar> 
40
(
0.3733250552695961
0.3733250553155137
0.3733250540837876
0.3733250449014985
0.3733249682577065
0.3733249839799354
0.3733250227721003
0.3733250192435498
0.3733249298491372
0.3733249830083993
0.3733248639186694
0.3733250225598567
0.3733252092158739
0.3733252560435464
0.3733253261241074
0.373325166286181
0.3733252140782665
0.3733251538447696
0.3733251357917808
0.373325113497706
0.3733250387229815
0.3733250563663009
0.3733250842425838
0.3733251006308902
0.3733250494320324
0.3733250563606149
0.3733250556142659
0.3733250556165154
0.3733250556159918
0.3733250556178901
0.3733250557683503
0.3733250579349571
0.3733250718239461
0.3733250764512852
0.3733250753325834
0.3733250661427321
0.3733250577116909
0.3733250608478573
0.3733250600605322
0.3733250583486715
)
;
    }
    wall
    {
        type            calculated;
        value           nonuniform List<scalar> 
104
(
0.5192375172841994
0.5098815802439755
0.505173224658735
0.505827112113043
0.5099752667909675
0.5158226434416835
0.5188873604893757
0.5277077365923484
0.3423503214953655
0.353377675144231
0.3703913350846084
0.3784864053907967
0.3790542309687815
0.375687401928041
0.3735711435886568
0.3732983896412678
0.3733231915388951
0.3733249995907327
0.3733256127719876
0.4575266989706198
0.7373057586837273
0.7081407034968848
0.7053903749597779
0.7182642145856788
0.7344777480688714
0.7444899280338462
0.7467556236587107
0.7469230332431459
0.7462159817946588
0.7387786930976977
0.697984736037266
0.743355005013838
0.1788308874341517
0.0421262935243524
0.07819496919977868
0.09027037078878761
0.09453686739880916
0.09826093330904319
0.08330799527062872
0.05974126652012113
0.08552177966232892
0.1447076412137117
0.1993408783997534
0.2499282518911947
0.1234520343186681
0.06334658480088676
0.03077297792315036
0.05055244155091531
0.07477091783814879
0.09409654159972007
0.1282851474011967
0.1664639690951067
0.166463969094971
0.1282851474009529
0.09409654159955981
0.0747709178381754
0.05055244155100489
0.0307729779231669
0.06334658480092868
0.1234520343187356
0.2499282518914023
0.1993408784002805
0.1447076412141519
0.08552177966211984
0.05974126651999732
0.08330799527077598
0.09826093330921365
0.09453686739856007
0.09027037078786093
0.07819496919929313
0.04212629352442419
0.1788308874340417
0.7433550050138595
0.6979847360353019
0.7387786930984896
0.7462159817963185
0.7469230332440829
0.7467556236599604
0.7444899280339493
0.7344777480680441
0.7182642145893402
0.7053903749575716
0.7081407034973405
0.73730575868239
0.4575266989696167
0.3733256127727139
0.3733249995905671
0.3733231915404172
0.3732983896400227
0.3735711435893521
0.3756874019280608
0.3790542309667732
0.3784864053898009
0.37039133508405
0.3533776751428759
0.3423503214962727
0.5277077365921079
0.518887360488994
0.5158226434418937
0.5099752667925761
0.505827112113588
0.5051732246587722
0.5098815802450166
0.5192375172926147
)
;
    }
}


// ************************************************************************* //
