/*--------------------------------*- C++ -*----------------------------------*\
  =========                 |
  \\      /  F ield         | OpenFOAM: The Open Source CFD Toolbox
   \\    /   O peration     | Website:  https://openfoam.org
    \\  /    A nd           | Version:  11
     \\/     M anipulation  |
\*---------------------------------------------------------------------------*/
FoamFile
{
    format      ascii;
    class       surfaceScalarField;
    location    "17";
    object      phi;
}
// * * * * * * * * * * * * * * * * * * * * * * * * * * * * * * * * * * * * * //

dimensions      [0 3 -1 0 0 0 0];

internalField   nonuniform List<scalar> 
8667
(
1.588487
0.19062436
-0.0013336138
1.3985067
0.19352103
-0.0035407237
1.2067501
0.19669262
-0.004936003
1.0160527
0.19764056
-0.0069431495
0.82384583
0.20051626
-0.0083094016
0.6343022
0.20009313
-0.010549491
0.44278513
0.20350525
-0.011988175
0.25791203
0.19947804
-0.014604934
0.20092707
-0.018756527
0.07574148
1.5884935
0.37990864
1.3981729
0.38384165
1.2068431
0.3880225
1.0154727
0.3890109
0.8237961
0.39219288
0.63287644
0.39101278
0.44235176
0.39402993
0.25781299
0.38401681
0.38437801
0.07436205
1.5884705
0.56921595
1.3981239
0.57418826
1.2068052
0.57934117
1.0152473
0.58056884
0.82299361
0.58444653
0.63229388
0.58171251
0.44135297
0.58497084
0.25656003
0.56880975
0.56890059
0.072037456
1.5884046
0.75858917
1.3983591
0.7642338
1.2067678
0.77093244
1.0153521
0.77198451
0.82256351
0.77723512
0.63141852
0.7728575
0.43992474
0.77646462
0.25466349
0.754071
0.75321957
0.070344513
1.5884562
0.94791056
1.3984969
0.95419309
1.2071073
0.96232204
1.0154638
0.96362798
0.82260569
0.97009328
0.63077882
0.96468437
0.43905201
0.96819143
0.2529938
0.94012921
0.93766918
0.068544185
1.5885472
1.1371412
1.3988044
1.1439358
1.207532
1.1535945
1.0157609
1.155399
0.82273467
1.1631195
0.629973
1.157446
0.43749136
1.1606731
0.25077253
1.126848
1.1219688
0.066472876
1.5886213
1.3262977
1.3991508
1.3334064
1.2080954
1.3446499
1.0161046
1.3473899
0.82290589
1.3563182
0.62987721
1.3504747
0.43674164
1.3538086
0.24861526
1.3149744
1.3069392
0.063644894
1.5888451
1.5152304
1.3994016
1.5228499
1.2087528
1.5352987
1.0168066
1.5393361
0.82307683
1.5500479
0.62924013
1.5443114
0.4352798
1.547769
0.24624001
1.5040142
1.4918182
0.061361033
1.5890808
1.7039274
1.3998787
1.712052
1.2092348
1.7259426
1.017502
1.7310689
0.82376048
1.7437894
0.62960166
1.7384702
0.43456665
1.742804
0.24364199
1.6949389
1.6786315
0.056828664
1.8862761
1.5954291
2.0683702
1.5956838
2.2501454
1.5960032
2.4317392
1.5961842
2.6129922
1.5965229
2.7939498
1.5968204
2.9747349
1.5969929
3.1548633
1.5976496
1.5974817
3.3351596
1.8950028
1.4124783
2.0776508
1.4130358
2.2601247
1.4135293
2.4422372
1.4140716
2.6242658
1.4144943
2.8056868
1.4153995
2.9869547
1.415725
3.1676739
1.4169304
1.416806
3.3483495
1.9109506
1.2274702
2.0956296
1.2283568
2.2799923
1.2291667
2.4636896
1.2303742
2.6470901
1.2310939
2.829898
1.2325916
3.0124595
1.2331634
3.1946755
1.2347144
1.2350703
3.3764113
1.9177759
1.0407632
2.1042093
1.0419233
2.2908167
1.0425593
2.4771104
1.0440805
2.6633662
1.0448382
2.8493612
1.0465966
3.0351574
1.0473672
3.2206622
1.0492097
1.0499485
3.4057839
1.9331233
0.85142934
2.1226539
0.85239268
2.3124248
0.85278843
2.5023927
0.85411268
2.6923323
0.85489855
2.8824729
0.85645604
3.0721718
0.85766825
3.2619629
0.85941849
0.86093269
3.4509788
1.9290801
0.66081953
2.1208443
0.66062848
2.3131927
0.66044
2.5067489
0.66055643
2.7004161
0.66123139
2.8951747
0.66169741
3.0897608
0.66308215
3.2853908
0.66378848
0.66539938
3.4809241
1.9346555
0.46896797
2.128989
0.46629501
2.3241934
0.46523564
2.5224925
0.46225734
2.7214123
0.46231151
2.9225117
0.46059807
3.123745
0.46184878
3.3265737
0.46095981
0.46300503
3.5289681
1.8852806
0.27862622
2.0820922
0.26948347
2.2822458
0.26508196
2.486791
0.2577122
2.6928848
0.25621766
2.9019301
0.25155284
3.1115929
0.25218592
3.3234006
0.24915217
0.2512885
3.5351171
1.8741656
0.083092082
2.0882427
0.055406391
2.3136666
0.039658026
2.5449343
0.026444596
2.7777003
0.023451616
3.0112709
0.017982265
3.2459601
0.017496663
3.4801429
0.014969429
3.7154572
0.015974127
3.324437
0.010722652
3.3143462
0.010090773
3.3043985
0.0099476628
3.295299
0.0090995116
3.286286
0.0090130389
3.2782627
0.0080232712
3.2702404
0.0080223099
3.2633334
0.0069069635
0.006963027
3.2563704
3.340425
0.018647202
3.3332634
0.017252358
3.3262223
0.016988759
3.3199419
0.015379896
3.3137429
0.01521201
3.3084032
0.013363022
3.30312
0.013305508
3.2988295
0.011197476
0.011304872
3.2944876
3.369753
0.025305521
3.3635879
0.023417452
3.3577003
0.022876293
3.352198
0.020882244
3.3470312
0.020378782
3.3422724
0.01812183
3.3379107
0.017667215
3.334028
0.015080148
0.014748266
3.3305846
3.4010183
0.030071088
3.3966992
0.027736631
3.3926889
0.026886564
3.3889614
0.024609748
3.3855314
0.023808807
3.3823923
0.021260924
3.3795447
0.020514784
3.3769849
0.017639941
0.01704185
3.3746913
3.4463516
0.034698307
3.4420751
0.032013051
3.4380405
0.030921259
3.4342868
0.028363365
3.4307476
0.027348081
3.4274873
0.024521196
3.4244145
0.023587532
3.421587
0.020467495
0.019721701
3.4189071
3.4785578
0.03706463
3.4764474
0.03412346
3.474689
0.032679705
3.4729495
0.030102847
3.4714743
0.028823275
3.4697712
0.02622429
3.4682696
0.025089154
3.466235
0.022502085
0.021609289
3.4643474
3.5275298
0.03850286
3.5257813
0.035871973
3.5244501
0.034010964
3.5226303
0.031922612
3.5210261
0.030427513
3.5185764
0.028673996
3.5160952
0.027570348
3.5123274
0.026269809
0.02554638
3.5083903
3.5440191
0.029600888
3.5519292
0.027961838
3.560589
0.025351175
3.5678086
0.024703014
3.5751152
0.023120874
3.5801396
0.023649629
3.5841275
0.02358244
3.5841802
0.026217067
0.02815283
3.5815738
3.7319017
0.013156461
3.7452119
0.01465162
3.7545992
0.015963821
3.7603354
0.018966813
3.7605868
0.022869503
3.7548133
0.02942314
3.742578
0.035817727
3.7230414
0.045753639
3.6993729
0.051821375
3.6823462
0.069338888
-0.052312135
3.6511549
0.06710469
-0.035913422
3.6138956
0.063716518
-0.026457201
3.5742547
0.062298803
-0.022657962
3.5329269
0.059178292
-0.017850497
3.4906322
0.058418722
-0.016124005
3.4482958
0.055502484
-0.013166104
3.4063978
0.05565935
-0.013761362
0.053214067
3.3651659
-0.011982131
3.5875034
0.063409255
3.5899939
0.064614178
3.5884746
0.065235835
3.5848754
0.065898004
3.5777802
0.066273504
3.5693043
0.066894629
3.5574085
0.0673983
3.5449153
0.068152579
0.068659683
3.5294696
3.5152738
0.05652577
3.5217177
0.058170312
3.5265838
0.060369759
3.5305598
0.06192198
3.5327947
0.064038566
3.5342013
0.065488076
3.5340199
0.067579654
3.5330938
0.069078696
0.07127585
3.5304776
3.4743898
0.046483316
3.4846946
0.047865514
3.4939933
0.051071084
3.5035069
0.052408364
3.5118844
0.055661079
3.5203608
0.057011683
3.5275819
0.060358545
3.5348526
0.061807993
0.065307314
3.5408212
3.4287067
0.036683706
3.4389309
0.037641381
3.4489353
0.041066616
3.4593485
0.041995188
3.4694036
0.04560599
3.4798739
0.046541375
3.4898658
0.050366706
3.5003167
0.051357098
0.055440564
3.5101834
3.385484
0.025891017
3.3966983
0.026427099
3.4081204
0.029644511
3.4199913
0.030124248
3.4319714
0.033625977
3.4444501
0.034062606
3.4569456
0.037871261
3.4700171
0.038285521
0.042443309
3.4830144
3.3402103
0.016265306
3.3504135
0.016223922
3.361014
0.019044044
3.3722419
0.018896335
3.3838353
0.022032601
3.396143
0.021754844
3.408794
0.02522033
3.422261
0.024818508
0.028677341
3.4360269
3.303828
0.0069249085
3.3133528
0.0066991871
3.3237771
0.008619732
3.3343865
0.0082869398
3.3461099
0.01030916
3.3580064
0.009858332
3.3711824
0.012044353
3.3844682
0.011532689
0.013947579
3.399198
3.2632953
3.2699945
3.2786142
3.2869012
3.2972103
3.3070687
3.319113
3.3306457
3.3445933
3.3579775
-0.013384167
3.3740341
-0.016056676
3.3894769
-0.015442709
3.4078756
-0.018398782
3.4256169
-0.017741241
3.4466389
-0.021021985
3.466977
-0.020338095
3.4909764
-0.023999467
-0.023299933
3.5142764
3.4139773
-0.028163499
3.4303954
-0.032474787
3.4468145
-0.031861807
3.4651004
-0.036684637
3.4833459
-0.035986791
3.5037222
-0.041398294
3.5240113
-0.040627164
3.5467388
-0.046726919
-0.045884564
3.5693234
3.4507288
-0.042865334
3.4656798
-0.047425804
3.4817115
-0.04789346
3.4979521
-0.05292528
3.5154449
-0.053479637
3.5331217
-0.059075102
3.5522467
-0.059752089
3.5715487
-0.066028986
-0.066849059
3.5925132
3.4966961
-0.056547076
3.5102159
-0.060945569
3.5245622
-0.062239716
3.5386741
-0.067037257
3.5537866
-0.068592044
3.5686213
-0.073909859
3.5846569
-0.075787719
3.6004074
-0.081779475
-0.084021774
3.6175801
3.5205963
-0.066959925
3.5303311
-0.070680425
3.5407511
-0.072659676
3.5504151
-0.076701312
3.5609416
-0.079118528
3.5706722
-0.08364045
3.5814502
-0.08656568
3.5914365
-0.091765778
-0.095251918
3.6026666
3.5468989
-0.073037677
3.5516484
-0.075429878
3.5566305
-0.077641771
3.5602694
-0.08034027
3.5643199
-0.083168998
3.5670674
-0.086388008
3.5704459
-0.089944123
3.5725868
-0.093906716
-0.098266457
3.5756014
3.527394
-0.069954022
3.5228788
-0.070914704
3.5179905
-0.072753414
3.5119746
-0.074324419
3.5055988
-0.076793185
3.4983599
-0.079149097
3.490791
-0.082375246
3.4826008
-0.085716507
-0.089802081
3.4741364
3.5137381
-0.054222433
3.4953396
-0.052516217
3.4768003
-0.054214152
3.4558375
-0.053361658
3.4348171
-0.055772768
3.4115258
-0.055857762
3.3882038
-0.059053214
3.3627131
-0.060225819
-0.064382444
3.3372934
3.324545
-0.0136015
3.2840408
-0.012012024
3.2441191
-0.014292425
3.203489
-0.012731597
3.1635044
-0.015788127
3.1218557
-0.014209122
3.0810838
-0.018281344
3.0375656
-0.016707547
2.9952786
-0.022095506
0.066846618
2.948998
-0.020566036
0.094354071
3.309786
0.10322644
3.4652641
0.10133594
3.5774919
0.090858973
3.6131436
0.073943319
3.6344958
0.052788611
3.6136679
0.027410544
3.5947015
3.5416869
0.07221516
2.904493
-0.027710092
0.099307275
3.2826939
0.10832282
3.4562485
0.10540624
3.5804084
0.09347819
3.6250716
0.074902099
3.6530719
0.051860914
3.6367091
0.026705489
3.6198569
3.5683924
0.076281414
2.854543
-0.026331458
0.10550362
3.2534717
0.1147261
3.447026
0.11258133
3.5825532
0.10133706
3.6363159
0.082955539
3.6714534
0.059692534
3.6599721
0.031341561
3.6482079
3.599734
0.083272984
2.8074125
-0.036142493
0.11134245
3.2254022
0.12049613
3.4378724
0.11721596
3.5858334
0.10430863
3.6492232
0.084016157
3.6917459
0.058643192
3.6853451
0.030628379
3.6762227
3.6303623
0.089332591
2.753864
-0.035784096
0.11942463
3.1953102
0.12857365
3.4287233
0.12569061
3.5887164
0.11335946
3.6615544
0.093164547
3.7119408
0.067463113
3.7110465
0.035786155
3.7078996
3.6661485
0.098422448
2.7059864
-0.050544836
0.12623283
3.1674998
0.13493139
3.4200248
0.13073357
3.5929142
0.11660804
3.6756799
0.094252653
3.7342962
0.066376869
3.7389223
0.035210084
3.7390664
3.7013586
0.1064565
2.6522627
-0.052732754
0.13651707
3.1374392
0.1450115
3.4115303
0.14082508
3.5971006
0.1270046
3.6895004
0.10460913
3.7566917
0.076103452
3.767428
0.040732262
3.7744376
3.7420908
0.11803013
2.6108722
-0.076639613
0.14428434
3.111185
0.15177818
3.4040365
0.14607768
3.6028011
0.1303507
3.7052274
0.10561378
3.7814286
0.075106523
3.7979353
0.040494895
3.8090492
3.7825857
0.13079686
2.5581566
-0.078081303
0.15769812
3.0842837
0.16475397
3.3969806
0.15875623
3.6087989
0.14303967
3.7209439
0.11762512
3.8068431
0.08559827
3.8299621
0.046169377
3.8484781
3.8287551
-0.0073509155
3.836106
-0.0059074507
3.8470347
-0.0023903188
3.826445
0.0075279717
3.7969248
0.020377592
3.7080943
0.039085876
3.5900906
0.058854014
3.3772125
0.075543334
3.0675944
2.5764027
0.057297197
-0.011514715
3.8476207
-0.014407469
3.8499274
-0.012553669
3.8245912
-0.0038449251
3.7882161
0.0081738497
3.6960755
0.025655645
3.5726088
0.042721568
3.3601466
0.059370384
3.0509456
2.581239
0.054534141
-0.010562326
3.8581831
-0.012197116
3.8515622
-0.010644518
3.8230386
-0.0024084026
3.77998
0.0082109642
3.6854562
0.024633277
3.5561865
0.041288061
3.3434918
0.055251102
3.0369826
2.5859841
0.050505946
-0.014515063
3.8726981
-0.020344658
3.8573918
-0.021215022
3.8239089
-0.01478457
3.7735495
-0.0045491462
3.6752207
0.011125941
3.5405114
0.026449224
3.3281685
0.041001145
3.0224306
2.5912849
0.035700409
-0.013594595
3.8862927
-0.018002545
3.8617997
-0.01851421
3.8244206
-0.011857329
3.7668926
-0.0029081622
3.6662716
0.011829006
3.5257742
0.026755071
3.3132425
0.038502264
3.0106835
2.5925884
0.037198782
-0.017710778
3.9040035
-0.025856909
3.8699459
-0.029160444
3.8277241
-0.024553761
3.762286
-0.015690106
3.6574079
-0.0016113356
3.5116955
0.012423601
3.2992075
0.026209189
2.9968979
2.590374
0.028423536
-0.01697818
3.9209817
-0.023212989
3.8761807
-0.025600563
3.8301117
-0.02019796
3.7568834
-0.01260987
3.6498198
0.0005864225
3.4984992
0.014341987
3.285452
0.025972252
2.9852676
2.5841493
0.032196917
-0.021021653
3.9420033
-0.030492613
3.8856516
-0.03609332
3.8357124
-0.032896233
3.7536863
-0.025385237
3.6423088
-0.012655664
3.4857696
0.00090678104
3.2718895
0.015600698
2.9705737
2.5752308
0.024519206
-0.019888826
3.9618922
-0.027705684
3.8934685
-0.031904448
3.8399112
-0.026979696
3.7487615
-0.020626969
3.6359561
-0.0086510816
3.4737937
0.0046778696
3.2585606
0.016996715
2.9582548
2.563106
0.029121518
-0.0079476167
2.5485757
0.022477944
0.0077974123
2.9425098
0.020978489
3.2453795
0.032817055
3.4619551
0.039241897
3.6295313
0.041780548
3.7462229
0.034351498
3.8473402
0.023596443
3.9042236
3.9854886
-0.010579035
2.531636
0.027518792
0.0023234744
2.9296073
0.015457549
3.2322454
0.026740574
3.4506721
0.032130876
3.624141
0.036690812
3.7416629
0.031158804
3.8528722
0.022146132
3.9132362
4.0076347
-0.002728291
2.5131287
0.021235544
0.013795366
2.9130836
0.02643228
3.2196085
0.037769238
3.4393352
0.043518562
3.6183916
0.045331929
3.7398496
0.036932261
3.8612719
0.025473902
3.9246946
4.0331086
-0.0065180018
2.492969
0.026677733
0.0066513399
2.8999143
0.019488265
3.2067716
0.030410091
3.4284133
0.035205194
3.6135965
0.039690451
3.7353643
0.033265364
3.867697
0.023668224
3.9342917
4.0567769
6.0535045e-05
2.4722212
0.020687188
0.016896201
2.8830786
0.028923087
3.1947447
0.040086239
3.4172502
0.045372892
3.6083099
0.046787584
3.7339496
0.038013456
3.8764711
0.026525069
3.9457801
4.0833019
-0.0048603173
2.45075
0.026331539
0.0080743137
2.870144
0.020465832
3.1823532
0.031063757
3.4066523
0.035834801
3.6035388
0.040488971
3.7292954
0.033791577
3.8831685
0.02430006
3.9552716
4.107602
0.00028221335
2.4298352
0.020632604
0.016550499
2.8538757
0.027955569
3.1709481
0.039069857
3.395538
0.044610857
3.5979978
0.045969477
3.7279368
0.037465302
3.8916727
0.026628099
3.9661088
4.1342301
-0.0058624123
2.4094182
0.026279386
0.0063138745
2.8416994
0.01803014
3.1592318
0.028502815
3.3850653
0.033861845
3.5926388
0.038932475
3.7228662
0.03270795
3.8978972
0.023977693
3.9748391
4.1582078
-0.0025006717
2.3912059
0.020712961
0.012552196
2.8266466
0.023358677
3.1484253
0.034802876
3.3736211
0.041259469
3.5861822
0.042757825
3.7213678
0.035245242
3.9054098
0.025764785
3.9843195
4.1839726
-0.0083598349
4.1923324
-0.0049545035
3.9809142
0.00090893356
3.8995464
0.012718739
3.709558
0.023535948
3.575365
0.034816832
3.3623402
0.042364998
3.1408772
0.041516407
2.8274952
2.3891732
0.043549192
-0.0084302871
4.2007627
-0.0051117006
3.9775956
0.00033499433
3.8940997
0.0081138482
3.7017792
0.020733568
3.5627453
0.033697981
3.3493758
0.040280936
3.1342942
0.042371808
2.8254043
2.3944311
0.037113879
-0.0034313971
4.2041941
0.0018234229
3.9723408
0.010026982
3.8858961
0.024047822
3.6877583
0.037296845
3.5494963
0.051026505
3.3356461
0.060846693
3.124474
0.058915405
2.8273356
2.4065762
0.046770309
-0.0019257446
4.2061198
0.0032094914
3.9672056
0.011128889
3.8779767
0.021350876
3.6775364
0.036684681
3.5341625
0.052857265
3.3194735
0.063110711
3.1142206
0.065206609
2.8252397
2.4292061
0.042576694
0.0035372118
4.2025826
0.011392726
3.9593501
0.022018661
3.8673508
0.038169177
3.6613858
0.054308893
3.5180227
0.071888018
3.3018944
0.086051593
3.100057
0.087391501
2.8238998
2.4684443
0.048153307
0.0055506861
4.1970319
0.013898561
3.9510022
0.024581154
3.8566682
0.036933395
3.6490336
0.055220619
3.4997355
0.075774758
3.2813403
0.091509203
3.0843226
0.10226022
2.8131487
2.5269132
0.043791301
0.01141799
4.1856139
0.022587548
3.9398326
0.036278205
3.8429775
0.054297567
3.6310142
0.073441871
3.4805912
0.095183821
3.2595983
0.11492158
3.0645848
0.1306937
2.7973766
2.5992474
0.058359535
0.014903058
4.1707109
0.026188446
3.9285472
0.040043683
3.8291223
0.054111117
3.6169468
0.075342956
3.4593594
0.099411603
3.2355297
0.11918318
3.0448132
0.15188438
2.7646754
2.6767242
0.074407538
0.021486297
4.1492246
0.035508345
3.9145252
0.052297565
3.8123331
0.07213538
3.597109
0.093673865
3.4378209
0.11967099
3.2095326
0.1459729
3.0185113
0.18612409
2.7245242
2.6905581
0.17229025
-0.18257823
4.3318028
-0.35188686
4.0838338
-0.5125965
3.9730427
-0.65062656
3.735139
-0.7621543
3.5493486
-0.84818862
3.2955669
-0.91167637
3.0819991
-0.94913442
2.7619823
2.6963955
-0.95497185
-0.18364021
4.515443
-0.35863213
4.2588257
-0.52259236
4.1370029
-0.66009653
3.8726432
-0.77449526
3.6637474
-0.85831019
3.3793818
-0.91775279
3.1414417
-0.92805637
2.7722859
2.500927
-0.73258792
-0.1847785
4.7002215
-0.35966475
4.433712
-0.52564402
4.3029822
-0.67235221
4.0193514
-0.78692971
3.7783249
-0.86791801
3.4603701
-0.91735303
3.1908767
-0.87150517
2.726438
1.8589902
-0.22956831
-0.1848111
4.8850326
-0.36478246
4.6136833
-0.53550319
4.4737029
-0.68281197
4.1666602
-0.79822259
3.8937355
-0.87604976
3.5381973
-0.90508211
3.219909
-0.80884081
2.6301967
1.1041968
-0.054047443
-0.18401434
5.069047
-0.36540645
4.7950755
-0.5353843
4.6436808
-0.69416641
4.3254423
-0.80936448
4.0089336
-0.88099012
3.6098229
-0.88998878
3.2289077
-0.70512397
2.4453319
0.41154792
-0.012475077
-0.18185188
5.2508989
-0.36841379
4.9816374
-0.54375383
4.8190208
-0.70416722
4.4858557
-0.81934415
4.1241105
-0.88284278
3.6733215
-0.85200647
3.1980714
-0.46364952
2.0569749
-0.11088167
0.05878006
-0.17945818
5.430357
-0.36890411
5.1710833
-0.54312105
4.9932378
-0.71431041
4.657045
-0.82920616
4.2390062
-0.87428537
3.7184008
-0.77127773
3.0950638
-0.31072079
1.596418
-0.47237523
0.050772774
-0.17516175
5.6055188
-0.37118858
5.3671101
-0.55057108
5.1726203
-0.72392907
4.830403
-0.83503397
4.3501111
-0.86253038
3.7458972
-0.68367732
2.9162107
-0.24275022
1.1554909
-0.76734545
0.052219999
-0.16962791
5.7751467
-0.37030251
5.5677847
-0.54837144
5.3506892
-0.73222029
5.0142519
-0.83910466
4.4569955
-0.83272542
3.7395179
-0.56577867
2.649264
-0.14604289
0.73575512
-0.98125551
0.067867173
0.045489621
-1.0679773
0.041232139
0.27550723
0.50573751
0.50493764
2.4198335
0.53707562
3.7073799
0.47845685
4.5156143
0.3544189
5.1382898
0.23250611
5.472602
0.096281995
5.7040088
5.8714287
0.01828122
-1.132216
0.04595747
0.22906303
0.2949557
0.48884634
2.1600502
0.54108197
3.6551443
0.47821742
4.5784788
0.34593064
5.2705766
0.22645627
5.5920764
0.089646359
5.8408187
5.9610751
0.00062605281
-1.1794942
0.046652174
0.19344455
0.1021372
0.46525758
1.8882372
0.53927142
3.5811305
0.4816751
4.6360752
0.34705274
5.405199
0.21991259
5.7192165
0.0808595
5.9798718
6.0419346
0.0023895279
-1.2323492
0.05046545
0.18106212
-0.076535387
0.44300995
1.6262894
0.54194878
3.4821916
0.47875819
4.6992657
0.33694726
5.5470099
0.2122864
5.8438774
0.074574409
6.1175838
6.116509
0.01254278
-1.296277
0.05138502
0.17938675
-0.24337936
0.41613022
1.3895459
0.53734722
3.3609746
0.48081975
4.7557932
0.33593638
5.6918933
0.2033862
5.9764276
0.064922031
6.256048
6.181431
0.017031498
-1.3663334
0.053024897
0.17328012
-0.39962798
0.39846048
1.1643656
0.53780425
3.2216309
0.4753218
4.8182757
0.32441893
5.8427961
0.19445771
6.1063888
0.058338181
6.3921675
6.2397692
0.017318901
-1.428592
0.04493978
0.15306915
-0.53537823
0.36572421
0.95171049
0.53151165
3.0558434
0.47586534
4.873922
0.32132265
5.9973388
0.18341184
6.2442996
0.048357318
6.527222
6.2881265
0.012555093
-1.4880799
0.046932756
0.13104888
-0.65387201
0.3427276
0.74003177
0.52841597
2.870155
0.46658202
4.9357559
0.30773828
6.1561826
0.1734263
6.3786116
0.042147101
6.6585012
6.3302736
0.010649246
-1.4980626
-0.00066649175
0.11157317
-0.75479593
0.31121088
0.54039406
0.51155678
2.6698091
0.46407035
4.9832424
0.30432608
6.3159268
0.16059478
6.5223429
0.033193893
6.7859021
6.3634675
0.19832448
-1.6539054
-0.042481693
0.24482705
-0.80129851
0.43182996
0.35339116
0.6123822
2.4892569
0.40179241
5.1938321
0.12874772
6.5889715
-0.028225668
6.6793163
-0.12376991
6.8814464
6.2396976
0.20673428
-1.8520528
-0.0085869624
0.25261079
-0.84717501
0.44015565
0.1658463
0.56533182
2.3640807
0.32209968
5.4370643
0.037174482
6.8738967
-0.13735165
6.8538424
-0.18798731
6.932082
6.0517103
0.21120541
-1.9533319
-0.1099263
0.31377082
-0.94974042
0.51791208
-0.038294958
0.52115768
2.3608351
0.19967014
5.7585518
-0.077101629
7.1506685
-0.19435088
6.9710916
-0.20651775
6.9442489
5.8451925
0.21756103
-1.9634982
-0.20739471
0.34564234
-1.0778217
0.53391056
-0.22656318
0.46387508
2.4308706
0.10519758
6.1172293
-0.17851106
7.4343771
-0.29266446
7.085245
-0.25021048
6.9017949
5.594982
0.21155349
-1.9199089
-0.2551428
0.36642054
-1.2326888
0.54617861
-0.40632125
0.3864612
2.590588
-0.04211364
6.5458042
-0.28937506
7.6816385
-0.3319433
7.1278133
-0.24202407
6.8118757
5.352958
0.20884833
-1.8584855
-0.27027174
0.36750617
-1.3913466
0.51040837
-0.54922345
0.30517632
2.7958201
-0.14473142
6.9957119
-0.36511484
7.9020219
-0.4020678
7.1647663
-0.26365187
6.6734598
5.0893061
0.19399848
-1.7813693
-0.2711146
0.35906053
-1.5564087
0.47333718
-0.6635001
0.19167902
3.0774782
-0.31385644
7.5012474
-0.45376789
8.0419334
-0.41435443
7.1253528
-0.22922516
6.4883305
4.8600809
0.18042848
-1.7386354
-0.22316247
0.32704784
-1.703028
0.40446278
-0.74091504
0.11025216
3.3716888
-0.39217683
8.0036764
-0.49875462
8.1485112
-0.45888555
7.0854837
-0.23277373
6.2622187
4.6273072
0.18283807
-0.12591875
-1.7955547
0.31590373
-1.8360937
0.34193281
-0.76694412
-0.052183315
3.765805
-0.6078645
8.5593576
-0.58107446
8.1217211
-0.44421862
6.9486279
-0.17417039
5.9921704
4.4531368
-0.2998099
-0.73827452
0.033474602
1.0046098
-0.7126234
-1.1564543
1.5692678
-1.179293
-0.50151738
0.96818696
-1.5428699
2.1260686
-1.7624917
-1.6115848
2.4980998
-2.4293849
-1.3878799
-0.99525963
0.77155467
-1.1053719
-1.5615908
1.2790829
-0.36748936
-0.19546807
-0.54241449
-0.062193029
-0.6823606
-0.29567628
-0.47904232
0.036444078
-0.69980018
-0.75233044
-1.1674546
-0.033862925
-1.5131853
2.4717992
-1.4636064
2.4485209
-1.1611456
-1.2977205
-0.9915603
-1.7311761
-0.20863227
-0.9783961
-0.97004261
-0.29481558
-0.21907409
0.034847348
-0.69190555
-0.35524046
-1.1402314
0.41446295
-1.4495144
2.7810822
-1.3146184
2.3136249
-0.88602436
-1.7263145
-0.53077813
-2.0864223
0.13360637
-1.6427806
-1.6242164
-0.28693675
0.032587743
0.035274918
-0.66410842
0.021931202
-1.0837044
0.83405898
-1.3398713
3.0372491
-1.0928012
2.0665548
-0.65464094
-2.1644748
-0.24015856
-2.5009047
0.45779741
-2.3407366
-2.1591024
-0.28427218
0.27789875
0.03896117
-0.63850951
0.37616854
-1.0198721
1.2154216
-1.1940149
3.2113919
-0.81284981
1.6853897
-0.29047732
-2.6868473
0.14486797
-2.93625
0.75478362
-2.9506522
-2.5969111
-0.26606568
0.49682239
0.047142033
-0.57495921
0.68506208
-0.91408248
1.5545449
-1.0452466
3.342556
-0.56126544
1.2014086
0.018251104
-3.2663638
0.44732121
-3.3653201
1.0318211
-3.5351521
-2.9761844
-0.25797229
0.70632655
0.048468129
-0.54976501
0.97685479
-0.8525168
1.8572966
-0.92064531
3.4106845
-0.30874572
0.58950896
0.36173893
-3.9368485
0.79662702
-3.8002082
1.2926493
-4.0311744
-3.2919912
-0.24475936
0.89888284
0.05220307
-0.50052423
1.2326197
-0.75425352
2.1110259
-0.68868244
3.3451134
0.032484764
-0.13165825
0.63925685
-4.5436206
1.0627208
-4.2236721
1.5059533
-4.474407
-3.5723824
-0.23718395
0.059007663
1.0770591
-0.45864535
1.4540811
-0.66576968
2.3181503
-0.40477197
3.0841157
0.42966469
-0.96609491
0.90482848
-5.0187843
1.344126
-4.6629695
1.7337117
-4.8639927
-3.8021807
0.45400975
3.5416525
-0.27867067
-3.7169916
0.57797655
3.7803053
-3.9042721
0.090390254
-0.45450467
0.94209097
-0.52423663
-6.6446317
7.2592586
-0.60599652
-8.0392783
8.1210382
-0.51521603
-7.7748828
7.6841023
-0.40862687
-6.8486692
6.74208
-0.14645568
-6.0799536
5.8177824
-4.586391
4.4399353
0.45866684
3.4075614
-0.32457569
0.63054183
3.6084303
0.25405326
-0.078016097
-0.30822533
-6.0823531
-0.47554491
-7.8719587
-0.46703136
-7.7833963
-0.4186654
-6.8970351
-0.20527975
-6.2933392
-4.7916707
0.46126218
3.2707854
-0.32448624
0.67858024
3.3911123
0.36326368
0.23730046
-0.23292101
-5.4861684
-0.46409002
-7.6407897
-0.46098529
-7.7865011
-0.39238158
-6.9656388
-0.20253242
-6.4831884
-4.9942032
0.4609009
3.1192497
-0.30936523
0.72939259
3.1226206
0.50917757
0.45751547
-0.049360188
-4.9276306
-0.33553202
-7.3546179
-0.4028074
-7.7192257
-0.38703114
-6.9814151
-0.24027246
-6.6299471
-5.2344756
0.45195649
2.9375114
-0.27021817
0.74806957
2.8265075
0.60923147
0.59635358
0.057337041
-4.3757362
-0.28071674
-7.0165641
-0.369325
-7.6306174
-0.34492363
-7.0058165
-0.224488
-6.7503827
-5.4589636
0.44006888
2.6773653
-0.17992274
0.74239134
2.524185
0.68580241
0.65294251
0.21789992
-3.9078337
-0.11967018
-6.678994
-0.28998769
-7.4602999
-0.32080682
-6.9749973
-0.24277941
-6.8284101
-5.701743
0.41411624
2.3601078
-0.096858785
0.7227922
2.2155091
0.75220327
0.62353143
0.33120416
-3.4868346
-0.032538985
-6.3152508
-0.22226721
-7.2705717
-0.25662025
-6.9406443
-0.21242613
-6.8726042
-5.9141692
0.38764323
1.9715098
0.00095478626
0.6940681
1.9090842
0.77476873
0.54283081
0.46351693
-3.1755828
0.1350818
-5.9868157
-0.10896468
-7.0265252
-0.20893827
-6.8406707
-0.20563049
-6.875912
-6.1197997
0.34532522
1.6565386
-0.030354006
0.66382958
1.5905799
0.81938343
0.38727695
0.57585858
-2.9320579
0.23219368
-5.6431508
-0.012474649
-6.7818569
-0.11770352
-6.7354418
-0.15332021
-6.8402953
-6.2731199
-0.080517649
5.9114275
-5.8309098
-0.21595706
5.8626362
-5.7271968
-0.34622575
5.6864966
-5.5562279
-0.49617426
5.4459891
-5.2960406
-0.59150876
4.7984443
-4.7031098
-0.5438449
3.6784399
-3.7261037
-0.24656169
1.4640061
-1.7612893
-0.022621457
-0.035872977
-0.18806725
-0.98456294
0.92090085
0.041040624
-0.073638168
5.9850657
-0.20530211
5.9943001
-0.33225142
5.8134459
-0.48944936
5.6031871
-0.59087541
4.8998703
-0.52615783
3.6137223
-0.25428408
1.1921324
-0.037495294
-0.25266176
-1.0625138
0.040455545
-0.064091474
6.0491571
-0.19657873
6.1267874
-0.32935866
5.9462258
-0.48897476
5.7628032
-0.5879663
4.9988618
-0.50833296
3.5340889
-0.27037642
0.95417581
-0.057882663
-0.46515552
-1.1594722
0.039075725
-0.057345258
6.1065024
-0.18508093
6.254523
-0.31391597
6.0750609
-0.4789951
5.9278823
-0.58475482
5.1046216
-0.49462698
3.4439611
-0.2670194
0.72656824
-0.0622278
-0.66994712
-1.2597387
0.038038701
-0.047854844
6.1543572
-0.17473709
6.3814053
-0.30877825
6.209102
-0.47593309
6.0950371
-0.57918546
5.2078739
-0.47229411
3.3370697
-0.25106673
0.50534086
-0.059998703
-0.86101515
-1.3569836
0.037246189
-0.041332909
6.1956901
-0.16251358
6.502586
-0.29202975
6.3386182
-0.46278742
6.2657948
-0.571806
5.3168925
-0.45883392
3.2240977
-0.23639612
0.28290306
-0.055283917
-1.0421274
-1.4495147
0.037247222
-0.032033957
6.2277241
-0.15085322
6.6214052
-0.28501619
6.4727812
-0.45667325
6.4374519
-0.56198612
5.4222054
-0.44326017
3.1053717
-0.22431674
0.063959627
-0.051501726
-1.2149424
-1.5295527
0.028536287
-0.026477453
6.2542015
-0.138
6.7329278
-0.26624655
6.6010277
-0.437502
6.6087073
-0.55021806
5.5349214
-0.44682105
3.0019747
-0.22251727
-0.16034415
-0.046130768
-1.3913289
-1.6106686
0.034985147
-0.018918332
-0.12628587
-0.26070002
-0.4338496
-0.54207897
-0.47216222
-0.24522942
-0.045978435
-0.00010844374
0.05873196
0.78436993
0.077798967
0.4760397
-0.605375
0.88770787
-2.1729575
0.91032329
-3.7487191
0.76568476
-4.5584712
0.55090877
-5.0812646
0.3596511
-5.3649702
0.1571568
-5.5247025
-5.673753
0.15887451
0.55966229
0.065833128
0.61234643
-1.0588469
0.93133705
-2.4919481
0.90412376
-3.7215059
0.75932785
-4.4136753
0.55689929
-4.878836
0.36514114
-5.1732121
0.16342542
-5.3229867
-5.5103276
0.24968027
0.24138894
0.068593081
0.73506163
-1.5442283
0.94193566
-2.6988221
0.89093416
-3.6705044
0.75046217
-4.2732033
0.55296692
-4.6813408
0.36703574
-4.9872809
0.17083827
-5.1267893
-5.3394893
0.37971386
-0.22686666
0.088541738
0.82987385
-1.9943883
0.95002405
-2.8189723
0.88017276
-3.6006531
0.74176338
-4.1347939
0.55657491
-4.4961523
0.36885643
-4.7995624
0.17578795
-4.9337208
-5.1637014
0.63769859
-0.86503933
0.0004740859
0.88496949
-2.2416592
0.94207425
-2.8760771
0.86342417
-3.522003
0.73062238
-4.0019922
0.55053984
-4.3160698
0.36768769
-4.6167103
0.1796406
-4.7456737
-4.9840608
0.7613815
-1.5902354
-0.036185421
0.9038289
-2.3841066
0.93107797
-2.9033262
0.85159754
-3.4425226
0.72027064
-3.8706653
0.55296969
-4.1487688
0.37010485
-4.4338454
0.18265938
-4.5582282
-4.8014014
0.82563582
-2.2373976
-0.17847363
0.91593355
-2.4744043
0.9175943
-2.9049869
0.83465452
-3.3595828
0.70650808
-3.7425188
0.54472978
-3.9869905
0.36661341
-4.2557291
0.1840454
-4.3756602
-4.617356
0.89129872
-2.4591263
-0.66957005
0.9207061
-2.5038117
0.90299194
-2.8872727
0.82209978
-3.2786906
0.6962068
-3.6166258
0.54355073
-3.8343345
0.36815863
-4.080337
0.18504124
-4.1925428
-4.4323148
0.91644341
-2.4765685
-0.89900112
0.91494314
-2.5023114
0.89021833
-2.8625479
0.80560776
-3.19408
0.68393619
-3.4949543
0.53382391
-3.6842222
0.36236066
-3.9088737
0.18457862
-4.0147608
-4.2477361
-0.015627354
4.2614912
-4.2458639
-0.01850869
4.0315009
-4.0286196
-0.019491123
3.9351357
-3.9341533
-0.013178714
3.713683
-3.7199954
-0.0059592452
3.5427336
-3.5499531
0.0062331258
3.2791377
-3.2913301
0.021366607
3.0200907
-3.0352241
0.029079758
2.7149679
-2.722681
2.3086421
-2.3198918
0.04032946
-0.015490331
4.2769816
-0.018851585
4.0348622
-0.02230192
3.938586
-0.021345856
3.7127269
-0.014278088
3.5356658
-0.00086995543
3.2657296
0.015407477
3.0038132
0.031570842
2.6988045
2.3046614
0.035551555
-0.010191532
4.2871731
-0.011267807
4.0359385
-0.010405112
3.9377233
-0.0047864867
3.7071083
0.0023271712
3.5285522
0.014580188