/*--------------------------------*- C++ -*----------------------------------*\
  =========                 |
  \\      /  F ield         | OpenFOAM: The Open Source CFD Toolbox
   \\    /   O peration     | Website:  https://openfoam.org
    \\  /    A nd           | Version:  11
     \\/     M anipulation  |
\*---------------------------------------------------------------------------*/
FoamFile
{
    format      ascii;
    class       volScalarField;
    location    "0.29";
    object      Ma;
}
// * * * * * * * * * * * * * * * * * * * * * * * * * * * * * * * * * * * * * //

dimensions      [0 0 0 0 0 0 0];

internalField   nonuniform List<scalar> 
880
(
1.11801663592382
1.118016635640199
1.117985246625002
1.109004304701925
1.118016635923744
1.118016635398206
1.117961265395602
1.105110374214873
1.118016635921762
1.118016634911327
1.117888995097365
1.099802708805366
1.118016635909592
1.118016634476699
1.117689969346999
1.082777394382383
1.118016636102388
1.118016635766157
1.118016623074893
1.118016158531062
1.118016644374956
1.118015746849026
1.118011369076976
1.118020591981213
1.117093728481172
1.11634193847913
1.115318261656589
1.115352570651617
1.046959519028629
1.012101933997694
0.9929872154621451
0.988655726811691
1.118015049983024
1.118009559198386
1.1180033655263
1.117949219031633
1.117940688228683
1.117721685937559
1.117371609559479
1.116800608430301
1.10865898883034
1.103301053884901
1.096589845009436
1.090536148859247
0.9806842504864473
0.9783559561150452
0.9756260491588836
0.9951758246909069
1.051168603741403
1.082429119080196
1.095242333946958
1.105732524654478
1.077456654568309
1.077327109936584
1.081805499910671
1.088802364100716
1.114173851263335
1.111038929974239
1.108053168916941
1.106161810851368
1.117697733539249
1.117245020530626
1.11658258505528
1.115821432735414
1.11514758697033
1.114628920833187
1.114161551626128
1.113941991201663
1.10631023510733
1.108372509546156
1.111721929065048
1.115616242684151
1.097211103610694
1.105721633655094
1.113370105235457
1.120559596091161
1.114929149992043
1.121602008415123
1.125746571078809
1.1325874827972
1.134150821123504
1.126646941475154
1.119765784692766
1.113889056771328
1.129646632283293
1.131066003863742
1.122865178071578
1.114109466171585
1.012632681765979
1.128865672532612
1.125164271972384
1.114793115843824
0.7224724188967685
1.092200409207544
1.126010909254248
1.115626915596798
1.115384732130525
1.122589664063329
1.030823738068808
0.588723057935036
1.115762904390994
1.115874703642374
0.9782683497285641
0.6097698192750777
1.115591038278318
1.103770880914484
0.9108541137696903
0.6203224927204143
1.114228589497614
1.085048833974104
0.855998543946799
0.6433205054732872
0.6732740954072639
0.8161656176594529
1.054504495757807
1.110945399575842
0.7078364609244631
0.7989509365434513
1.01705204056595
1.103928566685989
0.7490550406124011
0.8176206906273572
0.9813136515510489
1.093117654369362
0.7963108486015648
0.8614742919221853
0.9642418319426521
1.076964148204413
1.058026147303451
0.9939991729896078
0.9285479261491156
0.8594165542974737
1.0607597960199
1.043632243446321
1.016494198172192
0.9427447945817515
1.076343087689516
1.098721406667467
1.108949217055126
1.047056746249778
1.08271887987609
1.131743196564199
1.191184400107804
1.170354385564244
1.090489198728506
1.166141442271115
1.258175439212821
1.359672872553959
1.105059527797366
1.188535673061808
1.301463505605177
1.556491178524433
1.116603363981786
1.188210089119879
1.31021907516533
1.781892856358413
1.122841574763665
1.175395943237613
1.278913754575046
1.579372840431404
1.202226838501039
1.252858214214428
1.165799337670759
1.125958925275181
1.042262323575726
1.222417044624318
1.154630912395301
1.125547178797838
0.9141775713567255
1.191979808847312
1.145585352868387
1.122958857229948
0.7694525234063223
1.146895819783222
1.133599269003473
1.120639812089986
0.7116341659479019
1.092772463220514
1.118302864983086
1.11885184527742
0.7314792673180585
1.057375116424655
1.109633338709966
1.117867215442814
0.7391744885750872
1.03338660903063
1.107907511004649
1.117679867181002
0.7787014583558262
1.052378208768474
1.111892615546862
1.117849943015236
0.7716016116947801
1.010528646856284
1.101663824554139
1.117139215644661
0.774957611390319
1.00788396748986
1.100861467488776
1.117088922034578
0.7771105067474838
1.004044304725316
1.099705103655395
1.117017158778266
0.7711657237903909
1.004376527659325
1.099694805591432
1.116984438001325
0.7787014583560296
1.05237820876989
1.111892615548923
1.117849943017966
0.7391744885749481
1.033386609031927
1.107907511005209
1.117679867182467
0.7314792673185683
1.057375116425853
1.109633338710589
1.117867215443844
0.7116341659474117
1.092772463222076
1.118302864983502
1.118851845277723
1.12595892527455
1.165799337670258
1.252858214214543
1.202226838502072
1.125547178797501
1.154630912394905
1.222417044624611
1.042262323575208
1.122958857228928
1.145585352867841
1.191979808849695
0.9141775713557969
1.120639812089392
1.133599269002347
1.14689581978513
0.7694525234059779
1.579372840435373
1.27891375457506
1.175395943238063
1.12284157476383
1.78189285636054
1.310219075166168
1.188210089119626
1.11660336398262
1.556491178524964
1.301463505605607
1.188535673062064
1.105059527796784
1.35967287255377
1.258175439213691
1.166141442271833
1.090489198726573
1.058026147301777
0.9939991729885133
0.9285479261473762
0.8594165542972856
1.060759796019683
1.043632243447468
1.016494198171532
0.9427447945813827
1.076343087692009
1.098721406666989
1.108949217054818
1.047056746249779
1.08271887987395
1.131743196564195
1.191184400107768
1.170354385564001
0.7963108486015721
0.8614742919217864
0.9642418319415283
1.076964148199983
0.7490550406127718
0.8176206906273435
0.981313651550582
1.093117654368791
0.7078364609246922
0.798950936543582
1.017052040567335
1.103928566684625
0.6732740954074555
0.816165617658883
1.054504495755453
1.110945399575205
1.115384732130443
1.122589664063659
1.030823738068996
0.5887230579350964
1.115762904388347
1.115874703641761
0.9782683497294138
0.6097698192751901
1.115591038274941
1.103770880910312
0.9108541137694456
0.6203224927218346
1.114228589496066
1.085048833975848
0.8559985439469793
0.6433205054732766
1.11562691559665
1.1147931158439
1.114109466169995
1.113889056771856
1.126010909257579
1.125164271973123
1.122865178072738
1.119765784692184
1.092200409209335
1.128865672533042
1.131066003865659
1.126646941476586
0.7224724188981717
1.012632681766451
1.129646632282911
1.134150821123321
1.113941991202912
1.115616242678739
1.120559596090865
1.132587482796354
1.11416155163062
1.111721929056826
1.113370105235315
1.125746571078476
1.114628920839939
1.108372509538157
1.105721633656414
1.121602008416911
1.115147586975959
1.106310235102915
1.097211103609949
1.114929149992613
1.117697733544408
1.11417385126657
1.077456654566547
1.051168603740365
1.117245020526486
1.11103892997959
1.077327109933057
1.082429119080096
1.116582585047266
1.108053168923516
1.081805499908472
1.095242333949436
1.115821432733932
1.106161810853328
1.088802364098439
1.105732524656878
0.9951758246906751
1.090536148860605
1.116800608431368
1.117949219023015
0.9756260491597897
1.096589845006194
1.117371609548085
1.118003365546989
0.978355956115834
1.103301053888315
1.117721685940692
1.118009559210135
0.9806842504861747
1.108658988828778
1.117940688226882
1.118015049980087
0.988655726812707
1.115352570651496
1.118020591981139
1.118016158528461
0.9929872154624153
1.115318261657188
1.118011369078568
1.11801662307434
1.012101933997961
1.116341938479701
1.118015746849547
1.118016635766802
1.046959519027734
1.117093728481896
1.118016644376251
1.118016636100993
1.118016635923807
1.118016635639012
1.117985246624865
1.109004304658251
1.11801663592375
1.118016635400389
1.117961265395559
1.10511037417582
1.118016635921479
1.118016634912396
1.117888995097532
1.099802708791758
1.118016635908897
1.118016634477873
1.117689969347438
1.082777394378664
1.102174036898311
1.094787477975789
1.078269271463741
1.033243631248503
1.094787478026861
1.082936225397173
1.051247352712048
0.9804686847963556
1.078269271499304
1.051247352740172
0.9883052609036759
0.8859908603258059
1.033243631257017
0.9804686848069932
0.8859908603303575
0.7748930758890147
0.7453097523105835
0.7851580805797194
0.860208139292107
0.9324131342206704
0.8008858441217079
0.8066287012026283
0.8378701016413317
0.8849507094999979
0.7925603625119154
0.8284682890797387
0.860358407167805
0.8842743081244688
0.8263257332423501
0.8655563840618246
0.8876570450496429
0.9000190244623587
0.9162424764614373
0.9254396263110704
0.9431609918050263
0.9759317319511129
0.9116905565337883
0.9256463768686439
0.9465713573098433
0.9977094237263612
0.8983474241585826
0.919710448677598
0.945371639236346
1.060590722659685
0.8564564189606244
0.8789974567678523
0.9102175694126243
1.147114445267319
1.156877861128452
1.194435674581564
1.162885424642367
1.153851561885116
1.275698422531312
1.29631490003854
1.24023379976055
1.207219464217552
1.43173374696213
1.357470307085186
1.287683074807992
1.241655589212508
1.164704964256472
1.096004936813331
1.081587584184883
1.079710982851621
1.149378357875879
1.146912795270403
1.145748285477677
1.143778969099879
1.185230103063997
1.168047449459527
1.15376190033343
1.141488994961483
1.208136497887276
1.180970673678721
1.15620875138361
1.137371378598773
1.068233825204199
1.056879100880967
1.046830136343485
1.029473807664291
1.144343267185946
1.037296852326509
0.7572485656249345
0.4827332499597373
1.138088530507296
0.9548593945934533
0.5731012471957565
0.2829626225416799
1.12388107010347
0.834100283160533
0.3666967365515491
0.07107570127712577
0.9987373666285911
0.6041409873834844
0.1829545992675926
0.03503309018478722
0.4130718490418229
0.4981220177011934
0.5270472663693627
0.5797063671171379
0.3334842559803239
0.4776215281725639
0.5317561479624019
0.5825931498294072
0.1943565371452788
0.4020182868827517
0.508660194300368
0.5675632952799667
0.05576854809125488
0.2265174859666413
0.3690632235694205
0.4534916568238671
0.6224107561136109
0.6726315296587188
0.7306606642781304
0.7953823193736527
0.6265550770038207
0.6781154841251885
0.7307364561593945
0.7921810870957672
0.6211992777558369
0.6771855940304394
0.7279983352139398
0.7874084726561004
0.5480766086371417
0.6416875097018294
0.7197868415115042
0.7849672442347215
0.8546672196890477
0.9289392512223935
1.021034780430263
1.120817442777114
0.8505192256786835
0.9158990210069478
1.002708735298902
1.135876811744907
0.845936100050632
0.9042249430526816
1.016495984083398
1.441237381633027
0.8422264336584385
0.8977024655861947
1.043433478548789
2.010221900732391
1.337442953282267
1.51598221583069
0.7248492764734242
1.405234780564405
1.425992563097745
1.284052281070247
1.033169289493344
1.613736141193145
1.470308750266691
0.8905615008391452
1.120390623384784
1.588079258825302
1.132330747537046
0.3790003735780986
1.273382887504215
1.523713043415291
0.8086927559212204
0.6048558974835566
0.5040414082003061
0.3725475009535145
1.090312661172854
0.8011511518132047
0.5892270826309185
0.3007690605458341
1.153938107045217
0.8662914729880586
0.5649072477211798
0.2199357847904585
1.125651442297786
0.855188093174518
0.5355556921331731
0.1933563838898623
0.1687416152379348
0.1677751937472181
0.3816522633651064
0.5836626562942759
0.2236422348277017
0.04899783844145698
0.2478660363283366
0.5278090263584884
0.2136779521380644
0.1645162236028596
0.107950479115632
0.4122769366206864
0.17679446518641
0.1931521703915736
0.06074549211181299
0.3454463257496391
0.5350847340983931
0.5110868694464561
0.4978865767194184
0.4904085932904671
0.5862745373070363
0.5449164017874053
0.5257973892506155
0.5038709937115184
0.5895233398741054
0.4819560154594267
0.3909173499338721
0.3004293316416409
0.6174301581804044
0.4548126487219116
0.269708098511862
0.1008657297752457
0.06065045572007149
0.08057227799232108
0.08947910709699583
0.08798433332497052
0.1627168210519965
0.09325864242619653
0.08361174249539381
0.09663281773862277
0.4277065628495252
0.3210082319365379
0.1965505464285997
0.0716500522255667
0.4628749432265752
0.4059365474854068
0.3240550622630731
0.2564342755622432
0.08798433332511152
0.09663281773842396
0.07165005222394916
0.2564342755618963
0.08947910709722917
0.08361174249497348
0.196550546427071
0.324055062262519
0.08057227799257026
0.09325864242539199
0.3210082319351904
0.4059365474848257
0.06065045572033884
0.1627168210510369
0.4277065628483457
0.4628749432258863
0.4904085932895971
0.4978865767185685
0.5110868694453335
0.5350847340975865
0.5038709937104522
0.5257973892496095
0.544916401786383
0.5862745373059386
0.3004293316405656
0.3909173499327963
0.4819560154583339
0.5895233398729436
0.1008657297749521
0.2697080985113151
0.4548126487211109
0.6174301581795918
0.3454463257491987
0.06074549211118219
0.1931521703911925
0.1767944651856554
0.4122769366199346
0.107950479115488
0.1645162236027756
0.2136779521370622
0.5278090263575943
0.2478660363277012
0.04899783844189239
0.223642234826778
0.5836626562934487
0.3816522633643993
0.1677751937469792
0.1687416152375086
0.3725475009518465
0.5040414082009965
0.6048558974884571
0.8086927559296248
0.3007690605445112
0.5892270826299718
0.8011511518144417
1.090312661176187
0.2199357847894917
0.5649072477195719
0.8662914729870674
1.15393810704583
0.1933563838889291
0.5355556921314836
0.8551880931726015
1.125651442297438
1.405234780580576
0.7248492764754675
1.515982215827306
1.337442953281658
1.613736141199241
1.033169289501869
1.284052281067763
1.425992563097115
1.588079258828724
1.120390623392534
0.8905615008371728
1.470308750265846
1.523713043418366
1.273382887512358
0.3790003735791509
1.132330747537169
1.120817442777122
1.021034780430464
0.9289392512226181
0.8546672196898661
1.135876811744563
1.002708735298951
0.9158990210070866
0.85051922567905
1.44123738163194
1.016495984083363
0.9042249430527203
0.8459361000506043
2.010221900730571
1.043433478548762
0.8977024655862282
0.8422264336583698
0.795382319373807
0.7306606642781502
0.6726315296593028
0.6224107561137491
0.7921810870955646
0.7307364561593855
0.6781154841258049
0.6265550770039727
0.787408472655723
0.7279983352132475
0.6771855940309988
0.6211992777561334
0.78496724423409
0.7197868415106295
0.6416875097009925
0.5480766086374503
0.57970636711561
0.5270472663684942
0.4981220177002543
0.4130718490421638
0.5825931498283879
0.5317561479616841
0.4776215281718162
0.3334842559808526
0.5675632952797811
0.508660194299988
0.4020182868824111
0.194356537145797
0.4534916568246445
0.3690632235693984
0.2265174859666267
0.05576854809149936
0.4827332499608933
0.7572485656258799
1.037296852326289
1.14434326718532
0.2829626225429568
0.5731012471969292
0.9548593945935475
1.138088530506314
0.07107570127810799
0.3666967365527308
0.8341002831608259
1.123881070102079
0.03503309018434967
0.1829545992682068
0.6041409873832825
0.9987373666266928
1.143778969099311
1.145748285478568
1.146912795273112
1.149378357876651
1.141488994960256
1.15376190033404
1.168047449461418
1.185230103065092
1.137371378597182
1.156208751384158
1.180970673680331
1.208136497888368
1.029473807662166
1.046830136343212
1.056879100882028
1.068233825204973
1.153851561887973
1.162885424645291
1.19443567458156
1.156877861127465
1.207219464220747
1.24023379976369
1.29631490003874
1.275698422530633
1.241655589215935
1.28768307481125
1.357470307085618
1.431733746962284
1.079710982854485
1.081587584186922
1.096004936812063
1.164704964256826
0.9759317319521009
0.9431609918027538
0.9254396263098141
0.9162424764614578
0.9977094237267011
0.9465713573065994
0.9256463768669564
0.9116905565335934
1.060590722660247
0.9453716392326894
0.9197104486753978
0.8983474241581905
1.147114445268531
0.9102175694108307
0.8789974567679256
0.8564564189634521
0.9000190244635428
0.8842743081241029
0.8849507095001548
0.9324131342190034
0.887657045049993
0.8603584071669917
0.8378701016412756
0.8602081392898444
0.8655563840616445
0.8284682890790429
0.8066287012020976
0.7851580805781464
0.8263257332456196
0.7925603625146823
0.8008858441209603
0.7453097523105555
0.7491254439478258
1.038047508220505
1.108821370290447
1.117690385534733
0.750306146353302
1.023011611467403
1.105251180169146
1.117444327656085
0.753978388494987
1.019908235472635
1.102764068377753
1.11720123636278
0.7476244656588287
1.011282548151022
1.100759177792359
1.117047009336785
1.117139215643818
1.101663824553847
1.010528646855818
0.7716016116943077
1.117088922034505
1.10086146748826
1.007883967489646
0.7749576113907255
1.117017158778348
1.09970510365646
1.004044304724985
0.7771105067481776
1.116984438001325
1.099694805592705
1.00437652765904
0.7711657237904834
1.117047009337257
1.117201236361973
1.117444327656054
1.117690385536559
1.100759177793591
1.102764068378033
1.105251180169468
1.108821370291418
1.011282548151399
1.019908235473099
1.023011611467967
1.038047508221376
0.7476244656586264
0.7539783884945533
0.7503061463527938
0.7491254439478235
)
;

boundaryField
{
    back
    {
        type            empty;
    }
    inlet
    {
        type            calculated;
        value           nonuniform List<scalar> 
16
(
1.11801663592382
1.118016635923798
1.118016635923579
1.118016635920524
1.118016635984012
1.118016635898993
1.118016635105767
1.118016485051638
1.118016485050844
1.118016635105584
1.118016635898987
1.118016635984003
1.118016635923806
1.118016635923751
1.118016635923502
1.118016635920363
)
;
    }
    front
    {
        type            empty;
    }
    top
    {
        type            calculated;
        value           uniform 0;
    }
    outlet
    {
        type            calculated;
        value           nonuniform List<scalar> 
16
(
1.116858452928049
1.116803561973972
1.116725196845935
1.116683729433768
1.117586598990518
1.117278611458479
1.116966719102342
1.116765282821163
1.116858452927184
1.116803561973802
1.116725196846057
1.116683729433857
1.116765282821603
1.116966719101377
1.117278611458657
1.117586598992419
)
;
    }
    bottom
    {
        type            calculated;
        value           uniform 0;
    }
    wall
    {
        type            calculated;
        value           uniform 0;
    }
}


// ************************************************************************* //
