/*--------------------------------*- C++ -*----------------------------------*\
  =========                 |
  \\      /  F ield         | OpenFOAM: The Open Source CFD Toolbox
   \\    /   O peration     | Website:  https://openfoam.org
    \\  /    A nd           | Version:  11
     \\/     M anipulation  |
\*---------------------------------------------------------------------------*/
FoamFile
{
    format      ascii;
    class       surfaceScalarField;
    location    "0.29";
    object      phi;
}
// * * * * * * * * * * * * * * * * * * * * * * * * * * * * * * * * * * * * * //

dimensions      [0 3 -1 0 0 0 0];

internalField   nonuniform List<scalar> 
1652
(
1.706212168242966
0.5337381654502267
4.440892098500626e-15
1.172474003150597
0.5337381657511462
1.108446667785756e-12
0.6387449792561193
0.5336626761164287
-7.756018050031344e-13
0.529380207248263
-2.769917628597796e-11
0.1055631726480395
1.706212168246066
1.067476330895037
1.172474003078922
1.067476327158664
0.6387552669479543
1.067287978507446
1.053676916921682
0.1081562019763819
1.706212168252667
1.60121449635772
1.172474004981918
1.601214478254632
0.6387856065426422
1.600799289098842
1.574676200283993
0.1090493697329047
1.706212168264421
2.13495266172783
1.172474019179427
2.134952566647811
0.6388312561068006
2.134070608487963
2.095743454955314
0.1059087752825927
2.651191215662409
1.723711779944226
3.167429771286684
1.723711779338908
3.683668185430855
1.723711777599957
1.723712527837016
4.199903895350498
2.65119086639352
1.207473405650074
3.167429122594799
1.207472638205993
3.683658300872784
1.207474012026793
1.207495317834552
4.199856083701883
2.650209010715446
0.6903622760754143
3.166751288790124
0.6893151530566477
3.683495218731391
0.6881344852528366
0.6890214756108868
4.196837293887089
2.645360597225181
0.1197551653519385
3.26437274294762
0.04409261656026942
3.899402648143957
0.02047680373465532
4.537372371599247
0.01231394503885908
4.164899402824458
0.03500309424114412
4.129899870728105
0.03498157820041092
4.094891242257237
0.03493232698733539
0.03482702427460416
4.059836376997325
4.165014521206701
0.06975921866570567
4.130230070465044
0.06927906754730351
4.095914938210273
0.06835626050314625
0.06707017963792378
4.061675472075176
4.17368497248768
0.0858635380897102
4.155371346136937
0.07865162117716612
4.143360291053731
0.0677151055080496
0.06051291172447693
4.132625816790448
4.586239634077429
0.006522604806577958
4.630074155325788
0.006577219359874709
4.666971377039584
0.006395421813818969
4.703361330282024
0.007870960831748042
4.666909766997442
0.09886702202011027
-0.06845625628725427
4.590856605488338
0.09458335588290684
-0.01799574178629609
4.515621900328036
0.08944767539117898
-0.008303984991812924
0.08236629189465511
4.453194784951488
-0.008095796901614716
4.201824604557272
0.0102374397476333
4.256727038943908
0.01990711137507839
4.296469906155391
0.0308980814671892
0.03904967207567128
4.322414361504222
4.066193981085189
0.0007285978307269847
4.075445504589747
0.00213069378981301
4.089011145092859
0.004609572508602167
0.008289757227036398
4.10539201393917
4.059782072179908
4.060070617948286
4.060996003049514
4.062903351743186
4.066064995476224
-0.01245501598465693
4.06942863891954
-0.01621880401968068
4.070728295339
-0.01898588620664921
-0.02000602562047926
4.07116826299991
4.122914729782551
-0.04527269906448333
4.13941326531859
-0.04872946245629362
4.153130913741593
-0.04960098175614536
-0.04706197439097409
4.164440042243216
4.336023720967251
-0.07380475412350884
4.336756396556273
-0.06405228441422844
4.333106173837006
-0.05272865769366558
-0.04568905561767761
4.326851784867618
4.401648514750695
-0.006698988399677919
4.351962963111728
-0.005712333770233502
4.326470527315724
-0.00475787338371067
4.309870313713177
-0.003254841718995871
0.03379675654374525
4.298910215280448
-0.002237621270851337
0.04334203492132643
4.315136383591288
0.02063770757326722
4.172600137264466
4.070090032208232
0.03101010089132245
4.323860693294384
-0.05835818230932305
0.03566755159327306
4.30981233510163
0.01916183853454578
4.169168670406255
4.067455027197432
0.03702254585477704
4.308470976551414
-0.1655448996312521
0.02590686386250468
4.307485487459513
0.01525473977778458
4.160633820804517
4.06473611441416
0.09953405355967587
4.056804111992649
-0.08001983970530652
0.03310972323450012
4.313489053749475
0.01183647319397008
4.154060439367074
4.05720849022345
0.08562598555127493
3.962628980584809
0.1588057565372789
4.04435549940737
0.1311250821223125
4.216669823435826
3.900903038496807
0.1555903528975621
0.08618896204560916
3.869788063381234
0.1465511087770837
3.935897338653912
0.0682940133084714
4.11259496467725
3.744944599801895
0.1102310418514436
0.08257847582493411
3.779264702382104
0.1146987623085865
3.833689431116634
-0.01223383478768181
3.986410790821917
3.586184570993689
0.06140158779396521
0.0732442538253415
3.691416324463391
0.06124917304536326
3.740818580600742
-0.09263231135042138
3.829772376818353
3.37663848822511
0.04978860556016962
0.1460261949002453
3.177590376479265
0.01608961743480819
0.02454628538193593
3.641209595693444
-0.05332858925950468
3.654914977882581
3.608497928610146
0.1771031536718296
2.992951581286676
0.0008555863304415823
0.1238880247754356
3.458857014130313
-0.01801306003123582
3.564808858270223
3.532940532542478
0.1803452329418169
2.845594972011535
-0.0008819950613595529
0.2024379351301043
3.32887282327293
0.03360089407116218
3.448174274579509
3.466965515661352
0.1518748180004423
2.743509136346267
-0.01103473118279374
0.2646819556045674
3.193664889181212
0.09653118182924081
3.357792927441815
3.409355369513342
-0.1366893626304084
3.334140518541252
-0.1917453461982705
3.231689198810021
-0.07470811631474461
3.130952834036637
2.686826981931514
0.01856433946652092
-0.1029552461366676
3.246715685186466
-0.1235897251253129
3.127621284624616
-0.003177424724519651
3.06070794756338
2.657505830883023
0.06154312934942274
-0.07243630930447509
3.154601500049779
-0.04940304873322943
3.024586286582465
0.07666911338187721
2.980361672048085
2.63579071720833
0.1327296916042283
-0.02668497715254692
3.033080546677653
0.03101555377413867
2.910748325000563
0.1796369910439063
2.885008153653475
2.603242413959301
0.2456061050040129
-0.3266862884797307
3.235669571046174
-0.5803836476342109
3.139284013897093
-0.7258459610993633
3.111615411296588
2.682606795779821
-0.7622486494134244
-0.2944474567988715
3.42423433459216
-0.5172645951533456
3.364309478764155
-0.6426550719935199
3.33664158397212
2.328152756954321
-0.2572439394111872
-0.2658976895194822
3.602471362469698
-0.466709354374282
3.575522428598953
-0.5305825851264223
3.520209241244511
1.898141281667301
-0.03577968612038836
-0.240868042090058
3.775293182610462
-0.4361993858430586
3.78137800727493
-0.4242859053431737
3.658220892593718
1.758940779222521
-0.01951432084558931
0.2013412061841394
1.657748105758519
-0.009476484174773935
0.2066502412018119
3.746361622016701
0.1158576348934065
3.876662170787498
3.845363886602258
0.1815750453989093
1.496794947675219
-0.006701742123921738
0.1898946769842608
3.809238069715978
0.09997807605118542
3.980504044959423
3.914757528136482
0.1515275447382009
1.385967138814268
-0.003791841911317023
0.1724518260196724
3.863606494108776
0.0880554247795739
4.088251443184788
3.986809567193488
0.1139539672731411
1.345583163051725
0.0005100367791403097
0.1542349073014045
3.926864188893759
0.09781969101835375
4.166722359776744
4.076912562212049
-0.2729221098456394
1.81802336995383
-0.01448167216035393
-0.1420348785263326
4.01154114135281
-0.01684591657831347
4.083248769699181
4.060463061136066
-0.2812909935393055
2.295230651081919
0.02962988207639783
-0.1130934782973703
4.038265221040003
-0.01214302157932012
4.044364020699412
4.058478344108948
-0.248227665767308
2.658609695245195
0.07604478871410451
-0.07481656426434102
3.983250332613459
-0.007243858899757205
4.036040928696127
4.058331760664878
-0.1953759914819845
0.1351616021826514
2.833875824759258
-0.05680888064736012
3.935891467594131
-0.004672912183377065
4.037773185424811
4.059004795509745
0.3436386391625391
-0.4027901251308328
-0.02101926321015155
1.695976692417389e-12
1.040795690029892
-0.3641667884335709
1.889599587912016e-12
1.697885387946689
-0.4974501155893498
3.086420008457935e-12
-0.523699692020096
-1.585842568374574e-12
0.3496857802699067
-0.7621939069293646
-0.02138102263992708
1.040964241463464
-0.7514073990977845
1.696495170704432
-0.9973371348530726
-1.047324651856614
0.3605270450715494
-1.050910948189381
-0.02073870581589501
1.040086889899182
-1.203267714218413
1.694885177451318
-1.504636147234951
-1.571087591190134
0.3801303971197312
-0.01879279513761934
-1.30191206990742
1.048420796891774
-1.71889916260681
1.69390571078101
-2.020889806818455
-2.095119370850971
-0.1953759914817049
-2.65860969524338
0.1351616021825108
2.833875824756688
-0.05680888064613576
-3.98325033261739
3.935891467595928
-0.004672912180995192
-4.036040928694772
4.03777318541824
-4.05833176066489
4.059004795506658
-0.2482276657672141
-2.295230651081265
0.07604478871419167
-0.07481656426517713
-4.038265221044339
-0.007243858901786027
-4.044364020702368
-4.058478344110254
-0.2812909935398218
-1.818023369954348
0.02962988207644707
-0.1130934782997408
-4.011541141355586
-0.01214302158122682
-4.08324876970186
-4.060463061136664
-0.2729221098453361
-1.345583163052468
-0.01448167216021282
-0.1420348785278756
-3.926864188896184
-0.01684591657999324
-4.166722359774973
-4.0769125622112
-0.1158576348869441
3.845363886618423
-3.77529318263158
-0.2066502411884566
3.876662170807552
-3.781378007302644
-0.2013412061786696
3.74636162199224
-3.658220892561295
1.657748105744344
-1.758940779200464
-0.00947648417487814
-0.09997807604421405
3.914757528146632
-0.1898946769701321
3.980504044972259
-0.1815750453935931
3.80923806970095
1.49679494766597
-0.006701742123969776
-0.08805542477269673
3.986809567198858
-0.1724518260045483
4.088251443188908
-0.1515275447328679
3.863606494102161
1.385967138810139
-0.003791841911212492
-0.09781969101081767
-0.1542349072857166
-0.1139539672679623
0.0005100367792385679
0.424285905344955
-1.898141281649957
-0.0195143208455012
0.4361993858575372
-3.520209241224871
0.2408680420974833
-3.57552242862085
-3.602471362484135
0.5305825851305049
-2.32815275694294
-0.03577968611975322
0.466709354388459
-3.336641583962451
0.2658976895273991
-3.3643094787798
-3.424234334601839
0.6426550720011054
-2.682606795777566
-0.2572439394102536
0.5172645951675705
-3.111615411293981
0.294447456805766
-3.13928401390572
-3.235669571051099
0.7258459611071353
-2.603242413962695
-0.762248649415867
0.5803836476472207
-2.885008153657624
0.3266862884840199
-2.910748325003223
-3.033080546678171
-0.1366893626299482
3.334140518551645
-3.409355369527731
-0.1917453461917376
3.231689198828556
-3.357792927458605
-0.07470811631139351
3.130952834022545
-3.193664889158821
2.68682698192124
-2.743509136333734
0.01856433946707814
-0.1029552461350509
3.246715685192981
-0.1235897251164988
3.127621284639976
-0.00317742472047633
3.060707947558654
2.657505830878179
0.06154312935003181
-0.07243630930259903
3.154601500054769
-0.04940304872372758
3.024586286590849
0.07666911338647076
2.980361672048847
2.635790717208174
0.1327296916046709
-0.02668497714619145
0.03101555378256937
0.1796369910485898
0.2456061050046867
0.1518748180029978
-2.84559497200177
-0.01103473118220311
0.2646819556128454
-3.328872823257891
0.096531181831362
-3.448174274592775
-3.46696551567255
0.180345232945276
-2.992951581277858
-0.0008819950610937655
0.2024379351396818
-3.458857014121708
0.03360089407561773
-3.564808858282118
-3.532940532550201
0.177103153675103
-3.177590376472857
0.000855586329987168
0.123888024785901
-3.641209595691198
-0.01801306002740344
-3.654914977891339
-3.608497928613763
0.146026194902828
-3.376638488223529
0.01608961743424642
0.02454628538975423
-3.82977237681567
-0.05332858925513873
-3.740818580597766
-3.691416324463662
0.08562598555171685
3.962628980585151
-4.057208490222648
0.1588057565380742
4.044355499408368
-4.154060439368927
0.1311250821213487
4.216669823436463
-4.313489053750341
3.9009030384928
-4.056804111992721
0.1555903528971417
0.08618896204668136
3.869788063381193
0.1465511087785671
3.935897338657027
0.0682940133090949
4.112594964681488
3.744944599802419
0.1102310418510872
0.08257847582524469
3.779264702383481
0.1146987623091383
3.833689431114057
-0.01223383478817941
3.986410790823218
3.586184570996379
0.06140158779633786
0.0732442538266318
0.06124917304412003
-0.09263231135133587
0.04978860555997355
-4.064736114411811
-0.01183647319340486
-4.067455027197371
-0.01525473977843395
-4.070090032213059
-0.01916183853328302
-0.02063770757200467
-4.071168263012551
-4.160633820806215
-0.03310972323497308
-4.169168670410597
-0.02590686386311936
-4.172600137262249
-0.03566755159311658
-0.0433420349221032
-4.164440042216373
-4.307485487460832
-0.09953405355942724
-4.309812335103335
-0.0370225458546477
-4.315136383594785
-0.0310101008910133
-0.03379675654390119
-4.326851784873473
-4.308470976551819
-0.08001983970554305
-4.323860693293518
-0.1655448996309347
-4.298910215279286
-0.0583581823089816
-4.309870313712487
-0.00223762127072849
-0.02000602561578613
-4.070728295357251
-0.04706197439273352
-4.153130913683989
-0.04568905561619102
-4.333106173842567
-4.326470527314743
-0.003254841718893953
-0.01898588620030361
-4.069428638952632
-0.04960098175724653
-4.139413265249024
-0.05272865769195106
-4.336756396560348
-4.351962963109688
-0.004757873383631622
-0.01621880401031117
-4.066064995514185
-0.04872946245455456
-4.122914729728107
-0.06405228441375671
-4.336023720967414
-4.401648514749037
-0.005712333770797245
-0.01245501597793586
-4.062903351765772
-0.0452726990582964
-4.10539201391984
-0.07380475412286996
-4.32241436149812
-4.45319478495141
-0.006698988399543498
-0.0007285978345272781
4.059782072146259
-4.059836376959386
-0.01023743975287739
4.066193981114802
-4.061675472095302
-0.09886702201955327
4.201824604550866
-4.132625816793572
4.666909767008013
-4.70336133029501
-0.06845625628691063
-0.00213069383329656
4.060070617932486
-0.01990711138918633
4.075445504621396
-0.09458335588210759
4.256727038933614
4.590856605495832
-0.01799574178586152
-0.004609572548597174
4.060996003056734
-0.03089808147205686
4.089011145107982
-0.08944767539193577
4.296469906145465
4.515621900331944
-0.008303984991814922
-0.008289757238265194
-0.03904967207165494
-0.08236629189611649
-0.008095796901438856
-0.06051291173266071
-4.666971377048404
0.00787096083107941
-0.06707017965399104
-4.143360291053622
-0.03482702429058582
-4.095914938218129
-4.094891242242847
-0.06771510550479021
-4.630074155333762
0.00639542181272118
-0.06835626050745325
-4.155371346139106
-0.03493232700479909
-4.130230070474529
-4.129899870731942
-0.07865162118232
-4.586239634075714
0.006577219359996889
-0.06927906755778274
-4.173684972477214
-0.03498157819698833
-4.16501452122495
-4.164899402826309
-0.08586353809451225
-4.537372371593849
0.006522604806706023
-0.06975921867932477
-4.196837293867603
-0.03500309424578929
-4.199856083727935
-4.199903895353225
-0.689021475610224
-3.899402648140867
0.01231394503935296
-1.207495317827368
-3.683495218719187
-1.723712527841286
-3.683658300889267
-3.683668185427565
-0.6881344852507081
-3.264372742947097
0.02047680373518029
-1.207474012019336
-3.166751288783019
-1.723711777600591
-3.167429122601939
-3.167429771287241
-0.689315153055934
-2.645360597226527
0.04409261656003383
-1.207472638200607
-2.65020901071343
-1.723711779339709
-2.65119086640012
-2.651191215664519
-0.6903622760754092
-2.095743454960368
0.1197551653497855
-1.207473405648873
-2.134070608488771
-1.723711779947617
-2.134952566646948
-2.134952661728548
1.706212168246005
0.5337381654470068
1.172474003156361
0.5337381657573916
0.6387449792593864
0.5336626761183891
0.5293802071769664
0.1055631726379971
1.706212168246589
1.067476330890504
1.172474003079008
1.067476327155442
0.638755266948226
1.067287978509275
1.053676916910059
0.1081562019587537
1.706212168252661
1.601214496354236
1.172474004980825
1.601214478252969
0.6387856065416335
1.600799289100492
1.574676200297116
0.1090493697273145
1.706212168262741
1.172474019175715
0.6388312561035422
0.1059087752797665
0.1053226481460223
0.1053226481397069
0.1050802089297855
0.1078300859426234
0.1055622306095235
0.1078885841929119
0.103474949280257
0.107245042004794
0.1078300859537754
0.1050802089312086
0.1074986361767034
0.1074986361739555
0.1078349563504909
0.1068361925812363
0.0997590569235528
0.1108058944819355
0.107888584199817
0.1055622306102796
0.1068361925854746
0.1078349563508645
0.1064827629936125
0.106482762993015
0.09655458228091204
0.1090413986741161
0.1034749492841741
0.1072450420047508
0.09975905692665833
0.1108058944832116
0.09655458228357086
0.1090413986735627
0.09630450478880136
0.0963045047905632
-0.03940894552401847
0.134742584556616
-0.06363512927124559
0.1321225495569826
-0.09081312077337245
0.1366927446221269
0.1347875024826663
-0.006412214022261331
0.1400485979332915
-0.01694121019718237
0.1414693585086827
-0.02823797699272279
0.1467673173986058
0.149291589327874
-0.001981791644424802
0.14101328297383
-0.008884249246512432
0.1472800046154126
-0.01508188419145828
0.1518378930029517
0.1534338519605496
-0.001856195380061765
0.1418884543334307
-0.006934093550380716
0.151368086997813
-0.01010427973391992
0.1540228750365192
0.154587347920547
0.1545030362180387
0.00596505262847935
0.1549304368201517
0.005690358015763175
0.1541940461532122
0.006906738150039282
0.006781467616883419
0.1554050783156317
0.154419448192076
0.004984746580729227
0.1549671037172811
0.004601108198013237
0.1550616880114818
0.006596191751268743
0.003096785566390092
0.1588637391603432
0.1531517894800064
0.002523484406657339
0.1547280180342002
0.002464072785174964
0.1560001313257615
0.005194395583623168
-0.00981802461819381
0.1690330436656236
0.1437487763864917
0.1457069662138629
0.1507776859484379
0.1410011498312389
0.1423963334989438
-0.0551466011654525
0.133457617889251
-0.008560526672374474
0.1322384400356875
-0.006347521459390076
-0.007308982001635989
0.1323687173907414
0.1462610060440306
-0.04225506223266717
0.140767002117702
-0.002530450857691435
0.1380452891807902
-0.002858542668599168
-0.004789709376422258
0.1365095195233349
0.1526288899795475
-0.02555508409563767
0.1471747718094502
0.00345017224195629
0.1436863230042268
0.001375733825096648
-0.0005794884711733117
0.1404558740928308
0.1157200501608647
0.1197054374058504
0.1218385801805616
0.1222368456523096
0.1331793678165002
-0.006481420108895464
0.1341978741791106
-0.005459524336036164
0.1352826232100807
-0.004353186889452937
-0.003657729395777826
0.1371851294073331
0.1356916287332983
-0.004599306011988574
0.1353548748740752
-0.003850810606464194
0.1351855075316987
-0.002970023754070322
-0.003365085026860615
0.136220843120784
0.1380688692935573
-0.001144743618380684
0.1365155223410488
-0.00109300732343609
0.1354476028815104
-0.0008629319685503622
-0.001766628234822626
0.1352512785904185
0.1221526412283706
0.122165197285032
0.122644788259457
0.1223739664657673
0.1388998070118816
-0.002745733850727655
0.1440697918754905
-0.06829054618875585
0.1368315654026322
-0.1642683390314763
-0.05064051382801071
0.1051274982290987
0.1380441214859308
-0.003693682488882882
0.1335980563668861
-0.06949487074123739
0.09062577106732314
-0.1254445879239519
-0.03123830442760789
0.06992461351449303
0.1364000954428113
-0.004356508133835535
0.1075707011927608
-0.04634462546775192
0.034720239780433
-0.05547852570468736
-0.02202509047478884
0.02341702771240629
0.1183342438955458
0.06542659708515267
0.007466025711478447
-0.01668075239298016
0.1214381473712679
0.1384672320541703
0.125086509122322
0.1038637374720445
0.1292865901814754
0.0522334197209261
0.04204919342528313
0.1376133350301322
0.1083914164436723
0.09915968982623247
0.1234655112609172
0.08647066584756713
0.129504501118235
0.04158525248338207
0.03394594237183901
0.1386412080539248
0.07745329665134855
0.04474406268155873
0.1128122751278105
0.04933545046692445
0.1245934771081181
0.02577435854708277
0.02136978659304811
0.1359137454499016
0.02836751878750429
0.07599129103164723
0.09797295821798187
0.1179372952914178
0.1388125086013897
0.01795787190064291
0.140404597917802
0.001261534783182694
0.1432433929293763
-0.001878174734264548
-0.01020739674199977
0.1431103125823862
0.1406307662104104
0.01862151289532143
0.1419667761750583
0.002404354702640221
0.1439347405184909
-0.0009367715039994007
-0.00713573028401715
0.1435157429024003
0.1407885041489911
0.01612600538698539
0.1428709590565162
0.003831709473617884
0.1441278470924271
0.0006846928490095161
-0.003677683172949364
0.1435353848890603
0.1359623306764287
0.1432554738370783
0.146318270377467
0.1459603412350423
0.1513008815323234
0.009926740447177673
0.1676277074035599
0.04403021622697567
0.1908185622154403
0.1077497952017779
0.1923389053513851
0.2446148321641788
0.1496181394351794
0.004224800562483533
0.1642377808616092
0.02807946864973876
0.1887797823273282
0.08076872377997285
0.1316662566147804
0.2495831520212106
0.1481413431438612
0.001346350248526251
0.1593792946017632
0.0164494244693269
0.1876383872554746
0.05074723841852541
0.04010534653931547
0.278620489616618
0.1499770422911507
0.166992540371576
0.216173364975667
0.2549812831123737
0.121090223728689
-0.6391739740559859
0.01168609363776202
-0.1489940487680891
-0.003231537270430495
-0.01999463591347771
-0.01528107047631295
-0.005707306580287064
0.08291051052918942
-0.472768658826422
0.001620129193656408
-0.06832165033127963
-0.005865953253407844
-0.01138245365809525
-0.01004557739717961
-0.009464683713679216
0.04439419730390261
-0.23886860952727
-0.002788790989779457
-0.02155573558038622
-0.008187186515733771
-0.004738172373811588
-0.004830695409871896
-0.01151182044704134
0.01580913160425246
-0.005805819072352185
-0.009281456086889737
-0.01232229007950091
-0.006299981213507117
-0.007576921499076874
-0.0072625612068074
-0.00435699734776146
-0.009001825125882393
-0.0004132254376405797
0.002389347645573636
-0.009211953626866073
-0.01045048927870615
-0.005213756681683876
-0.01055255465276382
-0.002601062522971469
-0.01021154270122305
0.001145619337543494
0.002357203708476363
-0.00837498275675407
-0.01248133117123457
-0.002795191815479409
-0.0118787520204776
-0.001494279683115621
-0.009554971669654147
0.0007813466971878028
0.002193186551953642
-0.007193185071416813
-0.01369884918274132
-0.01347319514771609
-0.01054197867177101
-0.005914767612300375
-0.00255131064390357
-0.01638363748943091
0.02032246133988592
0.01220391501277834
0.04998067290018569
0.05129164573645022
0.1137624943824499
0.07313760871154093
-0.007902880757372031
-0.01274998137577214
0.007350985088145183
0.001527151871134558
0.03717945803571351
0.02561002706202063
0.08457071568672768
0.0680422790691767
-0.007857330651359389
-0.0079834726058629
-0.001850863557215643
-0.0001634646742560281
0.0217166304919113
0.005951389226089024
0.04886825550802855
0.06009926717408962
-0.0104504331712044
-0.006290230211775893
0.003669304663480873
0.0564405782854735
0.06397345036301991
-0.031483131690289
0.03975126918457234
0.0556179190832163
-0.02965130296611011
0.03758946920957214
0.04789365963013508
-0.02917304301280146
0.03706219984271149
-0.02639865485716095
0.03931547583690424
0.03506211130030868
0.06082147537721563
-0.02564563106501171
0.05582422571017844
-0.02514992488977403
0.05054808213583682
-0.02352528422319426
-0.01809282384411023
0.0424249384763952
0.05063924062931931
-0.01818120720476498
0.04141016044879414
-0.01796591552804475
0.03081488014409722
-0.01398583595222657
-0.006901676982912525
0.01878214251275248
0.03739131562431114
0.01816705945142263
0.003020753818644625
-0.004872033911334797
-0.006808073309483381
0.00130270681163161
-0.006049460337670662
-0.001614547718641095
-0.003549058359791711
-0.003678838925093363
-0.004900526073570464
1.432881591156843e-14
0.01157836697737247
0.007904707854878065
0.006017467880195825
0.003280897627285694
0.002132216368541481
-0.0007918911848093894
-0.003894438134229013
5.013350845572973e-14
0.03595883047939263
0.01390945117741632
0.0258585847534168
0.01261864288477916
0.01366172795102891
0.01054210704624974
0.008793236625091971
1.058528265041048e-13
0.03389867198322589
0.02476498110419177
0.01307179840434551
1.170799568406267e-13
-0.004900526073577608
0.003549058359821312
-0.003894438134235578
-0.00213221636844866
0.008793236625097359
-0.01366172795083591
-0.01307179840411508
0.02101926321016196
-0.003678838925102478
0.00604946033770045
-0.0007918911848160404
-0.00601746788010455
0.01054210704626526
-0.02585858475324976
-0.0247649811039927
0.02138102263997807
-0.001614547718650133
0.006808073309514343
0.00328089762727362
-0.01157836697727924
0.01261864288479577
-0.03595883047925976
-0.03389867198309246
0.02073870581597384
0.001302706811626871
0.004872033911363989
0.007904707854861848
-0.01878214251265917
0.01390945117740782
-0.04242493847628485
-0.03931547583681781
0.01879279513765751
-0.04789365963006081
-0.02639865485710247
0.03506211130025227
-0.05561791908311792
-0.02917304301273598
0.03706219984262167
-0.06397345036289295
-0.02965130296602932
0.03758946920945817
-0.03148313169016908
-0.07313760871140283
0.03975126918441634
-0.05054808213572538
-0.01809282384407563
-0.05582422571006556
-0.02352528422315021
-0.06082147537710073
-0.02514992488972345
-0.02564563106493422
-0.06804227906904969
-0.03081488014398322
-0.006901676982895344
-0.04141016044869242
-0.01398583595221069
-0.05063924062922099
-0.0179659155280186
-0.01818120720472077
-0.0600992671739817
-0.003020753818610389
-0.01816705945139433
-0.03739131562427571
-0.05644057828541418
-0.003669304663511189
-0.04886825550798984
0.006290230211767976
-0.005951389226151543
0.01045043317118626
0.0001634646742377649
0.00798347260583792
0.005914767612287434
-0.02171663049189862
-0.08457071568663808
0.001850863557223796
-0.02561002706213561
0.007857330651336376
-0.001527151871158761
0.01274998137571583
0.007193185071400585
-0.03717945803567403
-0.1137624943823196
-0.007350985088140825
-0.05129164573658269
0.007902880757343914
-0.01220391501281433
0.01638363748932353
0.008374982756747961
-0.04998067290010105
-0.02032246133987251
0.002551310643880214
0.009211953626870257
0.009001825125896503
0.002389347645656056
0.007262561206855856
-0.0004132254375638703
0.006299981213558232
-0.004356997347801549
-0.007576921499140601
0.005707306580307684
0.01021154270123515
0.002357203708539639
0.01055255465278336
0.001145619337608171
0.01045048927873013
-0.002601062522997143
-0.005213756681730389
0.009464683713701115
0.009554971669661084
0.002193186551986359
0.01187875202047863
0.0007813466972356464
0.01248133117124756
-0.001494279683134321
-0.002795191815502602
0.01151182044704976
0.01054197867176344
0.01347319514772904
0.01369884918276077
0.01232229007951428
0.003231537270495958
-0.01528107047628547
-0.01168609363724835
-0.01999463591327454
-0.1210902237278036
-0.1489940487675349
-0.6391739740571889
-0.2446148321645753
0.005865953253449234
-0.01004557739717437
-0.001620129193469957
-0.0113824536580222
-0.08291051052859714
-0.06832165033112639
-0.4727686588268625
-0.249583152021432
0.008187186515752683
-0.004830695409868654
0.002788790989870108
-0.004738172373799464
-0.04439419730365872
-0.02155573558037408
-0.2388686095274302
-0.2786204896166882
0.009281456086910059
0.005805819072388753
-0.01580913160419731
-0.2549812831124911
-0.1908185622156589
0.1923389053518148
-0.1676277074037288
0.1077497952020636
-0.1513008815325152
0.04403021622754566
0.009926740447601334
-0.1431103125824056
-0.1887797823274662
0.1316662566150854
-0.1642377808617842
0.08076872378018796
-0.1496181394353144
0.02807946865022293
0.004224800562737885
-0.1435157429024045
-0.1876383872555447
0.04010534653953041
-0.1593792946019019
0.05074723841862039
-0.1481413431439576
0.01644942446962633
0.001346350248628392
-0.1435353848890179
-0.2161733649756883
-0.1669925403716897
-0.1499770422912545
-0.1459603412350787
-0.1432433929293193
-0.01020739674167181
-0.1404045979177315
-0.001878174734209703
-0.1388125086013536
0.001261534782752705
0.01795787190003162
-0.1376133350298971
-0.1439347405184504
-0.007135730284050901
-0.1419667761750029
-0.000936771504030709
-0.1406307662103942
0.002404354702330247
0.01862151289475866
-0.1386412080537887
-0.1441278470923076
-0.003677683173075486
-0.1428709590563427
0.0006846928484158799
-0.1407885041490171
0.003831709473467004
0.01612600538658249
-0.1359137454499618
-0.1463182703773759
-0.1432554738367767
-0.1359623306763245
-0.1179372952916687
-0.1292865901813804
0.04204919342522251
-0.125086509122083
0.0522334197228469
-0.1214381473711566
0.1038637374717279
0.138467232053906
-0.1051274982292379
-0.12950450111825
0.03394594237193804
-0.1234655112607431
0.04158525248472589
-0.1083914164435511
0.08647066584727781
0.0991596898260354
-0.06992461351459828
-0.1245934771081868
0.02136978659337863
-0.1128122751276544
0.0257743585477882
-0.07745329665130871
0.04933545046673982
0.044744062681494
-0.02341702771257267
-0.09797295821803571
-0.07599129103138945
-0.02836751878747742
0.01668075239285241
-0.1368315654027353
-0.05064051382830553
-0.1440697918755013
-0.1642683390312076
-0.1388998070119121
-0.06829054618837305
-0.002745733850620907
-0.137185129407369
-0.09062577106757004
-0.03123830442776199
-0.133598056366921
-0.1254445879238543
-0.1380441214858999
-0.06949487074091204
-0.003693682488843497
-0.1362208431207206
-0.03472023978066846
-0.0220250904748775
-0.1075707011929164
-0.05547852570462403
-0.1364000954427266
-0.04634462546763962
-0.004356508133836229
-0.1352512785902821
-0.007466025711642163
-0.0654265970852017
-0.1183342438954219
-0.1223739664655916
-0.1352826232100291
-0.003657729395878911
-0.1341978741789632
-0.004353186889595934
-0.1331793678164793
-0.005459524336480476
-0.006481420108782443
-0.1323687173907704
-0.1351855075316017
-0.003365085027022374
-0.1353548748739312
-0.002970023754305773
-0.1356916287332166
-0.003850810606783606
-0.004599306011883408
-0.1365095195233718
-0.135447602881396
-0.001766628234873419
-0.1365155223408994
-0.0008629319687071535
-0.138068869293538