/*--------------------------------*- C++ -*----------------------------------*\
  =========                 |
  \\      /  F ield         | OpenFOAM: The Open Source CFD Toolbox
   \\    /   O peration     | Website:  https://openfoam.org
    \\  /    A nd           | Version:  11
     \\/     M anipulation  |
\*---------------------------------------------------------------------------*/
FoamFile
{
    format      ascii;
    class       volScalarField;
    location    "0.029";
    object      T;
}
// * * * * * * * * * * * * * * * * * * * * * * * * * * * * * * * * * * * * * //

dimensions      [0 0 0 1 0 0 0];

internalField   nonuniform List<scalar> 
880
(
300
300
300
299.9999999571579
300
300
299.9999999999998
300.0000000816373
300
300
300
300.0000039042433
300.0000000000001
300
300
300.0000006827331
300
300
299.9999999999999
300
300
300
299.9999999999997
300
300
300.0000000000782
300.000001495634
299.999985497102
300.0347078089149
300.1788854017342
300.2754019063863
300.2671168009403
300.000000000062
300.000000000089
300.0000000000695
300.0000000000022
300.0000000316597
300.0000000401048
300.0000000443321
300.0000000122686
300.0001190284119
300.0001335135597
300.0001425442824
300.0000871268201
300.2906059738228
300.3199179989214
300.3303015049196
300.3231078106496
300.4327347985321
300.1988924054887
300.0373847569273
300.0020340491233
300.0004148450282
300.0002414183033
300.0000568003631
300.000003816021
300.0000002140428
300.0000001363582
300.0000000340619
300.0000000020875
300.0000000015366
300.0000000010079
299.9999999999288
300
300
300.0000000000001
300
299.9999999999999
299.9999999999275
300
300.0000000000001
300
300.0000000192988
299.9999999974712
299.9999999991212
299.9999999999562
300.000005767114
299.9999972195175
299.9999994379266
299.9999999835516
299.9999999997549
300
300.0000000000001
300
299.9999996836603
299.9999999948179
299.9999999999403
300
300.0002182239716
300.0000037009959
300.0000000023521
300
299.8141646345666
299.9997614715812
299.9999998575846
300.000000000001
299.9999999999998
300.0000000019916
300.0000224439518
300.1818872375492
300.0000000001854
300.0000000575084
300.0002840482944
301.2476320668415
300.0000000002541
300.0000000787037
300.0003693956162
301.4957225318983
300.0000000002677
300.0000000955435
300.0004205861793
301.5605514450029
301.6335602297928
300.0004832361653
300.0000001179278
300.0000000003986
301.718964683063
300.0005610496931
300.0000001472885
300.0000000005046
301.8093266851048
300.0006530144194
300.0000001844743
300.0000000007014
301.9513746813529
300.0007982397619
300.0000002473244
300.0000000011283
300.0000000005603
300.0000001409489
300.0005248383796
301.5689532718726
300.0000000006448
300.0000001295672
300.0004505748765
301.2562721731767
300.0000000128334
300.0000001290817
300.0004049500383
301.0123832501473
299.9999999589238
300.0000000734091
300.0001692333194
300.344666382586
300.0000000121379
299.9996894865764
299.9828026996819
300.7487044770356
300.0000001002228
299.9999206785038
299.9549363519058
297.6826885953804
300.0000000789513
299.9999362250704
299.9580119010838
296.097540314785
300.0000000642156
299.9999489149456
299.9533224093607
295.2015600886544
297.0743206784232
299.9771626228123
299.9999639536583
300.0000000370853
297.0102786061716
299.9794618654961
299.9999720400673
300.0000000378126
297.5694362828305
299.9850348808865
299.9999808334994
300.0000000364705
297.0216235988673
299.9813501663172
299.999977234407
300.0000000153513
298.9004396557688
299.9977837516576
299.9999979303739
300.00000000338
299.90061157319
299.9999190089402
299.9999999745875
300.0000000004875
299.9889060011762
299.9999858064223
299.9999999905745
300
299.9386056472699
299.999900813479
299.999999907456
299.9999999996793
299.7507621692011
299.9990420805361
300.0000009984411
300.0000000717807
299.7505560146905
299.9990399082762
300.0000009704176
300.0000000715608
299.74839097268
299.9990183318166
300.0000006888267
300.000000064329
299.7474012044893
299.9989774636875
300.0000000900712
300.0000000470679
299.938605646921
299.9999008132407
299.9999999071247
299.9999999997474
299.9889060007938
299.9999858061652
299.9999999899551
299.9999999999997
299.9006115731354
299.9999190090057
299.9999999745876
300.0000000005238
298.900439656282
299.9977837523101
299.9999979303882
300.000000003209
300.0000000374653
299.9999639543784
299.9771626230833
297.074320678701
300.0000000380699
299.9999720401714
299.9794618658098
297.0102786060692
300.0000000361619
299.9999808339075
299.985034880899
297.5694362835841
300.0000000153948
299.9999772345662
299.9813501668569
297.0216235985461
295.2015600880265
299.9533224089096
299.9999489146153
300.0000000640842
296.0975403142942
299.9580119007256
299.9999362243719
300.0000000783281
297.6826885952909
299.9549363513586
299.9999206785388
300.000000099696
300.7487044771944
299.9828026995211
299.9996894863327
300.0000000129722
300.0000000005022
300.000000141248
300.0005248385813
301.5689532724384
300.0000000006776
300.0000001297032
300.000450574905
301.2562721731535
300.0000000131709
300.0000001289985
300.0004049497652
301.0123832500862
299.9999999595112
300.0000000733757
300.0001692331102
300.3446663825482
301.9513746823253
300.0007982393773
300.0000002477623
300.0000000010699
301.8093266858887
300.0006530151904
300.0000001845604
300.0000000006978
301.7189646827337
300.0005610503646
300.0000001476252
300.0000000005101
301.6335602303034
300.0004832355179
300.0000001179419
300.0000000003935
300
300.0000000022287
300.0000224438847
300.1818872367696
300.0000000001034
300.0000000572245
300.0002840485232
301.2476320667675
300.0000000002159
300.0000000787306
300.0003693957635
301.4957225323502
300.0000000002458
300.0000000956165
300.0004205858978
301.5605514449808
300.0000000000024
300
300
300
299.9999998571795
300.0000000023344
300.0000000000278
300.0000000000002
299.999761471727
300.000003701306
299.9999999946202
300
299.8141646346588
300.0002182239986
299.9999996836833
299.9999999997679
299.9999999999999
300
299.9999999999529
299.9999999836347
300
300
299.9999999994181
299.9999994379335
300
300
299.9999999973007
299.9999972195514
300
300.0000000000536
300.0000000195764
300.0000057670368
300.0000000013333
300.0000002136351
300.0004148446773
300.4327347984417
300.0000000007245
300.0000001363612
300.0002414182654
300.198892405079
299.999999999917
300.0000000345022
300.000056800209
300.0373847568765
300
300.0000000021574
300.0000038160609
300.0020340487349
300.3231078108143
300.0000871275897
300.0000000121197
299.9999999999794
300.3303015047258
300.0001425452928
300.0000000442766
300.0000000000929
300.3199179996581
300.0001335139526
300.0000000401806
300.0000000000501
300.290605973596
300.0001190268464
300.0000000315183
300.000000000079
300.2671168012508
299.9999854973682
300
300
300.2754019061789
300.0000014950854
300
300.0000000000001
300.1788854020125
299.9999999997817
300
300
300.0347078088124
300
300
299.9999999999999
300
299.9999999999999
300
299.9999999639472
300.0000000000002
300
300
300.0000000817068
300
300
300
300.0000039042316
300
300
299.9999999999999
300.0000006825181
299.9999962823919
299.9999481009455
299.9993819548644
300.0100325263864
299.9999481009402
299.9995365428091
299.9935861673399
299.9738514214646
299.9993819549014
299.9935861674311
300.00507330702
301.4442269965812
300.0100325266219
299.9738514216451
301.4442269967448
316.5066817397504
344.3781620241584
320.9305518549415
310.2788082640792
302.2398839934332
348.4980569070902
336.4537939881522
329.4046751669927
312.2905782739185
350.188668334833
342.0912678928504
337.9685644900099
319.2878597896838
350.8921049393934
343.205372512553
339.4470334955873
320.2048086605784
321.3763792380182
322.0371273739037
322.2207371706755
324.9093556448777
340.1258159450603
340.4732255468255
340.6050063891191
346.9376412208991
343.77631416441
344.0621336839853
344.1867980581681
348.0094577437871
351.4625063450058
351.5822857366946
351.6391619259104
354.390817456608
317.1038898646746
305.524219560933
300.7267130430411
300.0238092945468
325.4020584633558
307.1256884638304
300.8346855701749
300.0091740829768
320.0559634757564
304.6701142043302
300.5196618871585
299.9974361242138
297.2904917350485
297.9819443790156
299.7136781911434
299.9537029037941
299.9994277391658
299.9998860307387
299.9999933309848
299.9999999270565
299.9983080587034
299.9998968888139
299.999999009856
300.0000000077365
299.9970755281662
299.9998411338083
299.9999994670073
299.9999999869927
299.9898039588138
299.9992548911725
299.9999907726054
299.999999982562
300.0000000008025
300.000000007557
300.0000143918872
292.8300876856784
300.0000000089001
300.0000000033849
300.0000040195018
288.7839789582388
300.0000000104907
300.0000000035002
300.0000004461157
293.777125944596
300.0000000074248
300.0000000034702
300.0000000880979
315.7101295157416
336.3144080284187
375.1614639322135
379.533733126692
379.5249930440916
385.3649261390605
414.2760649887023
417.0620356459809
417.0270031268738
401.8225212387024
417.2859862787834
419.7187973597332
419.6690184594364
411.1540239749392
418.5786550362976
421.005115065103
421.0309897906476
379.4721794779217
379.5070003507569
379.5595666659043
379.7882754949669
416.9460214685229
416.945638210533
416.9636146911322
416.8721519652518
419.5868951472528
419.5736935136778
419.5758870332043
419.5328230956499
420.9712009659657
420.9377429482224
420.933651852966
420.8608029008531
371.4602500013837
364.7802580199157
358.1982861155996
333.9780673353134
413.7849544259512
410.5560693631245
406.303972569489
394.5504665889781
417.8231512889841
415.5711515520188
411.2612772118742
410.1389635285846
420.750124708342
421.0579730050247
418.9387093711069
407.9378486861069
317.6297999140077
292.4648663913852
218.3637322723312
202.2055251690301
333.1580436822132
284.3983850826311
177.6659263917505
154.5165442838463
333.6591258577598
243.5587104256474
135.6773253920215
116.850863607118
276.3527851343835
176.0266923253682
98.58031583168001
88.71776653352661
203.506146843102
204.6168860225828
205.7032870883487
193.6190033218062
154.5262371993344
155.0164067191108
159.2523640783111
158.4352463432037
113.7039147216108
113.7144119138287
118.7719201306379
139.2338553116785
84.50524365911768
84.15114280216257
89.3398115363394
113.2588718805634
280.2452663014813
296.694316746389
299.1369785751405
296.1333549416435
262.6585135031475
289.8185931256995
295.9677146818045
294.220943322188
246.8113841232289
283.4538932117891
290.1889229174728
296.6140140936537
204.6260798228929
270.7561159363603
284.5901386728387
279.9813811958733
295.2428556467335
289.2519502108177
281.1862748853951
275.6580763904815
275.9864974251668
261.0917299292711
240.9878733244779
218.4693075441109
231.6489095270983
212.7870206988758
197.9828479324205
162.9255994895178
184.2775950119139
140.0425686642315
135.7639831399101
118.03259615727
89.15173648646393
83.96400930478468
83.17418429738052
82.78027956162283
140.155718799269
136.6479525260529
135.1798171348425
134.2249673047258
211.3200102068444
210.4593909458729
209.9682865934755
209.5423564129731
273.8049990636165
273.6699459045049
273.5909234602477
273.5202944566281
82.78027956164559
134.2249673047277
209.5423564128299
273.52029445766
83.17418429759618
135.1798171349127
209.9682865934146
273.5909234602541
83.96400930482808
136.6479525262075
210.4593909457523
273.6699459046847
89.1517364865532
140.1557187993872
211.3200102068275
273.8049990633561
275.6580763903177
281.1862748852209
289.251950210539
295.2428556462624
218.4693075439613
240.9878733245814
261.0917299296656
275.9864974249472
162.9255994896309
197.9828479325665
212.7870206988017
231.6489095270242
118.0325961573189
135.7639831399496
140.0425686643078
184.2775950119118
279.9813811957275
284.5901386725975
270.7561159365173
204.6260798229225
296.6140140934771
290.1889229173071
283.4538932118646
246.811384123312
294.2209433220549
295.9677146814504
289.8185931256816
262.6585135033365
296.133354941479
299.136978574894
296.6943167463476
280.2452663017407
193.6190033216594
205.7032870883325
204.6168860224526
203.5061468428547
158.43524634333
159.2523640783179
155.0164067193056
154.5262371994363
139.2338553121547
118.7719201306831
113.7144119141191
113.7039147219205
113.2588718807739
89.33981153639397
84.15114280227246
84.5052436594453
202.2055251683452
218.3637322719832
292.4648663914804
317.6297999139675
154.5165442840128
177.6659263914737
284.3983850821666
333.158043682019
116.8508636076118
135.6773253917055
243.5587104254602
333.6591258574917
88.71776653431051
98.58031583109654
176.0266923248497
276.3527851342814
333.9780673349815
358.1982861155273
364.7802580198429
371.4602500015997
394.550466588676
406.3039725694161
410.5560693631477
413.7849544262012
410.1389635284174
411.2612772118249
415.5711515520186
417.8231512889714
407.9378486859867
418.9387093711197
421.0579730050846
420.7501247084473
379.7882754950693
379.5595666661619
379.5070003506688
379.472179478076
416.8721519653019
416.9636146912501
416.9456382105578
416.9460214686463
419.5328230955222
419.5758870332414
419.5736935137035
419.5868951472443
420.8608029008795
420.9336518530908
420.937742948244
420.9712009659622
379.524993043941
379.5337331270091
375.1614639319825
336.3144080284661
417.0270031267772
417.0620356461567
414.2760649885465
385.3649261390755
419.669018459366
419.7187973597696
417.2859862787336
401.8225212387922
421.0309897906288
421.0051150651542
418.5786550362566
411.1540239749484
292.8300876857015
300.0000143918563
300.0000000075337
300.0000000008057
288.7839789582723
300.0000040194918
300.0000000033813
300.000000008906
293.777125944682
300.0000004461121
300.0000000035002
300.0000000104933
315.7101295158329
300.0000000881008
300.0000000034699
300.0000000074259
299.9999999270748
299.9999933311408
299.9998860307387
299.9994277392184
300.0000000077508
299.9999990100956
299.9998968887579
299.9983080586942
299.9999999869962
299.9999994672756
299.9998411337145
299.9970755280663
299.9999999825635
299.9999907727783
299.9992548910676
299.9898039586195
300.023809294289
300.7267130430186
305.5242195607495
317.1038898645804
300.0091740828743
300.8346855701652
307.1256884637493
325.4020584633113
299.9974361241989
300.5196618871425
304.6701142042887
320.0559634756968
299.9537029037631
299.7136781911722
297.9819443789498
297.2904917349358
324.9093556447473
322.2207371705533
322.0371273741097
321.3763792382082
346.9376412206438
340.6050063890289
340.4732255468942
340.1258159453387
348.0094577434821
344.1867980579468
344.0621336836101
343.7763141646157
354.3908174563896
351.639161925685
351.5822857362908
351.4625063451998
320.204808660669
319.2878597894352
312.2905782742051
302.2398839935526
339.4470334955843
337.9685644898546
329.4046751670832
310.2788082640777
343.2053725125833
342.0912678924038
336.4537939881483
320.930551854843
350.8921049394223
350.1886683345194
348.4980569070832
344.3781620242101
299.9283202348442
299.9997962986272
299.9999999813872
300.0000000080668
299.8166876065144
299.9994080296934
299.9999999740127
300.0000000260916
299.6853898673266
299.9989129761046
299.9999994319805
300.0000000266542
299.6020058802719
299.9986495350618
299.9999993436103
300.0000000328174
300.0000000719606
300.000000998295
299.9990420806594
299.750762169224
300.0000000716926
300.0000009707391
299.9990399077643
299.7505560149151
300.000000064172
300.0000006891779
299.9990183318434
299.7483909721724
300.0000000465643
300.0000000904337
299.9989774622742
299.7474012045031
300.0000000327603
300.0000000265773
300.00000002553
300.0000000074178
299.9999993436809
299.999999431971
299.9999999738633
299.9999999809859
299.9986495354992
299.9989129755331
299.9994080302957
299.999796298188
299.6020058797277
299.6853898667894
299.8166876067571
299.9283202348934
)
;

boundaryField
{
    back
    {
        type            empty;
    }
    inlet
    {
        type            zeroGradient;
    }
    front
    {
        type            empty;
    }
    top
    {
        type            zeroGradient;
    }
    outlet
    {
        type            fixedValue;
        value           uniform 300;
    }
    bottom
    {
        type            zeroGradient;
    }
    wall
    {
        type            zeroGradient;
    }
}


// ************************************************************************* //
