/*--------------------------------*- C++ -*----------------------------------*\
  =========                 |
  \\      /  F ield         | OpenFOAM: The Open Source CFD Toolbox
   \\    /   O peration     | Website:  https://openfoam.org
    \\  /    A nd           | Version:  11
     \\/     M anipulation  |
\*---------------------------------------------------------------------------*/
FoamFile
{
    format      ascii;
    class       volVectorField;
    location    "5.225";
    object      U;
}
// * * * * * * * * * * * * * * * * * * * * * * * * * * * * * * * * * * * * * //

dimensions      [0 1 -1 0 0 0 0];

internalField   nonuniform List<vector> 
4455
(
(99.984314 0.31339326 0)
(99.951368 1.1467597 -1.4877342e-18)
(99.696395 2.0597971 5.1146796e-18)
(99.465289 3.0969906 2.5637604e-20)
(98.992785 4.0948673 4.8128932e-18)
(98.545679 5.5058968 -1.8248444e-17)
(97.529039 6.8675066 8.1444161e-18)
(96.602836 8.9784139 0)
(93.986043 12.138112 -5.029571e-17)
(100.01095 0.36189661 -9.5504622e-18)
(99.997537 1.2351996 9.3357033e-18)
(99.751606 2.2302405 -1.1527559e-17)
(99.528222 3.3068349 1.9296426e-17)
(99.067221 4.359757 -3.7173466e-17)
(98.623082 5.7906547 4.0678035e-17)
(97.728756 7.1378107 -3.9191251e-18)
(96.682975 9.5329201 5.7181898e-18)
(93.728094 12.095425 2.1961741e-16)
(100.06005 0.39401518 -9.8185342e-18)
(100.02335 1.3151183 1.2494874e-17)
(99.832062 2.3694863 1.1293386e-17)
(99.531648 3.4608295 -1.1270044e-17)
(99.244438 4.6097939 4.9276013e-17)
(98.74019 6.1554472 -2.7989957e-17)
(97.821601 7.463424 3.5862548e-18)
(96.905598 10.1642 -8.0212475e-17)
(93.581953 12.39861 -1.5578531e-16)
(100.09072 0.41778893 2.0463164e-19)
(100.06848 1.369874 -1.5730504e-18)
(99.867813 2.4461827 2.6398244e-17)
(99.649223 3.6629461 3.6435704e-18)
(99.312994 4.7933042 -2.0681052e-19)
(98.976556 6.470401 -5.3180425e-18)
(98.046237 7.9566101 5.9165481e-17)
(96.93328 11.032321 1.5998178e-16)
(93.250834 13.081395 1.2929652e-16)
(100.13771 0.437792 1.8991631e-17)
(100.09418 1.3831693 -2.1360827e-17)
(99.911341 2.549611 2.6961709e-17)
(99.75496 3.7502347 3.0956499e-20)
(99.461247 5.0202319 -3.3470655e-17)
(99.097122 6.692975 -1.0269717e-17)
(98.318392 8.2064547 -4.6647282e-17)
(97.239965 11.646043 -7.4938277e-17)
(93.013011 13.503462 -3.8090832e-16)
(100.15828 0.43280411 0)
(100.14822 1.3950377 0)
(99.949051 2.5909554 -4.727999e-17)
(99.834699 3.8475217 -5.4252011e-17)
(99.683229 5.2026498 0)
(99.338118 7.0321735 -7.3514915e-17)
(98.493645 8.6772107 -6.2642676e-18)
(97.307312 12.524601 -4.5364445e-18)
(92.749092 14.122225 4.6974049e-16)
(100.18054 0.43183987 0)
(100.16858 1.372088 -1.2641202e-18)
(100.02458 2.6311288 1.4228256e-18)
(99.93119 3.8794056 5.3025945e-17)
(99.781634 5.2990291 -3.9143768e-18)
(99.58315 7.1211209 1.5608511e-16)
(98.88986 8.8641254 0)
(97.651365 13.21701 0)
(92.553274 14.525426 2.1457262e-16)
(100.21601 0.40964459 3.4733029e-17)
(100.1761 1.3365335 0)
(100.07718 2.6304248 0)
(100.0837 3.9588654 0)
(100.0133 5.453399 0)
(99.737546 7.410273 -7.7660208e-17)
(99.107382 9.2049746 -8.2813981e-17)
(97.830879 14.087699 1.1916015e-16)
(92.486242 15.066166 -2.2614808e-19)
(100.22418 0.38992575 -3.4202065e-17)
(100.21028 1.2830384 -1.1993529e-18)
(100.11898 2.5713445 -1.3707695e-18)
(100.15545 3.8772157 3.086703e-18)
(100.18426 5.4641363 1.1943996e-16)
(100.05058 7.4673748 1.3510405e-16)
(99.525756 9.3657304 2.6260906e-16)
(98.201305 14.723319 -1.1697041e-16)
(92.581891 15.635581 -3.6715109e-16)
(100.2364 0.36219306 0)
(100.23827 0.33917936 6.2294774e-17)
(100.21922 0.29838137 -6.1798111e-17)
(100.2172 0.26708795 5.8652728e-17)
(100.19165 0.22488169 -5.7335597e-17)
(100.16911 0.17927469 1.137208e-16)
(100.13923 0.13826927 -1.1039938e-16)
(100.10415 0.092340678 0)
(100.03736 0.039123278 0)
(100.22436 1.2244293 0)
(100.25226 1.1553346 1.0868754e-18)
(100.28707 1.0869267 0)
(100.28196 0.97527547 3.0710851e-18)
(100.31114 0.89646892 6.2191835e-17)
(100.31853 0.79304404 -1.852548e-16)
(100.30282 0.68657447 1.1977404e-16)
(100.34868 0.59271687 -1.8181627e-18)
(100.26325 0.3881223 1.144431e-16)
(100.20698 2.5808 7.9953135e-17)
(100.25022 2.510405 -1.5712273e-16)
(100.33678 2.4532447 1.4913215e-16)
(100.41019 2.3409177 -5.0521433e-18)
(100.44568 2.2008783 -6.9779445e-17)
(100.5669 2.0786067 -2.1085664e-18)
(100.54853 1.8694573 0)
(100.69525 1.737281 3.9386794e-18)
(100.65007 1.3585158 -1.9060085e-18)
(100.27507 3.9190305 8.3849424e-17)
(100.41826 3.9169529 -1.698865e-16)
(100.49407 3.840512 1.6057563e-16)
(100.67064 3.8096866 -7.7580324e-17)
(100.71108 3.6540397 -4.8171307e-18)
(100.90032 3.5781837 2.3041725e-18)
(100.91704 3.3856385 0)
(101.13197 3.2680089 -2.1453667e-18)
(101.06954 2.9252886 1.2837242e-16)
(100.34298 5.5354655 -9.5940789e-17)
(100.63322 5.6650397 0)
(100.78438 5.6241134 -8.6881551e-17)
(101.09258 5.6648303 8.9595186e-17)
(101.22093 5.5253479 -7.9884908e-17)
(101.5348 5.4987655 8.2557437e-17)
(101.61472 5.2701021 0)
(101.95652 5.1654456 0)
(101.94461 4.7285471 4.5656485e-18)
(100.19787 7.6841293 -1.1786377e-16)
(100.58672 7.9624535 -1.1096635e-16)
(100.75353 8.1307723 1.0666791e-16)
(101.13587 8.3240786 1.006351e-16)
(101.3115 8.422055 -9.7011123e-17)
(101.694 8.5274111 0)
(101.87465 8.555299 1.752341e-16)
(102.34122 8.5668005 -1.8064544e-18)
(102.35154 8.3833779 -3.22125e-16)
(99.821196 9.5461756 -1.3879126e-16)
(100.3535 9.9575083 0)
(100.75322 10.049325 0)
(101.34951 10.389781 3.6421076e-18)
(101.78474 10.341728 0)
(102.32587 10.583525 0)
(102.71129 10.404496 0)
(103.2045 10.644852 0)
(103.53079 10.284557 0)
(98.555751 15.547318 5.495571e-18)
(99.26025 16.809894 0)
(99.699263 17.27213 4.686174e-18)
(100.43436 18.027083 -8.5623545e-18)
(101.07511 17.970055 -1.2537481e-16)
(101.84229 18.183104 -1.1609152e-16)
(102.46328 17.766156 2.256791e-16)
(103.2041 17.756596 2.13498e-16)
(103.85539 17.128362 -2.0210927e-16)
(93.157584 16.61738 6.6923081e-16)
(94.775898 17.330021 -4.2348745e-16)
(96.970433 17.230586 3.5485503e-16)
(99.618153 16.700825 -3.467107e-16)
(101.47935 16.393544 -4.623923e-16)
(103.51735 16.319091 8.4786844e-16)
(104.88465 16.567723 -5.3115762e-16)
(106.22791 16.921167 -2.4239255e-16)
(106.97549 17.055467 2.2797047e-16)
(100.06897 0.069206542 -1.5074963e-19)
(100.11244 0.095483556 1.5424099e-16)
(100.18708 0.13599623 -2.0455012e-19)
(100.28874 0.18384999 -1.5522328e-16)
(100.41358 0.23483533 1.5123595e-19)
(100.56489 0.28785974 1.5541325e-16)
(100.74431 0.34234834 -1.5616849e-16)
(100.95446 0.39755779 -1.5131024e-19)
(101.2141 0.47043711 -7.7918224e-17)
(100.37598 0.44136718 -1.6425873e-16)
(100.45165 0.61142177 1.6500861e-16)
(100.64189 0.62865003 -1.651034e-16)
(100.78102 0.84594838 0)
(101.04807 0.83816495 1.6530805e-16)
(101.23541 1.1022557 -4.0207834e-19)
(101.55453 1.0613626 -3.3246116e-19)
(101.8189 1.3552137 -1.6514804e-16)
(102.20283 1.2635477 8.2409044e-17)
(100.87214 1.4802061 1.7508643e-16)
(100.95365 1.7954475 -1.7578174e-16)
(101.26504 1.8760845 -1.7604728e-16)
(101.38517 2.2260551 1.7647457e-16)
(101.7345 2.2823531 -1.7679742e-16)
(101.89494 2.6491033 1.7618637e-16)
(102.2922 2.6867491 -1.7656435e-16)
(102.49889 3.092589 6.5855545e-19)
(102.95266 3.1049982 1.7609491e-16)
(101.40239 3.0674929 -1.8771189e-16)
(101.50713 3.452139 -7.3552922e-19)
(101.88484 3.5403287 7.3831603e-19)
(102.02696 3.9530635 0)
(102.45187 4.0240533 -7.3063263e-22)
(102.63975 4.471501 -1.8698213e-16)
(103.10919 4.5193654 1.9008558e-16)
(103.3452 4.9938241 7.3392046e-19)
(103.85176 5.0022207 7.3217007e-19)
(102.33 4.938344 -7.9374008e-19)
(102.48004 5.4757956 -2.0360159e-16)
(102.92852 5.6412858 3.6137827e-19)
(103.12553 6.2252779 2.0457355e-16)
(103.60046 6.3642138 2.0393311e-16)
(103.80339 6.9205242 -2.0496832e-16)
(104.30964 7.0181979 -7.9278143e-19)
(104.54515 7.5704822 -7.9155776e-19)
(105.08647 7.6071155 -7.9023745e-19)
(102.836 8.6513018 2.2048918e-16)
(103.04676 9.1546425 0)
(103.46791 9.3001888 0)
(103.67404 9.7234777 2.1747017e-16)
(104.11232 9.7866334 -2.2039272e-16)
(104.36129 10.148585 -2.1854392e-16)
(104.8538 10.171982 4.3616373e-16)
(105.10993 10.487975 -1.6714652e-18)
(105.61519 10.501192 -4.3444983e-16)
(103.94128 10.586989 -9.3798589e-19)
(104.44804 10.962257 0)
(104.90069 11.215553 9.2908479e-19)
(105.38839 11.568293 2.4230075e-16)
(105.92204 11.690968 -2.4370887e-16)
(106.3491 11.975527 2.4070994e-16)
(106.82489 12.031243 -2.4122942e-16)
(107.19839 12.333919 -9.0676188e-19)
(107.65741 12.432112 2.3758764e-16)
(104.30455 17.228703 -2.5578817e-16)
(104.65926 17.299345 2.5913544e-16)
(105.06876 17.261999 -2.5587626e-16)
(105.54278 17.291255 2.5458064e-16)
(106.04057 17.323474 -2.4861597e-16)
(106.55765 17.349342 2.2606537e-18)
(106.99157 17.411974 2.4980173e-16)
(107.30901 17.369506 1.9429262e-18)
(107.66528 17.23768 1.2229464e-16)
(108.10877 16.887144 0)
(109.28334 16.964012 -2.7180168e-16)
(110.02991 17.158337 4.1865131e-18)
(110.79777 17.803889 4.7995672e-18)
(111.48393 17.898676 5.3404611e-16)
(112.0873 17.650841 -2.6625441e-16)
(112.60424 17.004207 -2.6174322e-16)
(113.21264 16.088789 2.6289787e-16)
(113.9187 14.881584 1.3034814e-16)
(114.30338 13.282546 -1.5208292e-16)
(114.50435 11.47993 0)
(114.64399 10.571547 1.5183938e-16)
(114.38928 9.6025451 -1.5183891e-16)
(113.91523 9.4337029 0)
(113.06955 8.9065718 0)
(112.36924 9.1647503 0)
(111.3369 8.7431598 -1.6859014e-16)
(110.47342 9.1208578 1.6847344e-16)
(107.95136 16.986324 -1.3927089e-16)
(108.28332 16.570911 0)
(108.55447 16.203981 0)
(108.76581 15.739482 0)
(108.84832 15.411827 0)
(108.92814 14.929025 0)
(108.79145 14.64247 0)
(108.65531 14.382807 1.3681715e-16)
(108.34274 14.332345 -2.7473657e-16)
(107.97202 12.745604 -2.1633585e-18)
(108.35648 13.002658 -2.5903882e-16)
(108.61395 13.217784 0)
(108.91918 13.388712 -1.2665994e-16)
(109.11148 13.533235 1.2666016e-16)
(109.35796 13.639744 0)
(109.47428 13.70917 0)
(109.62507 13.804983 0)
(109.6419 13.874278 0)
(105.87621 10.794758 2.3285788e-16)
(106.42601 10.908948 0)
(106.69643 11.223669 1.136086e-16)
(107.26084 11.344697 -2.2626093e-16)
(107.52258 11.673052 1.1265235e-16)
(108.07641 11.790195 0)
(108.30209 12.132503 0)
(108.81505 12.243455 0)
(108.99379 12.592798 1.0840469e-16)
(105.35161 8.1560337 0)
(105.88655 8.2242962 2.0947399e-16)
(106.17634 8.743109 -3.1333108e-16)
(106.69464 8.7894029 1.0385714e-16)
(107.0331 9.2809283 1.0204856e-16)
(107.51991 9.3291112 -9.2122111e-19)
(107.89852 9.7969737 -2.0133288e-16)
(108.3761 9.8391958 1.9948747e-16)
(108.72323 10.325715 -9.9281872e-17)
(104.1166 5.5062063 0)
(104.68318 5.5256962 9.5824058e-17)
(104.99712 6.0653891 -9.5837658e-17)
(105.60474 6.0545191 0)
(105.96057 6.6028514 -1.8674864e-16)
(106.57161 6.5646055 1.8676557e-16)
(106.98269 7.0971168 9.1573132e-17)
(107.5774 7.0847539 -1.8219493e-16)
(108.05378 7.5416999 9.0621753e-17)
(103.19612 3.5526408 0)
(103.70549 3.5605038 0)
(103.9928 4.0410137 0)
(104.55308 4.0258212 -8.7368606e-17)
(104.88357 4.5342175 1.7400947e-16)
(105.48494 4.4951555 -1.7250872e-16)
(105.85609 5.024194 8.5867976e-17)
(106.49908 4.9610806 -8.4207869e-17)
(106.91419 5.5139975 1.6753034e-16)
(102.49522 1.5715936 -1.6662947e-16)
(102.9411 1.4718539 5.7138993e-19)
(103.29802 1.8405157 8.2477467e-17)
(103.80636 1.710476 -8.1203264e-17)
(104.22459 2.1103209 8.1203114e-17)
(104.78025 1.9390943 0)
(105.25059 2.3554436 7.8983846e-17)
(105.8586 2.1493231 -1.5713427e-16)
(106.38423 2.5950258 7.8151412e-17)
(101.39522 0.54036739 4.3218934e-19)
(101.66882 0.60687174 7.8562641e-17)
(102.10402 0.77180892 7.7589361e-17)
(102.40596 0.82390349 -7.7589369e-17)
(102.85815 0.9692417 0)
(103.21796 0.99947957 0)
(103.72766 1.1429958 -7.535426e-17)
(104.17579 1.1737674 1.5001613e-16)
(104.75794 1.3349495 -7.4661841e-17)
(105.31298 1.3634733 0)
(105.94834 1.5264882 -7.2218891e-17)
(106.59767 1.5804187 9.3136474e-19)
(107.29223 1.7149934 9.8889896e-19)
(108.00799 1.7759788 1.0602579e-18)
(108.78407 1.9214149 6.9238365e-17)
(109.58259 1.9783815 6.6891623e-17)
(110.42732 2.1164936 -6.6891627e-17)
(111.332 2.1897257 0)
(107.05465 2.3554017 0)
(107.63125 2.8331164 0)
(108.35457 2.5782847 -7.4324775e-17)
(109.00026 3.0207391 1.0991706e-18)
(109.74871 2.8877026 1.1585171e-18)
(110.47736 3.1778128 7.2067068e-17)
(111.28234 3.1640703 6.9552283e-17)
(112.03705 3.4199134 -6.9552269e-17)
(112.92144 3.4666657 0)
(107.58892 5.4271121 -8.3322053e-17)
(108.08246 6.0023995 0)
(108.74568 5.9310304 0)
(109.34579 6.4627091 -7.9233453e-17)
(110.04398 6.4995977 1.573211e-16)
(110.62649 6.9257997 -1.2164909e-18)
(111.45084 7.0869403 -1.2738526e-18)
(112.03581 7.4459744 -7.5597297e-17)
(112.91278 7.6723707 0)
(108.64237 7.6045124 -8.8621585e-17)
(109.13201 8.0224128 8.8621558e-17)
(109.79773 8.0834396 0)
(110.24568 8.5390094 0)
(110.98639 8.6391507 8.4171727e-17)
(111.43317 9.0234358 -8.417172e-17)
(112.20595 9.2529221 8.1676536e-17)
(112.69284 9.6304189 -4.1503675e-17)
(113.48128 9.862568 -4.0172846e-17)
(109.26331 10.359805 -9.7408404e-17)
(109.5454 10.876173 9.7407607e-17)
(110.13573 10.929227 0)
(110.42272 11.488447 0)
(110.98407 11.567681 0)
(111.30448 12.164499 0)
(111.89468 12.299889 0)
(112.16629 12.962405 0)
(112.8271 13.129039 0)
(109.46945 12.721291 -1.0840447e-16)
(109.59859 13.089125 1.0699161e-16)
(110.05743 13.235953 -1.07005e-16)
(110.14359 13.64305 1.0565075e-16)
(110.60987 13.85422 -1.0564702e-16)
(110.63502 14.329169 0)
(111.11521 14.625665 0)
(111.0873 15.187537 0)
(111.60842 15.566997 0)
(109.71401 13.999656 0)
(109.62911 14.115702 -1.2303588e-16)
(109.68278 14.326288 1.2315788e-16)
(109.50556 14.510548 0)
(109.5597 14.831694 1.2352986e-16)
(109.26024 15.132973 -1.2360022e-16)
(109.33685 15.561878 0)
(108.95899 16.057768 6.2182674e-17)
(109.08232 16.607426 -1.2447549e-16)
(108.09455 14.257388 1.3788835e-16)
(107.6351 14.34796 1.4075029e-16)
(107.31891 14.436769 -1.4074109e-16)
(106.67629 14.667685 1.4425557e-16)
(106.33749 14.934784 -2.9044322e-16)
(105.56413 15.342991 2.9427584e-16)
(105.22475 15.78856 -2.9822653e-16)
(104.30512 16.385776 1.5012517e-16)
(103.96832 17.000825 0)
(109.11263 8.6007899 -1.7719456e-16)
(108.07414 9.0194202 1.7730205e-16)
(106.50443 8.4115735 0)
(105.37902 9.0400851 0)
(103.81933 8.5464878 0)
(102.41171 9.3417437 0)
(101.02307 9.0795975 0)
(99.305105 9.9581337 -1.0448787e-16)
(98.079668 10.040911 1.0447986e-16)
(96.095528 11.120579 1.0922539e-16)
(102.91893 17.830101 0)
(108.63316 17.323779 6.2292048e-17)
(111.54391 16.257606 0)
(113.15216 13.898709 0)
(114.06284 10.307789 0)
(113.57942 8.0761518 3.5659629e-17)
(113.74898 3.6417591 3.2608022e-17)
(112.23644 2.3196485 3.1367696e-17)
(94.832911 11.618233 -1.0922761e-16)
(102.62726 18.634485 0)
(108.80983 17.980887 0)
(112.15507 16.718266 5.0321332e-17)
(113.76749 14.109669 0)
(114.815 10.625799 -3.793641e-17)
(114.50316 8.2457953 -7.0516883e-17)
(114.6811 3.7888805 -6.4404241e-17)
(113.23579 2.4013098 -6.1946208e-17)
(92.637947 13.131077 0)
(101.48605 19.754757 0)
(108.3544 18.98261 6.239508e-17)
(112.07692 17.571685 -5.0323297e-17)
(114.23395 14.974042 0)
(115.55869 11.008469 3.7936405e-17)
(115.22193 8.7457502 3.4857109e-17)
(115.56193 3.9950749 3.1796091e-17)
(114.22556 2.5339843 3.0578506e-17)
(91.431725 14.199919 1.1626444e-16)
(101.28721 20.757559 0)
(108.60345 19.756307 -1.2469426e-16)
(112.81651 18.10585 0)
(114.88628 15.243661 0)
(116.28525 11.490551 -3.6183148e-17)
(116.26338 8.9290415 -3.3107475e-17)
(116.61006 4.0868736 0)
(115.33359 2.6140037 -2.8833699e-17)
(89.185061 16.191386 -1.16263e-16)
(100.12392 22.235603 -8.1663449e-17)
(108.17939 21.059703 6.2295219e-17)
(112.76134 19.15485 0)
(115.40873 16.233541 0)
(117.18583 11.835478 3.618314e-17)
(116.9743 9.3845114 3.3107373e-17)
(117.52439 4.3540999 0)
(116.39467 2.7375544 2.8833695e-17)
(88.269341 17.625893 0)
(100.07556 23.43457 8.1665838e-17)
(108.54909 21.948256 -6.1747097e-17)
(113.63865 19.721538 0)
(116.16634 16.520996 0)
(117.92424 12.376698 -3.4142771e-17)
(118.208 9.6242788 -3.1118693e-17)
(118.65863 4.5069581 0)
(117.60447 2.8278208 -2.68532e-17)
(86.125271 20.091307 0)
(98.956029 25.286059 0)
(108.22292 23.569038 6.1747027e-17)
(113.7377 21.036764 -2.3433512e-17)
(116.82604 17.642304 -1.9507878e-17)
(119.03139 12.813755 5.064376e-17)
(118.89542 10.118139 4.6133451e-17)
(119.64873 4.7327584 0)
(118.75366 2.9495987 3.9737467e-17)
(85.387384 21.914052 0)
(99.114149 26.655339 -4.1229819e-17)
(108.74763 24.554333 0)
(114.64354 21.587247 2.3423624e-17)
(117.62264 17.967008 1.9501716e-17)
(119.74795 13.299856 -6.2005575e-19)
(120.28229 10.315756 -2.9443582e-17)
(120.88231 4.9070695 0)
(120.05603 3.0289987 -1.2884268e-17)
(83.351752 25.105766 -6.1570368e-17)
(98.102838 29.000291 4.1219152e-17)
(108.60911 26.633957 0)
(115.11682 23.238358 0)
(118.56323 19.235726 0)
(121.08686 13.838808 -3.1092119e-17)
(121.05829 10.763295 6.2760289e-19)
(121.90343 5.1675783 0)
(121.27451 3.1276993 0)
(122.88822 3.1998057 0)
(123.24959 5.2978503 0)
(122.59078 11.052179 -1.6381309e-19)
(121.88183 14.274708 1.5943449e-17)
(119.37198 19.511547 0)
(116.00701 23.657211 -2.9409434e-18)
(109.41374 27.498526 -6.9909136e-19)
(98.684957 30.426654 -3.3974992e-17)
(83.094938 27.90926 1.1442668e-16)
(124.34811 3.2101639 -5.2788344e-18)
(124.30697 5.4325685 -7.3042763e-19)
(123.45948 11.179469 6.9508613e-18)
(123.36884 14.58472 -5.6119441e-20)
(120.79561 20.458497 -7.2833757e-18)
(117.10981 25.111262 1.013959e-17)
(110.0374 29.682351 -3.9153527e-18)
(98.522147 33.426678 4.3529656e-17)
(82.367385 33.100164 -5.8065872e-17)
(125.78521 3.19294 1.0296284e-17)
(125.74948 5.4652079 0)
(125.21049 11.465426 1.2192051e-17)
(124.32578 14.864677 -6.5155997e-18)
(121.80618 20.691842 7.3372347e-18)
(118.25469 25.476541 -1.8858674e-17)
(111.53486 30.371929 -1.7099975e-17)
(100.7132 34.526843 9.7410486e-18)
(85.703455 35.098671 1.8988855e-18)
(127.27493 3.1680739 -5.0233477e-18)
(126.89032 5.5148638 -6.5321773e-19)
(126.23359 11.486224 -5.2623389e-18)
(126.03207 15.239086 7.4496373e-18)
(123.63088 21.600277 2.8228147e-18)
(119.91624 26.961533 9.9052998e-18)
(112.88801 32.731591 1.3517577e-17)
(101.36486 37.565341 5.3046258e-18)
(86.193309 39.590933 -6.0759089e-18)
(128.81703 3.1365347 1.0604611e-18)
(128.42252 5.52388 -1.1367206e-18)
(128.00602 11.699427 -6.7930395e-19)
(127.09818 15.345488 2.1625819e-18)
(124.81674 21.679902 -2.8292102e-18)
(121.30199 27.135283 -3.250283e-18)
(114.78644 33.147648 -3.5571713e-18)
(104.08601 38.348298 4.0162783e-18)
(89.353451 41.11133 -7.6626579e-18)
(130.38051 3.0872089 -1.0722685e-18)
(129.64765 5.5233443 1.1503878e-18)
(129.26386 11.607179 -6.2638054e-19)
(129.02656 15.602321 -3.2273908e-20)
(126.92229 22.541678 -8.0190257e-19)
(123.3574 28.540474 2.2150422e-18)
(116.4681 35.499062 -3.3936422e-18)
(105.08638 41.384577 3.8410141e-18)
(89.93226 45.050975 0)
(131.9363 3.0098863 -8.5652276e-19)
(131.27686 5.4734709 -5.0860171e-19)
(131.01656 11.769851 -5.0557955e-19)
(130.20606 15.622981 -6.6748075e-19)
(128.26407 22.366182 -7.265944e-19)
(124.88426 28.52468 2.2277379e-18)
(118.59104 35.640166 -5.699402e-18)
(107.938 41.8694 8.4290327e-18)
(93.170565 46.019408 -5.53772e-18)
(133.47586 2.8961981 2.3612217e-18)
(132.51196 5.42186 1.6485567e-18)
(132.41823 11.399207 2.4218011e-18)
(132.28707 15.700502 2.6301251e-18)
(130.5759 23.121578 2.2290295e-18)
(127.27619 29.7902 -8.2839094e-19)
(120.64265 37.915409 -2.9966868e-18)
(109.34536 44.879127 -1.166433e-18)
(94.211963 49.62174 -6.4717125e-18)
(134.96365 2.7550785 -4.0461362e-18)
(134.2027 5.2286127 -1.669105e-18)
(134.1126 11.49801 -5.5126997e-18)
(133.51916 15.575915 -1.6276339e-18)
(132.08251 22.595533 3.7854002e-18)
(128.93878 29.519443 2.5530619e-18)
(122.92507 37.752083 -1.3496785e-17)
(112.39516 45.039056 3.1451191e-18)
(97.536972 50.207819 1.2096119e-17)
(98.89417 53.623295 -1.1141808e-17)
(114.25024 48.034032 4.0662336e-18)
(125.46651 39.879009 1.8202887e-17)
(131.70681 30.535586 -2.206743e-18)
(134.44589 23.261749 1.7959279e-19)
(135.76524 15.370178 2.074301e-18)
(135.72591 10.938706 3.6008772e-18)
(135.40391 5.1295635 -1.6044103e-19)
(136.42442 2.5855519 4.7672361e-18)
(102.32881 53.926666 4.0496567e-17)
(117.52647 47.835976 2.5052682e-18)
(127.90234 39.340003 -2.2431687e-17)
(133.45477 29.978662 -5.0031152e-19)
(136.24811 22.348793 -3.2682223e-18)
(136.97614 15.060152 -2.6362636e-18)
(137.21839 10.870987 -4.3960787e-18)
(137.05636 4.7831119 0)
(137.82606 2.3875893 -2.0810936e-18)
(103.96283 57.275782 -5.151261e-17)
(119.85373 50.797366 2.4389945e-17)
(130.97594 41.22263 1.0967301e-17)
(136.52352 30.673962 -3.715478e-19)
(138.56814 22.791295 3.895116e-18)
(139.33826 14.579212 1.554338e-20)
(138.91481 10.089402 1.7000982e-18)
(138.24376 4.6331245 2.4477734e-18)
(139.14339 2.15725 2.1504117e-18)
(107.42764 57.305847 -9.0630477e-18)
(123.33429 50.208205 6.6164674e-19)
(133.49217 40.26623 -1.4681861e-18)
(138.40303 29.764486 0)
(140.53147 21.46783 -3.9106567e-18)
(140.47359 14.040901 0)
(140.25165 9.7799803 2.7917033e-18)
(139.72701 4.1351348 -4.1534978e-18)
(140.35722 1.8975307 -1.0076235e-18)
(109.44498 60.619882 -3.1365486e-18)
(126.21311 53.114321 -1.4198544e-17)
(137.08829 41.789912 1.0514968e-18)
(141.6945 29.997468 0)
(142.8314 21.555854 -4.38413e-20)
(142.86578 13.291703 6.2269491e-20)
(141.9539 8.8493977 5.6632672e-20)
(140.83504 3.8825064 2.1767404e-18)
(141.44737 1.6074269 -1.1828868e-18)
(113.08982 60.266448 -3.1991846e-17)
(129.91198 52.037194 -5.8698893e-18)
(139.6303 40.311582 -5.7306619e-19)
(143.61777 28.653023 -1.3566806e-20)
(144.78528 19.897202 2.0982343e-18)
(143.85495 12.423281 1.3803509e-18)
(142.99795 8.2501982 -2.6855897e-20)
(142.07694 3.2427541 -5.6022982e-19)
(142.39056 1.2920205 0)
(115.65626 63.598495 2.2159431e-17)
(133.23856 54.682362 8.4531512e-18)
(143.73678 41.349815 -5.0928686e-19)
(146.98978 28.367966 3.7598561e-19)
(147.10062 19.457732 -1.9185936e-18)
(146.12907 11.336703 -1.6566498e-18)
(144.63634 7.1456948 -8.0479699e-20)
(143.03868 2.8235762 7.374034e-20)
(143.16025 0.95315754 0)
(119.55899 62.805497 0)
(137.4754 53.221102 5.6429389e-19)
(146.19762 39.207151 -4.8108733e-19)
(148.85996 26.514332 1.6199284e-17)
(148.73515 17.571114 3.554792e-19)
(146.89496 10.2116 -8.9050956e-18)
(145.36481 6.3296806 6.3107759e-18)
(143.96075 2.1258736 -4.944289e-18)
(143.73829 0.592256 -4.8445499e-18)
(122.91898 66.216138 2.2296051e-17)
(141.13032 55.293271 -2.2754102e-17)
(150.69256 39.59057 1.0898707e-18)
(152.2126 25.686391 -1.6948986e-17)
(151.13425 16.549912 4.1924912e-19)
(148.97161 8.7460814 8.895143e-18)
(146.74311 5.0401862 -6.8257318e-18)
(144.66843 1.5616056 5.2170886e-18)
(144.10794 0.22591235 -1.3987048e-18)
(144.24284 -0.095473465 6.2629356e-18)
(145.21302 0.728193 -8.2475669e-18)
(147.11074 4.0038011 0)
(149.46095 7.4368638 9.3153296e-19)
(152.27383 14.373016 -2.0988623e-17)
(153.92534 23.209789 -2.7029988e-17)
(153.11253 36.608775 0)
(146.22959 53.147269 -1.3917014e-17)
(127.44177 64.644111 -2.1416397e-17)
(144.31132 -0.24641063 0)
(145.62061 0.041525107 8.5212435e-18)
(148.13651 2.5035873 0)
(151.20077 5.4981531 1.1393198e-18)
(154.64408 12.434022 4.3151658e-17)
(157.27504 21.348846 2.9795582e-17)
(158.15772 35.625995 -4.5399609e-17)
(151.0313 54.250927 3.4726731e-17)
(133.17073 68.539528 -1.5571526e-17)
(144.04313 -0.52270728 0)
(145.57056 -0.77371697 0)
(148.02239 1.3394731 1.4381249e-17)
(151.22506 3.9284356 0)
(155.14205 9.9311986 -2.4548308e-17)
(158.5393 18.075272 3.8833385e-17)
(160.52201 31.400481 4.1303293e-17)
(157.09915 50.776008 3.6267811e-18)
(138.80439 65.425902 -2.198209e-17)
(143.60257 -1.0083757 0)
(145.52414 -1.6040637 0)
(148.5402 -0.23439185 -1.4680855e-17)
(152.46082 1.808408 -2.0434139e-17)
(156.98714 7.7511764 -3.0659963e-17)
(161.29438 15.658053 -4.2304242e-17)
(164.93262 29.23897 0)
(162.02124 50.341147 -8.6569072e-17)
(146.70171 68.764898 4.0108948e-17)
(142.61806 -1.1881524 -1.708604e-19)
(144.90865 -2.4485256 1.8502224e-19)
(147.87896 -1.3766915 0)
(151.84514 0.08805836 -1.3272597e-18)
(156.89418 4.8969811 6.8358439e-17)
(161.84541 11.879139 -2.6585096e-18)
(166.71003 23.938339 -7.0793422e-17)
(167.91176 45.337149 9.5111193e-17)
(152.90829 63.785068 -1.0837195e-16)
(141.70287 -1.4183267 1.7572045e-19)
(144.54324 -3.3721926 -1.905738e-19)
(147.87499 -2.9003284 0)
(152.5501 -2.0032616 2.6140139e-17)
(157.94405 2.7908281 -3.9560236e-17)
(163.74033 9.2758707 2.9090666e-18)
(169.96929 20.790117 7.3225033e-17)
(172.18865 43.104818 0)
(163.44799 65.682674 1.0857755e-16)
(140.19839 -1.4669433 -1.7647827e-19)
(143.4072 -4.1662462 -1.3395356e-17)
(146.58407 -3.9015994 6.5590199e-19)
(151.36124 -3.7965275 -2.5292402e-17)
(157.25606 -0.21666225 -4.0802362e-17)
(163.36472 5.3547098 0)
(170.66726 14.783286 0)
(176.69464 36.344488 1.3851796e-16)
(170.05152 58.673899 0)
(138.7763 -1.6964268 0)
(142.69983 -5.137058 1.3867527e-17)
(146.08216 -5.3060335 0)
(151.5617 -5.7221438 2.9081512e-17)
(157.55281 -2.1254881 3.7530545e-17)
(164.30734 2.9422136 -5.9997995e-17)
(172.16853 11.505986 0)
(179.10085 32.088047 -1.5453135e-16)
(183.71247 57.863804 2.6966924e-16)
(136.69396 -1.7956883 0)
(141.07358 -5.7909194 0)
(144.09094 -6.2062648 6.8089181e-19)
(149.71281 -7.8060792 1.2847544e-18)
(156.33277 -5.3789377 -2.2914561e-18)
(162.9095 -1.6065512 6.1926173e-17)
(171.50346 4.2534772 0)
(181.17612 20.363261 0)
(187.35883 45.221723 -2.7057961e-16)
(133.91973 -2.2208242 3.0337467e-19)
(140.06794 -6.9081212 1.1292691e-19)
(143.47528 -7.2673568 -1.673336e-17)
(149.86173 -9.1048105 0)
(156.01284 -6.8188933 0)
(164.16272 -2.0679433 4.1216186e-18)
(172.5349 4.2630331 8.4572217e-17)
(181.6694 22.193391 -3.4578266e-18)
(199.07108 50.069726 0)
(131.82842 -2.4628036 2.7126598e-19)
(138.45845 -7.4778494 1.132268e-19)
(141.49039 -8.0735335 1.5226523e-17)
(148.5839 -10.718988 0)
(156.32085 -7.8738202 0)
(164.70174 -3.902105 -4.2133492e-18)
(175.37433 4.9508811 -2.6147195e-16)
(186.17202 25.899535 3.6589301e-18)
(194.8945 49.652674 -5.5699141e-16)
(129.47357 -2.6107917 0)
(137.31422 -8.6266172 -2.1396002e-17)
(140.92548 -9.2467006 0)
(148.914 -12.239315 -1.8876158e-18)
(156.60658 -9.8250097 2.060835e-18)
(167.24979 -5.0989047 4.4687828e-18)
(177.50149 3.2257427 3.6621135e-16)
(188.05665 24.197757 -4.036433e-18)
(180.72291 52.763087 5.3059007e-16)
(126.93404 -2.7359641 -5.2570021e-18)
(135.45905 -9.1495784 2.0508544e-17)
(138.92999 -10.26638 -2.5735084e-17)
(147.68239 -14.501038 -5.0117723e-17)
(156.81618 -11.819094 8.2548088e-17)
(167.82222 -7.8762116 -1.282119e-16)
(181.48148 2.0552365 -1.9445659e-16)
(190.62831 24.633984 -3.4980172e-16)
(160.67536 64.686931 0)
(124.27574 -2.861164 7.7954742e-18)
(134.05841 -10.408271 -1.6992709e-17)
(138.23055 -11.608579 2.4894471e-17)
(147.83064 -16.162024 -5.4971763e-19)
(157.62306 -14.242163 -7.9587725e-17)
(170.85761 -9.799689 -5.7146612e-18)
(182.8724 0.16962768 0)
(190.17035 26.447281 3.316518e-16)
(126.17207 85.377727 0)
(121.53492 -2.985758 -1.9644034e-18)
(131.87986 -10.76404 1.6359602e-17)
(135.8913 -12.591866 -2.2154986e-17)
(146.24318 -18.516457 4.8355251e-17)
(157.10456 -16.213722 3.1284015e-18)
(170.88621 -12.933996 1.2457706e-16)
(184.94424 -1.0776559 -2.2042992e-16)
(187.83357 29.257783 -4.0401688e-16)
(104.59472 99.999061 3.9448874e-16)
(118.72339 -3.0779179 -2.462866e-19)
(130.09635 -12.054696 -3.3491034e-19)
(134.93738 -13.880849 2.0736709e-17)
(145.96816 -20.15062 -1.845685e-18)
(157.87567 -18.72665 1.9913048e-18)
(173.31102 -14.884569 1.3928466e-16)
(185.04928 -3.0837662 4.5025823e-16)
(181.27265 29.00543 3.8343693e-16)
(33.673198 50.367122 -3.7360112e-16)
(115.80142 -3.0417458 4.407595e-20)
(127.63751 -12.245992 -4.7309054e-20)
(132.29456 -14.75771 -1.6060024e-17)
(143.95279 -22.617475 -4.3045132e-17)
(156.47065 -21.62011 7.7964432e-17)
(173.10332 -18.408554 -2.7557138e-16)
(185.17645 -5.3953451 -4.6856271e-16)
(166.81657 27.338841 -3.9599587e-16)
(-9.9501342 17.826573 3.9329014e-16)
(113.49057 -2.9018156 8.7979082e-18)
(125.69067 -13.331581 1.6934636e-19)
(131.04101 -16.035088 1.8922892e-18)
(143.08088 -24.13888 4.1747408e-17)
(157.37302 -23.638648 -7.2228577e-17)
(174.33144 -20.854416 1.3882406e-16)
(182.84564 -7.9219996 2.3307749e-16)
(143.35076 27.024659 3.7719429e-16)
(-17.737457 35.271353 -3.7478125e-16)
(-25.409369 36.35117 -6.3117094e-16)
(130.58621 26.433006 -4.2374321e-18)
(179.93607 -9.5868684 4.3251668e-18)
(173.21387 -23.926873 -3.6919815e-18)
(155.73827 -26.281922 0)
(141.19917 -26.121598 4.6331329e-19)
(128.31703 -16.740448 2.5999187e-17)
(122.89287 -13.550943 4.3624169e-18)
(110.73874 -2.7067753 -2.0647885e-17)
(-28.178212 41.82949 6.127553e-16)
(122.38497 22.512139 0)
(178.6315 -13.958817 0)
(173.46394 -27.201662 3.5862148e-16)
(155.03062 -29.242101 0)
(139.18357 -27.835601 -7.9348708e-17)
(126.78259 -17.778491 -3.1999599e-17)
(120.66419 -14.412331 -4.0831943e-18)
(107.7934 -2.4235605 -1.7179926e-17)
(-33.665327 41.955059 5.0645773e-18)
(111.70133 23.185051 -4.0812873e-18)
(175.18412 -14.902571 0)
(171.80476 -29.687956 -3.5071556e-16)
(153.86281 -30.965477 0)
(137.30443 -29.215769 7.8398801e-17)
(123.95542 -18.26252 1.9121156e-17)
(117.78539 -14.418067 -2.2927013e-21)
(104.80563 -2.3302962 2.8617436e-17)
(-36.283173 46.566193 1.1645875e-15)
(103.61845 19.126997 -1.1335488e-15)
(172.976 -19.264766 6.3624472e-18)
(171.21161 -32.699966 0)
(152.0547 -34.090873 -1.6301923e-16)
(134.55151 -30.756072 0)
(122.25151 -18.993932 -2.5573541e-20)
(115.3705 -15.221071 -5.973032e-20)
(102.20174 -2.1174228 7.6291325e-20)
(-40.499097 47.149879 -1.1188081e-15)
(93.08266 20.49534 -2.6257507e-17)
(168.85669 -19.871631 6.9300347e-16)
(169.14021 -35.146868 -3.6554792e-18)
(150.95402 -35.404437 3.7673672e-18)
(132.67965 -31.784471 0)
(119.26576 -19.358069 -4.3836807e-18)
(112.33501 -15.053481 0)
(99.458979 -1.9620343 0)
(-42.898554 51.216967 4.719718e-18)
(85.973105 15.616773 1.0737029e-15)
(166.13993 -24.286347 -1.3414467e-15)
(168.10506 -38.10914 3.3676243e-16)
(148.99475 -38.332628 1.5336065e-16)
(129.54735 -33.103561 5.225456e-17)
(117.55343 -19.858628 4.1680779e-18)
(109.96299 -15.771245 -1.6680672e-19)
(97.167162 -1.493438 4.3868042e-17)
(-44.152301 53.776106 4.6327567e-18)
(75.341096 17.596557 -1.0822437e-15)
(161.71977 -24.682 6.6445639e-16)