/*--------------------------------*- C++ -*----------------------------------*\
  =========                 |
  \\      /  F ield         | OpenFOAM: The Open Source CFD Toolbox
   \\    /   O peration     | Website:  https://openfoam.org
    \\  /    A nd           | Version:  11
     \\/     M anipulation  |
\*---------------------------------------------------------------------------*/
FoamFile
{
    format      ascii;
    class       volScalarField;
    location    "7.3";
    object      p;
}
// * * * * * * * * * * * * * * * * * * * * * * * * * * * * * * * * * * * * * //

dimensions      [0 2 -2 0 0 0 0];

internalField   nonuniform List<scalar> 
4455
(
7303.4824
7310.1425
7325.9968
7353.604
7392.5085
7448.757
7514.3504
7617.3317
7684.8918
7364.326
7365.485
7376.2739
7399.8731
7438.5379
7494.5577
7564.4503
7666.2376
7767.2786
7419.3087
7415.6775
7422.0547
7443.2505
7480.6031
7536.9919
7606.1047
7712.8688
7809.5877
7467.7339
7460.5108
7463.5664
7482.8421
7519.4488
7576.0965
7647.0017
7760.6785
7863.1481
7509.5031
7500.0454
7500.8929
7518.4419
7554.8535
7612.192
7687.0818
7809.5643
7927.132
7544.9352
7534.4855
7533.6873
7550.1431
7586.8705
7645.517
7724.936
7859.865
7992.6268
7574.5444
7563.8214
7562.2386
7578.3603
7615.2953
7674.9873
7759.8928
7910.55
8062.8245
7598.8837
7588.487
7587.0097
7602.7968
7639.393
7701.2881
7792.1288
7959.3757
8139.0805
7618.5574
7609.0909
7607.8786
7623.3705
7660.1753
7724.0159
7822.1044
8006.3761
8224.0504
7634.27
7646.6229
7656.2516
7663.6934
7669.3588
7673.6004
7676.776
7679.2276
7681.2277
7625.9974
7639.7288
7650.8204
7659.6001
7666.3428
7671.2717
7674.6492
7676.5833
7677.0286
7625.5324
7640.2253
7651.967
7661.1493
7668.1664
7673.3393
7677.2678
7680.5152
7684.0465
7641.292
7656.3084
7668.3951
7677.975
7685.2784
7690.578
7693.8663
7694.6472
7692.9193
7678.9672
7694.9294
7707.5414
7717.3899
7724.4997
7729.4352
7732.92
7736.0188
7740.1883
7745.6591
7764.8127
7780.288
7792.2584
7800.2089
7804.3018
7804.5962
7801.7718
7797.6936
7854.3454
7885.7725
7912.9683
7935.2853
7951.2789
7960.479
7964.352
7965.0314
7963.6547
8058.806
8109.1134
8148.3758
8176.1653
8189.8231
8192.6908
8187.3641
8176.7312
8161.5056
8347.839
8497.328
8593.8488
8618.2547
8602.6512
8565.7817
8516.3741
8462.1189
8403.3167
7682.2755
7682.4211
7682.6169
7683.1145
7683.8325
7684.7407
7685.6858
7686.7247
7687.6094
7676.3425
7676.6316
7677.6532
7679.1859
7680.9028
7682.542
7683.9804
7684.9333
7685.2604
7687.4457
7690.8707
7694.4233
7697.5069
7700.1419
7702.4806
7704.5169
7706.4119
7708.0309
7690.2171
7692.4459
7697.7371
7703.7058
7709.3378
7714.8199
7719.491
7722.706
7725.0933
7744.2773
7751.8306
7760.7465
7769.3199
7776.7742
7783.0157
7788.3589
7793.1101
7797.4556
7795.2634
7801.4746
7812.1392
7824.3269
7835.7062
7845.6348
7852.7606
7857.3141
7859.8922
7961.7517
7968.3355
7979.2118
7988.6026
7994.0307
7996.2139
7996.9235
7997.6095
7999.5711
8148.1204
8138.7191
8129.9018
8120.1837
8108.6618
8092.5418
8071.6253
8051.2107
8033.2307
8346.1504
8289.4082
8228.104
8170.1547
8119.6487
8076.0309
8031.0661
7994.5806
7973.4319
7967.1045
7965.9929
7984.5534
8030.4173
8098.6346
8179.2235
8267.2466
8366.1544
8468.9342
8020.3157
8013.2941
8009.9953
8010.8799
8019.1108
8036.05
8060.7897
8092.9117
8130.1778
8002.3279
8005.8486
8011.7649
8019.7601
8028.0401
8037.0097
8047.9525
8061.6721
8078.113
7861.4458
7863.8587
7866.645
7869.666
7872.7018
7875.5029
7877.7506
7880.2149
7881.9948
7801.3916
7805.1639
7808.5388
7810.9809
7812.2004
7812.3415
7811.9164
7811.0699
7810.3887
7726.6594
7727.0815
7727.5258
7728.4363
7728.8239
7727.4478
7725.0716
7721.5107
7716.1595
7709.4047
7710.1199
7709.3578
7707.7165
7705.7623
7701.5192
7697.7716
7692.9813
7686.0318
7684.8678
7683.9866
7682.7003
7680.9537
7677.9466
7674.2143
7669.2398
7662.6779
7653.591
7688.1659
7687.7048
7686.6697
7684.6455
7682.0615
7679.3709
7676.24
7672.3627
7667.2072
7659.7993
7650.1616
7638.1896
7623.9602
7607.371
7588.2497
7565.9539
7540.1438
7510.5507
7643.0987
7632.366
7617.6837
7600.8179
7582.265
7560.5233
7535.695
7507.6981
7476.6991
7679.886
7671.2282
7659.1809
7645.3444
7631.6261
7614.2838
7592.9532
7571.1237
7545.5044
7709.4553
7702.1438
7693.1623
7682.4346
7669.939
7655.1316
7637.197
7616.432
7594.2131
7808.7693
7807.3555
7805.5088
7801.4737
7798.064
7792.1879
7786.021
7778.3677
7767.7482
7885.0342
7888.9412
7893.1135
7898.9524
7903.8388
7908.5216
7913.8528
7917.1513
7918.9099
8097.5664
8120.6044
8146.6954
8174.6037
8203.9956
8233.8323
8264.0406
8293.675
8323.1075
8172.981
8219.6596
8272.2889
8329.5036
8388.257
8448.5733
8512.2767
8579.213
8648.3531
8574.6557
8685.834
8799.4387
8913.8993
9028.9413
9140.2266
9252.7229
9371.9779
9494.9546
9614.9162
8716.1272
8350.8757
7918.3064
7756.1947
7567.644
7515.7016
7440.9214
7475.9539
9733.1576
8781.8151
8376.6942
7915.602
7739.606
7535.93
7481.9306
7401.7738
7436.8147
9846.9292
8843.8277
8400.0859
7909.4745
7720.4718
7501.353
7444.7819
7356.8197
7391.9526
9955.5923
8902.3716
8418.9894
7898.4787
7698.3771
7461.2572
7402.107
7306.6828
7341.5608
10061.294
8954.482
8433.5299
7881.7656
7669.0114
7414.6665
7354.4485
7250.871
7284.2617
10161.91
8998.4972
8444.004
7857.5793
7636.0945
7362.7819
7299.6183
7189.3396
7220.6262
10256.065
9033.0106
8447.2035
7825.9025
7596.1664
7302.8642
7240.1781
7121.2649
7149.6757
10348.676
9056.3013
8440.667
7785.5494
7548.9861
7237.6151
7172.281
7045.5559
7071.7609
10427.224
9065.9298
8420.4639
7732.9689
7493.4606
7163.9778
7096.8562
6963.2373
6986.8858
6898.0153
6873.5115
7010.3515
7080.9521
7422.5532
7668.261
8380.6296
9057.5436
10494.304
6807.0839
6775.7999
6912.5022
6989.5773
7332.0121
7583.5694
8301.2511
8985.1395
10397.991
6701.1101
6667.5969
6802.4531
6882.8312
7223.0965
7473.5632
8185.2219
8851.8056
10196.099
6569.3939
6549.2365
6679.9003
6767.3748
7096.3423
7344.5143
8042.546
8691.7727
9980.1778
6419.4646
6417.9623
6546.1043
6636.313
6957.3683
7200.2664
7880.8124
8516.0025
9755.6984
6256.4824
6275.5061
6400.8067
6494.9784
6804.9372
7043.8884
7704.6619
8327.1852
9527.1553
6085.6152
6121.4625
6244.2207
6341.2068
6639.7409
6876.0475
7515.2677
8122.0666
9289.148
5903.5309
5956.9954
6076.9955
6176.7711
6466.8198
6697.0866
7313.3986
7901.25
9044.8389
5709.8834
5781.4538
5900.5616
6002.4004
6281.8762
6504.2076
7098.8809
7664.1685
8793.755
8536.0905
7413.1771
6872.8275
6299.0954
6087.1796
5815.638
5711.8112
5596.2873
5502.5795
8271.3058
7147.9041
6633.7777
6082.3859
5884.2102
5622.8179
5512.2081
5400.119
5282.0767
7997.4559
6870.5557
6382.8366
5854.9803
5668.945
5417.5887
5303.8365
5195.755
5049.5465
7714.7632
6579.0582
6120.6885
5617.7739
5445.996
5201.855
5082.9515
4980.7949
4805.7275
7423.535
6274.0242
5848.6645
5374.9042
5213.5231
4980.9959
4854.0072
4757.6466
4553.4054
7116.2856
5955.4363
5568.9793
5124.6266
4974.3698
4749.4325
4617.8881
4526.7418
4291.8828
6793.1923
5622.5938
5284.1619
4869.0927
4729.4477
4511.4245
4375.9305
4287.4724
4023.8465
6449.3481
5279.309
4995.7989
4611.6583
4477.8081
4269.0211
4127.2678
4041.49
3749.6737
6084.8238
4925.929
4707.2284
4354.4641
4222.7579
4023.2817
3876.075
3789.9151
3476.9179
3217.4569
3530.8835
3617.5027
3765.9818
3960.1864
4086.6471
4409.8388
4542.0981
5654.814
2961.5546
3266.0445
3355.1723
3503.0291
3685.8116
3807.8457
4106.6125
4126.0628
5121.0639
2683.3444
2997.0563
3090.3445
3235.1117
3408.7885
3530.0354
3817.0508
3722.2032
4513.9248
2403.6633
2729.6531
2826.0676
2968.0251
3129.6037
3253.4386
3548.5601
3362.2855
3831.2582
2135.4929
2465.3686
2563.9204
2701.3694
2854.2282
2976.8697
3306.7659
3070.437
3050.3378
1883.6867
2208.4441
2303.1355
2432.9064
2580.4926
2694.0653
3080.8908
2870.0625
2161.8999
1647.2113
1959.6742
2052.2087
2175.5664
2307.7057
2410.737
2866.0658
2785.0889
1240.3133
1432.0328
1721.7172
1811.5939
1929.9407
2044.2371
2118.2143
2643.7048
2838.3028
363.35878
1208.3464
1497.7393
1584.4683
1698.3801
1792.7115
1819.5963
2406.7967
3072.9684
-240.14984
1006.8755
1292.7267
1368.0781
1471.9307
1539.9889
1495.045
2023.8634
3336.918
-656.15161
851.77271
1107.8071
1159.925
1247.945
1296.5524
1187.0006
1569.7691
3594.5604
-1371.9583
735.54408
941.00634
965.93567
1026.5986
1063.37
924.95787
1110.2976
3693.3899
-2099.8016
647.23696
790.10918
785.80181
809.47873
823.92892
681.09836
731.78892
3565.6916
-1329.2224
567.05422
652.82734
622.73836
587.71409
561.16557
431.53001
572.90503
3199.6259
-592.20845
495.8082
526.90392
465.62031
359.28542
276.87413
155.6945
426.32169
2707.4578
-1215.0947
444.11861
408.73662
324.72198
133.69588
-18.452562
-160.03914
266.80244
2358.0902
-1521.4336
419.15227
298.15488
202.14796
-76.449576
-311.81258
-514.14648
165.76328
2128.9664
-1854.078
413.4182
209.20114
88.199246
-277.19077
-597.9073
-905.57526
161.22397
1699.6423
-2057.1174
-2188.5386
1466.5257
268.90616
-1277.8468
-852.5311
-447.07384
-9.6456174
148.87153
428.53105
-2238.9854
1331.2712
282.01785
-1629.999
-1079.5003
-592.68469
-91.585248
113.13488
456.52773
-2311.6271
1151.9695
195.9555
-1985.9608
-1298.0524
-726.26975
-159.70808
96.756914
501.01631
-2396.9928
938.1588
37.544798
-2332.6065
-1504.6834
-849.08384
-211.9777
99.197823
552.977
-2498.543
673.47595
-169.75268
-2666.2023
-1698.2245
-957.61649
-248.15466
121.4345
615.29626
-2616.0097
392.87206
-410.35439
-2971.2423
-1879.9459
-1049.1214
-269.06014
162.27461
685.40584
-2717.2252
115.9441
-683.53707
-3261.096
-2050.9776
-1126.1958
-276.84121
219.46994
764.65833
-2839.426
-181.54824
-959.86626
-3514.5795
-2211.7885
-1189.3243
-270.67061
291.66384
848.24605
-2954.0336
-479.01598
-1260.9483
-3774.0458
-2358.6866
-1236.3769
-250.16259
378.44395
949.25713
-3046.5454
-755.02683
-1652.1637
-4078.3054
-2539.2224
-1259.296
-179.38347
546.3335
1105.4716
-3037.7392
-1012.4612
-2405.2414
-4677.6617
-2701.6186
-1188.3201
-7.6820835
800.79971
1234.6085
-3107.8729
-1232.387
-2984.1045
-5199.4155
-2717.5034
-1029.0591
230.15341
1050.6804
1312.5211
-3175.5661
-1425.3604
-3615.653
-5603.6467
-2601.7488
-745.02619
501.67074
1307.2394
1329.2125
-3163.296
-1608.2844
-4151.6791
-5851.3482
-2355.7362
-434.87199
781.74189
1492.1186
1303.3197
-3174.1243
-1787.9406
-4642.7232
-5977.6928
-1999.4413
-99.076335
1044.4455
1573.2451
1195.8078
-3300.5363
-1948.2834
-5042.1845
-6010.3401
-1566.7523
215.73874
1248.5557
1574.6745
1044.5908
-3475.1786
-2088.5315
-5417.0303
-5965.8637
-1058.0387
489.77512
1392.7721
1472.9441
845.63603
-3649.8488
-2183.9565
-5525.2325
-5896.7341
-500.57668
664.96898
1465.8958
1283.5
619.56113
-8646.76
-7346.95
-4971.4294
-4952.3723
-2576.14
-1259.8535
-43.312307
489.38041
240.14738
-8379.6995
-7139.9774
-4975.994
-5593.0614
-2844.5617
-1396.0741
-19.501513
679.58826
428.83534
-8110.4628
-6929.8204
-4972.6336
-6176.9787
-3052.182
-1493.3427
54.288038
822.27185
578.69635
-7838.9111
-6711.0335
-4959.646
-6677.3009
-3195.5608
-1546.8111
177.9244
894.55761
698.23608
-7564.3248
-6487.4983
-4939.6003
-7094.3037
-3280.8634
-1554.0347
357.01929
899.4081
806.18972
-7292.7385
-6254.7953
-4911.3692
-7428.1467
-3305.0849
-1517.4229
581.48436
868.36035
927.09921
-7021.6763
-6024.9873
-4870.2566
-7679.4433
-3266.9167
-1433.1986
827.05799
838.33416
1060.1113
-6752.0939
-5779.7351
-4812.4356
-7853.683
-3174.9762
-1291.0954
1067.9951
844.48554
1177.0475
-6485.2184
-5506.6981
-4728.287
-7954.2938
-3039.9546
-1080.1808
1274.0568
913.17222
1249.5309
-12862.789
-9281.8126
344.52471
3286.0905
4312.1752
4982.0139
4730.9951
2925.4968
1321.7372
-13137.701
-9631.9513
-659.65793
3083.5402
4389.661
5004.9692
5014.6324
3716.2414
1914.0311
-13020.153
-10000.365
-1661.5554
2588.4061
4254.9066
5049.2884
5276.1267
4412.5591
2591.8515
-13062.977
-10419.302
-2613.6354
2001.0848
3976.8282
4919.6193
5358.9506
4958.4194
3321.0446
-13223.863
-10915.887
-3515.9168
1314.6283
3618.9981
4763.7289
5308.9649
5326.1945
3943.5106
-13817.08
-11520.229
-4363.2843
521.95697
3206.4696
4509.0209
5081.6507
5462.1027
4509.8887
-14818.576
-12271.981
-5145.9609
-347.07644
2644.5391
4137.4418
4790.6601
5409.7823
4848.3071
-15970.978
-13137.109
-5787.7894
-1140.6926
2034.1675
3683.2082
4352.3378
5162.8801
4985.3878
-16615.264
-14053.729
-6312.6001
-1817.5583
1455.686
3226.9783
3950.459
4838.0956
4950.7756
3649.0926
2884.7502
2249.0068
1417.0389
-270.19355
-2932.9151
-6499.3918
-15377.16
-16883.121
3838.217
3096.8823
2405.3853
1586.2299
-160.24084
-2917.9754
-6667.1678
-15518.956
-17002.463
4016.6121
3312.0523
2570.3645
1772.0137
-14.746662
-2854.2592
-6750.0742
-15585.862
-17037.666
4182.5775
3529.2892
2741.5963
1963.5935
148.88185
-2767.0392
-6797.6402
-15601.865
-17042.454
4340.8066
3743.4635
2917.5002
2156.6238
319.20358
-2674.1462
-6827.9153
-15593.927
-16998.977
4485.9404
3953.3181
3095.3938
2344.7569
495.37236
-2584.2543
-6840.1563
-15516.745
-16945.26
4616.3691
4155.7482
3272.8072
2531.893
676.43592
-2482.7582
-6832.2439
-15371.073
-16829.86
4729.8414
4352.4601
3450.8701
2715.5061
863.41323
-2362.4604
-6805.8919
-15160.851
-16783.034
4825.1877
4538.7595
3630.8369
2900.158
1060.4671
-2208.9517
-6752.7498
-14921.866
-16729.596
-16868.807
-15142.592
-6133.5215
-2876.7663
-352.46608
1259.4252
2093.1431
2674.8625
3446.5754
-16434.657
-14447.043
-5594.8453
-2742.9791
-410.92738
1103.8481
1939.4362
2468.7239
3242.696
-15194.978
-13119.204
-5082.7746
-2581.8668
-455.57265
964.18045
1792.5852
2271.1741
3040.436
-13731.099
-11504.911
-4657.8854
-2403.3477
-479.15396
834.29077
1652.9923
2083.5417
2834.5168
-14475.95
-9847.7356
-4248.7143
-2209.5604
-484.11584
724.60398
1522.6741
1907.8154
2630.6076
-18431.682
-8349.2074
-3774.0673
-1991.8052
-459.95693
638.08734
1403.9286
1745.6292
2425.2285
-19265.557
-6901.3254
-3236.0879
-1759.3082
-416.99704
577.69988
1297.5686
1595.9978
2224.9536
-16875.658
-5351.5432
-2731.5628
-1571.273
-383.06149
513.46085
1184.461
1456.227
2036.7667
-14730.392
-4455.1746
-2519.2604
-1489.9144
-420.52124
412.22191
1048.9857
1319.5051
1872.2389
882.96982
736.33554
462.44973
43.026414
-527.5491
-1233.9685
-2018.5392
-2337.6062
-575.37285
893.73682
709.81538
415.97979
-39.315088
-666.61358
-1469.3871
-2445.5456
-3171.1298
-1530.7141
933.61391
708.87308
400.51875
-86.120862
-761.37072
-1646.4081
-2802.8819
-4007.9422
-2630.1672
1000.8157
731.67724
417.65956
-97.418164
-810.16834
-1755.0887
-3068.9634
-4790.869
-3906.2389
1096.7547
780.35518
462.90517
-77.068176
-818.81083
-1798.1908
-3226.7474
-5459.2657
-5449.0079
1216.2986
852.28205
537.88782
-26.928174
-788.09244
-1780.7066
-3248.6534
-5907.4159
-7330.3424
1358.4551
946.13139
636.04752
50.048604
-725.74116
-1718.5461
-3129.0223
-6059.3345
-9561.4419
1519.9444
1058.2993
758.01813
152.59943
-636.74198
-1626.5398
-2897.6189
-5859.2076
-11677.996
1696.5174
1184.2969
895.9442
275.03302
-531.76231
-1536.8116
-2660.7031
-5212.0841
-13257.592
176.8238
-1584.1731
-1558.8179
-957.51884
-351.62813
157.79977
538.68271
786.8927
900.45361
807.33976
-911.39137
-1102.7381
-661.90005
-154.10439
296.43941
638.98315
859.44233
947.20503
1393.5609
-273.8246
-634.50797
-342.87753
67.97092
456.50371
760.79082
955.25151
1024.0272
1943.8204
327.39694
-168.90819
-9.0993214
308.85688
635.82467
902.81556
1071.5643
1124.1761
2454.3773
895.33437
292.43979
334.66507
565.26494
832.05472
1061.9258
1206.7027
1244.6707
2925.0201
1427.3744
741.16871
681.49964
830.83654
1038.8447
1234.7712
1355.7208
1384.504
3353.8202
1928.1832
1179.0124
1027.7207
1103.884
1256.2168
1418.5656
1516.5391
1540.151
3757.7333
2395.2049
1594.8323
1367.7995
1377.4929
1478.8818
1612.2759
1688.7734
1709.3025
4142.7899
2833.9033
1994.3912
1699.6161
1651.1499
1704.67
1809.2377
1867.1839
1888.7774
3567.5763
3478.7291
3528.2036
3543.9133
3720.6199
4022.9515
4610.6763
5606.5075
7089.1433
3413.5918
3316.2039
3361.6701
3375.032
3545.5796
3846.0388
4433.7983
5434.744
6814.5604
3237.1676
3148.5757
3183.2544
3193.2579
3352.3392
3638.1521
4207.7619
5191.9648
6486.1817
3046.953
2974.7008
3000.6101
3003.2753
3145.0071
3411.433
3951.6242
4914.1693
6168.221
2851.8958
2794.8325
2811.4363
2801.9232
2921.7266
3163.6832
3672.2568
4619.0014
5857.7064
2656.7617
2610.1917
2614.1713
2591.1516
2684.5187
2897.6342
3376.9054
4307.9774
5540.7231
2461.595
2424.4548
2415.1543
2375.2266
2436.9673
2618.3624
3061.8009
3976.9757
5212.9766
2267.1613
2237.2729
2214.307
2155.1755
2183.7729
2326.2312
2727.93
3622.6106
4870.6429
2075.4865
2050.1446
2010.7803
1929.9135
1919.9427
2018.6754
2372.4989
3242.0548
4513.7047
3725.5887
3885.7909
4041.3769
4191.6839
4335.9367
4473.5745
4605.1812
4730.0776
4849.494
3635.1614
3786.4734
3932.062
4073.1129
4207.8043
4335.7392
4460.3871
4578.6362
4691.6315
3685.8255
3838.4452
3981.4425
4117.9713
4248.7108
4372.902
4491.3763
4604.7792
4712.7056
3701.8653
3852.3606
3992.3006
4124.7507
4250.7461
4369.3887
4482.0342
4588.7316
4690.2535
3877.4477
4020.031
4152.6111
4274.494
4387.3345
4494.0509
4593.8317
4686.597
4775.5819
4171.2205
4301.6233
4416.6346
4521.4639
4616.8793
4702.792
4782.6152
4856.8399
4925.9908
4740.5574
4843.8545
4928.0742
4999.4728
5059.2323
5109.9119
5154.0072
5191.7744
5225.9186
5691.7106
5737.7447
5759.3322
5764.7455
5759.5339
5745.9245
5726.0674
5702.5119
5676.8773
7127.6875
7111.6874
7053.2056
6976.2898
6882.7414
6785.5914
6685.993
6587.2986
6490.0167
4962.5691
4800.6666
4815.9886
4787.3852
4859.5952
4991.5266
5257.8404
5651.0054
6395.6548
5070.0135
4904.4971
4914.732
4880.5106
4939.7233
5054.0208
5286.1042
5626.4738
6302.7882
5171.8802
5004.126
5009.3193
4970.2513
5017.0094
5114.3926
5314.7779
5603.2985
6214.2238
5268.4239
5099.535
5099.7693
5056.6749
5091.7439
5173.2766
5343.0576
5583.4809
6128.012
5359.1451
5190.4664
5186.2874
5140.1884
5164.681
5231.6045
5372.1299
5565.8045
6043.7779
5445.2715
5277.5676
5268.9733
5220.8273
5235.9561
5289.4102
5401.4961
5552.7544
5963.5324
5526.295
5360.7003
5348.3394
5298.883
5305.9908
5347.3146
5433.4083
5544.1934
5885.0442
5602.4822
5440.0139
5424.2028
5374.2925
5374.6889
5405.0878
5467.3685
5540.2276
5808.1827
5673.9695
5515.5002
5496.6603
5447.1229
5441.9757
5463.0289
5503.8617
5542.5462
5736.0757
6129.0258
6033.9671
6003.6339
5983.8479
5973.3937
5983.6478
5975.2185
5872.0757
5541.2354
6089.5146
5989.7044
5958.9455
5935.0859
5921.5843
5927.4587
5914.74
5805.45
5476.2926
6049.2335
5942.3263
5911.4844
5883.3047
5867.3628
5869.7102
5854.4822
5744.3506
5430.4812
6007.4715
5891.1823
5861.3753
5828.8071
5811.2578
5811.55
5795.4052
5691.4309
5416.4888
5963.2027
5836.9335
5808.6916
5771.7994
5753.4859
5753.4069
5738.7113
5646.7479
5435.3831
5914.7043
5779.7174
5752.8301
5712.2714
5694.3166
5695.3671
5685.1649
5610.4169
5477.193
5861.3632
5719.3181
5693.7867
5649.9813
5633.6344
5637.2225
5634.8959
5582.5708
5534.801
5803.2999
5655.2861
5631.522
5584.9637
5571.4706
5579.0901
5587.8306
5561.883
5597.8013
5740.9819
5587.3998
5565.7853
5517.312
5507.5838
5521.1033
5544.4665
5549.2355
5664.4985
5611.4962
5944.3408
6037.8833
6039.6683
6023.8337
6030.4572
6046.189
6074.953
6162.6792
5708.118
6026.3308
6102.246
6095.3683
6072.4418
6074.9199
6085.9401
6111.9933
6188.9715
5812.4835
6111.6161
6164.5349
6148.5067
6117.7144
6116.2869
6122.1514
6145.9928
6211.4903
5919.6304
6197.9341
6223.4867
6198.3597
6159.5422
6154.6681
6154.8392
6176.7491
6231.1381
6029.3518
6284.5372
6278.6992
6245.0016
6198.0415
6190.142
6185.3054
6204.6681
6247.7808
6142.2341
6370.0178
6330.3792
6288.3685
6233.6106
6222.9871
6213.8575
6230.2322
6261.3667
6257.345
6456.162
6379.0385
6329.0914
6266.9477
6253.3607
6239.3382
6252.3416
6272.5027
6369.9417
6542.2828
6426.3981
6368.3719
6299.4812
6281.8474
6262.4251
6271.2174
6279.801
6481.61
6624.6588
6476.6607
6408.5824
6333.6432
6309.5556
6284.8405
6285.6632
6283.5402
6612.2852
6710.4484
6542.3017
6460.1134
6379.4889
6344.3664
6313.8099
6299.0362
6286.1987
6770.5985
6801.7549
6621.4792
6522.2768
6437.471
6392.2003
6355.2304
6323.902
6298.4353
6935.3102
6891.2808
6700.4666
6585.2929
6495.9806
6442.5063
6398.429
6354.7044
6317.8373
7100.1929
6979.7444
6779.0861
6650.334
6556.0695
6495.5118
6444.5114
6391.3404
6344.0784
7260.7056
7066.6545
6855.4009
6716.1162
6617.1407
6550.9584
6493.6631
6433.4117
6377.0539
7412.5565
7150.6925
6928.7149
6781.9069
6679.1799
6608.5387
6546.2142
6480.3935
6416.607
7552.7936
7229.4831
6997.7936
6847.1878
6742.0809
6668.2016
6601.9387
6531.9809
6462.8161
7668.9589
7301.0963
7063.7415
6912.1627
6805.8542
6729.8288
6660.6149
6588.0071
6515.3462
7737.9188
7362.0656
7126.6981
6975.9248
6869.9861
6792.8096
6721.9641
6648.0718
6573.9798
7236.9222
7250.3602
7273.6395
7307.1077
7349.5144
7409.6521
7480.9417
7591.2912
7660.0689
7165.4646
7186.7197
7218.2528
7258.4772
7307.6489
7373.4262
7459.1129
7580.3761
7701.5276
7090.38
7120.1269
7160.1461
7207.2162
7261.454
7333.5168
7429.1192
7564.2351
7707.8511
7012.6146
7051.7518
7099.7613
7152.7183
7211.7704
7290.4598
7394.5272
7544.6819
7713.678
6934.0239
6982.3329
7037.6687
7095.8252
7159.2965
7243.4987
7357.3295
7522.4657
7727.2741
6855.931
6912.8867
6974.4813
7036.7486
7104.333
7194.0516
7317.4536
7498.2567
7737.5149
6779.839
6843.955
6910.5824
6976.14
7047.3853
7142.415
7274.9997
7471.1233
7746.1358
6706.8454
6776.3229
6846.8957
6915.307
6989.5543
7088.8782
7228.7384
7439.6288
7749.9949
6637.9849
6710.9433
6784.2057
6854.6909
6931.0437
7034.2158
7180.3224
7404.3855
7747.8721
7934.0014
7982.1773
8032.7368
8091.786
8156.5096
8223.0833
8282.1199
8320.6867
8327.3311
8007.0695
8051.5971
8103.9029
8165.1092
8231.4805
8297.0462
8353.2656
8388.492
8389.7223
8079.8484
8128.8174
8185.5065
8249.5115
8316.4401
8380.7843
8433.3934
8465.7092
8462.349
8169.2854
8222.8847
8282.7571
8347.8321
8413.7782
8476.3062
8525.1937
8554.2717
8546.0105
8276.8343
8333.8879
8395.9054
8462.0069
8526.8063
8587.4303
8633.6595
8656.9221
8639.878
8400.2774
8461.1979
8526.1931
8593.3464
8658.2509
8717.8084
8761.6688
8778.9896
8750.214
8547.4444
8611.3876
8679.0392
8748.3978
8813.4501
8872.6545
8917.6891
8926.5698
8868.5189
8725.7835
8791.4908
8861.4098
8934.4573
9005.8836
9065.4949
9115.7423
9117.3317
9095.499
8936.8693
9001.6551
9076.4195
9158.9634
9245.2502
9312.1416
9354.3584
9305.9664
9207.5469
11314.342
10604.791
10317.468
9988.2209
9752.4228
9565.8136
9424.9338
9316.4955
9235.1196
9924.1559
9999.5046
9992.9795
9938.7677
9862.069
9758.4207
9653.184
9538.9897
9445.0699
9429.1246
9488.9317
9511.2618
9523.5041
9521.9374
9504.1452
9471.4134
9421.1011
9358.9013
9215.7958
9234.455
9235.2828
9239.6491
9240.3878
9236.0617
9229.2513
9214.3684
9185.8957
9050.7738
9064.1459
9060.5044
9060.023
9056.2405
9049.181
9044.1419
9040.3878
9024.8621
8907.2213
8915.7594
8912.3652
8912.4826
8908.4869
8901.6362
8894.8082
8890.1658
8878.8033
8785.0211
8788.1216
8784.3162
8784.1409
8779.9789
8776.1501
8769.8582
8765.7814
8757.3761
8672.8842
8671.7179
8666.3431
8664.5197
8658.8586
8655.1036
8648.318
8643.2793
8635.8621
8562.6242
8556.555
8549.7456
8544.1881
8537.2086
8531.32
8524.1047
8517.8587
8509.2145
8389.9845
8284.5849
8175.4402
8047.0838
7880.2425
7678.7082
7462.4421
7246.8193
7036.3113
8399.1478
8293.5481
8181.0169
8050.4963
7879.9184
7670.547
7440.7721
7213.4146
6963.5365
8404.9033
8297.8007
8179.9451
8043.8545
7869.181
7649.6742
7412.3166
7154.9626
6868.0909
8412.2407
8303.2938
8183.985
8043.693
7865.9953
7639.7067
7387.3892
7092.8574
6767.1138
8418.7276
8308.954
8187.2479
8043.802
7863.6785
7629.7956
7361.1234
7035.371
6661.6243
8426.6776
8315.1405
8194.2
8046.6943
7869.4161
7625.5708
7342.2831
6986.6664
6554.6456
8432.2241
8321.7384
8197.6556
8051.6882
7870.5854
7630.3251
7329.5993
6951.4494
6460.5673
8440.4806
8328.6966
8205.6106
8057.2875
7878.1313
7631.5803
7326.9839
6929.6567
6426.3173
8449.0674
8338.3375
8215.4504
8069.8275
7891.994
7654.5839
7341.4601
6949.6797
6323.3924
7038.01
7244.4933
7549.3898
7800.6388
7936.0353
8089.8298
8285.941
8420.0258
8567.7924
6946.2362
7162.3464
7511.4264
7784.4046
7926.3939
8098.3754
8290.1434
8425.7415
8568.0378
6825.7762
7082.6365
7479.6059
7760.638
7916.1792
8112.4268
8295.2225
8429.5955
8570.2875
6680.6494
6997.887
7471.1706
7757.7745
7924.5074
8120.2517
8300.469
8435.0399
8574.3527
6504.8636
6891.9389
7408.9995
7712.1278
7922.1885
8124.787
8305.063
8437.3864
8567.4411
6256.7158
6866.263
7454.479
7737.8644
7937.5436
8142.5913
8328.3104
8455.6515
8577.1162
5889.9012
6688.5474
7378.7231
7693.5055
7910.9357
8126.9559
8330.3815
8449.3931
8565.2661
5559.5596
6759.6462
7443.5464
7715.3849
7939.5169
8176.2956
8369.0497
8472.6825
8574.6942
4555.6738
6597.5778
7410.5626
7679.3034
7909.0901
8175.8903
8380.4689
8475.7563
8575.4163
8724.5842
8872.4444
9034.8324
9177.27
9270.193
9373.1326
9515.5213
9695.8883
9864.1522
8723.3287
8873.5579
9040.9491
9185.9345
9276.8389
9375.5455
9517.1473
9702.9505
9879.2388
8721.736
8875.4391
9050.3538
9197.4512
9284.6715
9376.7545
9519.8666
9710.9479
9895.2722
8719.6825
8882.1412
9062.7163
9210.8542
9294.6002
9378.1776
9524.2905
9721.7618
9911.1366
8708.9176
8880.6174
9071.4503
9221.7092
9298.193
9372.6854
9518.879
9725.3899
9923.5265
8712.048
8886.6545
9088.0147
9240.3325
9308.9331
9377.479
9521.7779
9731.5583
9936.2555
8700.5697
8886.0085
9094.4947
9246.0497
9304.1954
9370.2813
9517.9952
9734.3717
9944.8878
8700.0282
8889.09
9111.3775
9266.8999
9314.9114
9370.1318
9516.3662
9735.1479
9952.1302
8701.907
8891.7274
9108.6132
9263.6574
9317.244
9374.9514
9520.4214
9736.8926
9950.2074
10024.678
10169.357
10315.809
10440.365
10553.437
10655.859
10750.616
10892.607
10798.158
10043.269
10191.982
10340.883
10468.11
10582.953
10685.801
10781.259
10925.325
10794.18
10062.875
10215.719
10366.591
10495.982
10612.132
10714.093
10812.665
10950.121
10766.696
10082.717
10238.977
10392.465
10523.798
10642.386
10734.588
10838.851
10971.927
10723.88
10099.266
10259.483
10412.958
10548.535
10668.07
10746.397
10857.918
10988.156
10704.775
10118.412
10280.394
10436.947
10577.692
10693.993
10762.54
10878.78
11010.949
10611.538
10126.596
10289.313
10449.715
10590.974
10700.236
10757.609
10882.126
11030.504
10648.402
10140.5
10304.517
10464.84
10608.395
10717.979
10763.217
10882.355
11022.498
10585.11
10135.972
10299.319
10460.809
10605.523
10715.26
10766.985
10882.192
11026.614
10701.958
11534.883
11466.81
11262.212
10970.007
10639.471
10312.912
9996.7727
9692.4269
9392.1945
11581.564
11531.126
11339.083
11044.234
10706.11
10371.672
10048.888
9739.527
9437.4805
11613.795
11586.334
11412.539
11112.26
10771.165
10428.995
10101.047
9786.5691
9483.9389
11627.152
11635.581
11485.654
11178.66
10837.303
10486.798
10153.964
9829.7307
9526.0571
11620.308
11676.956
11555.756
11241.45
10902.4
10547.898
10211.43
9884.5234
9575.065
11597.134
11713.779
11621.484
11298.232
10959.886
10592.997
10253.056
9915.0458
9608.9279
11551.951
11738.03
11678.961
11358.204
11026.606
10660.474
10317.94
9978.5198
9667.4249
11540.668
11753.383
11721.669
11394.011
11061.603
10686.01
10342.883
9995.2979
9685.4043
11458.968
11750.176
11762.441
11460.028
11136.281
10762.854
10417.205
10067.54
9754.7233
9097.2722
8808.2642
8522.2965
8234.5327
7940.9594
7638.323
7326.9836
7006.1171
6679.9364
9138.8399
8846.9482
8556.6602
8268.3015
7972.7319
7670.6873
7358.7953
7037.6344
6710.0315
9183.121
8889.5879
8597.1571
8308.5342
8013.1259
7712.1974
7401.9901
7082.9712
6757.4784
9219.9956
8928.3159
8630.3174
8345.0708
8044.9505
7749.2341
7434.8558
7121.3782
6792.2074
9268.9077
8972.6912
8675.7986
8386.7486
8089.2531
7791.145
7479.9571
7165.1221
6839.3657
9294.6061
9002.8313
8698.3782
8414.4285
8111.2286
7819.8304
7503.6304
7195.9296
6864.9772
9353.7336
9059.774
8756.2198
8469.7955
8167.6543
7875.5791
7560.5026
7253.9322
6922.2639
9365.6475
9073.3064
8765.0567
8481.1202
8176.2319
7887.0524
7570.6047
7266.7264
6934.8123
9433.9684
9140.2624
8831.8118
8546.9321
8242.4571
7954.0105
7638.5425
7338.2199
7002.8417
6308.0044
5890.3341
5477.8709
5055.1699
4629.2207
4198.3561
3590.5295
2786.5132
1473.6159
6341.943
5933.6724
5540.1937
5134.6599
4713.0921
4319.4455
3746.1853
3005.1122
1724.9034
6393.3938
5992.4495
5597.9572
5200.7169
4757.0847
4340.7447
3776.4889
3095.4016
1966.9066
6438.9041
6045.3092
5653.979
5267.7913
4820.9813
4402.6993
3872.6378
3241.1109
2254.837
6487.1582
6102.6935
5716.8291
5339.5504
4903.4965
4474.4813
3997.0026
3417.2571
2668.6789
6525.9719
6152.0016
5769.8071
5401.4066
4975.5825
4531.3668
4080.007
3595.7841
3207.0247
6585.2553
6221.516
5855.0402
5489.3902
5086.5902
4626.8494
4207.6249
3638.3495
4178.0412
6607.2751
6253.7328
5884.1292
5533.8281
5134.9909
4680.1571
4174.2089
3802.3741
3668.5923
6683.4881
6345.5807
6000.5037
5658.7975
5303.9901
4876.958
4456.9723
3311.4625
7053.7468
15.087208
-1861.9102
-2656.1421
-2312.9066
-2612.38
-2599.774
-1982.03
-1572.2099
-1409.0471
53.699028
-2038.0718
-2657.8777
-2217.3483
-2435.1525
-2423.1852
-1934.8952
-1573.5925
-1386.2425
-28.856096
-2302.2189
-2600.871
-2277.6512
-2589.802
-2358.506
-1889.2923
-1562.9596
-1380.1007
-288.86397
-2632.7702
-2539.2065
-2287.0656
-2429.4922
-2264.8556
-1846.4731
-1536.3132
-1370.3021
-713.16867
-2930.9976
-2360.481
-2300.7264
-2485.5756
-2198.6649
-1803.6105
-1509.2282
-1353.8964
-820.69477
-2844.3874
-2290.4359
-2359.5258
-2357.5402
-2109.3359
-1764.0024
-1482.2766
-1337.299
-291.7257
-2431.5237
-2312.9656
-2339.2282
-2351.5364
-2040.5626
-1724.2351
-1455.0003
-1322.4256
-1028.9239
-3792.7768
-2252.9437
-2394.3887
-2294.7141
-1984.8384
-1696.7966
-1432.1807
-1309.5141
-9549.6498
-1615.0018
-2292.5183
-2344.7025
-2220.3505
-1902.0173
-1650.4162
-1405.7062
-1300.4097
-1428.0427
-1533.776
-1711.4064
-1991.0913
-2286.1655
-2531.1392
-2627.0528
-2732.7043
-2643.1119
-1384.7502
-1495.8376
-1677.721
-1960.1801
-2259.6252
-2494.2168
-2602.9597
-2691.1934
-2620.8306
-1378.0255
-1486.926
-1680.7735
-1975.8098
-2279.381
-2501.8088
-2609.7727
-2668.7184
-2554.0257
-1365.7826
-1480.935
-1683.5883
-1984.7047
-2291.5703
-2494.7677
-2587.3489
-2620.7535
-2431.4085
-1349.8224
-1466.9195
-1678.0719
-1988.3744
-2296.0201
-2491.5423
-2577.768
-2564.4103
-2281.6908
-1333.0384
-1450.8893
-1670.3273
-1984.7345
-2296.7628
-2476.2209
-2551.5108
-2463.1177
-2101.8696
-1319.3568
-1438.265
-1667.6839
-1995.0273
-2306.7758
-2473.3445
-2502.3094
-2311.0957
-1883.7289
-1308.2887
-1431.2504
-1667.5333
-1996.2654
-2303.9869
-2460.8171
-2450.4089
-2217.4631
-1776.892
-1302.3815
-1435.2397
-1687.9452
-2033.4236
-2335.9263
-2454.3676
-2373.0503