/*--------------------------------*- C++ -*----------------------------------*\
  =========                 |
  \\      /  F ield         | OpenFOAM: The Open Source CFD Toolbox
   \\    /   O peration     | Website:  https://openfoam.org
    \\  /    A nd           | Version:  11
     \\/     M anipulation  |
\*---------------------------------------------------------------------------*/
FoamFile
{
    format      ascii;
    class       volScalarField;
    location    "0.11";
    object      rho;
}
// * * * * * * * * * * * * * * * * * * * * * * * * * * * * * * * * * * * * * //

dimensions      [0 0 0 0 0 0 0];

internalField   nonuniform List<scalar> 
880
(
0.2239950333699092
0.2239950333699285
0.2239950568600692
0.2239989850285231
0.2239950333699093
0.2239950333703105
0.2239951116261003
0.2240439592226106
0.2239950333699093
0.2239950333864949
0.2239956392425184
0.2243240819627761
0.2239950333699091
0.2239950333224746
0.2239963429682795
0.2251471532571599
0.2239950333699093
0.2239950333699093
0.2239950333745154
0.2239950343868279
0.2239950334728665
0.22399503332994
0.2239950357930256
0.2239950667864672
0.2240078939744695
0.224021544794419
0.2241002088024575
0.2239538286039202
0.2282843575188989
0.2324677709377858
0.2350491527547104
0.2363133835116773
0.2239950456192282
0.2239951679910419
0.2239952739039669
0.2239952238729597
0.2239955564380378
0.2239964318108763
0.2239992065995019
0.2239990604583907
0.2241770642370146
0.2243619856809835
0.2246363136743256
0.2247613456226996
0.2378518702044043
0.24022248836766
0.2424798881646678
0.244425016711305
0.2398535974690693
0.2367109064835682
0.2356551294308767
0.2343069990544266
0.2254343632719956
0.226166881107967
0.2264213813123153
0.2262005857319531
0.2240066872784789
0.2240267702342967
0.2240430346455692
0.2240453942295448
0.2239956583514865
0.2239967363357501
0.2239974206438122
0.2239972488607799
0.2239965540402898
0.2239956896851817
0.223995188168825
0.2239950502790809
0.2240376491387732
0.2240223111207386
0.2240060232727589
0.2239974945042849
0.2258609846771162
0.2253546267087914
0.2247528614817103
0.224280453016623
0.2326360697491175
0.2308964473261405
0.2291205620655757
0.227296724944308
0.2255919118103615
0.2240618384020043
0.2239953098753235
0.2239950344192607
0.2243194508111501
0.2240011800014535
0.2239950447516731
0.2239950333534618
0.2246039573577105
0.2239973597835342
0.2239950373300003
0.2239950335268709
0.2357224797633959
0.2241413670351168
0.2239954232576003
0.2239950220812248
0.2239950795838509
0.2239980962102218
0.2249530587150563
0.2720656791603219
0.2239953693378218
0.224005300363279
0.2259083204591708
0.2805173398749813
0.2239961692435863
0.2240157533861339
0.2271362336904167
0.2888170875294699
0.2239976449239136
0.2240431334044337
0.2289112403029686
0.2966960304151964
0.3037656669879359
0.2306705933445654
0.2240643203376436
0.2239990246848513
0.3128197666400821
0.2330356788497708
0.2241190010878345
0.2240017120873637
0.3220023320148765
0.2350777061061239
0.2241473091985912
0.2240034618837262
0.3311054653803437
0.2382243483889026
0.224241298530027
0.2240088569930432
0.2240130390203871
0.2243224085045687
0.2416325442801441
0.3371085534354488
0.2240251296076272
0.2244819245197539
0.2435083367447228
0.3275790115881281
0.2240377712360971
0.2244412446589548
0.2388420670478214
0.3008219651756994
0.2239985379022852
0.2242175670170343
0.2314276678672585
0.2648794640722035
0.2240436440225828
0.2246677508350424
0.2293152453405176
0.2221881954053382
0.2240237561606609
0.2242889823136462
0.2245394166903678
0.1824875078589407
0.2239963465971938
0.2240423185983616
0.2210982974514074
0.1575442509048162
0.2239933814170264
0.2237854159123039
0.2166758818403174
0.1451782555223543
0.1424452356471996
0.215065283712838
0.2237422032359504
0.2239930571197771
0.1400228470535231
0.2140442404059652
0.2237140682496905
0.2239928842493702
0.1396895006124651
0.2144411018781892
0.2237889742650323
0.2239940686133663
0.1328921640943571
0.2135586639244534
0.22378647953058
0.2239941428027457
0.1452469995020578
0.2170630243991126
0.2238972309943325
0.2239945995523409
0.1621892095140786
0.2205715900374571
0.2239627350903364
0.2239949109328138
0.1771986519404228
0.2222444384654519
0.2239819267232721
0.2239949882961495
0.1912756138679323
0.2233656936390202
0.2239912802687319
0.2239950130843012
0.203559128971519
0.2224385008395134
0.2239606012905047
0.2239947555117581
0.2049608393888684
0.2225225696835326
0.2239618349411239
0.2239947616491534
0.2054215043533724
0.2225907628443106
0.2239634055163802
0.2239947712723287
0.2068654438912502
0.222756318285375
0.2239681407064699
0.2239948079735747
0.1912756138679086
0.2233656936388796
0.2239912802686098
0.2239950130840518
0.1771986519404138
0.2222444384653181
0.2239819267230715
0.2239949882960356
0.1621892095139677
0.2205715900373048
0.2239627350902727
0.2239949109327403
0.1452469995020065
0.2170630243989534
0.2238972309943967
0.2239945995523479
0.2239930571199146
0.2237422032360417
0.2150652837128205
0.1424452356467683
0.2239928842493094
0.2237140682497197
0.2140442404060137
0.1400228470531743
0.2239940686134092
0.223788974265005
0.2144411018780161
0.1396895006122646
0.2239941428027688
0.2237864795307811
0.2135586639244703
0.1328921640943086
0.1451782555220042
0.2166758818401812
0.223785415912161
0.2239933814170872
0.1575442509045176
0.2210982974513563
0.2240423185984221
0.2239963465971785
0.1824875078586587
0.2245394166903681
0.2242889823136211
0.2240237561607599
0.2221881954053069
0.2293152453404143
0.2246677508348531
0.2240436440227247
0.2240130390202885
0.2243224085042572
0.2416325442804474
0.3371085534356739
0.2240251296076896
0.2244819245194328
0.2435083367450019
0.3275790115883357
0.2240377712359121
0.2244412446591492
0.2388420670478336
0.3008219651756825
0.2239985379023745
0.2242175670169765
0.2314276678672579
0.2648794640722197
0.3311054653805638
0.238224348388998
0.2242412985311477
0.2240088569933885
0.3220023320151045
0.2350777061060206
0.2241473091978766
0.2240034618837399
0.3128197666402082
0.2330356788498458
0.2241190010881841
0.2240017120873798
0.3037656669879031
0.2306705933448115
0.2240643203376856
0.2239990246849068
0.2239950795838901
0.2239980962100694
0.2249530587147258
0.2720656791600878
0.223995369338038
0.2240053003637415
0.2259083204595896
0.2805173398752766
0.2239961692438566
0.2240157533862635
0.2271362336900626
0.2888170875291233
0.2239976449239167
0.2240431334043093
0.2289112403033043
0.2966960304152524
0.2239950220812343
0.2239950335268422
0.2239950333535881
0.2239950344192567
0.2239954232573626
0.223995037329894
0.2239950447515996
0.223995309875278
0.2241413670350049
0.2239973597835907
0.2240011800013605
0.224061838401932
0.2357224797633216
0.224603957357744
0.2243194508111847
0.2255919118103555
0.2239950502791224
0.2239974945043564
0.2242804530166863
0.2272967249443245
0.2239951881688017
0.2240060232728951
0.2247528614817298
0.2291205620656272
0.2239956896851603
0.2240223111208078
0.2253546267086754
0.2308964473259305
0.2239965540401357
0.224037649138735
0.2258609846771854
0.2326360697490784
0.2239956583515579
0.2240066872784882
0.225434363272004
0.2398535974691495
0.2239967363356659
0.224026770234264
0.2261668811080699
0.2367109064835914
0.2239974206439205
0.2240430346453251
0.2264213813122528
0.2356551294307014
0.223997248860668
0.2240453942294875
0.2262005857320506
0.2343069990542953
0.244425016711234
0.2247613456226268
0.2239990604587703
0.223995223873662
0.2424798881645571
0.2246363136744069
0.223999206599658
0.2239952739053694
0.2402224883676804
0.2243619856810223
0.2239964318100083
0.223995167988014
0.2378518702043543
0.2241770642371244
0.2239955564368438
0.2239950456217374
0.2363133835115981
0.2239538286039463
0.2239950667864275
0.2239950343864308
0.2350491527546724
0.2241002088023303
0.2239950357929058
0.2239950333745177
0.2324677709377397
0.2240215447944071
0.223995033329967
0.2239950333699092
0.2282843575188147
0.2240078939743848
0.223995033472766
0.2239950333699093
0.2239950333699092
0.2239950333699245
0.223995056860127
0.2239989850284895
0.2239950333699093
0.2239950333702522
0.2239951116261004
0.2240439592223576
0.2239950333699093
0.2239950333864404
0.223995639242503
0.2243240819627806
0.2239950333699093
0.223995033322393
0.2239963429682413
0.2251471532570055
0.2240207194355828
0.224162317848939
0.22481745295276
0.2284144541175132
0.2241623178490328
0.2244786211647434
0.2265501365052719
0.2352466615751125
0.2248174529527878
0.2265501365053114
0.2335145625768792
0.2488168879087392
0.2284144541178515
0.2352466615751251
0.2488168879082598
0.2690680464073462
0.2899851274533519
0.2725352117655609
0.2647475066598277
0.2498477393254084
0.2838363506057321
0.2801095295095455
0.2814765021590814
0.2734059850314777
0.284255496253246
0.2825064226232425
0.2831664026614358
0.2793440154250219
0.2859401358977162
0.2852466213498386
0.2854577138765328
0.2825758387127762
0.2832716773048592
0.2837136848870974
0.2843847800507228
0.2836634478952391
0.2851504687302597
0.284906399431018
0.2856266453437721
0.284814241619138
0.286198068226117
0.2857147542251087
0.2861609486799405
0.2853395218031914
0.2872828365103958
0.2860099755098343
0.2861587984869478
0.2832498553720451
0.2386559115766474
0.2231542640936056
0.2248029858776514
0.2269584408836534
0.2249635764921485
0.2168956819853835
0.2229794363762941
0.2257770743702601
0.2124805493062195
0.2174147074270871
0.224020731103671
0.2262343292641246
0.1926414370221441
0.2127347609501682
0.2216211557386896
0.2243844817915045
0.2278502495557707
0.2281077485851693
0.228461949474557
0.2282653658299916
0.2268130530207126
0.2276218348642946
0.2285059457331763
0.2281251453085436
0.2269993595957611
0.2281474427589788
0.2289974900051146
0.2284505156221725
0.2255397294665599
0.2271598988896107
0.2285929476556627
0.2280403817424958
0.2268362926305355
0.224895348965128
0.2342352778711551
0.2918314561804848
0.2267212169066541
0.2249587187041529
0.2398422806551479
0.3006919127674084
0.2269814046757568
0.225111234667422
0.2445739130951301
0.3051794789662123
0.2264703406737398
0.2249100637339063
0.24587380701537
0.3070584234940206
0.383325505701865
0.3772541125680066
0.3731065282879579
0.3691588220851099
0.390900060314334
0.382661654711938
0.3761726697818865
0.3717650928057312
0.3868000560100005
0.3815270254635165
0.3776045735861761
0.3747398906331099
0.3901766631948178
0.3845377584029921
0.3790014131517806
0.3758030007974242
0.3659822236656851
0.3691193206154861
0.3732293692300538
0.3775018854514509
0.3688099808727889
0.3714401375730583
0.3752938471246869
0.3796686732852874
0.3715006090085544
0.3740371022316383
0.3778943817098517
0.3824205113350865
0.3727430963065249
0.3749560089724546
0.3789807484594472
0.3837311355469435
0.3780111496280464
0.3662968773633621
0.3414809587659845
0.2936780535247646
0.3801494314539863
0.3695054029078624
0.344953080850426
0.3013370189529446
0.3832640404256298
0.3738938671655607
0.3462614364766107
0.308398858365948
0.3848251790978047
0.377471576501375
0.3493666922091834
0.3533275342716172
0.2054285981215535
0.06476144098176803
0.04083051245396266
0.05153169125945242
0.165056423951305
0.04616336279962278
0.04337980162568025
0.05547751694652767
0.1211936698545264
0.03561203016614517
0.04486195743557751
0.06124666810918377
0.08535363023149996
0.03148418556902473
0.04910348629719479
0.06327609928191678
0.06017746811045524
0.0632984631735318
0.0647621364066336
0.06071645256230255
0.06468091384362408
0.06745637027617191
0.06666175330607836
0.06129272113069073
0.07096907954474313
0.07356969906653756
0.0699243948570745
0.0631618572169636
0.07256991321345536
0.07596326205629254
0.07149451939055629
0.06680379415211403
0.08297905667417636
0.1025560664852939
0.120456058540214
0.1377362673494895
0.07903579488815173
0.09682745474698182
0.1109456757066976
0.1301775001780112
0.07507141618276264
0.09109868310959322
0.1039552430430151
0.1208745768951134
0.06977158085309934
0.0841382156163832
0.09522958598286445
0.1173722821804232
0.1078947601470123
0.07148796153046443
0.0719342269767099
0.08990881863909776
0.1001888307223234
0.06934255746958332
0.08186710198160203
0.082347193716813
0.08308828230506449
0.08545439535374902
0.09190742594186155
0.08645275506596642
0.07074559132931353
0.08954709036730009
0.093420029738139
0.0946446390397979
0.09302859112046166
0.09022946347023265
0.08791722397903025
0.08678237647729738
0.08181066244141942
0.08064487519111201
0.08141506290530713
0.08081565593354678
0.07694535063636909
0.07927932187740068
0.08367959234635931
0.08704074704428835
0.09924008184996772
0.100856201767838
0.1025278244850153
0.1040680266964423
0.08678237647729745
0.08081565593354643
0.08704074704429272
0.1040680266964543
0.08791722397903368
0.08141506290531214
0.08367959234636857
0.1025278244850293
0.0902294634702359
0.08064487519111906
0.07927932187740849
0.1008562017678451
0.09302859112046613
0.08181066244142253
0.07694535063637505
0.09924008184997968
0.08990881863914645
0.07193422697675497
0.07148796153045092
0.1078947601470158
0.0823471937168211
0.08186710198160503
0.06934255746958151
0.1001888307223259
0.08645275506597135
0.09190742594186006
0.08545439535375443
0.08308828230506661
0.09464463903980012
0.0934200297381378
0.0895470903673016
0.07074559132930949
0.117372282180415
0.09522958598286201
0.08413821561640561
0.06977158085313991
0.120874576895116
0.1039552430430092
0.09109868310960959
0.07507141618279335
0.1301775001780068
0.1109456757066826
0.09682745474698942
0.07903579488818013
0.1377362673495021
0.1204560585402034
0.1025560664852736
0.08297905667417807
0.06071645256237294
0.06476213640669883
0.06329846317350647
0.06017746811037976
0.06129272113077323
0.06666175330615344
0.06745637027621754
0.06468091384361795
0.06316185721703273
0.06992439485714656
0.0735696990666117
0.07096907954477942
0.06680379415218332
0.07149451939063392
0.0759632620563867
0.07256991321352302
0.0515316912594387
0.04083051245390953
0.06476144098151504
0.2054285981214415
0.05547751694655458
0.04337980162572789
0.04616336279949973
0.1650564239511079
0.06124666810923114
0.04486195743564907
0.03561203016613423
0.1211936698544429
0.063276099281953
0.04910348629724817
0.03148418556902323
0.08535363023146054
0.293678053524694
0.3414809587659309
0.3662968773632528
0.3780111496278992
0.3013370189529149
0.3449530808503847
0.3695054029077728
0.380149431453864
0.308398858365911
0.3462614364765564
0.3738938671654864
0.3832640404255531
0.3533275342715425
0.3493666922091444
0.3774715765013048
0.3848251790977266
0.3775018854512969
0.3732293692300655
0.3691193206154033
0.3659822236656721
0.3796686732851751
0.3752938471247169
0.3714401375730069
0.3688099808727724
0.3824205113350119
0.3778943817098809
0.3740371022315834
0.3715006090085226
0.3837311355468558
0.3789807484594869
0.3749560089724064
0.3727430963064832
0.3691588220850279
0.3731065282877709
0.3772541125680933
0.3833255057019362
0.3717650928056661
0.3761726697817344
0.3826616547120904
0.3909000603143964
0.3747398906330501
0.3776045735861058
0.3815270254636882
0.3868000560100364
0.3758030007973573
0.3790014131517608
0.3845377584031516
0.3901766631948918
0.2918314561805995
0.2342352778710813
0.2248953489650961
0.2268362926304709
0.3006919127674786
0.2398422806549842
0.2249587187041067
0.2267212169065947
0.3051794789662686
0.2445739130949255
0.2251112346674515
0.2269814046756616
0.307058423493948
0.2458738070152435
0.2249100637340973
0.2264703406737463
0.2282653658303191
0.2284619494744577
0.2281077485850226
0.2278502495557664
0.2281251453090262
0.2285059457327795
0.2276218348643019
0.2268130530206489
0.2284505156226954
0.2289974900045433
0.2281474427591487
0.22699935959567
0.2280403817429758
0.2285929476550208
0.2271598988899403
0.2255397294664404
0.2269584408835571
0.2248029858775364
0.2231542640936777
0.2386559115767404
0.225777074370171
0.2229794363761813
0.216895681985504
0.2249635764922255
0.2262343292640326
0.2240207311035678
0.2174147074272234
0.2124805493062754
0.2243844817914073
0.2216211557385516
0.2127347609503307
0.1926414370222608
0.2836634478951815
0.2843847800505949
0.2837136848872554
0.2832716773047804
0.2848142416190678
0.2856266453436805
0.2849063994311904
0.2851504687301911
0.2853395218031324
0.2861609486798887
0.2857147542252875
0.286198068226017
0.2832498553719342
0.2861587984869313
0.2860099755100066
0.2872828365103017
0.282575838712508
0.279344015425056
0.273405985031524
0.2498477393254101
0.2854577138762767
0.2831664026614953
0.2814765021590661
0.2647475066598322
0.2852466213495679
0.2825064226232461
0.2801095295095202
0.2725352117654459
0.2859401358975406
0.2842554962532609
0.2838363506056121
0.2899851274531205
0.200985037649058
0.2232940188598768
0.2239877061517955
0.2239950004386505
0.2007108934244355
0.2231865067734426
0.22398534020677
0.223994977908051
0.2030979637612706
0.2230734136793993
0.2239815064076696
0.2239949433017097
0.205497083682403
0.2229023078807724
0.2239749356627811
0.2239948787057827
0.22399475551195
0.2239606012904695
0.222438500839477
0.2035591289713715
0.2239947616491247
0.2239618349411429
0.2225225696835583
0.2049608393888408
0.2239947712723839
0.2239634055162491
0.2225907628443059
0.205421504353362
0.2239948079735684
0.2239681407064068
0.222756318285409
0.206865443891191
0.2239948787056675
0.2239949433017748
0.22399497790811
0.2239950004384741
0.2239749356626617
0.2239815064076386
0.223985340206777
0.2239877061518346
0.2229023078808058
0.2230734136793573
0.2231865067735009
0.2232940188598266
0.2054970836823249
0.2030979637611874
0.2007108934243896
0.2009850376490903
)
;

boundaryField
{
    back
    {
        type            empty;
    }
    inlet
    {
        type            calculated;
        value           nonuniform List<scalar> 
16
(
0.2239950333699092
0.2239950333699093
0.2239950333699093
0.2239950333699091
0.2239950333699093
0.2239950333699094
0.2239950333745154
0.223995034386828
0.2239950343864308
0.2239950333745177
0.2239950333699092
0.2239950333699094
0.2239950333699092
0.2239950333699093
0.2239950333699093
0.2239950333699093
)
;
    }
    front
    {
        type            empty;
    }
    top
    {
        type            calculated;
        value           nonuniform List<scalar> 
40
(
0.2239950456192282
0.2239951679910419
0.2239952739039669
0.2239952238729597
0.2239956583514865
0.2239967363357501
0.2239974206438122
0.2239972488607799
0.2239965540402898
0.2239956896851817
0.223995188168825
0.223995050279081
0.2239950344192607
0.2239950333534618
0.2239950335268709
0.2239950220812248
0.2239950795838509
0.2239953693378218
0.2239961692435863
0.2239976449239136
0.2239990246848513
0.2240017120873637
0.2240034618837262
0.2240088569930432
0.2240130390203871
0.2240251296076272
0.2240377712360971
0.2239985379022852
0.2240436440225828
0.2240237561606609
0.2239963465971938
0.2239933814170264
0.2239930571197771
0.2239928842493702
0.2239940686133663
0.2239941428027457
0.2239945995523409
0.2239949109328138
0.2239949882961496
0.2239950130843012
)
;
    }
    outlet
    {
        type            calculated;
        value           uniform 0.2239950333699093;
    }
    bottom
    {
        type            calculated;
        value           nonuniform List<scalar> 
40
(
0.2239950130840518
0.2239949882960356
0.2239949109327403
0.2239945995523479
0.2239930571199146
0.2239928842493094
0.2239940686134092
0.2239941428027688
0.2239933814170872
0.2239963465971785
0.2240237561607599
0.2240436440227247
0.2240130390202885
0.2240251296076896
0.2240377712359121
0.2239985379023745
0.2240088569933885
0.2240034618837399
0.2240017120873798
0.2239990246849068
0.2239950795838901
0.223995369338038
0.2239961692438566
0.2239976449239167
0.2239950220812343
0.2239950335268422
0.2239950333535881
0.2239950344192567
0.2239950502791223
0.2239951881688017
0.2239956896851603
0.2239965540401357
0.2239956583515579
0.2239967363356659
0.2239974206439205
0.223997248860668
0.2239952238736619
0.2239952739053694
0.223995167988014
0.2239950456217374
)
;
    }
    wall
    {
        type            calculated;
        value           nonuniform List<scalar> 
104
(
0.2899851274533519
0.2838363506057321
0.284255496253246
0.2859401358977162
0.2872828365103958
0.2860099755098343
0.2861587984869478
0.2832498553720451
0.1926414370221441
0.2127347609501682
0.2216211557386896
0.2243844817915045
0.2255397294665599
0.2271598988896107
0.2285929476556627
0.2280403817424958
0.2264703406737398
0.2249100637339063
0.24587380701537
0.3070584234940206
0.3901766631948178
0.3845377584029921
0.3790014131517806
0.3758030007974242
0.3727430963065249
0.3749560089724546
0.3789807484594472
0.3837311355469435
0.3848251790978047
0.377471576501375
0.3493666922091834
0.3533275342716173
0.08535363023149996
0.03148418556902473
0.04910348629719479
0.06327609928191678
0.07256991321345536
0.07596326205629254
0.07149451939055629
0.06680379415211403
0.06977158085309934
0.0841382156163832
0.09522958598286445
0.1173722821804232
0.07074559132931353
0.08954709036730009
0.093420029738139
0.0946446390397979
0.09302859112046166
0.09022946347023265
0.08791722397903025
0.08678237647729738
0.08678237647729745
0.08791722397903368
0.0902294634702359
0.09302859112046613
0.09464463903980012
0.0934200297381378
0.0895470903673016
0.07074559132930949
0.117372282180415
0.09522958598286201
0.08413821561640561
0.06977158085313991
0.06680379415218332
0.07149451939063392
0.0759632620563867
0.07256991321352302
0.063276099281953
0.04910348629724817
0.03148418556902323
0.08535363023146054
0.3533275342715425
0.3493666922091444
0.3774715765013048
0.3848251790977266
0.3837311355468558
0.3789807484594869
0.3749560089724064
0.3727430963064832
0.3758030007973573
0.3790014131517608
0.3845377584031516
0.3901766631948918
0.3070584234939481
0.2458738070152434
0.2249100637340973
0.2264703406737463
0.2280403817429758
0.2285929476550208
0.2271598988899403
0.2255397294664404
0.2243844817914073
0.2216211557385516
0.2127347609503307
0.1926414370222608
0.2832498553719342
0.2861587984869313
0.2860099755100066
0.2872828365103017
0.2859401358975406
0.2842554962532609
0.2838363506056121
0.2899851274531205
)
;
    }
}


// ************************************************************************* //
