/*--------------------------------*- C++ -*----------------------------------*\
  =========                 |
  \\      /  F ield         | OpenFOAM: The Open Source CFD Toolbox
   \\    /   O peration     | Website:  https://openfoam.org
    \\  /    A nd           | Version:  11
     \\/     M anipulation  |
\*---------------------------------------------------------------------------*/
FoamFile
{
    format      ascii;
    class       surfaceScalarField;
    location    "18.6";
    object      phi;
}
// * * * * * * * * * * * * * * * * * * * * * * * * * * * * * * * * * * * * * //

dimensions      [0 3 -1 0 0 0 0];

internalField   nonuniform List<scalar> 
10792
(
0.070769647
-0.042867143
-0.071283974
0.04338147
0.07014153
-0.040769053
0.041397169
0.069397385
-0.038632728
0.039376873
0.068563388
-0.036299753
0.037133749
0.067815638
-0.034118165
0.034865916
0.066982629
-0.031835354
0.032668363
0.066151356
-0.029473121
0.030304394
0.065304002
-0.027068545
0.027915899
0.064462925
-0.02450864
0.025349717
0.06372615
-0.022210478
0.022947253
0.062900326
-0.019385501
0.020211325
0.062291669
-0.017101775
0.017710432
0.061619769
-0.014244015
0.014915915
0.061110738
-0.011856113
0.012365143
0.060670515
-0.0089905801
0.0094308032
0.060181664
-0.0064615828
0.0069504338
0.059976435
-0.0035739899
0.0037792183
0.059769744
-0.0010240169
0.0012307082
0.0018578933
0.059951059
-0.0020392091
0.074940992
-0.042241591
-0.075566545
0.074226032
-0.040054092
0.073398726
-0.037805422
0.072667551
-0.035568578
0.071930918
-0.033381533
0.071105921
-0.031010357
0.070284042
-0.028651242
0.069419847
-0.026204351
0.068700224
-0.023789017
0.067802267
-0.02131252
0.067111603
-0.018694837
0.066459062
-0.016449235
0.065780009
-0.013564962
0.06531483
-0.011390933
0.064792979
-0.0084687292
0.064454504
-0.0061231076
0.064267362
-0.003386848
0.064126763
-0.0008834186
0.0018755015
0.064109155
0.079539178
-0.0416467
-0.080134068
0.078884046
-0.03939896
0.078227239
-0.037148615
0.077602818
-0.034944158
0.076777393
-0.032556108
0.075911814
-0.030144778
0.075028805
-0.027768233
0.074211795
-0.025387341
0.073337107
-0.022914329
0.072469781
-0.020445195
0.07183805
-0.018063105
0.071049899
-0.015661084
0.07050767
-0.013022733
0.069923306
-0.01080657
0.069457066
-0.0080024891
0.069177841
-0.0058438827
0.068868367
-0.0030773742
0.068774974
-0.000790026
0.0019634479
0.068687028
0.084314554
-0.040939636
-0.085021618
0.083649488
-0.038733894
0.082969029
-0.036468156
0.082108369
-0.034083497
0.081180733
-0.031628471
0.080357843
-0.029321889
0.079544445
-0.026954835
0.078692705
-0.024535601
0.077884993
-0.022106617
0.077201719
-0.019761921
0.076466956
-0.017328342
0.075787752
-0.01498188
0.075262238
-0.012497219
0.07466916
-0.010213492
0.074338209
-0.0076715376
0.073948371
-0.0054540454
0.073747422
-0.0028764257
0.073586552
-0.00062915616
0.0019687299
0.07358127
0.089765549
-0.040344861
-0.090360324
0.089083605
-0.038051951
0.088226201
-0.035610752
0.087432888
-0.033290184
0.086647119
-0.030842702
0.085894822
-0.028569591
0.085021115
-0.026081129
0.084200956
-0.023715442
0.083446154
-0.021351814
0.08265857
-0.018974337
0.081927546
-0.016597319
0.081250304
-0.014304638
0.080661691
-0.011908607
0.080074588
-0.0096263888
0.079602321
-0.0071992707
0.079193056
-0.0050447812
0.078952057
-0.0026354269
0.078790764
-0.00046786343
0.0019877366
0.078771758
0.095159928
-0.039492255
-0.096012533
0.094388439
-0.037280461
0.093593622
-0.034815935
0.092825345
-0.032521908
0.092036532
-0.030053889
0.091171072
-0.027704132
0.090315416
-0.025225473
0.089571098
-0.022971124
0.088687529
-0.020468246
0.087913778
-0.018200586
0.087164175
-0.015847716
0.086474228
-0.013614691
0.085874602
-0.011308981
0.085276458
-0.0090282453
0.084865995
-0.0067888079
0.08449269
-0.0046714761
0.084296713
-0.0024394495
0.084188557
-0.00035970799
0.0019381172
0.084238176
0.10128655
-0.038843453
-0.10193535
0.10058318
-0.036577094
0.099806795
-0.034039553
0.098980828
-0.031695941
0.098112916
-0.029185977
0.097353926
-0.026945141
0.096595924
-0.02446747
0.095756641
-0.022131842
0.094912453
-0.019624057
0.094144571
-0.017432704
0.093329886
-0.015033031
0.092650446
-0.012935252
0.091994227
-0.010652762
0.091454745
-0.0084887634
0.09100866
-0.0063427226
0.090650331
-0.0043131467
0.090505255
-0.0022943744
0.090339844
-0.00019429673
0.0018666017
0.090411359
0.10769999
-0.038046496
-0.10849694
0.10679899
-0.035676096
0.10593272
-0.033173287
0.1051102
-0.030873419
0.10429486
-0.028370635
0.10342485
-0.026075134
0.10253569
-0.023578309
0.1016552
-0.021251348
0.10083156
-0.018800425
0.10001814
-0.016619278
0.099248337
-0.014263229
0.098608357
-0.012295272
0.09798365
-0.010028055
0.09752499
-0.0080301035
0.097062594
-0.0058803262
0.096755435
-0.004005988
0.096486092
-0.0020250314
0.096424639
-0.00013284381
0.0018278588
0.096463382
0.11473714
-0.037199014
-0.11558462
0.11383636
-0.034775319
0.11307947
-0.032416395
0.11221023
-0.030004181
0.11136204
-0.027522447
0.1104725
-0.02518559
0.10957331
-0.022679125
0.10871197
-0.020390007
0.10787034
-0.017958789
0.10709227
-0.015841215
0.10639286
-0.013563819
0.10570797
-0.011610377
0.10504679
-0.0093668742
0.10449704
-0.007480355
0.10399581
-0.0053790937
0.10366479
-0.0036749738
0.10343185
-0.0017920904
0.10343013
-0.00013112608
0.001794056
0.10346393
0.12240332
-0.036190631
-0.1234117
0.12130689
-0.033678891
0.12030091
-0.03141041
0.11920618
-0.028909455
0.11826393
-0.026580193
0.11727765
-0.024199316
0.1164061
-0.021807574
0.11555342
-0.019537326
0.11478531
-0.01719068
0.11400139
-0.015057294
0.11327244
-0.012834867
0.11256763
-0.010905571
0.11196748
-0.0087667206
0.11147087
-0.006983741
0.11104751
-0.004955733
0.11074633
-0.0033737973
0.11048162
-0.0015273797
0.11045164
-0.00010114695
0.0017867641
0.11045893
0.13028577
-0.035090003
-0.1313864
0.12928526
-0.032678379
0.12831829
-0.030443444
0.12735234
-0.027943509
0.12646721
-0.025695056
0.12550814
-0.023240244
0.1246416
-0.020941037
0.12372248
-0.018618204
0.12286053
-0.016328732
0.12198711
-0.014183878
0.12124819
-0.01209595
0.12052895
-0.010186327
0.11997577
-0.0082135393
0.11946662
-0.0064745884
0.11911703
-0.0046061455
0.11877881
-0.0030355797
0.11861304
-0.0013616092
0.11848127
3.0624518e-05
0.0017017017
0.11856633
0.138954
-0.033710784
-0.14033322
0.13787496
-0.031599336
0.13664365
-0.02921214
0.13559241
-0.026892262
0.1345758
-0.024678446
0.13362425
-0.022288696
0.13273749
-0.020054279
0.13182384
-0.017704558
0.13097709
-0.015481976
0.13008709
-0.013293882
0.12931908
-0.011327934
0.12852829
-0.0093955425
0.12791452
-0.0075997691
0.12737292
-0.0059329869
0.12701031
-0.004243532
0.12671716
-0.0027424307
0.12659994
-0.001244394
0.12650797
0.00012259387
0.001506918
0.12670276
0.14851084
-0.032483912
-0.14973772
0.1474177
-0.030506192
0.14615384
-0.027948277
0.14503359
-0.025772011
0.14378053
-0.023425387
0.14271185
-0.021220013
0.1416886
-0.019031033
0.1408262
-0.016842158
0.140012
-0.014667772
0.13925274
-0.012534627
0.13853497
-0.010610163
0.13778099
-0.0086415662
0.13721158
-0.0070303591
0.13664137
-0.00536278
0.13622815
-0.0038303045
0.13589963
-0.0024139124
0.13573215
-0.0010769179
0.13562935
0.00022539323
0.0013403531
0.13579592
0.15838744
-0.031062573
-0.15980878
0.15697883
-0.02909759
0.15579039
-0.026759834
0.15477956
-0.024761178
0.15366967
-0.022315496
0.1526169
-0.020167252
0.15146796
-0.017882087
0.15049647
-0.015870669
0.14957111
-0.013742415
0.14878307
-0.011746586
0.14798947
-0.0098165641
0.14725916
-0.0079112493
0.1465988
-0.0063699979
0.14604096
-0.0048049423
0.14560795
-0.0033972969
0.14530899
-0.0021149501
0.14516023
-0.00092816158
0.14510459
0.00028103306
0.0011459576
0.14529899
0.16978852
-0.029694213
-0.17115688
0.16806505
-0.027374115
0.16659829
-0.025293079
0.16517077
-0.023333655
0.16396858
-0.021113306
0.16287925
-0.019077926
0.16180817
-0.016811002
0.16079977
-0.014862271
0.15979211
-0.012734752
0.15891327
-0.010867753
0.1580779
-0.008981192
0.15740556
-0.0072389117
0.15675397
-0.005718403
0.15621837
-0.0042693391
0.15576056
-0.0029394957
0.15545211
-0.0018064938
0.15522946
-0.00070550826
0.15524171
0.00026877847
0.00098629063
0.15540138
0.18110745
-0.028347756
-0.18245391
0.17968552
-0.025952182
0.17841753
-0.024025089
0.17683768
-0.021753804
0.17550241
-0.019778037
0.17414576
-0.017721278
0.17302377
-0.015689012
0.17190199
-0.013740493
0.17093352
-0.011766285
0.17007372
-0.010007955
0.16925927
-0.0081667351
0.16858076
-0.0065604064
0.16795371
-0.0050913464
0.16747343
-0.0037890657
0.16707636
-0.0025424227
0.16681121
-0.0015413451
0.16663312
-0.00052741754
0.16660482
0.00029707618
0.00089491522
0.1666962
0.19348248
-0.026514037
-0.1953162
0.19188247
-0.024352172
0.19041237
-0.022554995
0.18895786
-0.020299288
0.18763957
-0.018459744
0.18619827
-0.016279981
0.1850125
-0.014503239
0.18376818
-0.012496174
0.18279379
-0.010791895
0.18173736
-0.0089515323
0.18088134
-0.0073107158
0.18008877
-0.0057678274
0.17942716
-0.0044297385
0.17890044
-0.0032623453
0.17849023
-0.0021322153
0.17819685
-0.001247965
0.17803502
-0.00036558977
0.17805053
0.00028156238
0.00082013073
0.17812532
0.20683662
-0.024713089
-0.20863757
0.20522983
-0.022745386
0.20354469
-0.02086985
0.20207107
-0.018825666
0.20064264
-0.017031322
0.19930186
-0.014939193
0.19804107
-0.01324245
0.1968384
-0.011293503
0.19580961
-0.0097631039
0.19478955
-0.0079314746
0.19400444
-0.0065256033
0.19320889
-0.0049722859
0.19260733
-0.0038281774
0.19205317
-0.0027081779
0.1916997
-0.0017787526
0.19138851
-0.00093677331
0.1912723
-0.00024937539
0.19125974
0.00029411378
0.00069118084
0.19138869
0.22069486
-0.022870478
-0.22253747
0.21902876
-0.021079292
0.21739234
-0.019233434
0.21592434
-0.01735766
0.21442117
-0.015528152
0.21307668
-0.013594705
0.21173369
-0.011899464
0.21059478
-0.010154592
0.20942306
-0.0085913818
0.20843985
-0.0069482632
0.20750219
-0.0055879484
0.20665715
-0.0041272416
0.20597577
-0.0031467946
0.20536858
-0.0021009904
0.20498015
-0.0013903192
0.20464008
-0.00059670543
0.2045105
-0.00011980142
0.20445849
0.00034612322
0.00058839599
0.20456128
0.23642677
-0.020862853
-0.23843439
0.23447926
-0.019131781
0.23266817
-0.017422343
0.23099595
-0.01568544
0.22942263
-0.013954836
0.22799595
-0.012168026
0.226668
-0.010571516
0.22550163
-0.0089882166
0.22438215
-0.0074719054
0.22345904
-0.0060251552
0.2225405
-0.0046694063
0.22182283
-0.0034095734
0.22111333
-0.0024372901
0.22057731
-0.0015649759
0.22016974
-0.000982745
0.21993956
-0.0003665211
0.21980024
1.9516754e-05
0.2197656
0.00038076465
0.00054078227
0.21981321
0.25244298
-0.019048637
-0.25425719
0.25064448
-0.017333289
0.24886144
-0.015639294
0.24713433
-0.013958336
0.24549731
-0.012317815
0.24396199
-0.010632706
0.2425326
-0.0091421304
0.24122169
-0.0076772985
0.2400565
-0.0063067203
0.2390292
-0.0049978531
0.23811626
-0.0037564684
0.23736576
-0.0026590727
0.23664175
-0.0017132809
0.23608113
-0.0010043517
0.23560492
-0.00050653799
0.23538603
-0.00014763246
0.23528076
0.00012478791
0.23538538
0.00027614834
0.00043514736
0.23549101
0.2697955
-0.016760486
-0.27208365
0.26779055
-0.015328344
0.26593076
-0.013779497
0.26422985
-0.012257427
0.26260758
-0.010695546
0.26111813
-0.0091432571
0.25974796
-0.007771957
0.25847018
-0.0063995251
0.25736757
-0.0052041122
0.25637816
-0.0040084402
0.25556679
-0.0029450989
0.25488834
-0.0019806253
0.25430471
-0.0011296511
0.25375466
-0.00045429329
0.25329093
-4.2813572e-05
0.25295331
0.00018999008
0.25276979
0.00030830105
0.25273572
0.00031022683
0.00033455643
0.25283631
0.28875518
-0.014348402
-0.29116727
0.28648271
-0.013055873
0.28441059
-0.011707377
0.28250779
-0.010354621
0.28080673
-0.008994489
0.2792737
-0.0076102258
0.27785529
-0.0063535486
0.27657329
-0.0051175208
0.27542689
-0.0040577199
0.27450318
-0.0030847251
0.27368368
-0.0021256004
0.27304187
-0.0013388146
0.27254951
-0.00063729017
0.27219648
-0.00010126612
0.27193034
0.00022333035
0.27166592
0.00045440581
0.27156007
0.00041415597
0.27149782
0.00037247104
0.00023309965
0.27159928
0.3090674
-0.011709306
-0.3117065
0.30666839
-0.010656858
0.30445321
-0.0094921991
0.30245821
-0.0083596278
0.30063581
-0.0071720857
0.29906202
-0.0060364365
0.29766333
-0.0049548551
0.29642732
-0.0038815092
0.29536797
-0.0029983734
0.29439995
-0.0021167021
0.29365987
-0.0013855243
0.29304765
-0.00072659415
0.29256744
-0.00015708048
0.29221888
0.00024728889
0.291945
0.00049721198
0.29180114
0.0005982722
0.29165845
0.00055684265
0.29161485
0.00041607104
0.00020164338
0.29164631
0.33166025
-0.0083570334
-0.33501252
0.32865203
-0.0076486398
0.32597712
-0.0068172889
0.32363729
-0.0060197944
0.32157676
-0.0051115577
0.31981326
-0.0042729353
0.31832666
-0.0034682549
0.31710946
-0.00266431
0.31613361
-0.0020225271
0.31533552
-0.0013186059
0.31475851
-0.00080852017
0.31436387
-0.00033195283
0.31420032
6.470907e-06
0.31410827
0.00033933663
0.31404706
0.00055843012
0.31403365
0.00061167406
0.31400116
0.00058934024
0.31400708
0.00041015144
0.00018094132
0.31402778
0.35638165
-0.0044718606
-0.36026682
0.35283774
-0.0041047284
0.3497351
-0.0037146548
0.34698297
-0.0032676639
0.34465034
-0.0027789229
0.34268927
-0.0023118701
0.3410672
-0.001846181
0.33981858
-0.0014156968
0.3388237
-0.0010276422
0.33815638
-0.00065128456
0.3377011
-0.00035324079
0.3374443
-7.5151537e-05
0.33733014
0.00012062983
0.33739681
0.00027266068
0.33756146
0.00039378559
0.33767715
0.00049598078
0.33782096
0.00044553388
0.3378755
0.00035561301
0.00018128852
0.33787515
0.38403712
-0.38850898
0.37993239
0.37621773
0.37295007
0.37017115
0.36785928
0.3660131
0.3645974
0.36356976
0.36291847
0.36256523
0.36249008
0.36261071
0.36288337
0.36327716
0.36377314
0.36421867
0.36457428
0.36475557
0.059907306
0.004661006
-0.0046172525
0.060164363
0.0075459211
-0.0078029783
0.060605955
0.01020195
-0.010643542
0.061273182
0.01318858
-0.013855807
0.062135056
0.015794548
-0.016656423
0.063254166
0.018859217
-0.019978327
0.06461216
0.02152465
-0.022882644
0.066128564
0.024564151
-0.026080555
0.067935242
0.02747228
-0.029278957
0.069823969
0.030425824
-0.032314551
0.071984243
0.03321193
-0.035372205
0.074375929
0.036094611
-0.038486297
0.077010694
0.038768123
-0.041402888
0.079887268
0.0418152
-0.044691773
0.08307309
0.044455213
-0.047641035
0.086559554
0.047323353
-0.050809818
0.090592416
0.050038768
-0.05407163
0.094946915
0.052597577
-0.056952076
0.055188458
0.10008046
-0.060322001
0.064092244
0.004677917
0.064433156
0.0072050087
0.064961005
0.0096741005
0.065823865
0.01232572
0.066859954
0.014758459
0.068193799
0.017525372
0.069664292
0.020054157
0.071448969
0.022779474
0.073431401
0.025489848
0.075611388
0.028245836
0.077934042
0.030889276
0.080572097
0.033456555
0.083395885
0.035944335
0.086428445
0.03878264
0.089941746
0.040941912
0.093574639
0.04369046
0.097925812
0.045687595
0.1024956
0.04802779
0.049683936
0.10800012
0.068784153
0.0045807917
0.068987926
0.0070012354
0.069628719
0.009033308
0.070439977
0.011514461
0.071582317
0.013616118
0.072898927
0.016208762
0.074526518
0.018426565
0.076347403
0.020958589
0.078455097
0.023382154
0.080792537
0.025908396
0.083422164
0.028259649
0.086296233
0.030582486
0.089422066
0.032818502
0.092888501
0.035316205
0.096784445
0.037045967
0.10088962
0.039585281
0.105572
0.041005214
0.11052466
0.043075133
0.044014216
0.11619438
0.073666736
0.0044953255
0.073975039
0.0066929328
0.074695149
0.0083131978
0.075556494
0.010653117
0.076870475
0.012302137
0.07826174
0.014817497
0.080114541
0.016573764
0.081979693
0.019093437
0.084372536
0.020989311
0.086797333
0.023483598
0.08972163
0.025335351
0.092641679
0.027662437
0.096051665
0.029408517
0.099683616
0.031684254
0.1037539
0.032975687
0.10816233
0.035176847
0.11302077
0.036146777
0.11819631
0.037899587
0.03845425
0.12375628
0.078812083
0.0044550001
0.079250565
0.0062544511
0.079934948
0.0076288142
0.080994851
0.0095932137
0.082267293
0.011029696
0.083835164
0.013249626
0.085659321
0.014749607
0.087661936
0.017090822
0.090067362
0.018583885
0.092667278
0.020883681
0.095572675
0.022429954
0.098790979
0.024444132
0.10227933
0.025920165
0.10613994
0.027823641
0.11022936
0.028886268
0.11473462
0.030671591
0.11951814
0.03136325
0.12445924
0.032958486
0.032863753
0.13004974
0.084348843
0.0043443334
0.08486034
0.0057429537
0.085614796
0.0068743584
0.0867873
0.0084207094
0.088080425
0.0097365707
0.089860378
0.011469673
0.091686387
0.012923598
0.094010929
0.014766279
0.096475251
0.016119563
0.09927779
0.018081142
0.1022948
0.019412942
0.10562021
0.021118724
0.10910146
0.022438914
0.11299594
0.023929166
0.11686824
0.025013963
0.1212119
0.026327934
0.12550315
0.027071995
0.1301889
0.02827274
0.028204812
0.13484784
0.090457775
0.0042979175
0.091022549
0.0051781799
0.091768556
0.0061283514
0.093008256
0.0071810093
0.094399492
0.0083453347
0.096277203
0.0095919616
0.098193298
0.011007503
0.10067987
0.012279711
0.10307923
0.013720201
0.10605707
0.015103298
0.10902972
0.01644029
0.11242329
0.017725158
0.11584472
0.019017487
0.1195177
0.020256187
0.12320157
0.021330089
0.12701338
0.022516122
0.13076093
0.023324451
0.13470729
0.024326378
0.025013644
0.13789846
0.096623973
0.0041373258
0.097285204
0.0045169486
0.098108591
0.0053049643
0.099474287
0.0058153132
0.10090876
0.0069108576
0.10286344
0.0076372865
0.10487312
0.0089978257
0.1074184
0.0097344253
0.10991592
0.011222688
0.112969
0.012050215
0.11583179
0.013577493
0.11918783
0.014369122
0.12226673
0.015938586
0.12581324
0.01670968
0.1288429
0.018300423
0.13219375
0.019165273
0.1350728
0.020445399
0.13778012
0.021619063
0.022932074
0.13986169
0.1038258
0.0037754598
0.10433208
0.0040106682
0.10526593
0.0043711126
0.10654988
0.0045313618
0.10805764
0.005403105
0.11005196
0.0056429635
0.11219567
0.0068541112
0.11475677
0.0071733255
0.11730256
0.0086769031
0.12024759
0.0091051799
0.12296963
0.010855459
0.12602842
0.011310325
0.12866561
0.013301402
0.13167265
0.013702634
0.13385189
0.01612119
0.136371
0.016646156
0.13767644
0.019139958
0.13915827
0.020137239
0.022584862
0.13950548
0.11093115
0.0033032397
0.11145457
0.0034872527
0.11270823
0.003117454
0.11390809
0.003331499
0.11569525
0.0036159378
0.1175668
0.0037714214
0.11983842
0.0045824896
0.1222289
0.0047828416
0.12479185
0.0061139585
0.12743305
0.0064639733
0.13000975
0.0082787651
0.13267142
0.0086486527
0.13492653
0.011046293
0.13705994
0.011569216
0.13847303
0.014708102
0.13981813
0.015301061
0.13974612
0.019211967
0.13959875
0.020284608
0.024566419
0.13761719
0.11892681
0.0029427553
0.1195338
0.0028802715
0.12074037
0.0019108819
0.12187582
0.0021960516
0.12381614
0.0016756156
0.12549909
0.0020884672
0.12792351
0.0021580738
0.13000378
0.0027025669
0.1324339
0.0036838396
0.1345541
0.0043437741
0.13687975
0.0059531168
0.13872027
0.006808127
0.14032427
0.009442291
0.14124206
0.010651432
0.14171577
0.014234391
0.14143132
0.015585509
0.14019697
0.020446319
0.13821263
0.02226895
0.028527729
0.13425132
0.12700833
0.0026371802
0.12786034
0.0020282639
0.12891651
0.00085471111
0.1302973
0.00081526257
0.13212743
-0.0001545139
0.13382646
0.00038942978
0.13621277
-0.0002282314
0.13806132
0.0008540156
0.14041544
0.0013297152
0.14214501
0.0026142038
0.14400125
0.0040968838
0.14503911
0.0057702656
0.14592726
0.0085541423
0.14573166
0.010847033
0.14498836
0.014977688
0.14289066
0.017683205
0.14020814
0.023128842
0.13635587
0.026121223
0.033448513
0.13143508
0.13608557
0.002347531
0.13697432
0.0011395093
0.1378629
-3.3862594e-05
0.13946058
-0.00078242458
0.14101278
-0.0017067144
0.14284271
-0.0014404935
0.1447723
-0.0021578223
0.14642153
-0.00079521667
0.14836362
-0.00061237466
0.1493734
0.0016044161
0.1505751
0.0028951876
0.1506707
0.0056746649
0.1505498
0.0086750391
0.14919193
0.012204905
0.14741542
0.0167542
0.14424955
0.020849071
0.14047723
0.026901167
0.13557728
0.031021175
0.039000879
0.13002491
0.14563617
0.0020103439
0.14649775
0.00027792903
0.14746853
-0.0010046375
0.1490647
-0.0023786009
0.15038338
-0.003025386
0.1522344
-0.0032915188
0.15365979
-0.0035832152
0.1552603
-0.0023957217
0.15656909
-0.0019211667
0.1572671
0.00090640258
0.1577004
0.0024618884
0.15656895
0.0068061169
0.15543364
0.0098103421
0.15287696
0.014761586
0.15018618
0.019444982
0.14596495
0.025070308
0.14169059
0.031175522
0.13600125
0.036710514
0.045013005
0.12998913
0.15583359
0.0015781327
0.15664031
-0.00052879151
0.15762637
-0.0019906962
0.15904861
-0.0038008442
0.1602941
-0.0042708723
0.16198498
-0.0049824026
0.16298852
-0.0045867578
0.1643299
-0.0037371037
0.16480807
-0.0023993346
0.16510018
0.00061429065
0.16432383
0.0032382408
0.16276912
0.0083608215
0.16091216
0.011667302
0.15746844
0.018205311
0.15393571
0.022977713
0.14880461
0.030201406
0.14406049
0.035919639
0.13771302
0.043057981
0.050991442
0.13173459
0.16717445
0.001099876
0.16785791
-0.0012122518
0.16888646
-0.0030192417
0.17010802
-0.0050224042
0.17129828
-0.0054611304
0.17263678
-0.0063209093
0.1733258
-0.0052757787
0.17410635
-0.0045176481
0.17366897
-0.0019619561
0.17314442
0.0011388337
0.17134596
0.0050367021
0.16958691
0.010119874
0.16656774
0.014686472
0.16275644
0.022016609
0.15868549
0.027048662
0.15356188
0.035325022
0.14914707
0.040334442
0.14356621
0.048638842
0.054654487
0.13990317
0.17864103
0.00058416934
0.17933212
-0.0019033482
0.18032915
-0.0040162695
0.18122962
-0.0059228728
0.18232773
-0.0065592433
0.18325443
-0.0072476098
0.18372979
-0.0057511368
0.1838825
-0.0046703582
0.18297894
-0.0010584019
0.1820071
0.0021106832
0.17970423
0.0073395709
0.17734473
0.012479368
0.17331786
0.018713347
0.16972587
0.025608593
0.16546086
0.031313679
0.16165315
0.039132728
0.15874009
0.043247501
0.15660118
0.050777758
0.052161688
0.15909397
0.19184887
0.00012399078
0.19254651
-0.0026009839
0.19335156
-0.004821321
0.19389117
-0.0064624804
0.19461543
-0.0072835058
0.19488597
-0.0075181476
0.19493917
-0.005804341
0.19431523
-0.0040464176
0.19305806
0.00019876447
0.19146629
0.0037024605
0.18879886
0.010006995
0.18605053
0.015227703
0.18230926
0.022454614
0.17973111
0.028186739
0.17676781
0.034276977
0.17618926
0.039711286
0.17687256
0.042564193
0.18142937
0.046220953
0.042803756
0.1907873
0.20496677
-0.00028150075
0.2055337
-0.0031679142
0.20621824
-0.0055058594
0.20687587
-0.0071201148
0.20740067
-0.007808297
0.20716436
-0.0072818421
0.20685793
-0.0054979132
0.20570747
-0.0028959569
0.2043832
0.0015230366
0.20214103
0.0059446308
0.19935478
0.012793242
0.1966446
0.017937886
0.19416039
0.024938827
0.1931679
0.02917922
0.19303923
0.03440565
0.19644101
0.036309505
0.20170638
0.037298826
0.2117446
0.036182736
0.031307554
0.2232408
0.22005012
-0.00051841183
0.22048648
-0.0036042755
0.22093032
-0.0059497006
0.22128989
-0.0074796849
0.22135414
-0.007872542
0.22097584
-0.0069035459
0.22029132
-0.0048133866
0.21871113
-0.0013157719
0.2171471
0.0030870716
0.21454083
0.0085508935
0.21261516
0.014718916
0.21093146
0.019621586
0.21071342
0.025156868
0.2121034
0.027789237
0.21569027
0.030818783
0.22237043
0.029629345
0.23060262
0.029066632
0.24160568
0.025179673
0.022439197
0.25047404
0.23579929
-0.00082668992
0.23605735
-0.0038623421
0.23624519
-0.0061375373
0.23622948
-0.0074639759
0.23581896
-0.007462015
0.23504636
-0.0061309514
0.23380922
-0.0035762487
0.23228965
0.00020380687
0.2304314
0.0049453137
0.22830015
0.010682146
0.22760751
0.015411556
0.22738519
0.019843906
0.22969828
0.022843781
0.233484
0.024003517
0.23977988
0.024522907
0.24745026
0.021958963
0.25584755
0.020669341
0.26388916
0.017138059
0.018332394
0.26799597
0.25314583
-0.0011362127
0.25316551
-0.003882027
0.25318582
-0.0061578395
0.2528857
-0.007163862
0.25236628
-0.0069425923
0.25155451
-0.0053191841
0.25035366
-0.002375397
0.24888235
0.00167512
0.24723726
0.0065903997
0.24662738
0.011292029
0.24721153
0.014827403
0.24920276
0.017852683
0.25337914
0.018667398
0.2583908
0.018991859
0.26527933
0.017634374
0.27182237
0.015415922
0.27770146
0.014790255
0.28079769
0.014041832
0.019020705
0.28010937
0.27162136
-0.0011582933
0.27143211
-0.0036927811
0.27102772
-0.0057534431
0.27020143
-0.0063375747
0.26902788
-0.0057690412
0.2675364
-0.0038276995
0.26622598
-0.0010649763
0.26504626
0.0028548319
0.26450363
0.0071330387
0.26531374
0.010481916
0.26722435
0.012916798
0.27111752
0.013959503
0.27587261
0.013912316
0.2814573
0.013407167
0.28734319
0.011748486
0.29113694
0.01162217
0.29323208
0.012695117
0.29207575
0.015198157
0.022229999
0.28886646
0.29167468
-0.0011866727
0.29155923
-0.0035773291
0.29102976
-0.0052239729
0.29037947
-0.0056872855
0.28950225
-0.0048918136
0.28845105
-0.0027764998
0.28736157
2.4499111e-05
0.28686385
0.0033525542
0.28746552
0.0065313713
0.28927493
0.0086725061
0.29226298
0.009928752
0.2960435
0.010178981
0.30008702
0.0098687965
0.30466393
0.0088302526
0.30755732
0.0088550952
0.30836162
0.010817875
0.30781664
0.013240094
0.30545689
0.017557905
0.023152578
0.30453431
0.31375216
-0.00091105517
0.31291771
-0.0027428787
0.31164467
-0.0039509355
0.30993008
-0.0039726978
0.30808357
-0.0030452957
0.30680934
-0.0015022759
0.30626495
0.00056889657
0.30663224
0.0029852627
0.30825492
0.0049086964
0.31097905
0.0059483719
0.31462452
0.0062832809
0.31874097
0.0060625292
0.32280984
0.0057999286
0.3258617
0.005778395
0.32706769
0.0076491022
0.3281075
0.0097780657
0.32867231
0.012675284
0.33058616
0.015644059
0.017569555
0.33616918
0.33767764
-0.00071354738
0.33676606
-0.0018312989
0.33550681
-0.002691688
0.33429454
-0.002760427
0.33333524
-0.0020859903
0.33292796
-0.0010949954
0.33326477
0.00023208441
0.33478333
0.0014667097
0.33706305
0.0026289734
0.33982599
0.0031854306
0.34255551
0.003553765
0.34503747
0.0035805638
0.34663394
0.0042034615
0.3476244
0.004787934
0.34902153
0.0062519774
0.35185227
0.0069473259
0.35587701
0.0086505437
0.36313894
0.0083821237
0.0079230942
0.3727854
0.36404202
0.36221073
0.35951904
0.35675861
0.35467262
0.35357763
0.35380971
0.35527642
0.35790539
0.36109082
0.36464459
0.36822515
0.37242862
0.37721655
0.38346853
0.39041585
0.3990664
0.40744852
0.41537161
0.098718646
0.064523743
-0.06316193
0.097906373
0.067015768
-0.066203495
0.097083194
0.070215678
-0.069392499
0.096865894
0.072312839
-0.072095539
0.096664252
0.075351922
-0.07515028
0.09730337
0.077790014
-0.078429132
0.098083815
0.080721989
-0.081502434
0.099860317
0.08241619
-0.084192692
0.10187416
0.0856659
-0.087679743
0.10429322
0.087542002
-0.089961058
0.10761579
0.088571337
-0.091893909
0.10963784
0.089924186
-0.091946242
0.11142643
0.08940446
-0.091193043
0.11247579
0.087840647
-0.088890008
0.1124925
0.084491749
-0.084508465
0.1104181
0.079354494
-0.077280088
0.10602893
0.071274282
-0.066885113
0.097488009
0.061837874
-0.053296955
0.050589906
0.085159309
-0.038261206
0.1067379
0.065785962
0.10596416
0.067789505
0.10544014
0.070739701
0.10547338
0.072279602
0.10590996
0.074915342
0.10683965
0.076860323
0.10805761
0.079504027
0.10997767
0.080496135
0.11267937
0.082964197
0.11556716
0.084654215
0.11919611
0.084942379
0.12296155
0.08615875
0.12653611
0.085829901
0.12917024
0.085206515
0.13112025
0.082541737
0.13086274
0.079612007
0.12850167
0.073635354
0.12272282
0.067616723
0.059943177
0.11336955
0.11481881
0.067161534
0.11380627
0.068802048
0.11318696
0.071359009
0.11283555
0.072631015
0.1133125
0.074438387
0.11401697
0.076155853
0.11545769
0.07806331
0.11726145
0.07869237
0.11992438
0.080301271
0.12320693
0.081371664
0.12617995
0.081969354
0.13032866
0.08201004
0.13391758
0.082240986
0.13755776
0.081566333
0.14011056
0.079988942
0.14137761
0.078344956
0.13982648
0.075186477
0.13652073
0.070922479
0.066356189
0.13010772
0.12239691
0.068520902
0.12117593
0.070023024
0.12030725
0.072227695
0.11975085
0.073187416
0.11967858
0.074510654
0.11989731
0.075937123
0.12107229
0.076888333
0.12270695
0.077057702
0.12506255
0.07794567
0.12789782
0.078536399
0.13037007
0.079497108
0.13425296
0.078127143
0.13804267
0.078451278
0.14122975
0.078379256
0.14351691
0.077701784
0.14555465
0.076307207
0.14593613
0.074805006
0.14439317
0.072465432
0.07079426
0.1399551
0.12821858
0.070352064
0.12659048
0.071651126
0.1255293
0.073288875
0.12480891
0.073907799
0.12455606
0.074763512
0.12447436
0.076018815
0.12533706
0.076025634
0.126512
0.075882763
0.12792652
0.076531154
0.13000659
0.076456331
0.13300014
0.076503558
0.13629443
0.074832847
0.1391239
0.07562181
0.14178382
0.075719336
0.14457274
0.074912869
0.14691897
0.073960971
0.14840873
0.073315252
0.14778845
0.07308571
0.073555674
0.14502703
0.13266083
0.072539077
0.13048082
0.073831133
0.12899554
0.074774152
0.12782416
0.075079182
0.12684308
0.075744592
0.12668961
0.076172281
0.12720941
0.075505835
0.12760478
0.075487395
0.12895315
0.075182787
0.13118316
0.074226313
0.1337686
0.073918119
0.13610465
0.072496798
0.13921533
0.072511134
0.14314343
0.071791229
0.14660186
0.071454441
0.14917717
0.071385667
0.15029729
0.072195124
0.15073617
0.072646839
0.074158741
0.1501331
0.13508845
0.075349085
0.13255011
0.07636947
0.13077874
0.076545518
0.12878048
0.077077448
0.12758966
0.076935414
0.12693464
0.076827302
0.1264598
0.07598067
0.12688155
0.075065645
0.12800111
0.074063232
0.1292182
0.07300922
0.13190142
0.071234902
0.13531286
0.06908535
0.13910997
0.068714027
0.14293214
0.067969062
0.14672732
0.067659256
0.15139442
0.066718571
0.15618498
0.067404561
0.16115537
0.067676456
0.071140268
0.16417384
0.13608155
0.079129224
0.13303206
0.079418955
0.12995202
0.079625558
0.12765833
0.079371142
0.12564338
0.078950366
0.12410204
0.078368645
0.12333963
0.076743079
0.12291243
0.075492844
0.12341435
0.073561313
0.1257104
0.07071317
0.12896735
0.067977952
0.13172514
0.066327556
0.13634473
0.064094441
0.14386143
0.060452361
0.15368004
0.057840647
0.16408305
0.056315556
0.17400496
0.057482655
0.18242014
0.059261273
0.064729903
0.18883051
0.13505674
0.083577961
0.13093046
0.083545233
0.12686292
0.083693098
0.12349507
0.082738993
0.12005778
0.082387656
0.11788994
0.080536483
0.11556773
0.079065295
0.11468618
0.076374393
0.11553538
0.07271211
0.116496
0.069752551
0.11751704
0.066956911
0.1217299
0.062114697
0.13116319
0.054661156
0.14249157
0.04912398
0.15323808
0.047094129
0.16303676
0.046516883
0.17316685
0.04735256
0.18217817
0.050249954
0.05571254
0.19119553
0.13192755
0.089267601
0.12627168
0.089201102
0.1211352
0.088829578