/*--------------------------------*- C++ -*----------------------------------*\
  =========                 |
  \\      /  F ield         | OpenFOAM: The Open Source CFD Toolbox
   \\    /   O peration     | Website:  https://openfoam.org
    \\  /    A nd           | Version:  11
     \\/     M anipulation  |
\*---------------------------------------------------------------------------*/
FoamFile
{
    format      ascii;
    class       volVectorField;
    location    "5.375";
    object      U;
}
// * * * * * * * * * * * * * * * * * * * * * * * * * * * * * * * * * * * * * //

dimensions      [0 1 -1 0 0 0 0];

internalField   nonuniform List<vector> 
4455
(
(99.945288 -0.46859548 0)
(99.931279 -1.3146861 -1.7659209e-18)
(99.628123 -2.1922657 6.0656184e-18)
(99.433549 -3.1335514 2.3960938e-20)
(98.881348 -3.8630752 5.764205e-18)
(98.432413 -4.8095987 -2.1646262e-17)
(97.377925 -5.4508167 9.6107049e-18)
(96.620019 -6.3461955 0)
(94.758888 -7.5844708 -5.9525156e-17)
(99.950965 -0.42625715 -1.1683843e-17)
(99.843947 -1.2232289 1.1395549e-17)
(99.594009 -2.0837961 -1.3998501e-17)
(99.362053 -3.0293651 2.3297647e-17)
(98.746014 -3.7833539 -4.4629601e-17)
(98.188961 -4.7718509 4.8773762e-17)
(97.120346 -5.538871 -4.6654789e-18)
(95.982756 -6.7544234 6.8107529e-18)
(94.101158 -8.8987209 2.5949382e-16)
(99.918669 -0.38917069 -1.2445771e-17)
(99.830553 -1.1009419 1.5680228e-17)
(99.560723 -1.9785354 1.3683413e-17)
(99.303458 -2.8204588 -1.360322e-17)
(98.641168 -3.5785189 5.9976454e-17)
(97.964945 -4.5308866 -3.3742217e-17)
(96.979355 -5.224671 4.3546531e-18)
(95.777918 -6.6391528 -9.7105414e-17)
(94.024301 -7.9363208 -1.8336454e-16)
(99.892705 -0.34274312 -1.676997e-19)
(99.831378 -0.99837071 -1.5290912e-18)
(99.535878 -1.7921386 3.2964451e-17)
(99.25514 -2.671553 4.4900571e-18)
(98.522972 -3.2864909 2.8966208e-19)
(97.896041 -4.3511184 -6.5361483e-18)
(96.657071 -4.8694253 7.2866238e-17)
(95.484884 -6.5076175 1.9478302e-16)
(93.435072 -7.8060727 1.5383e-16)
(99.881599 -0.30472061 2.4056725e-17)
(99.830019 -0.86506791 -2.6868775e-17)
(99.508685 -1.6464552 3.4534535e-17)
(99.238246 -2.4357705 1.9102733e-20)
(98.451452 -3.0783386 -4.1468428e-17)
(97.726732 -4.0637213 -1.2771481e-17)
(96.404851 -4.5866304 -5.7415045e-17)
(95.235089 -6.4563144 -9.1872884e-17)
(93.003659 -7.6981366 -4.5529327e-16)
(99.88665 -0.26704631 0)
(99.805567 -0.73390437 0)
(99.531112 -1.4792615 -5.9879568e-17)
(99.184278 -2.2549977 -6.918298e-17)
(98.401963 -2.778162 0)
(97.696805 -3.8158177 -9.3250619e-17)
(96.084996 -4.1900935 -7.8833707e-18)
(94.810016 -6.3056899 -5.5532624e-18)
(92.221236 -7.2896329 5.6448639e-16)
(99.887321 -0.21814405 0)
(99.810966 -0.63341352 -1.6407624e-18)
(99.520202 -1.3057219 1.8467547e-18)
(99.218505 -2.0265164 6.7619471e-17)
(98.330773 -2.5373454 -5.0002861e-18)
(97.613297 -3.5105351 1.9912726e-16)
(95.964394 -3.8594766 0)
(94.54345 -6.1668919 0)
(91.594587 -6.9563768 2.6279811e-16)
(99.895063 -0.1794563 4.6690878e-17)
(99.815723 -0.5247897 0)
(99.546436 -1.1573965 0)
(99.189451 -1.8102313 0)
(98.339961 -2.270877 0)
(97.536713 -3.218181 -9.9707649e-17)
(95.729389 -3.3972644 -1.0749371e-16)
(94.084043 -5.9347652 1.5606977e-16)
(90.493321 -6.3517834 5.1514393e-18)
(99.90395 -0.14126449 -4.5977118e-17)
(99.82776 -0.43520023 -1.5952428e-18)
(99.567861 -0.99446967 -1.7930761e-18)
(99.214933 -1.5992269 4.0732143e-18)
(98.339702 -2.0125633 1.5722362e-16)
(97.508948 -2.9244984 1.7758175e-16)
(95.685749 -3.0432333 3.4346666e-16)
(93.732946 -5.6249232 -1.5319907e-16)
(89.666274 -5.8143291 -4.5282154e-16)
(99.916579 -0.10931502 0)
(99.929568 -0.082020255 8.6488961e-17)
(99.943717 -0.0605642 -8.5785144e-17)
(99.955277 -0.04209546 8.2639474e-17)
(99.966747 -0.029488262 -8.0774724e-17)
(99.974144 -0.017674822 1.6188773e-16)
(99.981928 -0.011802378 -1.571509e-16)
(99.983663 -0.0083069639 0)
(99.991679 -0.0062920795 0)
(99.83633 -0.35834107 0)
(99.84931 -0.29079655 1.4929801e-18)
(99.860911 -0.2309317 0)
(99.876436 -0.18360634 4.2641636e-18)
(99.889059 -0.14002268 8.7419586e-17)
(99.906619 -0.11068792 -2.6147879e-16)
(99.923442 -0.077465008 1.693703e-16)
(99.94224 -0.067653243 -2.5877057e-18)
(99.969552 -0.035425309 1.6390992e-16)
(99.593413 -0.85396831 1.0760651e-16)
(99.622242 -0.73096629 -2.1245821e-16)
(99.659014 -0.61888915 2.0362497e-16)
(99.687569 -0.52611719 -6.1034239e-18)
(99.728477 -0.43586042 -9.6558029e-17)
(99.757994 -0.37171581 -2.9467516e-18)
(99.801572 -0.29179183 0)
(99.807718 -0.24330401 5.5983796e-18)
(99.847654 -0.19403708 -2.7304684e-18)
(99.22593 -1.393298 1.1213866e-16)
(99.257739 -1.1787682 -2.2825455e-16)
(99.292005 -0.98950031 2.1801785e-16)
(99.328949 -0.81203402 -1.0582965e-16)
(99.374116 -0.64379035 -6.6618855e-18)
(99.410287 -0.48982692 3.2218826e-18)
(99.476064 -0.37168137 0)
(99.509153 -0.23771855 -3.0492768e-18)
(99.615589 -0.1640027 1.8416653e-16)
(98.373931 -1.7228852 -1.2625023e-16)
(98.400674 -1.4717493 0)
(98.463706 -1.2299115 -1.1833692e-16)
(98.529896 -1.0074507 1.2199621e-16)
(98.631631 -0.85732809 -1.1092128e-16)
(98.719868 -0.67885814 1.1460093e-16)
(98.840795 -0.59536957 0)
(98.887422 -0.40975652 0)
(98.982216 -0.336727 6.5183583e-18)
(97.465021 -2.5952343 -1.5488452e-16)
(97.460131 -2.1740992 -1.4951951e-16)
(97.442531 -1.8593985 1.4372944e-16)
(97.522175 -1.403828 1.3880525e-16)
(97.57024 -1.1275264 -1.3382483e-16)
(97.701635 -0.66361609 0)
(97.816047 -0.40352922 2.4982517e-16)
(97.996366 0.0017859402 -1.43501e-19)
(98.122636 0.15907017 -4.6749876e-16)
(95.463879 -2.5442426 -1.8224109e-16)
(95.453133 -1.9161382 0)
(95.332141 -1.4857775 0)
(95.480991 -0.96120708 5.1601486e-18)
(95.520835 -0.63133089 0)
(95.727472 -0.11900771 0)
(95.828937 0.17111201 0)
(96.125328 0.62295839 0)
(96.289552 0.84481318 0)
(93.19431 -5.2452863 7.174948e-18)
(92.632795 -4.2084543 0)
(92.179696 -3.369051 6.6298406e-18)
(91.918873 -1.9647616 -1.2330031e-17)
(91.910283 -1.1576135 -1.8724435e-16)
(92.079265 0.15809312 -1.7877288e-16)
(92.429624 0.78307933 3.421526e-16)
(92.845394 1.9485298 3.3224095e-16)
(93.33559 2.2832477 -3.1437542e-16)
(87.672865 -4.7258769 8.7361418e-16)
(85.664796 -1.9848512 -5.3544527e-16)
(84.352323 -0.33531403 5.236483e-16)
(84.298122 2.7450561 -4.8955975e-16)
(84.834229 4.5928409 -7.0471854e-16)
(85.67119 7.1508626 1.3293945e-15)
(86.54231 8.1781774 -8.4026944e-16)
(87.687025 10.092791 -4.0044424e-16)
(88.633143 10.572588 3.7683603e-16)
(99.983506 -0.016961712 -2.1708086e-19)
(99.982948 -0.039040288 2.224216e-16)
(99.983264 -0.043719142 -6.1098574e-21)
(99.981768 -0.05601839 -2.2516985e-16)
(99.976675 -0.069844459 2.207189e-19)
(99.969282 -0.076004899 2.2693651e-16)
(99.968228 -0.09696659 -2.2699625e-16)
(99.969917 -0.10509678 -2.2128064e-19)
(99.973852 -0.1126628 -1.139652e-16)
(99.974961 -0.029824301 -2.3390063e-16)
(99.970304 -0.029862748 2.3601026e-16)
(99.966601 -0.023712467 -2.3682861e-16)
(99.950696 -0.010892106 0)
(99.95136 0.0078232354 2.4023453e-16)
(99.932908 0.038200033 4.8797301e-19)
(99.949385 0.062811229 7.105337e-19)
(99.94175 0.11291152 -2.4212929e-16)
(99.982764 0.14169476 1.2214653e-16)
(99.836857 -0.15547817 2.5205442e-16)
(99.793873 -0.14154367 -2.524015e-16)
(99.770394 -0.12545393 -2.5482927e-16)
(99.716603 -0.092616363 2.5540758e-16)
(99.725691 -0.046970502 -2.5816647e-16)
(99.684989 0.015370104 2.5733139e-16)
(99.718382 0.070831589 -2.606738e-16)
(99.690007 0.14782843 -5.0301443e-19)
(99.731442 0.23388768 2.6149104e-16)
(99.612619 -0.044816032 -2.690811e-16)
(99.650419 0.059322646 -1.0595567e-18)
(99.585122 0.13174887 1.0707928e-18)
(99.569164 0.22967399 0)
(99.528849 0.29902798 -6.663516e-21)
(99.545692 0.43004343 -2.762296e-16)
(99.527379 0.53147297 2.8084828e-16)
(99.587963 0.70572548 1.0999566e-18)
(99.576636 0.83497753 1.1053241e-18)
(99.036605 -0.15177606 -1.1372298e-18)
(98.913579 -0.024244046 -2.9453393e-16)
(98.914352 0.12420192 -1.5256919e-18)
(98.754345 0.27414129 2.979234e-16)
(98.810793 0.44618413 3.0124684e-16)
(98.678951 0.66181611 -3.0272507e-16)
(98.805288 0.86175466 -1.1791534e-18)
(98.691292 1.139272 -1.1858295e-18)
(98.864934 1.3471752 -1.1924306e-18)
(98.328969 0.48998397 3.199375e-16)
(98.202639 0.82466683 0)
(98.28432 1.0448794 0)
(98.141157 1.3638199 3.2569877e-16)
(98.268749 1.592321 -3.3006928e-16)
(98.166282 1.9729821 -3.3259493e-16)
(98.366993 2.2217959 6.6636397e-16)
(98.285166 2.6599511 1.0033757e-19)
(98.57264 2.9072107 -6.7439524e-16)
(96.550742 1.2394153 -1.4212071e-18)
(96.443879 1.7447722 0)
(96.561157 2.0374584 1.4387207e-18)
(96.405914 2.4948212 3.6674176e-16)
(96.574243 2.8234098 -3.6901349e-16)
(96.477781 3.3180238 3.714393e-16)
(96.746841 3.6635274 -3.7225602e-16)
(96.750983 4.2106346 -1.473822e-18)
(97.004429 4.5578242 3.7634418e-16)
(93.804278 3.1234609 -4.0523875e-16)
(94.153827 4.0016808 4.1064221e-16)
(94.514333 4.4853584 -4.1384121e-16)
(94.876949 5.3154094 4.1170841e-16)
(95.325319 5.7139835 -4.1105102e-16)
(95.852754 6.4086485 -3.4561105e-19)
(96.345265 6.8539468 4.1687455e-16)
(96.887413 7.4377824 3.2593546e-18)
(97.449894 7.7432579 2.0840943e-16)
(89.842433 11.763235 0)
(90.340591 12.727696 -4.6599124e-16)
(91.41467 13.611289 3.565777e-18)
(91.977924 14.135359 5.5307839e-18)
(93.205751 14.738319 9.3032846e-16)
(93.777569 14.80832 -4.6485377e-16)
(95.038192 14.903808 -4.6331425e-16)
(95.636527 14.4074 4.6513091e-16)
(96.994718 13.64512 2.3334474e-16)
(97.436507 12.464167 -2.7266377e-16)
(98.003896 11.476057 0)
(98.288233 10.588824 2.7189335e-16)
(98.410636 9.9655402 -2.718981e-16)
(97.978606 9.3266965 0)
(97.423729 9.1523157 0)
(96.502131 8.8509549 0)
(95.797907 8.9505746 -2.8437438e-16)
(94.940108 9.0034964 2.8437131e-16)
(97.855035 8.2558519 -2.3739052e-16)
(98.247448 8.7258362 0)
(98.563204 8.884165 0)
(98.910275 9.1404039 0)
(99.011449 9.2820572 0)
(99.164532 9.6173167 0)
(99.105946 9.8861317 0)
(99.201227 10.428733 2.3802214e-16)
(98.938955 10.767735 -4.7731565e-16)
(97.002228 5.0407935 -1.7367251e-19)
(97.292002 5.4550059 -4.1369177e-16)
(97.257969 5.8452357 0)
(97.572679 6.2263539 -2.0668553e-16)
(97.600901 6.5843113 2.0667583e-16)
(97.949914 6.8977753 0)
(97.922345 7.2375391 0)
(98.246192 7.562824 0)
(98.181699 7.9605667 0)
(98.509765 3.3976045 3.6290443e-16)
(98.8418 3.7113949 0)
(98.749679 4.2090003 1.814534e-16)
(99.115641 4.5666926 -3.6289012e-16)
(98.986652 5.0800749 1.8139048e-16)
(99.377837 5.4442774 0)
(99.257558 5.9957713 0)
(99.682658 6.3925842 0)
(99.552919 6.9831745 1.8115511e-16)
(98.761386 1.6767651 0)
(98.979344 1.9128773 3.2433549e-16)
(98.889915 2.2785682 -4.8649235e-16)
(99.152083 2.5090745 1.6215711e-16)
(99.1012 2.9229565 1.6205498e-16)
(99.420214 3.1448335 -1.0053031e-19)
(99.422536 3.6067405 -3.2383884e-16)
(99.784851 3.8411187 3.2356346e-16)
(99.785511 4.3306848 -1.6168122e-16)
(99.686377 1.0481357 0)
(99.690906 1.2148776 1.4648793e-16)
(99.841204 1.4861011 -1.4648792e-16)
(99.826417 1.7045942 0)
(100.02626 1.9886541 -2.9266044e-16)
(100.00538 2.2942446 2.9269216e-16)
(100.27782 2.5328718 1.4610636e-16)
(100.25223 2.9697943 -2.9204115e-16)
(100.60892 3.1948138 1.4593475e-16)
(99.768422 0.29685735 0)
(99.760553 0.44247103 0)
(99.879722 0.52592196 0)
(99.87955 0.70342255 -1.3398107e-16)
(100.04516 0.78646485 2.6773994e-16)
(100.07674 1.0253061 -2.6766165e-16)
(100.30991 1.1276614 1.3381134e-16)
(100.35598 1.4174151 -1.3341999e-16)
(100.64455 1.5166561 2.6660254e-16)
(99.98682 0.21384767 -2.477445e-16)
(100.05642 0.24686712 4.9754454e-20)
(100.07213 0.34526661 1.2380414e-16)
(100.17846 0.38672469 -1.2365507e-16)
(100.21077 0.52852325 1.2368776e-16)
(100.3551 0.57015762 0)
(100.41623 0.75240013 1.2329575e-16)
(100.6121 0.7890316 -2.4643062e-16)
(100.72952 1.024694 1.2315646e-16)
(99.979316 -0.11416638 1.8478033e-20)
(99.996789 -0.12215106 1.1512756e-16)
(100.01946 -0.10643006 1.1514284e-16)
(100.06402 -0.118917 -1.1527543e-16)
(100.10484 -0.083987683 0)
(100.19132 -0.086608045 0)
(100.25462 -0.031113801 -1.1501132e-16)
(100.37258 -0.049845888 2.2988966e-16)
(100.45651 0.018496677 -1.1490713e-16)
(100.63841 0.026837156 0)
(100.75808 0.093275203 -1.1429799e-16)
(101.02845 0.1196271 2.841705e-19)
(101.20333 0.20443836 3.304181e-19)
(101.55535 0.26311468 3.7191776e-19)
(101.80819 0.34861252 1.1335153e-16)
(102.22659 0.42655313 1.1246281e-16)
(102.57346 0.52952444 -1.1246282e-16)
(103.09113 0.62635146 0)
(100.93978 1.0517045 0)
(101.20677 1.2864341 0)
(101.37496 1.4065877 -1.220313e-16)
(101.77119 1.5795158 3.9443173e-19)
(101.97817 1.7838918 4.4266528e-19)
(102.47566 1.9158661 1.2122248e-16)
(102.72908 2.2094855 1.201785e-16)
(103.33751 2.303395 -1.2017849e-16)
(103.666 2.6877586 0)
(100.72581 1.8599977 -1.3323659e-16)
(101.0785 1.96682 0)
(101.18915 2.3721943 0)
(101.6273 2.4870549 -1.320341e-16)
(101.77311 2.9611162 2.6369936e-16)
(102.29695 3.0951971 -4.5888566e-19)
(102.48872 3.6554441 -4.9850968e-19)
(103.10586 3.7789734 -1.3066009e-16)
(103.33477 4.4259993 0)
(100.64348 3.5667186 -1.4547423e-16)
(101.01102 4.0048916 1.4547419e-16)
(101.1408 4.2861001 0)
(101.48812 4.8217631 0)
(101.72989 5.1005574 1.4410667e-16)
(102.09594 5.7386194 -1.4410665e-16)
(102.43048 6.0103014 1.4311908e-16)
(102.8333 6.7274868 -7.1849814e-17)
(103.29786 7.012535 -7.1267947e-17)
(100.24123 4.6156927 -1.6133259e-16)
(100.21481 5.1664489 1.6129565e-16)
(100.69966 5.4672258 0)
(100.68945 6.0835762 0)
(101.24674 6.4361669 0)
(101.22686 7.1364144 0)
(101.82518 7.4969574 0)
(101.86514 8.3034851 0)
(102.47399 8.7028698 0)
(100.01388 7.4073474 -1.8117672e-16)
(99.880908 8.0338664 1.810088e-16)
(100.36669 8.4816249 -1.8099289e-16)
(100.22046 9.1375612 1.8079529e-16)
(100.73012 9.6247026 -1.8079737e-16)
(100.56697 10.337919 0)
(101.12263 10.862175 0)
(100.95046 11.645606 0)
(101.5697 12.232372 0)
(98.530445 8.3545785 0)
(98.415007 8.785182 -2.0776849e-16)
(98.747398 9.2115463 2.0776692e-16)
(98.572552 9.6881838 0)
(98.928925 10.183655 2.089234e-16)
(98.682174 10.715816 -2.0896786e-16)
(99.034107 11.321206 0)
(98.681137 11.913756 1.0503723e-16)
(99.029233 12.614225 -2.101205e-16)
(98.944271 11.387615 2.39137e-16)
(98.661292 11.750191 2.4141729e-16)
(98.710802 12.354231 -2.4141519e-16)
(98.305517 12.834803 2.4394004e-16)
(98.234471 13.422611 -4.8916637e-16)
(97.69714 13.725047 4.9156915e-16)
(97.605514 14.239839 -4.9349696e-16)
(97.001068 14.554498 2.4727493e-16)
(96.863788 15.141625 0)
(94.260456 9.3582161 -2.9087884e-16)
(93.39771 9.5459897 2.9088167e-16)
(92.718062 9.5789227 0)
(91.963296 8.8330647 0)
(91.59699 8.4330634 0)
(91.362764 8.0808079 0)
(91.26007 8.0056597 0)
(90.823566 7.8975237 -1.5434982e-16)
(90.565483 8.3297879 1.5454627e-16)
(89.408907 8.8067607 1.5816848e-16)
(95.996973 15.767517 0)
(98.563468 13.324731 1.0514714e-16)
(101.37288 13.111858 0)
(102.52523 9.596057 0)
(103.65558 7.8542538 0)
(104.07466 4.5898331 6.4410701e-17)
(104.38605 2.7119162 5.9075494e-17)
(103.55033 0.74616779 5.5324445e-17)
(88.818248 10.594879 -1.5869817e-16)
(95.915001 16.63459 0)
(98.957302 14.098704 0)
(102.06448 13.759045 8.9429634e-17)
(103.247 10.047633 0)
(104.37582 8.1307449 -7.0162136e-17)
(104.33638 5.2659408 -1.2845251e-16)
(104.77878 3.1792955 -1.1775572e-16)
(104.16722 0.85574332 -1.102693e-16)
(87.155763 11.325124 0)
(95.011227 17.855798 0)
(98.445016 14.974254 1.0546089e-16)
(101.85605 14.76131 -8.943041e-17)
(103.2835 11.039369 0)
(104.61048 9.0490758 7.0137988e-17)
(105.2255 5.5666125 6.403065e-17)
(105.65889 3.2525217 5.8671949e-17)
(104.76715 0.99383043 5.494485e-17)
(86.525356 12.96805 1.6388311e-16)
(94.977436 18.885518 0)
(98.92599 15.849389 -2.109902e-16)
(102.64961 15.476773 0)
(104.08293 11.497903 0)
(105.57748 9.3187982 -6.9175006e-17)
(105.54791 6.1540267 -6.3127841e-17)
(106.10884 3.7093068 0)
(105.50622 1.1205362 -5.4052824e-17)
(84.915954 13.303075 -1.6387763e-16)
(94.009097 20.242181 -1.2738491e-16)
(98.416441 17.025871 1.0549981e-16)
(102.43937 16.640058 0)
(104.24385 12.645598 0)
(105.86901 10.3627 6.9187109e-17)
(106.55143 6.6135267 6.3127813e-17)
(107.1548 3.8594948 0)
(106.24427 1.2795407 5.4052817e-17)
(84.397477 14.733352 0)
(94.067632 21.332177 1.2737077e-16)
(98.950672 17.985311 -1.0530768e-16)
(103.361 17.407765 0)
(105.058 13.116398 0)
(106.89915 10.594614 -6.7990255e-17)
(106.98042 7.1339065 -6.2030752e-17)
(107.68558 4.2836386 0)
(107.12056 1.4197937 -5.2966259e-17)
(82.782691 14.99762 0)
(93.136718 22.95035 0)
(98.459784 19.463296 1.0530757e-16)
(103.20532 18.796743 -4.3647133e-17)
(105.32431 14.389451 -3.8245008e-17)
(107.36567 11.762437 1.0165108e-16)
(108.08835 7.7673015 9.2729872e-17)
(108.89876 4.5157813 0)
(108.00866 1.5910667 7.9140744e-17)
(82.047013 17.053689 0)
(93.18875 24.273014 -6.4024084e-17)
(99.09876 20.521587 0)
(104.24963 19.580529 4.3637437e-17)
(106.28996 14.901393 3.8225905e-17)
(108.38905 11.97337 -3.8880218e-19)
(108.65375 8.1786506 -6.1045275e-17)
(109.51467 4.9760439 0)
(109.01902 1.7276031 -2.6174488e-17)
(79.660977 17.132195 -8.5203993e-17)
(92.274745 26.539909 6.4008561e-17)
(98.672876 22.496473 0)
(104.2579 21.302918 0)
(106.63244 16.449249 0)
(109.21561 13.274387 -6.6095693e-17)
(109.88686 8.9161039 3.8444538e-19)
(110.88123 5.2075006 0)
(110.05006 1.9082414 0)
(111.44312 2.0703074 0)
(111.60265 5.6763028 0)
(110.56505 9.3265582 -1.4237716e-18)
(110.08873 13.487879 3.446216e-17)
(107.80315 16.773706 0)
(105.44216 21.945102 -5.4199375e-18)
(99.627878 23.421777 -5.2626255e-19)
(92.526115 28.09428 -5.3198011e-17)
(79.485053 19.61622 1.6005816e-16)
(112.73667 2.1785729 -1.2458113e-17)
(113.12955 5.809734 -1.6983019e-18)
(112.06515 9.9093856 1.5075121e-17)
(111.24087 14.585071 -5.4119844e-20)
(108.37927 18.263667 -1.5898363e-17)
(105.74903 23.665854 2.060315e-17)
(99.654851 25.539931 -6.5690405e-18)
(91.831437 30.875993 6.9079981e-17)
(77.886433 24.734391 -8.2031e-17)
(114.07405 2.2694588 2.4922589e-17)
(113.9594 6.2032013 0)
(112.88805 10.280089 2.9324188e-17)
(112.26759 14.773995 -1.5877766e-17)
(109.85338 18.448501 1.6085842e-17)
(107.29538 24.170473 -3.8934791e-17)
(101.31673 26.282803 -3.1482534e-17)
(93.527104 32.238002 1.5758781e-17)
(80.16464 27.460622 1.9804959e-18)
(115.52503 2.3653266 -1.2485053e-17)
(115.70133 6.3729993 -1.6759841e-18)
(114.60684 10.930091 -1.2904758e-17)
(113.52622 15.997699 1.8132182e-17)
(110.79087 20.085386 6.7577597e-18)
(107.92747 26.025176 2.0887827e-17)
(101.84192 28.561487 2.5363557e-17)
(93.705119 34.949998 8.3511408e-18)
(80.281339 31.805623 -9.5620133e-18)
(117.09029 2.4674532 3.0113186e-18)
(116.65813 6.6505123 -3.2549563e-18)
(115.61234 11.116888 -1.8144472e-18)
(114.87039 15.994487 5.8799537e-18)
(112.38936 20.121248 -6.8257555e-18)
(109.74017 26.34293 -7.596612e-18)
(103.87903 29.065836 -6.5330048e-18)
(95.874403 35.987274 7.3772153e-18)
(82.884373 33.33159 -1.1323682e-17)
(118.74475 2.5712479 -3.0469624e-18)
(118.63916 6.9552868 3.2940878e-18)
(117.47242 11.944793 -1.7954663e-18)
(116.14327 17.364647 -1.5223788e-20)
(113.62477 21.774507 -2.1900143e-18)
(110.61103 28.232568 5.1561878e-18)
(104.73211 31.386319 -6.4844728e-18)
(96.39174 38.636896 7.3400464e-18)
(83.364659 37.053793 0)
(120.47879 2.6685208 -2.9142144e-18)
(119.71755 7.1270266 -1.6195859e-18)
(118.67373 11.902827 -1.728977e-18)
(117.82743 17.123876 -1.9766979e-18)
(115.42714 21.639468 -2.1860641e-18)
(112.53437 28.355554 5.2612548e-18)
(106.90683 31.664516 -1.2304971e-17)
(98.724876 39.394075 1.5506163e-17)
(86.063835 38.236791 -9.5036807e-18)
(122.28995 2.7548728 8.6614129e-18)
(121.89451 7.500702 6.2370327e-18)
(120.68225 12.802537 8.627081e-18)
(119.16507 18.579919 9.4396043e-18)
(116.77956 23.305727 6.6332478e-18)
(113.66454 30.22918 -2.4501812e-18)
(108.08118 33.975333 -6.3355583e-18)
(99.61473 42.04548 -9.3966308e-19)
(87.01049 42.074968 -1.0507882e-17)
(124.186 2.8263012 -1.6948865e-17)
(123.0754 7.5775154 -6.3149344e-18)
(121.99163 12.638129 -2.2115879e-17)
(120.98611 18.134846 -5.7748052e-18)
(118.72857 22.949729 1.4702449e-17)
(115.66912 30.119226 7.5144202e-18)
(110.32723 33.993206 -3.5327529e-17)
(102.21316 42.504807 7.1090269e-18)
(89.808082 43.039109 2.0504807e-17)
(91.258125 46.618384 -2.0043495e-17)
(103.48083 45.179894 7.9355675e-18)
(111.85982 36.216381 5.2362103e-17)
(117.07949 31.926958 -7.3737473e-18)
(120.26682 24.577796 3.6183101e-18)
(122.58928 19.57698 1.0826063e-17)
(124.19475 13.478988 1.5325387e-17)
(125.42256 7.9594596 -7.5733522e-19)
(126.16345 2.8815818 2.2882213e-17)
(93.889761 47.050713 7.7650155e-17)
(106.3592 45.461998 6.8543902e-18)
(114.16077 35.919796 -7.4025785e-17)
(119.1397 31.547677 -2.3275977e-18)
(122.23588 24.00688 -1.4751348e-17)
(124.4076 19.001529 -1.2966493e-17)
(125.62311 13.153545 -2.7438234e-17)
(126.7024 8.0046692 0)
(128.22235 2.9205707 -1.1012783e-17)
(95.917578 50.164046 -9.9459416e-17)
(107.90444 47.89809 6.8452201e-17)
(116.06232 37.982811 3.9838241e-17)
(120.82496 33.232141 -2.2767831e-18)
(123.99163 25.522271 3.1735887e-17)
(126.21933 20.352838 3.8419036e-20)
(127.91204 14.080714 4.2154616e-18)
(129.13821 8.3695351 2.1380344e-17)
(130.35285 2.9432996 2.045489e-17)
(98.051234 50.452898 -1.9245286e-17)
(110.981 47.990167 1.0814465e-17)
(118.39728 37.328105 -5.6305832e-18)
(122.8829 32.570061 0)
(125.97062 24.741529 -3.2236859e-17)
(128.07894 19.629267 0)
(129.48315 13.500658 2.395024e-17)
(130.61429 8.3714061 -4.3929413e-17)
(132.55035 2.9481245 -9.8250386e-19)
(100.99506 52.901252 -8.6322922e-18)
(112.84373 50.072204 -5.2726111e-17)
(120.58237 39.124013 5.4280108e-18)
(124.78451 34.058933 0)
(127.89763 26.126559 -3.1928804e-17)
(130.02393 20.924076 2.6432777e-17)
(131.90784 14.387183 1.5272561e-18)
(133.04383 8.6709861 4.4030905e-17)
(134.80093 2.9379087 -1.9960935e-17)
(102.76268 53.602551 -8.2097141e-17)
(116.04479 49.806869 -4.1946073e-17)
(123.02089 38.193453 -2.7593437e-19)
(126.77704 33.131254 -4.3239669e-18)
(129.86438 25.143054 -4.06028e-19)
(131.91228 20.036276 -5.2403565e-17)
(133.4823 13.695344 1.4803342e-18)
(134.6719 8.684456 -2.1816308e-17)
(137.09968 2.9016888 0)
(106.41003 55.290948 5.6411771e-17)
(118.21212 51.435534 6.1867746e-17)
(125.1562 39.443799 -2.0395324e-19)
(128.80868 34.394889 -4.1634518e-18)
(131.91988 26.386243 2.7880116e-17)
(133.97516 21.243327 2.764106e-17)
(136.03402 14.425442 1.4102365e-18)
(137.16819 8.9203657 -1.2922643e-18)
(139.43574 2.8453997 0)
(108.40336 55.950713 0)
(121.56378 50.827926 -5.5258056e-18)
(127.81155 38.383832 4.7113805e-18)
(130.71647 33.24676 -5.940289e-17)
(133.85832 25.237076 -1.7485049e-18)
(135.84753 20.236187 4.6382789e-17)
(137.68186 13.698978 -4.1119313e-17)
(138.84612 8.902972 3.8417051e-17)
(141.79622 2.7645807 3.261973e-17)
(112.4306 57.454555 1.1994064e-16)
(123.96692 51.898618 9.0439338e-17)
(129.7838 39.052756 -4.4395385e-18)
(132.79592 34.33522 6.265787e-17)
(135.93797 26.362645 -1.6720843e-18)
(138.00361 21.377993 -4.7210324e-17)
(140.13427 14.285024 4.4451074e-17)
(141.41605 9.0932539 -4.0145046e-17)
(144.15774 2.6821097 -2.229963e-18)
(146.71256 2.5487839 -3.0532978e-17)
(143.14342 8.9741881 3.3898378e-17)
(142.08314 13.50276 0)
(139.872 20.179711 -2.7769462e-18)
(137.884 25.042847 5.0992161e-17)
(134.63481 32.936298 5.2914638e-17)
(132.47123 37.654676 0)
(127.72773 50.888583 -8.7727648e-18)
(115.17899 57.552913 -1.1736067e-16)
(148.99721 2.349651 0)
(145.80312 9.0490174 -3.5065468e-17)
(144.29863 13.842443 0)
(142.21411 21.202968 -2.6712888e-18)
(140.09518 25.983374 -9.2365771e-17)
(136.81472 33.846472 -5.7630209e-17)
(134.48693 37.692854 6.0572159e-17)
(130.61854 51.020082 -6.4667353e-17)
(121.01485 58.613363 7.7459876e-17)
(151.25829 2.0789343 0)
(147.60876 8.7945555 0)
(146.55849 12.981172 -3.4308825e-17)
(144.12514 19.813832 0)
(142.11057 24.547835 4.7344067e-17)
(138.76338 32.346456 -4.9515779e-17)
(137.0505 35.9694 -5.54245e-17)
(134.54183 49.072872 -3.7117363e-18)
(124.98067 57.936025 -2.6328744e-17)
(153.50598 1.7681862 0)
(150.25066 8.7442531 0)
(148.62019 13.289266 3.5021003e-17)
(146.51977 20.762839 3.4780396e-17)
(144.23613 25.360429 4.2567615e-17)
(140.62608 33.15837 5.3998758e-17)
(138.55663 35.668461 0)
(136.84336 48.043401 4.5936476e-17)
(132.41374 57.969949 -7.782271e-17)
(155.66446 1.4422527 3.7178651e-19)
(152.05818 8.4037719 -4.084465e-19)
(150.79742 12.078555 0)
(148.42447 19.195807 -2.852052e-18)
(146.44773 23.969925 -8.7103982e-17)
(142.71687 31.85703 2.9793959e-18)
(140.59552 34.19078 5.3937471e-17)
(139.73824 45.155594 -5.0058558e-17)
(137.30074 56.288101 2.9303653e-17)
(157.71066 1.1020143 -3.3983567e-19)
(154.6603 8.331102 3.7398979e-19)
(153.12018 12.635105 0)
(150.78621 20.038459 -3.8310642e-17)
(148.42078 24.593556 4.6826931e-17)
(144.37343 32.664841 -2.8691709e-18)
(141.55331 34.003483 -5.5781726e-17)
(140.74883 42.962932 0)
(146.0435 55.078824 -2.6877034e-17)
(159.62776 0.74702581 3.0701819e-19)
(156.41918 7.8346827 2.1958835e-17)
(154.93421 11.013603 -8.8946346e-19)
(152.89778 18.39814 2.9910838e-17)
(150.85726 23.242766 3.8946077e-17)
(146.71427 31.661949 0)
(143.20472 33.219059 0)
(141.84059 39.037857 -5.3341865e-17)
(150.26705 52.742238 0)
(161.54442 0.29057401 0)
(158.87146 7.6292301 -2.2757353e-17)
(157.4141 11.591916 0)
(154.97152 18.913672 -3.3720688e-17)
(152.778 23.545421 -3.5426893e-17)
(148.44031 32.444997 4.064393e-17)
(143.97887 33.481611 0)
(141.17512 37.20189 5.5649372e-17)
(157.46391 49.449684 7.1475294e-17)
(162.56197 0.036749262 0)
(160.49801 7.029774 0)
(159.07879 9.7967284 -7.5367846e-19)
(157.3821 17.13545 -9.7755801e-19)
(155.64916 21.960085 2.0354789e-18)
(151.34767 31.439584 -4.1957001e-17)
(146.51319 34.226248 0)
(139.91766 33.315228 0)
(156.15004 41.614424 -7.5686847e-17)
(164.42896 -0.56166527 -3.9464143e-19)
(162.72462 6.8951768 -1.0474048e-19)
(161.29772 10.385101 1.8582507e-17)
(158.80241 17.57344 0)
(156.88478 22.183249 0)
(153.00258 32.062885 -2.2990218e-18)
(146.18893 35.327553 -4.3684302e-17)
(137.23107 36.205578 1.9983476e-18)
(163.6888 41.331427 0)
(165.97009 -0.60021569 -3.119822e-19)
(164.14121 6.8443701 -1.0284059e-19)
(162.77492 9.6282267 -1.6886363e-17)
(161.08277 17.491154 0)
(159.07348 23.344263 0)
(154.95541 33.297408 1.9658346e-18)
(147.03597 36.661837 1.1898727e-16)
(138.45845 36.25634 -1.820663e-18)
(161.27152 37.353519 -2.2540627e-16)
(167.44343 -0.54022154 0)
(165.98589 6.515861 1.9004228e-17)
(164.72513 10.066189 0)
(162.47917 18.05282 1.1145488e-18)
(160.26365 23.626689 -1.2165784e-18)
(156.17861 34.252941 -1.6980154e-18)
(147.39082 37.66386 -1.4074602e-16)
(137.51823 34.678553 1.6352707e-18)
(148.69972 33.144248 2.1336755e-16)
(168.3447 -0.86641584 6.3233361e-18)
(167.19626 6.4736035 -1.8212427e-17)
(166.3399 9.3344535 1.8721454e-17)
(164.65997 17.64809 2.5727984e-17)
(162.42047 24.759559 -3.2773793e-17)
(157.65974 35.764521 3.5425771e-17)
(146.33699 38.282435 6.7761068e-17)
(133.13448 34.103808 1.0496551e-16)
(130.97107 36.573853 0)
(168.95956 -1.2131511 -1.0055202e-17)
(168.86224 5.7939268 1.0282498e-17)
(167.84832 9.5047478 -1.8110603e-17)
(166.0607 18.256424 -4.6297656e-18)
(163.53997 25.06496 3.138114e-17)
(157.95254 36.665875 -5.7585498e-18)
(145.49891 38.828982 0)
(127.10456 30.282801 -1.0133574e-16)
(102.8597 50.188092 0)
(169.80814 -1.1122192 4.8259042e-18)
(169.85293 5.4463826 -9.8942477e-18)
(169.62023 8.7318243 9.8408321e-18)
(168.32123 17.696062 -1.996815e-17)
(165.69244 26.15878 -7.189376e-19)
(159.55755 38.208654 -2.7502491e-17)
(143.52867 41.217702 5.4976513e-17)
(118.62566 31.394231 6.2177569e-17)
(75.754083 50.669181 1.618938e-16)
(170.43805 -1.4387665 -1.275603e-18)
(171.27196 4.6768738 1.2862413e-19)
(170.90892 8.6182162 -9.2196397e-18)
(169.77675 18.004061 4.286483e-19)
(166.87948 26.266326 -4.623725e-19)
(159.77 39.068756 -1.6754911e-17)
(139.78271 41.099432 -1.0843253e-16)
(106.23726 24.343101 -5.8313741e-17)
(26.243898 6.7496832 -1.5357298e-16)
(170.50449 -1.9509539 -5.6734072e-22)
(171.84888 4.0891932 6.0729604e-22)
(172.49464 7.6531018 1.6211996e-18)
(172.09526 17.218182 4.5894232e-18)
(169.0908 27.202844 -8.4795228e-18)
(161.18884 40.726705 2.6593482e-17)
(134.27577 43.193953 1.058383e-16)
(84.345837 17.086805 3.8901642e-17)
(-22.900137 -29.679921 1.6936499e-16)
(170.40029 -2.2354687 -3.3325817e-18)
(173.10791 3.0433384 8.8182696e-21)
(173.72827 7.473563 -3.2513929e-18)
(173.60065 17.078394 -4.4503972e-18)
(170.43858 27.161286 8.0084768e-18)
(160.53666 41.494778 -1.0803516e-17)
(124.1396 42.09444 -5.0967696e-17)
(50.306215 5.3706071 -3.6579714e-17)
(-24.366548 -24.00282 -1.6142136e-16)
(-26.607599 -20.857723 -2.7021659e-16)
(24.90522 -13.541301 -7.3269557e-19)
(115.86671 43.585323 -5.9037984e-19)
(160.8151 42.673751 5.039263e-19)
(172.23367 27.88607 0)
(175.70557 16.101284 4.821158e-20)
(174.77835 6.1505117 6.4177288e-18)
(173.46921 2.1737929 4.8670134e-18)
(170.10966 -2.5639917 7.5798364e-18)
(-26.022874 -20.063662 2.6063671e-16)
(1.8530866 -28.710193 0)
(105.55106 42.203233 0)
(160.30697 43.361667 1.0316147e-17)
(173.7506 26.992757 0)
(177.04028 15.234765 -1.8144631e-17)
(175.77927 5.6590342 -1.9775406e-17)
(174.2351 0.87757912 -4.6259734e-18)
(169.57812 -2.8518726 5.4853486e-18)
(-25.453128 -19.668927 8.594477e-19)
(-13.448636 -34.595065 -6.9095464e-19)
(92.786664 41.213063 0)
(159.41009 43.562139 -1.004328e-17)
(175.25336 27.212118 0)
(178.94849 14.069222 1.793816e-17)
(176.55423 4.1225449 1.4543705e-17)
(174.37337 -0.052164103 1.7332783e-19)
(168.80839 -3.0966594 -9.6444058e-18)
(-23.198923 -18.101996 4.6111561e-16)
(-14.569589 -29.400817 3.3783661e-17)
(80.138298 38.06856 -5.8197001e-19)
(158.08319 43.577745 0)
(176.60154 25.979992 -3.307409e-17)
(180.03303 12.898347 0)
(177.27559 3.4211411 -1.6404775e-19)
(174.58882 -1.3962003 2.0708487e-19)
(167.82857 -3.3120161 -5.2041149e-20)
(-20.753264 -16.931344 -4.4414072e-16)
(-8.3253051 -15.865648 -1.3987229e-17)
(66.691703 35.803308 -9.7767163e-17)
(156.02188 44.085459 2.1591312e-19)
(177.89401 25.957224 -1.0420527e-17)
(181.8028 11.434948 0)
(177.86716 1.6940278 -2.7978334e-17)
(174.44363 -2.3282256 0)
(166.65672 -3.5008482 0)
(-19.545766 -14.878863 8.4065978e-19)
(-2.5874571 -5.9682107 -1.8522252e-17)
(57.513834 33.744323 1.7488133e-16)
(153.53587 43.652881 4.8565387e-17)
(178.90301 24.510681 4.2098824e-17)
(182.47499 10.046951 4.8872513e-17)