/*--------------------------------*- C++ -*----------------------------------*\
  =========                 |
  \\      /  F ield         | OpenFOAM: The Open Source CFD Toolbox
   \\    /   O peration     | Website:  https://openfoam.org
    \\  /    A nd           | Version:  11
     \\/     M anipulation  |
\*---------------------------------------------------------------------------*/
FoamFile
{
    format      ascii;
    class       volScalarField;
    location    "7.6";
    object      p;
}
// * * * * * * * * * * * * * * * * * * * * * * * * * * * * * * * * * * * * * //

dimensions      [0 2 -2 0 0 0 0];

internalField   nonuniform List<scalar> 
4455
(
140.42723
140.52536
140.72016
141.03479
141.44717
142.02538
142.69502
143.98212
144.34725
140.37327
140.48429
140.69768
141.0241
141.47281
142.08258
142.88612
144.16455
145.06036
140.26721
140.40208
140.63823
140.98492
141.4539
142.09635
142.92877
144.30898
145.29778
140.11389
140.28126
140.54408
140.91232
141.39745
142.07902
142.96566
144.44517
145.6551
139.9229
140.12549
140.41715
140.80664
141.31054
142.02971
142.9919
144.58432
146.09827
139.70172
139.94075
140.26078
140.66932
141.19638
141.95676
142.98623
144.71904
146.52376
139.45803
139.73295
140.07936
140.50389
141.05054
141.85066
142.94527
144.84339
146.97518
139.20191
139.5074
139.87717
140.31521
140.87901
141.71606
142.86549
144.94226
147.43043
138.94189
139.27035
139.65791
140.10773
140.68528
141.5586
142.76238
145.01744
147.90266
138.68496
138.4384
138.21038
138.00505
137.82516
137.673
137.55121
137.46194
137.40925
139.02714
138.78204
138.54212
138.31195
138.09617
137.89861
137.72235
137.56982
137.44059
139.42422
139.17821
138.92862
138.67946
138.4346
138.1979
137.97188
137.75904
137.55847
139.87955
139.62997
139.37124
139.10671
138.83786
138.56844
138.30178
138.0417
137.78413
140.46725
140.22056
139.96096
139.69056
139.40818
139.11828
138.82601
138.53983
138.25333
141.37613
141.15456
140.90807
140.6392
140.34249
140.02652
139.69401
139.35727
139.01434
142.64082
142.49024
142.31164
142.09334
141.80976
141.48024
141.11567
140.73852
140.35482
145.09342
145.06774
144.92026
144.6632
144.30017
143.86957
143.3917
142.88018
142.32776
148.51226
148.96355
148.8464
148.28011
147.44645
146.48897
145.48525
144.46729
143.44397
137.40398
137.38453
137.34198
137.28697
137.21605
137.13482
137.03362
136.92034
136.78377
137.36193
137.28708
137.19486
137.0854
136.95812
136.81399
136.65191
136.47186
136.27186
137.42655
137.32633
137.22178
137.10771
136.98016
136.83712
136.67728
136.50021
136.30506
137.59611
137.46661
137.34351
137.21344
137.06829
136.90502
136.72213
136.51975
136.29783
138.03254
137.89566
137.77964
137.6594
137.52093
137.36071
137.17826
136.97528
136.75362
138.73307
138.56417
138.4266
138.2827
138.11594
137.92238
137.70224
137.46054
137.20355
140.04126
139.85353
139.69948
139.52588
139.31854
139.07861
138.8115
138.52511
138.23094
141.81581
141.36396
140.90972
140.43389
139.93309
139.41126
138.87873
138.34911
137.85087
142.53326
141.71629
140.9001
140.10035
139.32257
138.57499
137.86449
137.19533
136.59309
136.17919
135.78439
135.66527
135.89014
136.4264
137.1455
137.95229
138.80844
139.70017
137.43045
137.07987
136.79032
136.57172
136.42771
136.36213
136.37776
136.49838
136.68768
137.95163
137.69499
137.45024
137.22294
137.01675
136.83565
136.68104
136.55531
136.45936
136.9416
136.68518
136.42608
136.16542
135.90403
135.64321
135.38388
135.12765
134.87548
136.52115
136.28365
136.03534
135.77653
135.50652
135.22554
134.93298
134.62962
134.31517
136.06047
135.8097
135.54158
135.25639
134.95381
134.63358
134.29482
133.93737
133.56016
136.09384
135.86651
135.61986
135.35322
135.06576
134.75661
134.42441
134.06825
133.68659
136.05279
135.81301
135.55237
135.27034
134.96723
134.64059
134.28909
133.90842
133.49929
136.61126
136.4023
136.1813
135.94631
135.69795
135.42436
135.12207
134.78813
134.42169
134.0189
133.582
133.10431
132.58753
132.02634
131.41907
130.75859
130.04755
129.27254
133.0599
132.58932
132.08155
131.53862
130.95952
130.3423
129.67667
128.96452
128.20316
133.27872
132.84249
132.37708
131.87988
131.3505
130.78478
130.18114
129.53421
128.84362
133.16332
132.74537
132.30646
131.84414
131.35857
130.84571
130.30519
129.73079
129.12203
133.99061
133.65509
133.3097
132.95212
132.58301
132.19753
131.79601
131.3709
130.92206
134.62985
134.391
134.15982
133.9344
133.71568
133.49746
133.27931
133.05126
132.81264
136.39424
136.35845
136.35294
136.37304
136.41823
136.47963
136.55569
136.63534
136.71576
136.94802
137.26969
137.64972
138.07915
138.55419
139.0664
139.61149
140.18023
140.76736
140.61991
141.56163
142.52587
143.51297
144.52913
145.57269
146.64822
147.75028
148.88212
150.03603
141.36082
136.78409
132.55038
130.43928
128.47061
128.10225
127.39116
128.43594
151.21264
141.9538
136.83563
132.26332
129.92215
127.77529
127.30757
126.51447
127.52698
152.40253
142.52717
136.85903
131.93539
129.3578
127.02511
126.45059
125.57392
126.54403
153.59973
143.07198
136.8449
131.56387
128.74539
126.21877
125.53083
124.56236
125.47344
154.77771
143.55872
136.77612
131.12866
128.06945
125.34349
124.53826
123.48205
124.31823
155.92239
143.97567
136.63872
130.62433
127.3285
124.39753
123.46999
122.31638
123.06202
156.94168
144.27789
136.41035
130.03621
126.50425
123.36622
122.31411
121.06538
121.70747
157.7944
144.4516
136.07118
129.35253
125.59227
122.24801
121.06899
119.71498
120.24665
158.23566
144.3993
135.58066
128.55028
124.57088
121.02853
119.72115
118.27128
118.69616
117.0664
116.71044
118.24016
119.68438
123.38943
127.57546
134.86153
144.0437
158.20158
115.42808
115.0316
116.59329
118.18856
121.97194
126.30802
133.63638
142.72276
155.29196
113.53597
113.23627
114.7948
116.53774
120.33527
124.76162
132.00308
140.92546
152.75173
111.39684
111.29541
112.84241
114.72757
118.50853
123.00566
130.15226
138.97038
150.44282
108.97327
109.19125
110.74445
112.76576
116.53084
121.10609
128.17578
136.93791
148.10183
106.42317
106.9418
108.505
110.66116
114.41388
119.0761
126.0862
134.78916
145.64248
103.70069
104.53925
106.10681
108.40863
112.15735
116.90265
123.86083
132.50476
143.09068
100.85455
101.99677
103.54859
106.00956
109.75412
114.57521
121.4883
130.06308
140.51487
97.790296
99.294296
100.83603
103.4566
107.19611
112.08273
118.95638
127.49118
137.90892
135.26534
124.77424
116.27187
109.4262
104.477
100.75569
97.952953
96.441175
94.570861
132.57309
121.9354
113.43598
106.60686
101.59252
97.894066
94.891597
93.436593
91.130353
129.83213
118.94743
110.45696
103.63058
98.545194
94.882542
91.682362
90.293437
87.551056
127.02515
115.82824
107.33349
100.49922
95.336171
91.720791
88.305261
86.996632
83.767914
124.14185
112.54542
104.07128
97.21787
91.978093
88.410865
84.788124
83.554697
79.853212
121.15261
109.12074
100.66897
93.788446
88.467489
84.953914
81.129482
79.969115
75.768068
118.04656
105.52201
97.135565
90.215481
84.825902
81.358159
77.363137
76.266261
71.592827
114.79518
101.78083
93.475555
86.501612
81.04967
77.621292
73.47479
72.43867
67.296275
111.38885
97.862911
89.693452
82.643051
77.148256
73.768096
69.516552
68.522623
63.000566
58.793567
64.471284
65.446773
69.722983
73.023778
78.498828
85.598898
93.52109
107.44201
54.770728
60.311489
61.310198
65.480845
68.674923
74.007732
81.120283
88.514232
102.63861
50.541305
56.082761
57.144232
61.135463
64.220898
69.374127
76.531866
83.437142
97.382603
46.22495
51.861557
52.976022
56.753098
59.719072
64.637557
71.883537
78.300385
91.676318
41.928136
47.656108
48.815781
52.365618
55.17708
59.824921
67.213375
73.313543
85.387989
37.92163
43.524116
44.723887
48.026406
50.660611
54.950653
62.557285
68.506562
78.309089
34.107599
39.490168
40.721775
43.75821
46.182231
50.020693
57.925367
64.226584
70.001365
30.660545
35.623586
36.865321
39.616878
41.824238
45.051339
53.257713
60.618113
60.512815
27.021733
31.977654
33.171123
35.632082
37.653348
40.083208
48.570027
58.108125
50.577104
23.630304
28.59687
29.625512
31.774658
33.540031
34.998817
43.212566
56.82638
43.854138
20.963162
25.500486
26.258563
27.966019
29.554394
30.217665
38.472661
56.562925
40.145406
18.999125
22.620089
23.140655
24.215838
25.758348
25.960275
34.921671
55.211906
41.40953
17.460899
19.931292
20.295873
20.410054
21.99145
21.439601
31.971418
52.858078
52.784616
16.27358
17.436565
17.723135
16.512325
18.135402
16.423587
29.058397
48.661969
50.885671
15.484322
15.1194
15.418615
12.549256
14.115328
10.990226
25.757419
45.55013
45.875071
15.079267
12.984898
13.333044
8.6031048
9.9009016
5.2708558
22.471844
45.976623
46.316011
15.069926
11.088244
11.473865
4.7370893
5.5521549
-0.43916431
19.867251
43.473684
44.049096
15.444389
9.4951755
9.7928346
1.0189952
1.0762394
-6.4840506
17.633927
40.82105
43.502781
43.192508
40.137359
16.073579
-11.479794
-3.1485341
-2.2909701
8.4187127
8.3214088
16.17334
42.997676
39.552799
13.117004
-16.445168
-6.9433516
-5.1189357
7.3171728
7.5525221
17.31393
42.659801
38.833895
9.6181578
-21.476673
-10.666425
-7.6513558
6.5388443
7.1767001
18.80761
42.102188
36.897405
5.8376093
-26.0889
-14.27785
-9.9335038
6.0138464
7.1583182
20.652297
41.351232
34.974712
1.8140844
-30.665922
-17.819041
-11.953363
5.7695824
7.4972822
22.756946
40.450244
33.018451
-2.4760407
-34.960398
-21.27898
-13.705243
5.7443678
8.1761587
25.128488
39.61266
31.125417
-6.8535774
-39.284573
-24.657636
-15.136937
5.9901182
9.2083129
27.68926
38.41361
29.281262
-11.141715
-43.240592
-27.865777
-16.200989
6.4756772
10.588477
30.427597
37.799754
27.96246
-15.365359
-47.402479
-31.232799
-16.784256
7.2574353
12.365618
33.613707
37.001324
24.552154
-21.081529
-52.766771
-34.883934
-16.702017
9.1653221
16.058611
39.298037
34.562803
16.520493
-37.612616
-64.515966
-38.372155
-14.1665
13.513797
22.515774
47.093338
32.548911
8.2371241
-46.507831
-72.694875
-38.829194
-9.4760811
19.349485
30.107762
54.875546
31.54347
-0.83584192
-61.250307
-79.850717
-36.313437
-2.6901648
26.179491
38.321532
62.342977
28.768798
-10.172879
-70.141129
-84.66383
-31.145307
5.1196085
33.283914
46.713975
69.248623
24.465974
-19.245801
-82.098596
-87.440453
-23.706244
13.831609
40.568173
55.029526
75.226938
19.547015
-27.93236
-90.379006
-87.252201
-14.26368
22.668372
47.70132
62.942405
80.263659
14.520371
-36.239727
-98.80922
-84.329556
-3.1525027
31.503166
54.627683
70.317441
84.301277
9.7445143
-44.58132
-103.2731
-76.733661
8.9103548
39.48667
61.018514
76.808451
87.364984
16.817769
-27.635681
-98.270099
-73.244453
10.463285
59.788949
77.922918
89.663875
104.609
16.712609
-27.859052
-99.347955
-73.892873
9.8007263
59.906901
77.622838
88.823716
104.05282
16.554689
-28.164344
-102.3024
-74.158099
8.3762431
59.681177
77.354147
87.969523
103.18029
16.286336
-28.902696
-104.71175
-76.810159
6.4127017
58.987856
76.702412
86.968804
102.26967
15.983738
-29.397997
-106.9955
-80.456803
3.7613555
57.956956
75.765953
85.841251
101.37065
15.558448
-30.523026
-109.85185
-84.48821
-0.13769084
56.507889
74.473812
84.708108
100.51373
15.128402
-31.589682
-112.50192
-87.842168
-3.3889113
54.648749
73.048533
83.504619
99.740999
14.757759
-33.181177
-114.13499
-90.162547
-5.5856127
52.64584
71.538677
82.045428
99.150625
14.513566
-34.810391
-115.24537
-91.787384
-6.6202419
50.714117
70.032948
81.400599
98.145712
9.7301773
-44.61892
-103.31564
-76.728169
8.9409346
39.493911
61.024314
76.810711
87.365774
14.507935
-36.27564
-98.853038
-84.329208
-3.1247512
31.512545
54.634089
70.320601
84.302447
19.536781
-27.96638
-90.428088
-87.258824
-14.240257
22.679139
47.70849
62.946489
80.265352
24.457439
-19.276956
-82.145649
-87.453785
-23.687606
13.842829
40.575911
55.034556
75.229274
28.761578
-10.20046
-70.19066
-84.684157
-31.131895
5.1303335
33.292037
46.719769
69.251655
31.537364
-0.86014707
-61.29757
-79.8767
-36.305321
-2.6809871
26.187373
38.327925
62.346739
32.545455
8.2172348
-46.553107
-72.724925
-38.826864
-9.469401
19.356733
30.114289
54.879951
34.562583
16.505272
-37.656017
-64.548232
-38.374981
-14.162624
13.519617
22.522046
47.098204
37.003275
24.540758
-21.119319
-52.801256
-34.890866
-16.700935
9.169472
16.064045
39.303081
16.174838
8.3200588
8.4158019
-2.2981366
-3.1612758
-11.501697
16.054916
40.137295
43.198697
17.316033
7.5519095
7.3148334
-5.1256427
-6.956256
-16.468411
13.096566
39.552679
43.003579
18.810308
7.1769192
6.5371536
-7.657454
-10.679327
-21.50127
9.5961303
38.831279
42.665025
20.65553
7.1593064
6.0128691
-9.9388818
-14.290617
-26.115074
5.8136576
36.893061
42.106378
22.760639
7.4990181
5.7693391
-11.957934
-17.831554
-30.693816
1.7883074
34.969663
41.354881
25.132566
8.1786444
5.7448639
-13.70893
-21.291073
-34.989947
-2.5036518
33.011724
40.453465
27.693655
9.2115241
5.9913622
-15.139675
-24.669181
-39.315832
-6.8830609
31.11794
39.615418
30.432231
10.592363
6.4776965
-16.202728
-27.876564
-43.273212
-11.17293
29.272194
38.41641
33.618533
12.370125
7.2602407
-16.784931
-31.241981
-47.436522
-15.398926
27.952619
37.802998
43.509365
40.821079
17.616241
-6.5045402
1.0639044
1.0114944
9.7893783
9.4932407
15.445202
44.056515
43.471691
19.850553
-0.45787406
5.5403549
4.7293704
11.469899
11.085688
15.069887
46.321515
45.976802
22.45582
5.2539403
9.8896929
8.5952558
13.328675
12.981679
15.078559
45.881521
45.550443
25.74197
10.975055
14.104745
12.541357
15.413887
15.115746
15.483455
50.887091
48.66157
29.044116
16.409784
18.125421
16.504489
17.718049
17.432674
16.271776
52.789665
52.857264
31.958448
21.426832
21.982039
20.402384
20.2905
19.926908
17.458373
41.415151
55.210524
34.909621
25.948486
25.74944
24.208418
23.13502
22.615385
18.996326
40.148557
56.560448
38.461434
30.206814
29.545928
27.958811
26.252737
25.495505
20.959574
43.856231
56.823133
43.202859
34.988914
33.531896
31.767616
29.619586
28.591554
23.626544
58.788988
64.466798
65.442276
69.7187
73.019939
78.495997
85.597751
93.521435
107.44239
54.765971
60.306761
61.305394
65.476148
68.670557
74.004386
81.118815
88.514614
102.63925
50.53639
56.077814
57.139139
61.130346
64.21602
69.370174
76.52996
83.437561
97.383513
46.219915
51.856416
52.970666
56.747592
59.713663
64.632909
71.881076
78.300727
91.677586
41.923013
47.650828
48.810187
52.359743
55.171113
59.819492
67.210199
73.313708
85.389598
37.916502
43.518739
44.718093
48.020188
50.654091
54.944379
62.553191
68.506348
78.311083
34.102511
39.484767
40.715843
43.751692
46.175187
50.01351
57.920168
64.225796
70.003917
30.655554
35.618223
36.85932
39.610122
41.816726
45.043228
53.251239
60.616462
60.515758
27.017537
31.972317
33.165128
35.625173
37.645478
40.074198
48.562083
58.105325
50.579741
111.38904
97.863177
89.692483
82.640594
77.144819
73.764155
69.512364
68.518382
62.996185
114.79522
101.78099
93.474688
86.499444
81.046522
77.61765
73.470882
72.434677
67.292112
118.04648
105.52206
97.134782
90.213564
84.823084
81.354827
77.359507
76.262517
71.588892
121.15243
109.12071
100.66824
93.786733
88.464965
84.950872
81.126122
79.965614
75.764377
124.14159
112.5453
104.07058
97.216314
91.975804
88.408053
84.785011
83.551428
79.849759
127.02481
115.82806
107.33281
100.4978
95.33408
91.718183
88.302361
86.993578
83.76469
129.83175
118.94716
110.45629
103.62925
98.543266
94.880143
91.67968
90.290585
87.548048
132.57266
121.93506
113.43531
106.60561
101.59073
97.891841
94.889114
93.43393
91.12755
135.26487
124.77384
116.27119
109.42502
104.47533
100.75361
97.950619
96.438679
94.568248
117.06492
116.70894
118.23875
119.68306
123.38829
127.57449
134.86079
144.04305
158.20106
115.42651
115.03003
116.59181
118.18719
121.97078
126.30705
133.63564
142.72211
155.29142
113.53431
113.23462
114.79325
116.53632
120.33407
124.76064
132.00235
140.92483
152.75121
111.39509
111.29368
112.84079
114.72609
118.50728
123.00466
130.15154
138.96976
150.44229
108.97141
109.18942
110.74276
112.76421
116.52955
121.10508
128.17507
136.93732
148.10129
106.42118
106.93986
108.50319
110.65953
114.41253
119.07506
126.08549
134.7886
145.64196
103.69857
104.53719
106.10488
108.4069
112.15594
116.90159
123.86013
132.50424
143.09014
100.85228
101.99457
103.54655
106.00774
109.75264
114.57412
121.4876
130.06259
140.51437
97.787864
99.291948
100.83384
103.45465
107.19454
112.0816
118.9557
127.49073
137.90843
118.69474
120.24531
121.70618
123.06079
124.31704
125.4723
126.54293
127.52592
128.43491
118.26984
119.7136
121.06406
122.31511
123.48082
124.56118
125.57277
126.51336
127.39007
119.71979
121.06768
122.31284
123.46877
124.53707
125.52967
126.44947
127.30648
128.10119
121.02725
122.24677
123.36501
124.39634
125.34233
126.21764
127.02399
127.7742
128.46954
124.56976
125.59117
126.50317
127.32743
128.0684
128.74435
129.35676
129.92113
130.43827
128.54931
129.35156
130.03524
130.62336
131.12769
131.5629
131.93442
132.26234
132.54941
135.5799
136.07041
136.40956
136.63792
136.7753
136.84407
136.85818
136.83478
136.78322
144.39862
144.45091
144.27719
143.97495
143.55798
143.07122
142.5264
141.953
141.36001
158.2351
157.79384
156.94112
155.92181
154.77712
153.59912
152.4019
151.21199
150.03536
129.27155
128.20211
128.84258
129.12099
130.92106
132.81167
136.71488
140.76653
148.88142
130.04659
128.9635
129.5332
129.72976
131.36991
133.05029
136.63445
140.17937
147.74956
130.75766
129.67568
130.18016
130.30418
131.79503
133.27834
136.55479
139.61061
146.64747
131.41817
130.34133
130.78382
130.84472
132.19656
133.49649
136.47871
139.0655
145.57192
132.02546
130.95858
131.34956
131.35759
132.58205
133.71471
136.41732
138.55328
144.52834
132.58667
131.5377
131.87896
131.84318
132.95117
133.93344
136.37211
138.07822
143.51216
133.10347
132.08065
132.37618
132.30553
133.30877
134.15887
136.35201
137.64878
142.52502
133.58118
132.58845
132.84161
132.74445
133.65416
134.39005
136.35751
137.26873
141.56076
134.0181
133.05905
133.27787
133.16243
133.9897
134.62891
136.3933
136.94704
140.61901
136.61061
136.0521
136.09313
136.05974
136.52038
136.94078
137.95074
137.42943
136.17807
136.40164
135.81231
135.86579
135.80895
136.28287
136.68434
137.69409
137.07883
135.7833
136.18062
135.55165
135.61913
135.54082
136.03454
136.42523
137.44932
136.78928
135.66419
135.94562
135.2696
135.35247
135.25561
135.77571
136.16455
137.22202
136.57068
135.88907
135.69725
134.96648
135.06499
134.95301
135.50568
135.90314
137.01582
136.42666
136.42537
135.42364
134.63982
134.75583
134.63276
135.22469
135.64231
136.83472
136.36108
137.14449
135.12133
134.2883
134.42361
134.29398
134.93211
135.38297
136.6801
136.37673
137.95131
134.78737
133.90761
134.06743
133.93651
134.62874
135.12673
136.55437
136.49736
138.80748
134.42092
133.49846
133.68575
133.55928
134.31428
134.87455
136.45841
136.68668
139.69924
136.59194
137.84985
138.23006
137.20275
136.75287
136.29712
136.30438
136.27119
136.78314
137.19419
138.3481
138.52424
137.45976
136.97455
136.51905
136.49954
136.4712
136.91971
137.86335
138.87772
138.81066
137.70148
137.17755
136.72145
136.67662
136.65126
137.03301
138.57385
139.41026
139.07778
137.92163
137.36002
136.90435
136.83648
136.81335
137.13421
139.32142
139.9321
139.31773
138.11521
137.52025
137.06764
136.97952
136.9575
137.21544
140.0992
140.43291
139.52509
138.282
137.65874
137.2128
137.10709
137.08479
137.28637
140.89895
140.90877
139.69873
138.42591
137.779
137.34289
137.22117
137.19426
137.34138
141.71514
141.36303
139.8528
138.56351
137.89503
137.466
137.32573
137.28648
137.38394
142.53212
141.8149
140.04055
138.73243
138.03193
137.59551
137.42596
137.36134
137.40339
143.44284
142.32688
140.35414
139.01372
138.25274
137.78355
137.55789
137.44001
137.40866
144.46617
142.87932
140.73787
139.35667
138.53926
138.04113
137.75847
137.56925
137.46135
145.48415
143.39087
141.11503
139.69344
138.82546
138.30123
137.97133
137.72179
137.55063
146.48789
143.86877
141.47964
140.02597
139.11775
138.56791
138.19737
137.89806
137.67243
147.44539
144.2994
141.8092
140.34196
139.40768
138.83735
138.43408
138.09564
137.8246
148.2791
144.66248
142.09282
140.6387
139.69008
139.10622
138.67897
138.31144
138.00451
148.84548
144.91961
142.31117
140.90761
139.96051
139.37079
138.92815
138.54163
138.20986
148.96283
145.06716
142.48982
141.15413
140.22014
139.62954
139.17777
138.78158
138.43791
148.5118
145.09293
142.64044
141.37574
140.46686
139.87916
139.42381
139.02671
138.68449
140.4272
140.52533
140.72014
141.03476
141.44714
142.02536
142.695
143.98211
144.34724
140.37318
140.48421
140.6976
141.02402
141.47274
142.08252
142.88606
144.16449
145.06033
140.26706
140.40195
140.6381
140.98481
141.45379
142.09624
142.92867
144.30889
145.29773
140.11368
140.28107
140.54391
140.91216
141.39729
142.07887
142.96551
144.44504
145.65501
139.92263
140.12525
140.41693
140.80644
141.31034
142.02952
142.99171
144.58414
146.09818
139.70141
139.94047
140.26052
140.66908
141.19614
141.95653
142.98601
144.7188
146.52362
139.45768
139.73263
140.07907
140.50361
141.05026
141.85038
142.945
144.8431
146.975
139.20151
139.50704
139.87683
140.31489
140.8787
141.71575
142.86519
144.9419
147.43019
138.94145
139.26995
139.65754
140.10738
140.68493
141.55825
142.76204
145.01701
147.90235
147.2323
147.92824
148.62665
149.44934
150.39331
151.41217
152.50555
153.6373
154.71072
147.92826
148.56917
149.29841
150.15307
151.11631
152.13996
153.21826
154.32994
155.37987
148.62669
149.29843
150.0664
150.94106
151.90356
152.91872
153.97952
155.0742
156.13928
149.4494
150.15312
150.94109
151.81185
152.7585
153.75706
154.80184
155.89505
157.00418
150.39343
151.11642
151.90364
152.75855
153.67725
154.65688
155.68972
156.79677
157.9764
151.41236
152.14014
152.9189
153.7572
154.65697
155.62709
156.66709
157.81552
159.06377
152.50584
153.21856
153.97983
154.80212
155.68995
156.66725
157.72396
158.94136
160.31093
153.6378
154.33045
155.07472
155.89556
156.79725
157.81595
158.94171
160.18446
161.55199
154.71153
155.3807
156.14014
157.00507
157.97731
159.06466
160.31187
161.55263
163.32043
167.64926
164.2715
163.08111
161.25406
159.92057
158.65112
157.58154
156.65235
155.896
157.73324
158.75916
158.71542
158.64774
158.31287
157.81274
157.24183
156.58313
155.89755
154.13367
154.66953
154.79572
155.01925
155.04076
154.98524
154.86172
154.62968
154.26966
151.75795
152.07193
152.04831
152.2279
152.24066
152.27103
152.24138
152.20512
152.04799
149.99641
150.18092
150.16104
150.24185
150.21796
150.21694
150.18469
150.17481
150.1053
148.3953
148.52005
148.46574
148.55073
148.48757
148.51342
148.44394
148.4304
148.35911
146.97178
147.01302
146.97415
146.99762
146.95026
146.93504
146.88803
146.85394
146.8003
145.59917
145.59243
145.52093
145.53827
145.45489
145.45415
145.37717
145.35058
145.28083
144.29165
144.22392
144.15506
144.10093
144.02708
143.9673
143.90849
143.85583
143.79406
142.40223
141.03096
139.53291
137.80876
135.84448
133.29053
130.24089
126.56315
123.74306
142.48256
141.1021
139.58469
137.83344
135.78168
133.21269
130.02936
126.44807
122.96814
142.50366
141.12334
139.56211
137.78968
135.65206
133.05132
129.76342
126.0767
122.0443
142.58625
141.16595
139.62542
137.78183
135.64936
132.9138
129.55549
125.53604
121.05035
142.6106
141.21961
139.62518
137.81441
135.59753
132.8521
129.33574
125.05408
120.09681
142.71071
141.28418
139.69836
137.85042
135.62511
132.8077
129.22524
124.55146
119.23561
142.74785
141.35884
139.74995
137.94395
135.66315
132.89414
129.17373
124.35967
118.38094
142.83327
141.41164
139.81591
137.9741
135.73023
132.87559
129.18784
124.11772
119.7262
142.94929
141.54946
139.95584
138.16874
135.9158
133.19939
129.37008
124.42571
117.11762
124.28175
126.92883
130.10555
132.36055
133.86724
135.28089
136.64877
137.99465
139.27919
123.12147
126.07283
129.72822
132.11128
133.68568
135.17534
136.62558
138.0107
139.32141
121.74259
125.31056
129.42799
131.86375
133.46947
135.0052
136.50702
137.93262
139.26666
119.89794
124.48047
129.18087
131.68479
133.3987
135.00509
136.5619
137.99866
139.34044
117.57538
123.42108
128.68312
131.22389
133.03565
134.75114
136.38684
137.87602
139.24724
114.82334
123.29177
128.87966
131.29405
133.15457
134.885
136.51633
137.98686
139.34826
109.26203
121.5808
128.23791
130.66974
132.73225
134.61966
136.33935
137.85205
139.24278
105.22256
122.05929
128.71859
130.88949
132.90581
134.77374
136.46503
137.95486
139.32834
94.563631
120.5389
128.3086
130.52793
132.68622
134.65064
136.38435
137.88367
139.27436
140.53132
141.75116
143.0026
144.2723
145.60309
146.96575
148.40154
149.91155
151.53567
140.56864
141.79916
143.0451
144.3276
145.6556
147.03734
148.47972
150.01177
151.63995
140.53246
141.78067
143.04215
144.3418
145.68031
147.0791
148.53048
150.08069
151.72303
140.59584
141.85128
143.10836
144.41478
145.75191
147.15938
148.61551
150.17964
151.83115
140.52329
141.79843
143.07368
144.39408
145.74449
147.16652
148.64027
150.22353
151.8916
140.60938
141.87719
143.14329
144.46126
145.80816
147.23222
148.70522
150.29299
151.96473
140.52676
141.81483
143.10038
144.43302
145.79157
147.22608
148.71032
150.31089
151.9937
140.60237
141.87983
143.15881
144.48495
145.84135
147.27338
148.75777
150.35802
152.04255
140.55752
141.84552
143.12948
144.46404
145.82215
147.26049
148.74585
150.35241
152.03856
153.27145
155.15231
157.17188
159.34245
161.64558
164.10601
166.65554
169.32948
171.23796
153.40139
155.29254
157.35119
159.56281
161.95377
164.51508
167.2233
170.02945
172.09107
153.51113
155.42578
157.52511
159.78129
162.25832
164.9241
167.77854
170.68089
172.9468
153.63897
155.56913
157.70396
159.99216
162.54075
165.27249
168.25244
171.2657
173.79533
153.71947
155.66919
157.83333
160.15344
162.7589
165.55304
168.66521
171.80606
174.63842
153.80309
155.76353
157.95012
160.29184
162.94552
165.78724
169.0356
172.2967
175.46885
153.84767
155.81829
158.02563
160.3831
163.07876
165.95224
169.32735
172.71206
176.29184
153.89955
155.87297
158.09146
160.45658
163.18322
166.07377
169.56711
173.03013
177.25973
153.90148
155.88114
158.10485
160.48181
163.21519
166.13361
169.68041
173.23255
177.39744
172.16676
165.06328
162.05063
158.93148
155.74864
152.65354
149.66663
146.76027
143.91216
173.32921
165.87174
162.77195
159.5182
156.25943
153.08573
150.08448
147.13214
144.26962
174.43024
166.60735
163.44101
160.10989
156.77542
153.54917
150.5188
147.54618
144.6695
175.54838
167.28278
164.03482
160.58315
157.23566
153.93927
150.91129
147.88341
145.01597
176.72139
168.12888
164.74729
161.20393
157.78338
154.47667
151.39732
148.37897
145.4758
177.88729
168.69243
165.22942
161.58597
158.15682
154.76548
151.6863
148.60914
145.71374
179.31347
169.76258
165.99392
162.28732
158.8075
155.3845
152.27671
149.18574
146.28322
180.05914
170.03844
166.21797
162.45563
158.97372
155.50769
152.39438
149.28014
146.37469
182.52005
171.67223
167.20565
163.31665
159.78553
156.26531
153.11237
149.96641
147.04867
141.05308
138.18643
135.29544
132.37445
129.41081
126.39482
123.30982
120.14943
116.90392
141.3768
138.51571
135.59714
132.68818
129.70184
126.69721
123.59443
120.44121
117.17857
141.78011
138.91519
136.00732
133.09636
130.12417
127.12202
124.03891
120.89795
117.65792
142.08557
139.23678
136.30276
133.40554
130.41862
127.42665
124.33863
121.2039
117.96887
142.5562
139.69078
136.76275
133.86575
130.87652
127.90119
124.80166
121.70317
118.44133
142.76094
139.90834
136.96633
134.07571
131.08663
128.10825
125.0252
121.91101
118.69316
143.31866
140.47331
137.51851
134.64586
131.64102
128.69532
125.58729
122.52984
119.24957
143.40196
140.55416
137.60325
134.72398
131.73134
128.77126
125.68788
122.60316
119.38633
144.05784
141.21474
138.25266
135.3895
132.38747
129.45379
126.36052
123.31996
120.0577
113.18003
108.89883
104.5334
99.993526
95.380938
91.062769
86.963387
81.109898
73.422493
113.50401
109.31671
105.04329
100.63539
96.125798
91.987769
88.269829
83.20752
76.529845
114.02666
109.93153
105.77928
101.45148
97.154068
92.932252
89.479489
84.390962
79.091894
114.41138
110.43872
106.37878
102.16182
97.929233
93.810413
90.646566
87.348589
81.525418
114.95148
111.01963
107.14439
102.95891
98.909992
94.668774
91.851431
87.386445
89.859312
115.25181
111.50053
107.62953
103.62317
99.484084
95.385352
91.837357
91.297007
90.189988
115.91124
112.18828
108.59485
104.60998
100.74042
96.501205
93.251427
87.59403
111.67358
116.05736
112.49211
108.82609
105.05375
101.05161
96.932809
92.19596
89.810225
100.83294
116.86062
113.41803
110.04479
106.39743
102.7896
98.803247
96.288745
78.657169
139.37215
54.068154
40.485119
41.906873
39.547881
37.54615
41.840919
44.349806
44.977518
44.342249
55.275912
39.811941
42.05225
40.249806
40.550165
42.59341
44.582164
45.042355
44.470703
55.624531
38.920124
42.468477
40.116463
39.635974
42.831576
44.761595
45.115181
44.590606
53.888603
37.313957
43.236154
40.163723
41.488347
43.236356
44.910293
45.276035
44.706301
49.199472
35.234095
43.862099
40.349243
41.427938
43.639899
45.084487
45.403164
44.854734
43.909463
35.757054
45.160287
39.98692
42.159792
44.093367
45.20105
45.572029
44.98803
46.234345
47.801244
43.144817
40.748004
42.54059
44.445205
45.336797
45.707771
45.114422
46.245406
32.649867
43.786618
40.186275
42.861714
44.715393
45.415465
45.828368
45.19589
-29.187857
55.425242
41.212751
41.01205
43.758927
44.992867
45.54835
45.899232
45.2339
43.017091
41.4818
39.367969
36.847164
34.495711
31.400878
28.902602
20.455799
24.54173
43.261401
41.696438
39.443007
36.975503
34.493309
30.810681
27.886076
20.566361
25.660416
43.326128
41.634433
39.349619
36.689034
34.02162
30.038916
26.531042
20.825875
25.77435
43.426952
41.707039
39.263978
36.518811
33.62609
29.570564
25.818577
20.980351
27.634457
43.563676
41.751622
39.200519
36.353615
33.221984
29.118617
25.29897
22.955903
29.473001
43.670333
41.828409
39.165251
36.172265
32.884025
28.786857
25.24544
24.770415
31.289658
43.772982
41.841625
39.069914
35.898989
32.480359
28.430089
25.726634
26.899192
33.78659
43.835125
41.878537
39.03345
35.770865
32.263548
28.504067
25.948802
28.182207
34.771393
43.84265
41.748742
38.74354
35.268341
31.638635
28.020284
26.578927
30.586929
37.63939
24.339652
24.91062
25.133313
28.134392
30.905371
34.418583
33.484531
30.605373
27.85464
25.287331
24.499039
23.855376
26.870753
30.599933
34.510733
34.628694
32.718344
31.315413
26.229481
24.796706
24.737655
26.839859
30.331033
33.975681
35.148332
34.57777
34.125738
27.75354
24.434767
23.894496
25.85332