/*--------------------------------*- C++ -*----------------------------------*\
  =========                 |
  \\      /  F ield         | OpenFOAM: The Open Source CFD Toolbox
   \\    /   O peration     | Website:  https://openfoam.org
    \\  /    A nd           | Version:  11
     \\/     M anipulation  |
\*---------------------------------------------------------------------------*/
FoamFile
{
    format      ascii;
    class       volVectorField;
    location    "7.6";
    object      U;
}
// * * * * * * * * * * * * * * * * * * * * * * * * * * * * * * * * * * * * * //

dimensions      [0 1 -1 0 0 0 0];

internalField   nonuniform List<vector> 
4455
(
(99.987053 0.13232812 0)
(99.955087 0.60188782 -1.5126193e-18)
(99.686206 1.110543 5.1994008e-18)
(99.49437 1.9888308 2.5875983e-20)
(98.892697 2.7568658 4.9075163e-18)
(98.5801 4.0420501 -1.8563553e-17)
(97.555912 5.3547949 8.278549e-18)
(96.519491 7.1918026 0)
(94.136288 10.36553 -5.1177739e-17)
(99.990722 0.16772838 -9.7872956e-18)
(99.99973 0.70150778 9.5607032e-18)
(99.711984 1.2596244 -1.1787682e-17)
(99.526315 2.1769792 1.9705598e-17)
(99.021344 3.0279065 -3.7918906e-17)
(98.560312 4.3066693 4.1476095e-17)
(97.711491 5.6364698 -3.9924307e-18)
(96.564918 7.6484377 5.8249662e-18)
(93.854921 10.277633 2.2336523e-16)
(100.04166 0.20898285 -1.0158118e-17)
(99.983994 0.7581206 1.2887008e-17)
(99.814895 1.4173418 1.1541665e-17)
(99.522789 2.3639046 -1.150727e-17)
(99.122907 3.2295975 5.04329e-17)
(98.692447 4.7031914 -2.8574306e-17)
(97.721605 5.9392519 3.668347e-18)
(96.776165 8.2623776 -8.194723e-17)
(93.708479 10.605121 -1.5843956e-16)
(100.06707 0.21574108 1.1679259e-19)
(100.01152 0.86414608 -1.5260885e-18)
(99.852122 1.479594 2.7189912e-17)
(99.600736 2.5469202 3.7403365e-18)
(99.174989 3.4400778 -1.0410557e-19)
(98.896876 5.0119304 -5.4538889e-18)
(97.933118 6.3916593 6.0705527e-17)
(96.767065 9.1340315 1.6362973e-16)
(93.315795 11.427547 1.3212428e-16)
(100.09124 0.24907412 1.9647052e-17)
(100.05341 0.88792451 -2.2046884e-17)
(99.846108 1.5728776 2.7960085e-17)
(99.724094 2.6742846 2.7396039e-20)
(99.288533 3.6632774 -3.4405682e-17)
(98.973954 5.2483814 -1.0559713e-17)
(98.153756 6.6522333 -4.7856195e-17)
(97.085224 9.7269377 -7.6733904e-17)
(93.00317 11.874575 -3.8983855e-16)
(100.10281 0.25301988 0)
(100.09557 0.92303604 0)
(99.907085 1.6187298 -4.8881612e-17)
(99.745866 2.7941502 -5.6194044e-17)
(99.483439 3.836363 0)
(99.20428 5.5709107 -7.5920858e-17)
(98.272327 7.1205582 -6.4570633e-18)
(97.158419 10.579882 -4.6564017e-18)
(92.728307 12.538175 4.816319e-16)
(100.11539 0.26008329 0)
(100.10931 0.92171766 -1.3157632e-18)
(99.977322 1.6834132 1.4810878e-18)
(99.829678 2.8434532 5.4924089e-17)
(99.556269 3.9588312 -4.0520071e-18)
(99.423321 5.6847491 1.6141746e-16)
(98.631622 7.3150309 0)
(97.443024 11.316471 0)
(92.424013 13.062038 2.2133774e-16)
(100.14153 0.2629454 3.6550174e-17)
(100.12284 0.90322771 0)
(100.00547 1.6908075 0)
(99.952395 2.9623889 0)
(99.736654 4.1175414 0)
(99.568881 5.9596681 -8.0436092e-17)
(98.776342 7.6838599 -8.5948531e-17)
(97.700494 12.098596 1.2330235e-16)
(92.259215 13.749725 1.1217904e-18)
(100.14811 0.25048717 -3.5991432e-17)
(100.15592 0.88022544 -1.2574023e-18)
(100.04064 1.6708594 -1.4298144e-18)
(100.03382 2.9120903 3.2272012e-18)
(99.880712 4.1814434 1.2469225e-16)
(99.835032 6.011488 1.4078458e-16)
(99.172146 7.8264634 2.730001e-16)
(97.995056 12.865012 -1.2102887e-16)
(92.200449 14.270776 -3.7933627e-16)
(100.15738 0.24459022 0)
(100.16478 0.22688805 6.6162395e-17)
(100.14853 0.20909937 -6.563242e-17)
(100.14509 0.1858147 6.2648557e-17)
(100.13462 0.16026488 -6.1239406e-17)
(100.11426 0.13150931 1.2188787e-16)
(100.09715 0.09270154 -1.1832973e-16)
(100.07701 0.058895223 0)
(100.0333 0.020670123 0)
(100.16573 0.841155 0)
(100.18001 0.79728614 1.1511935e-18)
(100.22106 0.74406488 0)
(100.21327 0.67421934 3.2635418e-18)
(100.2354 0.61175853 6.6369538e-17)
(100.24343 0.55329985 -1.9798892e-16)
(100.22527 0.48528193 1.28102e-16)
(100.25395 0.42171646 -1.948125e-18)
(100.19684 0.28816981 1.2281185e-16)
(100.11188 1.6984617 8.4110554e-17)
(100.14825 1.6704896 -1.6555471e-16)
(100.20803 1.6393107 1.5758993e-16)
(100.29277 1.5882019 -5.1441776e-18)
(100.29387 1.482621 -7.4033479e-17)
(100.40773 1.4053914 -2.2443313e-18)
(100.39915 1.2504156 0)
(100.4924 1.1520992 4.2174827e-18)
(100.44246 0.87892483 -2.0467355e-18)
(100.11532 3.0029159 8.7993882e-17)
(100.23858 3.0035936 -1.7858405e-16)
(100.30244 3.0146833 1.6931456e-16)
(100.4307 2.9921037 -8.1919986e-17)
(100.4817 2.9225643 -5.1053055e-18)
(100.6137 2.8904252 2.4531164e-18)
(100.65975 2.7919379 0)
(100.8419 2.7266999 -2.2920482e-18)
(100.8 2.4855018 1.3743043e-16)
(100.0329 4.2397484 -1.0014987e-16)
(100.23951 4.4355845 0)
(100.3994 4.3837008 -9.157031e-17)
(100.64023 4.4814546 9.4427411e-17)
(100.74685 4.3570743 -8.4686162e-17)
(101.01794 4.318554 8.7513552e-17)
(101.08086 4.151756 0)
(101.33943 4.062572 0)
(101.30572 3.7383355 4.890271e-18)
(99.959713 6.2451046 -1.2281713e-16)
(100.31934 6.4951377 -1.1642694e-16)
(100.43417 6.7164849 1.1191697e-16)
(100.80797 6.8933385 1.0630726e-16)
(100.93782 7.0608334 -1.0248101e-16)
(101.29685 7.2031961 0)
(101.44912 7.2880838 1.8679607e-16)
(101.88958 7.3512759 -1.4915234e-18)
(101.90581 7.1534282 -3.444713e-16)
(99.396198 8.0711844 -1.4442231e-16)
(99.865816 8.4467459 0)
(100.21621 8.6104543 0)
(100.68276 8.9159773 3.8326716e-18)
(101.0619 8.9449765 0)
(101.50187 9.1866788 0)
(101.83326 9.0933788 0)
(102.30897 9.3080976 0)
(102.50103 9.0945961 0)
(98.388154 13.593596 5.7155071e-18)
(99.066618 15.015309 0)
(99.524852 15.475716 4.9427203e-18)
(100.43111 16.367207 -9.0580033e-18)
(100.90556 16.426408 -1.3235663e-16)
(101.74058 16.966979 -1.2309515e-16)
(102.16936 16.812394 2.3864197e-16)
(103.05788 17.001784 2.2671207e-16)
(103.41393 16.510208 -2.1472232e-16)
(92.524087 15.50057 6.9957542e-16)
(94.014784 16.124875 -4.4004996e-16)
(96.00399 16.598799 3.8058792e-16)
(98.147613 16.546761 -3.6791827e-16)
(99.806191 16.386098 -5.0317695e-16)
(101.63596 16.16057 9.3376886e-16)
(103.23028 16.090972 -5.8728892e-16)
(104.74753 16.310626 -2.7183591e-16)
(106.14598 16.528793 2.5586298e-16)
(100.04482 0.017844286 -1.6131208e-19)
(100.08365 0.032815319 1.6584916e-16)
(100.14214 0.060415955 -1.5851134e-19)
(100.21712 0.094430628 -1.6696809e-16)
(100.30864 0.13178211 1.629367e-19)
(100.42093 0.1714096 1.6755429e-16)
(100.55555 0.21344689 -1.6836963e-16)
(100.71552 0.25737571 -1.6367276e-19)
(100.91741 0.31592923 -8.4335785e-17)
(100.28887 0.34330778 -1.7622014e-16)
(100.33587 0.48976739 1.7732718e-16)
(100.47612 0.51092714 -1.7738771e-16)
(100.56345 0.67827281 0)
(100.76172 0.67983428 1.7821048e-16)
(100.90443 0.89185628 -1.5493007e-19)
(101.1685 0.8693623 -4.0917264e-20)
(101.36779 1.1200131 -1.787276e-16)
(101.6904 1.0630772 8.95321e-17)
(100.61066 0.96359893 1.8857944e-16)
(100.66779 1.2047383 -1.8916434e-16)
(100.93827 1.2893144 -1.899833e-16)
(101.02771 1.613304 1.905317e-16)
(101.35223 1.6931336 -1.9142763e-16)
(101.46686 2.0447152 1.907805e-16)
(101.8172 2.108131 -1.9186045e-16)
(101.97291 2.4887849 3.2632749e-19)
(102.37795 2.5304279 1.9171774e-16)
(101.09565 2.6725676 -2.0125661e-16)
(101.16273 3.0625854 -7.9143673e-19)
(101.4509 3.181793 7.9557173e-19)
(101.53431 3.5473413 0)
(101.87279 3.6329827 -1.3385736e-21)
(102.00991 4.0175081 -2.0245484e-16)
(102.40495 4.0781315 2.0580616e-16)
(102.5916 4.4974057 7.9912478e-19)
(103.02647 4.5222658 7.9947712e-19)
(101.62326 3.871098 -8.5168279e-19)
(101.73444 4.276066 -2.1939517e-16)
(102.16872 4.3898116 -2.0872778e-20)
(102.34488 4.897841 2.2096741e-16)
(102.82442 5.0068956 2.211571e-16)
(103.04437 5.5406982 -2.2228224e-16)
(103.48326 5.6523187 -8.6108078e-19)
(103.74939 6.2119894 -8.618864e-19)
(104.20401 6.311467 -8.6259551e-19)
(102.36535 7.5145776 2.3608739e-16)
(102.52069 8.1093771 0)
(102.89836 8.3435675 0)
(103.00692 8.8552959 2.3521737e-16)
(103.40347 9.0616473 -2.3838277e-16)
(103.57046 9.5876536 -2.3768318e-16)
(104.02669 9.7740425 4.7502061e-16)
(104.22821 10.241425 -1.171351e-18)
(104.72944 10.400078 -4.7577758e-16)
(102.98687 9.3346666 -1.0060969e-18)
(103.39182 9.847243 0)
(103.93304 10.095769 1.0032437e-18)
(104.40415 10.582982 2.6321232e-16)
(104.9222 10.784216 -2.6474925e-16)
(105.36743 11.169311 2.6289262e-16)
(105.85111 11.259024 -2.634634e-16)
(106.2803 11.556218 -9.9748656e-19)
(106.74372 11.589717 2.6217093e-16)
(103.91474 16.833098 -2.7369332e-16)
(104.3157 16.971542 2.7731114e-16)
(104.78219 17.08621 -2.763165e-16)
(105.26028 17.266906 2.7487632e-16)
(105.81419 17.372514 -2.7123948e-16)
(106.26501 17.442439 1.0918883e-18)
(106.80352 17.457358 2.7387048e-16)
(107.21892 17.417177 2.1522962e-18)
(107.70204 17.321271 1.3559707e-16)
(107.57798 16.73554 0)
(108.6998 17.427996 -3.0450086e-16)
(109.2641 18.060549 4.8963589e-18)
(109.80922 18.330998 5.2224157e-18)
(110.41476 17.961681 5.9734945e-16)
(111.25243 17.485558 -2.9832902e-16)
(111.91521 16.658385 -2.947673e-16)
(112.43435 16.013007 2.9602977e-16)
(113.04197 14.889507 1.4816131e-16)
(113.25923 13.892772 -1.7295005e-16)
(113.48417 12.122091 0)
(113.54565 11.19802 1.7449374e-16)
(113.51988 9.914136 -1.7449722e-16)
(112.91563 9.2104509 0)
(112.3438 8.085564 0)
(111.10246 7.4411422 0)
(110.38328 6.7248664 -1.9262818e-16)
(109.10341 6.3888461 1.9262815e-16)
(108.0012 17.229533 -1.5443433e-16)
(108.38041 16.958674 0)
(108.61444 16.808898 0)
(108.87024 16.450788 0)
(108.97981 16.264127 0)
(109.09579 15.909949 0)
(108.94852 15.689676 0)
(108.79772 15.477353 1.5486676e-16)
(108.3936 15.398368 -3.1113443e-16)
(107.07832 11.806717 -1.2826202e-18)
(107.50382 12.025468 -2.8695036e-16)
(107.80112 12.172327 0)
(108.19387 12.338495 -1.419409e-16)
(108.43108 12.384366 1.4194109e-16)
(108.79225 12.448963 0)
(108.91322 12.505501 0)
(109.15273 12.62751 0)
(109.14514 12.771778 0)
(104.95735 10.806922 2.5535146e-16)
(105.49289 11.009904 0)
(105.73377 11.370529 1.2567878e-16)
(106.29489 11.537354 -2.5068698e-16)
(106.54295 11.86577 1.2500609e-16)
(107.10179 11.976387 0)
(107.32633 12.273294 0)
(107.83329 12.366067 0)
(108.00433 12.666523 1.2217457e-16)
(104.47277 6.920542 0)
(105.00158 7.074632 2.311257e-16)
(105.24357 7.7119506 -3.4608969e-16)
(105.82901 7.8414531 1.1498602e-16)
(106.06047 8.4453612 1.1378851e-16)
(106.65786 8.5565389 -6.1236629e-19)
(106.92078 9.1346682 -2.2573144e-16)
(107.50876 9.2253144 2.2450215e-16)
(107.75385 9.7864567 -1.1194109e-16)
(103.26662 4.9799218 0)
(103.70084 5.0227117 1.0507191e-16)
(104.0512 5.4907242 -1.050719e-16)
(104.54168 5.5819925 0)
(104.87348 6.0480211 -2.0669804e-16)
(105.49944 6.1505901 2.0669805e-16)
(105.81242 6.6072583 1.0208345e-16)
(106.46081 6.7681254 -2.0350958e-16)
(106.82905 7.1293158 1.0142609e-16)
(102.56675 2.9520581 0)
(103.02444 2.9934614 0)
(103.25265 3.4464338 0)
(103.75526 3.4668605 -9.6306669e-17)
(104.03171 3.9536969 1.9210639e-16)
(104.55771 3.9529847 -1.9106618e-16)
(104.93803 4.4420689 9.525003e-17)
(105.46031 4.5107257 -9.4056219e-17)
(105.88195 4.9128703 1.8745574e-16)
(101.93072 1.3439893 -1.8124641e-16)
(102.31738 1.2747389 4.0180224e-19)
(102.60945 1.6040613 9.0038858e-17)
(103.05439 1.5093465 -8.9140809e-17)
(103.40755 1.8776749 8.9141794e-17)
(103.91211 1.7468572 0)
(104.32213 2.1375991 8.7559488e-17)
(104.86797 2.0131043 -1.7453526e-16)
(105.3765 2.3198752 8.69629e-17)
(101.05492 0.38058855 3.080858e-19)
(101.28529 0.4148108 8.5190341e-17)
(101.62214 0.58257736 8.4485727e-17)
(101.90104 0.60796863 -8.4485735e-17)
(102.24738 0.76456067 0)
(102.59039 0.78138887 0)
(102.98402 0.91311281 -8.2894408e-17)
(103.41112 0.96222645 1.652918e-16)
(103.88359 1.0836499 -8.2397364e-17)
(104.39544 1.138026 0)
(104.95225 1.2909978 -8.0604159e-17)
(105.55405 1.3475811 6.9601109e-19)
(106.16944 1.4827382 7.497944e-19)
(106.87736 1.5645362 8.0233039e-19)
(107.55292 1.6946303 7.8356017e-17)
(108.36008 1.7780175 7.6550804e-17)
(109.11867 1.9107587 -7.6550809e-17)
(110.04264 2.0070678 0)
(105.94585 2.3310609 0)
(106.507 2.5517197 0)
(107.19496 2.6029554 -8.4102741e-17)
(107.7817 2.8024287 8.33169e-19)
(108.53175 2.9279276 8.8881276e-19)
(109.17917 3.0981881 8.2380738e-17)
(110.03611 3.1846715 8.0421425e-17)
(110.70559 3.4552226 -8.0421408e-17)
(111.66268 3.5359795 0)
(106.52593 5.0838532 -9.3399532e-17)
(106.89911 5.4384154 0)
(107.6551 5.6405414 0)
(108.08545 6.0514176 -9.0398619e-17)
(108.86289 6.1966291 1.7992561e-16)
(109.35704 6.686286 -9.2524266e-19)
(110.2184 6.8486631 -9.7079235e-19)
(110.70148 7.3065015 -8.7630944e-17)
(111.71147 7.5378296 0)
(107.48091 7.3711502 -1.0001535e-16)
(107.91277 7.7384469 1.0001532e-16)
(108.53246 7.962024 0)
(109.1053 8.3196916 0)
(109.5983 8.6647335 9.6807756e-17)
(110.35185 8.9350537 -9.6807749e-17)
(110.78309 9.3417511 9.4946373e-17)
(111.6171 9.7104742 -4.7979335e-17)
(112.05412 10.052285 -4.6967017e-17)
(108.36803 9.8811221 -1.107053e-16)
(108.57573 10.442909 1.1069657e-16)
(109.18535 10.556656 0)
(109.4031 11.160261 0)
(109.99382 11.311876 0)
(110.22202 11.964043 0)
(110.84479 12.16795 0)
(111.046 12.892673 0)
(111.69693 13.113834 0)
(108.47804 12.785724 -1.2217494e-16)
(108.58836 13.136388 1.21449e-16)
(109.02657 13.304063 -1.2145135e-16)
(109.0747 13.732038 1.209007e-16)
(109.53291 13.981954 -1.208953e-16)
(109.53177 14.486196 0)
(110.02898 14.834148 0)
(109.96558 15.43464 0)
(110.47791 15.861083 0)
(109.28916 12.999933 0)
(109.14704 13.215558 -1.417339e-16)
(109.2576 13.565913 1.4187193e-16)
(108.99914 13.855625 0)
(109.09167 14.297599 1.4346268e-16)
(108.72678 14.689942 -1.4346213e-16)
(108.80819 15.184314 0)
(108.37586 15.692152 7.2640047e-17)
(108.42259 16.263886 -1.4557236e-16)
(108.0868 15.338821 1.5632858e-16)
(107.45224 15.37631 1.5987349e-16)
(107.07899 15.472218 -1.5993604e-16)
(106.31431 15.596502 1.6417843e-16)
(105.88687 15.687634 -3.3067061e-16)
(105.013 15.809584 3.3542343e-16)
(104.51403 16.019996 -3.4018197e-16)
(103.40946 16.384372 1.7135482e-16)
(102.9409 16.922802 0)
(108.24273 6.0156436 -2.0194598e-16)
(106.82028 6.1241401 2.019487e-16)
(105.98078 5.9140115 0)
(104.56499 5.7990726 0)
(103.75861 5.5027602 0)
(102.24588 5.6026249 0)
(101.41931 5.8632617 0)
(99.722315 6.5859808 -1.1810107e-16)
(98.812588 7.5551562 1.1817441e-16)
(96.725473 8.9009773 1.235094e-16)
(101.73747 17.735522 0)
(107.86665 16.989867 7.2957118e-17)
(110.41823 16.668512 0)
(112.00428 13.938846 0)
(112.98792 10.546241 0)
(112.17843 8.0139986 4.2139644e-17)
(112.39744 3.7614955 3.8469407e-17)
(110.8853 2.1416603 3.662368e-17)
(95.879912 10.256154 -1.2350654e-16)
(101.36503 18.566743 0)
(107.97239 17.704936 0)
(110.88555 17.120042 5.936232e-17)
(112.56909 14.213005 0)
(113.44386 10.878853 -4.5211928e-17)
(113.30391 8.2741684 -8.3631919e-17)
(113.45908 3.9141797 -7.6272798e-17)
(111.90921 2.2481491 -7.2604518e-17)
(93.619799 11.672138 0)
(100.10317 19.79083 0)
(107.37735 18.740332 7.3782382e-17)
(110.9905 18.139095 -5.9362288e-17)
(113.04758 15.131297 0)
(114.43583 11.479061 4.521192e-17)
(113.84696 8.7256755 4.149881e-17)
(114.22429 4.1915478 3.7803389e-17)
(112.85996 2.3884906 3.5980831e-17)
(92.809294 13.141315 1.3143672e-16)
(99.840543 20.850568 0)
(107.57951 19.59993 -1.4772822e-16)
(111.43293 18.666544 0)
(113.60727 15.497059 0)
(114.99179 11.79728 -4.378268e-17)
(115.03135 9.1138982 -4.0063543e-17)
(115.41286 4.2974773 0)
(114.00224 2.4980136 -3.4531893e-17)
(90.310173 14.855987 -1.3143798e-16)
(98.576752 22.470978 -9.3714542e-17)
(106.97518 20.92242 7.3939296e-17)
(111.64724 19.87808 0)
(114.16804 16.557698 0)
(116.04905 12.540131 4.3782666e-17)
(115.66003 9.5126058 4.0063526e-17)
(116.25592 4.6349034 0)
(115.05079 2.6356621 3.4531888e-17)
(89.323242 16.433279 0)
(98.472404 23.751181 9.370957e-17)
(107.32434 21.907979 -7.392137e-17)
(112.21251 20.472336 0)
(114.83634 16.960164 0)
(116.69278 12.850959 -4.2072642e-17)
(116.94991 9.9473399 -3.8391951e-17)
(117.53968 4.7730876 0)
(116.31815 2.7533509 -3.2840393e-17)
(86.592933 18.879415 0)
(97.244092 25.798953 0)
(106.79618 23.567464 7.3921281e-17)
(112.5507 21.89014 -2.8441548e-17)
(115.46511 18.175349 -2.4269173e-17)
(117.91159 13.645676 6.2616289e-17)
(117.70145 10.355242 5.7118686e-17)
(118.46805 5.1170829 0)
(117.47479 2.8963018 4.878973e-17)
(85.821615 21.456151 0)
(97.361594 27.256997 -4.756082e-17)
(107.32689 24.660869 0)
(113.20468 22.542969 2.8432147e-17)
(116.29734 18.594976 2.4258026e-17)
(118.59769 14.058304 -5.3941021e-19)
(118.99669 10.877189 -3.6942227e-17)
(119.85121 5.2936519 0)
(118.85059 3.0075957 -1.594934e-17)
(83.358615 24.362252 -6.9931876e-17)
(96.377855 29.840042 4.75487e-17)
(106.96565 26.836881 0)
(113.82036 24.228521 0)
(117.04205 20.063458 0)
(120.01981 14.85149 -3.9424587e-17)
(120.03549 11.179591 5.5542655e-19)
(120.88018 5.6380111 0)
(120.11658 3.1311399 0)
(121.80056 3.2445103 0)
(122.35932 5.8048902 0)
(121.29257 11.795135 -4.6795366e-19)
(120.75465 15.339469 2.0364131e-17)
(118.0627 20.280679 0)
(114.55726 24.818749 -3.6203326e-18)
(107.8446 27.767464 -6.856793e-19)
(96.91766 31.367007 -3.9350515e-17)
(83.096036 27.936589 1.2976482e-16)
(123.36074 3.3050679 -6.9462231e-18)
(123.46486 6.0592488 -9.589327e-19)
(122.68154 11.788562 8.8886168e-18)
(122.38087 15.782752 -6.9565063e-20)
(119.17351 21.613275 -9.5685381e-18)
(115.64533 26.341527 1.2837756e-17)
(108.27745 30.077701 -4.6814097e-18)
(96.664625 34.433613 5.0721081e-17)
(82.986169 33.129556 -6.576341e-17)
(124.91852 3.3381056 1.3689278e-17)
(125.06784 6.0939149 0)
(123.97962 12.423821 1.6283422e-17)
(123.25272 16.265867 -8.7745707e-18)
(120.53055 21.655946 9.6460207e-18)
(116.70231 26.860981 -2.4049018e-17)
(109.8829 30.8058 -2.1364515e-17)
(98.811584 35.555414 1.1477021e-17)
(86.362993 35.475984 1.8682538e-18)
(126.54876 3.3627123 -6.7506172e-18)
(126.30694 6.3388081 -8.939657e-19)
(125.656 12.381336 -7.0902401e-18)
(125.11014 16.673557 1.0041665e-17)
(122.02622 23.09348 3.8777382e-18)
(118.32957 28.418654 1.2755506e-17)
(111.02656 33.279055 1.7047758e-17)
(99.390893 38.518048 6.1825815e-18)
(86.592534 39.927462 -7.0807232e-18)
(128.25744 3.3824801 1.5061572e-18)
(127.99002 6.3050545 -1.6242549e-18)
(126.96657 12.85892 -9.5124919e-19)
(126.11967 17.07163 3.0575006e-18)
(123.50602 22.967462 -3.8887722e-18)
(119.61205 28.789815 -4.392565e-18)
(112.99187 33.761106 -4.4288246e-18)
(102.02748 39.335397 5.0005795e-18)
(89.514937 41.49036 -8.7029719e-18)
(130.01935 3.3915725 -1.5233528e-18)
(129.41136 6.5324617 1.6437846e-18)
(128.93266 12.793101 -9.0550997e-19)
(128.20971 17.399435 -1.7355239e-20)
(125.48864 24.243405 -1.1524214e-18)
(121.59476 30.291074 2.9876691e-18)
(114.46187 36.22241 -4.3062095e-18)
(102.90559 42.272917 4.8740575e-18)
(90.088388 45.219517 0)
(131.80866 3.3793616 -1.3138446e-18)
(131.10703 6.4559161 -7.6539473e-19)
(130.23676 13.126865 -7.9442648e-19)
(129.35018 17.682838 -9.9723538e-19)
(126.87916 24.161407 -1.1238251e-18)
(123.0401 30.487034 3.0887979e-18)
(116.61505 36.469768 -7.6194653e-18)
(105.64982 42.809623 1.052872e-17)
(93.03822 46.186572 -6.7103698e-18)
(133.61249 3.3356993 3.7451964e-18)
(132.70428 6.6125166 2.6729173e-18)
(132.3633 13.003705 3.8562674e-18)
(131.63814 17.792564 4.2454472e-18)
(129.29796 25.029883 3.3853718e-18)
(125.32329 31.876851 -1.2557761e-18)
(118.40881 38.869815 -4.0007773e-18)
(106.88747 45.707908 -1.0887026e-18)
(93.952365 49.483467 -7.7012153e-18)
(135.42487 3.2569043 -6.8280177e-18)
(134.38543 6.4949733 -2.7062474e-18)
(133.74022 13.14201 -9.3204547e-18)
(132.87418 18.019263 -2.6190809e-18)
(130.69531 25.019452 6.5928139e-18)
(126.93105 31.848923 3.9327685e-18)
(120.74293 38.835705 -2.0096149e-17)
(109.80459 45.953756 4.3502676e-18)
(96.929758 50.083719 1.4625999e-17)
(98.058641 53.133097 -1.383481e-17)
(111.40382 48.824429 5.2555529e-18)
(122.92237 41.147312 2.8593628e-17)
(129.53803 33.09827 -3.6439892e-18)
(133.42065 25.510527 1.0128478e-18)
(135.29473 17.857118 4.0957206e-18)
(135.971 12.844418 6.277621e-18)
(136.07028 6.4740302 -2.8896792e-19)
(137.23276 3.1394992 8.6100096e-18)
(101.08746 53.474525 5.2191788e-17)
(114.5007 48.781286 3.853825e-18)
(125.44313 40.775659 -3.8276328e-17)
(131.29247 32.787892 -9.7477431e-19)
(134.91622 25.313633 -6.1871562e-18)
(136.61288 17.94131 -5.0492734e-18)
(137.35628 12.821502 -9.4705033e-18)
(137.69424 6.3061632 0)
(139.01454 2.9779359 -3.9543773e-18)
(102.46178 56.496301 -6.6597696e-17)
(116.47338 51.631348 3.854139e-17)
(128.0411 42.966017 1.9803498e-17)
(134.24376 33.827293 -8.6145314e-19)
(137.80501 25.614611 1.0805128e-17)
(139.1402 17.535436 4.5496397e-20)
(139.63647 12.387326 2.3566489e-18)
(139.45237 6.1695959 6.3623292e-18)
(140.74875 2.7670579 5.8324459e-18)
(105.61208 56.638424 -1.2319194e-17)
(119.75317 51.275094 4.1441442e-18)
(130.72918 42.18589 -2.7819991e-18)
(136.11468 33.13656 0)
(139.41037 24.950215 -1.0908919e-17)
(140.46888 17.305615 0)
(141.03636 12.123788 7.3480913e-18)
(140.97779 5.8341466 -1.227497e-17)
(142.38581 2.514723 -1.0981588e-18)
(107.31724 59.742092 -4.9530394e-18)
(122.16058 54.115595 -2.6802459e-17)
(133.73827 44.201304 2.4432589e-18)
(139.38809 33.917092 0)
(142.34621 25.16347 -7.5561349e-18)
(143.09465 16.695936 5.7425232e-18)
(143.20795 11.469063 3.690815e-19)
(142.75149 5.4896888 1.0475241e-17)
(143.89994 2.2357991 -4.8533999e-18)
(110.61694 59.583328 -4.8972109e-17)
(125.66165 53.391238 -1.8282192e-17)
(136.50953 42.933242 -6.7579106e-19)
(141.29777 32.797506 -1.2187742e-18)
(144.14111 23.955836 1.7270452e-18)
(144.37365 16.13702 -9.9462271e-18)
(144.54582 11.023785 2.8371031e-19)
(144.09951 5.10601 -4.7071829e-18)
(145.31676 1.9310528 0)
(112.78145 62.714055 3.3845111e-17)
(128.46927 56.111077 2.6561959e-17)
(139.99911 44.644732 -6.4857197e-19)
(144.80694 33.184251 -8.7330835e-19)
(146.88778 23.894745 4.9561712e-18)
(147.01338 15.302368 4.4478648e-18)
(146.62777 10.08363 2.0170763e-19)
(145.81059 4.5637574 -1.848204e-19)
(146.58247 1.6089177 0)
(116.24831 62.172385 0)
(132.39894 55.084943 -1.3898602e-18)
(142.74695 42.822453 1.1847936e-18)
(146.78811 31.601167 -1.919848e-18)
(148.77408 22.262847 -1.3148459e-19)
(148.1295 14.37001 1.744114e-18)
(147.78074 9.4523787 -2.3032019e-18)
(146.87446 4.1042033 2.5367304e-18)
(147.67617 1.268223 1.2698025e-18)
(119.0434 65.330365 5.8577815e-17)
(135.52185 57.441342 1.7041499e-17)
(146.71673 44.08621 -6.7612819e-19)
(150.3604 31.51202 2.1116697e-18)
(151.42864 21.792874 1.1977195e-21)
(150.67973 13.280542 -1.8959313e-18)
(149.67474 8.2657853 2.4898361e-18)
(148.41846 3.3930456 -2.610079e-18)
(148.57855 0.90961744 -1.8880173e-18)
(149.27785 0.5307778 5.9132538e-19)
(149.18273 2.8847349 -1.7141809e-18)
(150.54866 7.4536788 0)
(151.59524 11.937936 2.2580795e-19)
(153.12648 19.712463 -6.9727011e-18)
(152.37289 29.329118 -9.4432199e-18)
(149.48154 41.477049 0)
(140.2462 55.93988 -1.205606e-17)
(123.06262 64.151041 -5.6890723e-17)
(149.74698 0.15523335 0)
(150.39841 1.9285532 1.7647232e-18)
(152.17071 5.9189318 0)
(153.89559 10.432384 4.5268572e-19)
(155.84896 18.464169 1.74692e-17)
(156.07472 28.339404 1.0447422e-17)
(154.23844 41.762446 -1.7984191e-17)
(144.44349 57.678808 -4.3659957e-19)
(127.7421 67.842708 2.2696617e-17)
(149.95415 -0.1885182 0)
(150.76482 1.3602475 0)
(152.64425 4.9179062 7.3866426e-18)
(154.5291 8.6982663 0)
(157.08897 16.00943 -1.1353226e-17)
(157.97129 25.353225 2.169423e-17)
(157.23345 38.103543 1.6433994e-17)
(150.1337 55.211207 1.429357e-18)
(132.77153 65.512221 -2.0540286e-17)
(150.15337 -0.32469192 0)
(151.56751 0.33200842 0)
(153.82883 3.2691873 -7.5396947e-18)
(156.35405 7.016662 -1.263041e-17)
(159.59168 14.282679 -1.9184868e-17)
(161.24256 23.831548 -2.3716587e-17)
(161.68007 37.319327 0)
(154.62676 55.773609 -4.3248831e-17)
(139.08368 68.957532 -1.0790461e-17)
(149.73802 -0.70328773 -1.1060451e-19)
(151.4079 -0.27845462 1.1971676e-19)
(153.76373 2.1789193 0)
(156.52613 5.0407063 -2.1901709e-18)
(160.18686 11.476713 4.4772211e-17)
(162.76526 20.174356 -1.7440556e-18)
(164.46364 32.75513 -4.5393551e-17)
(160.37265 52.124785 4.7151444e-17)
(144.48774 65.363334 -3.8899037e-17)
(149.62528 -1.0245864 1.2422723e-19)
(151.66669 -1.3848786 -1.3466448e-19)
(154.47443 0.49454641 0)
(157.77142 3.3175769 1.7666516e-17)
(162.10637 9.5334407 -2.710566e-17)
(165.36257 18.220901 2.0598165e-18)
(168.22834 30.911056 4.6952623e-17)
(164.76287 51.31085 0)
(152.79916 67.875107 3.9263441e-17)
(148.47754 -1.2155323 -1.3318907e-19)
(150.95543 -1.9375912 -9.9781468e-18)
(153.84138 -0.59814477 4.862382e-19)
(157.37414 1.0907672 -1.9164603e-17)
(162.07547 6.4364474 -3.1142549e-17)
(166.21166 14.158281 0)
(170.3759 25.592791 0)
(169.79188 46.29059 9.2026115e-17)
(158.63091 62.380569 0)
(147.86836 -1.3042632 0)
(150.80765 -3.2260806 1.0328097e-17)
(154.04044 -2.1477691 0)
(157.95475 -0.45363493 2.2072511e-17)
(163.1665 4.5184575 2.8630391e-17)
(168.04686 11.921297 -4.8529163e-17)
(173.08423 22.986951 0)
(173.36912 43.945437 -1.0208707e-16)
(168.97635 63.289206 1.5656754e-16)
(146.13681 -1.5357721 0)
(149.68593 -3.6460607 0)
(152.70907 -3.246757 5.5447607e-19)
(157.23216 -3.0293287 1.027352e-18)
(162.41388 0.91354836 -1.8425215e-18)
(167.78773 6.7058471 5.0088269e-17)
(174.45449 15.703326 0)
(177.70066 34.952336 0)
(175.15265 53.785658 -1.5649796e-16)
(144.19536 -1.9110628 2.6789414e-19)
(149.30937 -4.9819767 8.8246868e-20)
(152.52691 -4.4297026 -1.475784e-17)
(157.05028 -4.3024404 0)
(163.15116 -0.057161384 0)
(169.4494 6.6672279 3.5363863e-18)
(175.9291 15.973442 7.4442582e-17)
(178.70684 36.845461 -2.8470711e-18)
(183.21557 57.819102 0)
(142.50375 -2.1578552 2.4913837e-19)
(147.96137 -5.4556219 9.220237e-20)
(151.16339 -5.1399926 1.3436312e-17)
(157.75069 -5.4044297 0)
(163.33439 -1.0670803 0)
(170.33708 5.0284383 -3.7378844e-18)
(178.83441 17.114168 -2.3415105e-16)
(180.81263 39.484974 3.0234996e-18)
(177.97025 58.870946 -3.5049188e-16)
(140.56488 -2.3533761 0)
(147.38314 -6.7723676 -1.9902724e-17)
(150.94162 -6.5170602 0)
(157.09268 -7.3227989 -1.6592329e-18)
(164.45498 -2.7921457 1.8122767e-18)
(172.93683 4.2460404 4.0250982e-18)
(182.03462 16.577908 3.3208346e-16)
(182.36562 40.444339 -3.2464019e-18)
(162.55826 61.647117 3.3230314e-16)
(138.41015 -2.5360861 -6.8559039e-18)
(145.80395 -7.2939836 1.9059355e-17)
(149.39992 -7.4969059 -2.4957863e-17)
(157.87961 -9.0927669 -4.7078077e-17)
(164.7912 -4.3932285 7.3940225e-17)
(174.27065 2.033224 -1.1671168e-16)
(185.344 16.494601 -1.7755296e-16)
(182.08958 41.740531 -2.5829239e-16)
(137.2345 72.574923 0)
(136.08171 -2.7255226 1.1445184e-17)
(144.8857 -8.7450525 -1.7195449e-17)
(149.05913 -8.9083477 2.4139344e-17)
(157.34857 -10.978623 -1.8539617e-18)
(166.30181 -6.5920942 -7.1328965e-17)
(176.95017 0.61650655 -6.539856e-18)
(187.9442 15.103915 0)
(181.39509 46.070688 2.4704634e-16)
(112.3373 94.747529 0)
(133.59491 -2.9230907 -6.4292088e-18)
(143.01234 -9.1739689 1.6532918e-17)
(147.16471 -10.093903 -2.2821975e-17)
(157.54046 -13.050769 4.6775952e-17)
(166.08631 -8.2752312 2.8876535e-18)
(177.7541 -1.955673 1.1470931e-16)
(189.94773 15.458616 -2.160166e-16)
(175.83899 49.091638 -2.9711891e-16)
(65.634301 80.129375 2.6773011e-16)
(130.97354 -3.1206549 2.1668122e-18)
(141.71772 -10.56273 -3.8210342e-19)
(146.50382 -11.446813 2.1405546e-17)
(156.84762 -15.140924 -1.7821882e-18)
(167.52797 -10.874289 1.9211948e-18)
(179.84858 -3.7643483 1.3028506e-16)
(190.74239 13.828217 4.4025004e-16)
(162.75484 44.992816 2.8123351e-16)
(4.5182348 21.268895 -2.5354073e-16)
(128.13507 -3.2304509 7.8379968e-20)
(139.37922 -10.986249 -8.4240012e-20)
(144.18038 -12.664508 -1.7784505e-17)
(156.34682 -17.244368 -4.5066699e-17)
(166.85863 -12.849818 7.5552456e-17)
(180.14851 -6.4138829 -2.5865729e-16)
(189.51918 12.151773 -4.6062561e-16)
(141.89993 46.565975 -2.9367993e-16)
(-2.806266 44.666297 2.595281e-16)
(125.79632 -3.2241535 5.6196293e-18)
(137.89325 -12.210489 2.0003369e-19)
(143.33417 -13.980974 1.4490376e-18)
(155.54579 -19.257966 4.3703593e-17)
(168.27131 -15.488817 -7.0033754e-17)
(181.33705 -8.6636119 1.3092307e-16)
(186.5971 10.984126 2.3014685e-16)
(121.93568 44.862126 2.7738247e-16)
(-7.0196078 49.153676 -2.4737439e-16)
(-17.843747 52.036433 -4.3642385e-16)
(109.57115 43.220212 -3.0991138e-18)
(184.12201 9.5940439 4.2439242e-18)
(180.53409 -11.044217 -3.6369509e-18)
(166.9649 -17.605 0)
(154.39318 -21.239455 5.134093e-19)
(140.79198 -15.094209 3.0714846e-17)
(135.19418 -12.541885 7.1673098e-18)
(123.03435 -3.152497 -1.4141694e-17)
(-22.562673 50.683964 4.2397328e-16)
(100.95058 40.274791 0)
(182.18662 6.2617064 0)
(180.89001 -14.910379 3.4452589e-16)
(167.62438 -20.731793 0)
(152.96735 -23.428982 -8.9107944e-17)
(139.44804 -16.341747 -4.0448909e-17)
(133.36799 -13.561113 -6.7454397e-18)
(120.07207 -3.1000723 -1.377452e-17)
(-30.479257 50.273535 3.8046023e-18)
(90.233428 39.898779 -3.0659115e-18)
(178.77606 5.4749212 0)
(179.59485 -16.68022 -3.369524e-16)
(165.90928 -22.687737 0)
(151.35293 -25.067353 8.8048734e-17)
(136.87955 -17.222376 2.4788929e-17)
(130.30706 -13.89092 6.8246288e-20)
(116.97062 -3.0132314 2.1979644e-17)
(-34.311632 50.65544 8.3500888e-16)
(81.719637 37.189232 -9.1257468e-16)
(176.05288 1.8014111 5.6454716e-18)
(179.36382 -20.351611 0)
(165.75281 -25.676335 -1.7362908e-16)
(149.59311 -26.967933 0)
(135.13107 -18.380046 -7.7374544e-20)
(128.32362 -14.659442 1.3540151e-20)
(113.71678 -3.311817 5.2356314e-20)
(-41.028558 49.821135 -8.0193733e-16)
(70.90586 37.162737 -2.7167267e-17)
(171.87248 1.3275775 7.0393171e-16)
(177.54215 -22.246397 -3.6657676e-18)
(164.35867 -27.388808 8.9892028e-19)
(147.53068 -28.361473 0)
(132.4715 -19.044461 -1.1286365e-17)
(125.11613 -14.882452 0)
(110.70133 -3.2360903 0)
(-43.320136 51.059125 3.6439805e-18)
(62.809594 33.591722 8.6932638e-16)
(168.53553 -2.5869714 -1.3646793e-15)
(176.86715 -25.92394 3.3387267e-16)
(163.60997 -30.203901 1.663725e-16)
(145.51086 -30.203212 6.5354237e-17)
(130.46849 -20.028089 1.0842087e-17)
(122.97465 -15.618271 -8.940009e-20)
(107.39108 -3.5494108 3.6340238e-17)
(-47.101534 51.420476 3.6002423e-18)
(50.233764 33.10739 -8.8312611e-16)
(163.80529 -2.6986128 6.7627097e-16)
(174.5824 -28.015768 -3.2714034e-16)