/*--------------------------------*- C++ -*----------------------------------*\
  =========                 |
  \\      /  F ield         | OpenFOAM: The Open Source CFD Toolbox
   \\    /   O peration     | Website:  https://openfoam.org
    \\  /    A nd           | Version:  11
     \\/     M anipulation  |
\*---------------------------------------------------------------------------*/
FoamFile
{
    format      ascii;
    class       volScalarField;
    location    "0.35923665";
    object      p;
}
// * * * * * * * * * * * * * * * * * * * * * * * * * * * * * * * * * * * * * //

dimensions      [0 2 -2 0 0 0 0];

internalField   nonuniform List<scalar> 
880
(
80.0000000000004
80.00000016385775
80.01345686823805
81.88035570422132
80.00000000017729
80.0000004813165
80.01669067496741
82.76390746439387
80.00000000090172
80.00000187777135
80.03089530452802
83.82260069574401
80.0000000120275
80.00000824575139
80.0638099844635
85.4075710012978
79.9999999446778
80.00000002780087
80.00000611608527
80.00009435561375
80.00003799728756
80.00014606762331
80.00091100463449
80.00134650889562
80.14459936771513
80.23457550458764
80.38549071303642
80.5377916990428
88.34439129164728
91.39562459187835
94.0006923133343
95.23500911230326
80.00023343460981
80.00190272536895
80.00718976117304
80.02228118655955
80.01262429734427
80.05407655756837
80.10847817026675
80.22875872308049
81.2705031125972
81.90767410826761
82.71483171116819
83.76514079799438
96.38510838458107
97.95091271995391
98.27351633581121
97.50851166279081
90.98666510432729
87.50957369892984
85.83750847760244
84.74257758442047
85.69176483874179
86.37143590013528
86.77398989523411
86.80861236333178
80.63880413369175
81.12354879594432
81.63901454809275
82.02324801551434
80.07908912925654
80.19128966423372
80.36116190312704
80.59966287954857
80.87776213446166
81.15709541912301
81.43363498663361
81.64006286971821
82.31287266088648
82.48082924496745
82.56762375386567
82.57336367293696
86.44908150862489
85.94969279545202
85.29455344800165
84.61630618351465
83.5870945429841
82.89853030557103
82.50698155527888
82.07911903171362
82.08343924815212
84.143656916144
82.52051834469279
81.76639001037054
87.74237085776842
83.86378294736978
82.36951031260352
81.74668352484103
120.55743872994
85.26206096451034
82.1875209387176
81.49458699446757
158.3478228083937
93.05767238989306
82.67020440928118
81.40188378566135
81.37298133998999
83.39324969555426
102.7714528428912
175.0766189415172
80.87271992437798
84.75162648483018
113.7343674819253
174.2794598451971
81.08513737091229
87.90158242974046
128.3727751161395
176.1372440658045
81.8914102373342
93.58569974615121
142.2710894271315
173.4127099383475
167.7073338087918
149.95085569044
102.2399851210133
83.66785706646951
160.7382621765803
151.1909511847289
111.8300927484596
86.8403281893811
153.3430271312407
148.9208637659638
120.1257926168684
91.94288901898504
145.6346441853538
138.9087288922245
121.4589272065153
98.31260503578724
103.949095064279
117.3639107549193
126.5675872920379
136.6078207958022
103.1377806022279
109.2149025184545
113.427551544535
123.6649640430951
100.8368498447207
101.4843128317356
100.6812805468261
107.3274430604238
97.84667376519516
95.22411942235836
89.17507302145327
88.30751005126278
95.46844865311256
89.32757713815121
78.72367701607072
66.39562330189146
91.68576310284885
83.9608384860108
69.93157057056325
43.06374929320346
88.80551728628855
81.54220850103181
63.23943375022025
26.39393822246829
86.35653906670539
80.46176461954283
58.99084969064026
14.84817642200002
15.60541477639635
60.56893487587485
79.58678420543833
84.17253235372549
24.76296497748294
61.36482611156362
78.99416873799926
82.7051400776068
27.33959798782148
61.04507010421826
78.13597266625339
81.71386985320933
25.83940930572496
60.4384134309346
77.52977175506291
81.17539082698582
31.26904160336625
63.06642326849462
77.20207046116057
80.23976949875862
36.95809702288575
65.60879092920544
77.11655362621136
79.68640406127048
43.5963695159172
68.84965001653805
77.31446654755756
79.66584866553747
51.41999941630262
71.09835410049533
77.6992631318285
79.73914069214483
53.28230192822906
58.94008750387832
73.28907727233053
79.26091156227506
51.93669967140983
60.14523216203275
73.51420885302794
79.25269038650204
49.49676846168538
61.86254167587343
74.01479629144978
79.25459097205342
47.17466519196188
63.82095341705657
74.73199060227937
79.3131077141269
51.41999941632279
71.09835410045235
77.69926313176717
79.73914069181482
43.59636951602071
68.84965001618217
77.31446654734884
79.6658486648487
36.95809702291696
65.60879092906265
77.11655362580946
79.68640406082415
31.2690416034085
63.06642326811016
77.2020704610222
80.23976949857298
84.17253235392099
79.58678420556947
60.56893487580459
15.60541477612301
82.70514007750387
78.99416873797666
61.36482611140095
24.76296497718315
81.71386985332441
78.1359726664966
61.04507010378683
27.33959798777909
81.17539082712845
77.52977175534818
60.43841343082982
25.83940930568034
14.84817642210127
58.99084969062495
80.46176461965895
86.35653906685879
26.39393822234875
63.23943375021142
81.54220850116479
88.80551728616403
43.06374929308503
69.93157057098554
83.96083848612676
91.68576310319479
66.39562330206157
78.72367701590004
89.32757713766827
95.4684486534115
103.9490950646517
117.3639107555583
126.567587292569
136.6078207957072
103.1377806020993
109.2149025182944
113.4275515448523
123.664964043068
100.8368498443538
101.484312831624
100.6812805468838
107.3274430604796
97.84667376513219
95.22411942209612
89.17507302123416
88.30751005146298
145.6346441853199
138.9087288921626
121.4589272068681
98.31260503656394
153.343027131093
148.9208637659151
120.1257926170353
91.94288901905666
160.7382621766156
151.1909511844698
111.8300927482131
86.84032818972634
167.7073338085305
149.9508556907336
102.2399851213789
83.6678570664513
81.37298133984912
83.39324969549943
102.7714528428867
175.076618941129
80.87271992482128
84.75162648496729
113.7343674819033
174.2794598447647
81.08513737161275
87.90158243048731
128.3727751159562
176.1372440655529
81.89141023744931
93.58569974621541
142.2710894271302
173.4127099381963
81.40188378568233
81.49458699433265
81.7466835252292
81.76639001043218
82.67020440888169
82.18752093845795
82.36951031287558
82.52051834460795
93.05767238940199
85.26206096447872
83.86378294706924
84.14365691602313
158.3478228077626
120.557438729561
87.74237085798435
82.08343924815931
81.64006287000633
82.57336367314255
84.61630618368687
82.07911903165872
81.43363498632405
82.56762375393761
85.29455344795446
82.50698155524992
81.15709541913816
82.4808292449973
85.94969279559095
82.89853030522758
80.87776213419383
82.31287266056361
86.44908150876942
83.58709454305951
80.07908912912495
80.6388041333996
85.69176483886729
90.9866651043683
80.19128966407645
81.12354879558724
86.37143590032437
87.50957369868796
80.36116190350599
81.63901454752128
86.77398989530781
85.83750847695011
80.59966287940925
82.0232480154404
86.80861236334459
84.74257758412901
97.50851166268804
83.76514079816805
80.22875872297094
80.02228118675146
98.27351633574807
82.71483171127117
80.1084781700842
80.0071897611504
97.9509127198438
81.90767410811328
80.05407655682465
80.00190272534765
96.38510838467708
81.27050311236221
80.01262429710252
80.00023343472714
95.23500911213492
80.5377916991968
80.00134650888712
80.00009435606331
94.00069231288678
80.38549071302947
80.00091100449818
80.00000611637283
91.39562459147942
80.23457550454098
80.00014606758937
80.0000000276608
88.34439129136098
80.14459936754955
80.00003799692877
79.99999994537085
80.00000000002807
80.00000016396199
80.01345686825158
81.88035570411506
80.00000000026193
80.00000048100623
80.01669067514523
82.76390746416948
80.00000000110963
80.00000187755403
80.03089530453011
83.82260069605184
80.00000001233936
80.00000824566899
80.06380998451496
85.4075710014919
83.52400427185704
85.09529653487286
87.643710335846
92.78686011606386
85.09529653515932
87.1506253863739
90.99720171346483
98.69107029685303
87.64371033600145
90.99720171339678
97.3119734781921
106.8208376922917
92.78686011628218
98.69107029644063
106.8208376927821
117.1819954071763
127.9924295788133
119.0252053976344
115.1013657307468
106.8656019643625
126.2797158991762
123.6456597768528
123.6040818422123
119.5301327359678
126.3198464180829
125.4943483648569
125.0506888449124
123.640151154975
123.7373708102755
123.3302876161826
123.2434857978887
122.3928921161475
119.6768114091903
117.855949742018
114.2518218476309
109.3401009169748
119.9429302058988
118.0398167030351
114.3868014496862
109.8050852682231
120.2786162761955
118.2215866214191
114.3689971582459
110.2398964957347
120.4533955236784
118.113326287898
114.520779606885
108.5601478181057
82.83049681596563
71.90502750543094
70.60490118855967
70.98546304872379
75.82086486773477
69.03042530252371
69.6570481877356
70.38170689509658
69.99731046660131
68.89583192581382
70.2294176711579
70.92986460750303
60.73660746499043
66.59795900452013
69.23779389347322
70.19840635271413
70.93004397868221
71.29231984016643
72.1077001383058
73.05112447425203
70.47272779893538
70.8509129819477
71.73550820396083
72.92900633122666
70.90447203177288
71.13418970495464
71.8724874420421
72.80673089230777
70.29688272058293
70.61805223596782
71.55366133884729
72.84653580638518
78.67369791936014
114.0352198092112
165.0707996054069
181.4274662546916
81.36354416049703
121.5218397125145
162.539419650503
173.2946546213194
83.49462776225211
125.2965799255955
161.3141325046691
171.9959397088568
84.86383490914972
130.7125353475786
161.6594097266156
171.9730658887964
218.1625378573343
209.3374024200675
201.7904092492639
190.5373616380321
219.3304694354679
212.1164340979833
203.9475281107947
192.3779177271498
218.3262940882418
213.647088771131
205.0480223666621
193.4986448108864
213.2095469712956
215.5720136375521
206.97096032186
195.2367036047428
178.1481810878686
167.8954316395337
158.2745471453137
153.3866694464327
180.1464672336203
169.2797169305104
158.9646385325369
153.7600095524508
181.294978678684
169.4887573154149
159.5123705947745
153.7252877788051
183.7013126601183
170.9140834966561
161.1738211085795
154.8234916118035
148.5698140764726
140.6582217019225
126.7741706488846
105.8850726684447
149.2636307555626
142.1819095744565
128.8939409123246
114.3599867402355
149.2079813923908
142.6097989142046
130.6898076913833
119.6674640286117
150.3701308983389
144.9549577899874
134.0437241854283
134.5834653074536
64.62301936162325
16.54898198992086
2.690609549060661
1.283627632531647
49.95162182723793
10.39445872660904
2.242187077381567
1.464411738290103
34.73867888466115
6.571941889204749
1.963421776822127
1.620804210995582
19.55113623822445
3.06099253022956
1.726191123037427
1.81325830235112
1.929265275116103
4.153471579604623
6.785728448750242
10.67156356605497
2.736349361415312
5.087859336731657
7.800688101215042
11.94480896042602
3.199547787767647
5.472959449257075
8.645989457522218
12.64694738004371
3.753853957646496
6.199454598901001
10.0929480028989
13.79309292518128
12.51725259166354
18.94025652918489
26.03302486032273
34.74103582322307
12.12980571281184
17.87728730800366
24.71999683300449
33.23097220911366
12.4405143576159
16.3510605665763
22.87550327124027
32.23955144367708
11.69546382019782
14.46074991306181
19.06068270642013
30.28208091272714
35.03380430720296
33.20768548255122
32.54786947267768
33.17747636633748
31.86521162237687
31.78645890043423
32.24760931273282
32.35379199855618
31.01256698246303
32.65716539878375
32.98669637439821
33.02247357494526
29.23688637261644
31.4558549682767
31.77608979381286
32.5024891935326
32.92040273343267
33.23130287049894
33.49128406225443
33.61782188892479
32.97861201290441
32.9361919303289
32.8446933569879
32.95087354926358
32.9285761888879
33.39767060806044
33.83629459034004
34.09492537662322
34.75152963967704
35.8022460769804
36.54012061111425
36.54217251547671
33.61782188892662
32.95087354926262
34.09492537662712
36.54217251548121
33.49128406225756
32.84469335697205
33.83629459033977
36.54012061113516
33.23130287048507
32.93619193034655
33.39767060812385
35.80224607700831
32.92040273349456
32.97861201289844
32.92857618893724
34.75152963970479
33.17747636646128
32.54786947271739
33.20768548261687
35.03380430725652
32.35379199857719
32.24760931278107
31.78645890046895
31.86521162242857
33.02247357500854
32.98669637449918
32.65716539881707
31.0125669825199
32.50248919355999
31.77608979384184
31.45585496832947
29.23688637266717
30.28208091281605
19.06068270655088
14.46074991316297
11.69546382028359
32.23955144375491
22.8755032713033
16.35106056668315
12.44051435774971
33.23097220919183
24.71999683310797
17.8772873081172
12.1298057129157
34.74103582328573
26.03302486043348
18.94025652926272
12.51725259182113
10.67156356611684
6.785728448779569
4.15347157956848
1.929265275147471
11.94480896048397
7.800688101262784
5.08785933672091
2.736349361421548
12.64694738010793
8.645989457593826
5.472959449248781
3.199547787764482
13.79309292524478
10.09294800294101
6.199454598918998
3.753853957648424
1.283627632571141
2.690609549024206
16.54898198978453
64.62301936153455
1.464411738310383
2.242187077366379
10.39445872653221
49.95162182725687
1.62080421099731
1.963421776810709
6.571941889212168
34.73867888472354
1.813258302346799
1.72619112302493
3.060992530229607
19.55113623825438
105.8850726685032
126.7741706489161
140.6582217016348
148.5698140766117
114.3599867400594
128.8939409119964
142.181909574368
149.2636307552168
119.6674640287207
130.689807691249
142.609798914564
149.2079813923468
134.5834653076292
134.0437241850493
144.9549577902516
150.3701308981856
153.3866694463688
158.2745471450604
167.895431639347
178.1481810871796
153.7600095523853
158.9646385325621
169.2797169296426
180.1464672328884
153.7252877790638
159.5123705943866
169.4887573147188
181.29497867815
154.8234916116018
161.1738211084488
170.9140834962795
183.7013126595778
190.5373616375938
201.7904092490118
209.3374024197923
218.1625378574703
192.3779177268498
203.947528110537
212.1164340976295
219.3304694355257
193.498644810763
205.0480223664094
213.6470887709732
218.326294088139
195.2367036046396
206.970960321728
215.5720136369855
213.2095469716095
181.4274662546926
165.0707996051472
114.0352198092735
78.67369791964198
173.2946546212348
162.5394196503293
121.5218397125551
81.36354416079615
171.9959397087667
161.3141325045212
125.2965799255858
83.49462776256483
171.9730658884536
161.6594097264723
130.7125353475643
84.86383490947327
73.05112447447389
72.10770013802251
71.29231983965174
70.93004397826186
72.92900633148237
71.73550820387943
70.8509129814221
70.47272779871429
72.80673089258723
71.87248744190777
71.13418970444842
70.90447203155175
72.84653580666034
71.55366133861915
70.61805223544361
70.29688272017896
70.98546304827977
70.60490118821529
71.90502750556463
82.83049681610292
70.38170689466678
69.65704818731834
69.03042530274354
75.82086486782163
70.9298646070749
70.22941767072622
68.89583192606926
69.99731046665096
70.19840635227868
69.23779389295895
66.59795900476057
60.73660746507012
109.3401009170087
114.2518218476503
117.855949742337
119.6768114090454
109.8050852682962
114.3868014499287
118.0398167031473
119.9429302056207
110.2398964957033
114.368997158222
118.2215866214936
120.2786162759886
108.5601478180878
114.5207796071745
118.1133262881988
120.4533955235192
122.3928921155508
123.6401511538922
119.5301327353581
106.8656019643457
123.2434857969625
125.0506888441477
123.6040818410195
115.1013657302202
123.3302876154515
125.4943483638383
123.6456597754787
119.0252053964381
123.7373708095543
126.319846417137
126.2797158972953
127.992429576679
54.09184205782155
71.27151978915388
77.56389857315175
79.75943876286338
50.81846613120479
69.89466811828137
76.9356801127805
79.66603403103194
48.22192924829361
68.23884415743154
76.32175268628583
79.54989404381908
46.39895906692995
65.9339762773144
75.50436487524122
79.42095834807238
79.26091156214952
73.28907727236866
58.94008750383095
53.28230192835517
79.25269038635297
73.51420885301782
60.14523216193796
51.93669967143565
79.25459097198599
74.01479629155899
61.86254167573432
49.49676846179707
79.31310771399592
74.73199060223941
63.82095341696198
47.17466519205986
79.42095834778978
79.54989404373998
79.66603403077453
79.75943876253835
75.5043648749911
76.32175268617252
76.93568011229945
77.56389857276827
65.93397627745324
68.23884415733657
69.89466811844372
71.27151978934701
46.39895906692645
48.22192924822388
50.81846613120336
54.09184205792473
)
;

boundaryField
{
    back
    {
        type            empty;
    }
    inlet
    {
        type            zeroGradient;
    }
    front
    {
        type            empty;
    }
    top
    {
        type            zeroGradient;
    }
    outlet
    {
        type            fixedValue;
        value           uniform 80;
    }
    bottom
    {
        type            zeroGradient;
    }
    wall
    {
        type            zeroGradient;
    }
}


// ************************************************************************* //
