/*--------------------------------*- C++ -*----------------------------------*\
  =========                 |
  \\      /  F ield         | OpenFOAM: The Open Source CFD Toolbox
   \\    /   O peration     | Website:  https://openfoam.org
    \\  /    A nd           | Version:  11
     \\/     M anipulation  |
\*---------------------------------------------------------------------------*/
FoamFile
{
    format      ascii;
    class       volVectorField;
    location    "0.053";
    object      U;
}
// * * * * * * * * * * * * * * * * * * * * * * * * * * * * * * * * * * * * * //

dimensions      [0 1 -1 0 0 0 0];

internalField   nonuniform List<vector> 
880
(
(25 -7.768126373978579e-16 0)
(25 -7.171898102292308e-16 0)
(25 1.736698304941469e-15 0)
(24.99999998350138 -8.962278379372272e-09 0)
(25 1.076437086916421e-15 0)
(25 -1.212843850306765e-15 0)
(25.00000000000002 -8.270039171691461e-14 0)
(25.00000444432361 -6.865922280854412e-06 0)
(25 0 0)
(25.00000000000001 1.653566269396807e-15 0)
(25 -2.693410999856588e-12 0)
(24.99999064635809 -3.896709373815625e-05 0)
(25 0 0)
(25 -1.058794152545905e-15 0)
(24.99999999999926 7.938121274187716e-12 0)
(24.99937274842772 -0.0005550659881777233 0)
(25 -7.723068947533943e-16 0)
(25 -6.500969028608953e-16 0)
(25.00000000000001 -2.038106907808283e-15 0)
(25 3.260723809435867e-12 0)
(25 -1.007112767629856e-15 0)
(25 2.187809804443156e-15 0)
(25.00000000000003 7.774826515998284e-15 0)
(25 5.7392577607469e-15 0)
(25.0000000025049 -2.142469508627971e-09 0)
(24.99999997156232 2.705587950801822e-08 0)
(25.00004459136223 7.773187961239824e-05 0)
(24.99986465491308 -0.0003860628143476388 0)
(24.9792790399757 0.02752377269733371 0)
(24.90271285093267 0.1612507683473405 0)
(24.85661414149837 0.3306495104643098 0)
(24.86938322455356 0.4184969303265704 0)
(24.99999998986091 -8.609923267049e-09 0)
(24.99999998311448 -1.320127431365342e-08 0)
(24.99999997972618 -1.541009264653154e-08 0)
(24.99999999452469 -6.773937887701999e-09 0)
(24.99999982006306 6.617796510398897e-07 0)
(24.99999987000457 9.90556297410692e-07 0)
(24.99999988799731 1.156051316447778e-06 0)
(24.99999963784701 4.76594997916522e-07 0)
(24.99979718811428 0.001044247975450833 0)
(24.99976264563123 0.001165788537693148 0)
(24.99977563939623 0.00129487116647179 0)
(24.99950199274826 0.0009663634346277876 0)
(24.86975704178112 0.4620792505505831 0)
(24.87719235227309 0.5109881114376283 0)
(24.8862951572473 0.529564093070395 0)
(24.81837076115974 0.5708326780153252 0)
(25.00087903963442 0.5892242701411267 0)
(25.1145307175744 0.4415203505754779 0)
(25.12742710018434 0.207762738967653 0)
(25.05533972579654 0.05831969418994004 0)
(24.99984753549693 0.002791438336978867 0)
(25.00014440059045 0.002654496815560113 0)
(25.00040664114962 0.001706266751028835 0)
(25.00025449074781 0.0005306712261865359 0)
(24.99999984764644 3.661316345871728e-06 0)
(25.0000002009313 3.507697125490781e-06 0)
(25.00000048466222 2.241176855978123e-06 0)
(25.00000027295047 6.855898257055108e-07 0)
(24.99999993386418 -4.796310814431076e-08 0)
(24.99999993350739 -4.455001309371724e-08 0)
(24.99999995696757 -2.509389578694516e-08 0)
(24.99999998700511 -6.632820486174791e-09 0)
(24.99999999874698 -6.126537130164774e-10 0)
(24.99999999998806 -1.276263740087001e-11 0)
(25 -5.967164438479126e-14 0)
(24.99999999999999 -4.111593586539407e-15 0)
(25.0000000410589 7.202334807986154e-08 0)
(25.00000000120764 1.667246633524253e-09 0)
(24.99999999999137 -1.130775549020583e-10 0)
(24.99999999998823 -1.387638744075801e-11 0)
(25.00004329705654 5.913199584073733e-05 0)
(25.00000148584467 1.525164377157284e-06 0)
(25.00000000514721 -1.148103198220911e-08 0)
(24.99999999778014 -8.536952156110877e-09 0)
(25.00890853237776 0.007416397241766585 0)
(25.00037623088339 0.0002643173968908721 0)
(25.00000241698285 -3.644099637640461e-08 0)
(24.99999968416519 -6.395566515971921e-07 0)
(24.99999982019989 -1.832099381498242e-07 0)
(24.99999999879374 -2.266381112434145e-09 0)
(25 -1.806744813038873e-12 0)
(25 1.014383500354041e-15 0)
(24.99999982083656 -4.858235897524173e-07 0)
(24.99999999642383 -2.201634403520542e-08 0)
(25.00000000001413 -7.544502040453217e-10 0)
(25 -2.124064581475166e-12 0)
(24.99997151284832 0.0001151746319397592 0)
(24.99999877547795 6.583244289040035e-06 0)
(24.99999996338027 1.795791989029315e-07 0)
(24.99999999799639 -1.499560869081882e-09 0)
(25.01895902667503 -0.004702766038910951 0)
(25.00056766878763 -0.001192383417905256 0)
(24.99999990539501 -4.265231058617302e-06 0)
(25.00000000020201 -2.230402323539378e-09 0)
(25.00000000150281 -1.910737539554801e-09 0)
(24.99999682031103 -1.254675631146281e-06 0)
(24.99934269974637 -0.0002385272776688539 0)
(24.43317219479913 0.2620871270477048 0)
(24.99999996972895 -3.792246533711693e-08 0)
(24.99999777268197 2.4767798468219e-06 0)
(24.9971973187543 0.003014471918162595 0)
(23.68585975551456 1.153994235070502 0)
(24.99999990845189 -8.51581061580921e-08 0)
(24.99999783549065 6.185689921156192e-06 0)
(24.99653065027312 0.006311320250932862 0)
(23.61601823180946 1.88839913288035 0)
(24.99999987803396 -1.141061994992561e-07 0)
(24.99999736745809 8.049916897506259e-06 0)
(24.99605444823489 0.007857915693942287 0)
(23.63402774594382 2.143870187532419 0)
(23.56586927769069 2.26437681458349 0)
(24.9953581909005 0.009134207510416671 0)
(24.99999665015368 1.004605903212968e-05 0)
(24.99999984439724 -1.461874776907916e-07 0)
(23.50732856773454 2.391043446280394 0)
(24.99463568612049 0.0108720263419984 0)
(24.99999588921559 1.29561415773334e-05 0)
(24.99999979247747 -1.916924661384059e-07 0)
(23.3952965465118 2.506163907462132 0)
(24.99332462957317 0.01254636100332744 0)
(24.99999424669491 1.601348021354958e-05 0)
(24.99999974215267 -2.449271597017838e-07 0)
(23.31809362684676 2.698629641939045 0)
(24.99230094186072 0.01624599848395128 0)
(24.99999323458622 2.338836010979148e-05 0)
(24.99999960205932 -3.638854525429411e-07 0)
(24.99999964652672 -3.297200599593086e-07 0)
(24.9999940684122 1.982991661437262e-05 0)
(24.99210449712747 0.0160088145593168 0)
(23.20973795414578 2.901703060621844 0)
(24.99999959688308 -3.811600695465655e-07 0)
(24.99999221812514 2.318720022407953e-05 0)
(24.99101404004942 0.01786170452766664 0)
(23.18741925584136 2.971586408371903 0)
(24.99999951478454 -4.811703588651293e-07 0)
(24.99999114969416 2.807038979585302e-05 0)
(24.99056820168773 0.01923860517841032 0)
(23.31763033974013 2.844970041996151 0)
(24.99999958812728 -3.45281701855159e-07 0)
(24.99999456965461 1.895147457879729e-05 0)
(24.99231959048101 0.01340797833464724 0)
(24.07310138785227 1.941993209197678 0)
(24.99999421832629 -1.745201751377164e-05 0)
(25.00006503315499 -0.000172187914125702 0)
(25.0187151261509 0.009028942199669418 0)
(25.42896465582838 0.9361209116293757 0)
(25.00000033608079 -6.416325329674836e-07 0)
(24.99967869827629 -0.0005006524888552548 0)
(24.98210932679386 -0.02511222524251243 0)
(24.83562548715931 -0.7256481258409601 0)
(24.99999969161598 -4.706462933898059e-07 0)
(24.99967664773269 -0.0002657835752256945 0)
(24.93816010489778 -0.0389432338944381 0)
(23.26648906379268 -1.1056643729923 0)
(24.9999996457215 -4.350358342122308e-07 0)
(24.99952148353768 -0.0002838716341124892 0)
(24.87521567737458 -0.03092611938506163 0)
(21.83802572403559 -0.4387129696949029 0)
(21.89573868257364 -0.1812748056185727 0)
(24.92482815192281 -0.03235545444187721 0)
(24.99981643938467 -0.0001947494961620834 0)
(24.99999983231734 -3.269112240694579e-07 0)
(22.25578657761704 0.1332471706862481 0)
(24.93446935816129 -0.02135986969556917 0)
(24.99983125536937 -0.0001419870274647705 0)
(24.99999984500599 -2.410413044608383e-07 0)
(22.75619709359405 -0.02767628575228013 0)
(24.9589872258958 -0.01845515022053311 0)
(24.9999167713748 -9.107172974591532e-05 0)
(24.99999993229587 -1.387732438166072e-07 0)
(22.46219340706596 0.1505730399905167 0)
(24.94623448032335 -0.01825273500448544 0)
(24.99988263028169 -0.0001032781255490367 0)
(24.99999990350128 -1.585386003325824e-07 0)
(23.56982865458479 0.2824300166905565 0)
(24.98308953162898 -0.005524806370590322 0)
(24.99997124023287 -2.23449507113872e-05 0)
(24.99999997606526 -3.352175990390095e-08 0)
(24.55449715547524 0.1202839729154265 0)
(24.9977652487657 -0.001110591984109069 0)
(24.99999756384481 -2.425832863907235e-06 0)
(24.99999999828907 -2.670816380029712e-09 0)
(24.9418432242954 -0.03358320684612173 0)
(24.99989771521275 -0.0002974161915950468 0)
(24.99999993108607 -4.687873088671719e-07 0)
(24.99999999996365 -4.705814610092423e-10 0)
(25.01788634682335 -0.09592030769818448 0)
(25.00018341806379 -0.0005365644160648371 0)
(25.00000047620321 -1.174376328546077e-06 0)
(24.99999999973907 -1.536713286587538e-09 0)
(24.65061005572746 -0.0005763316678763039 0)
(24.99479535953371 -3.629517352236237e-06 0)
(24.99997654547064 -6.843590055839831e-09 0)
(24.999999961274 6.774211527959859e-12 0)
(24.65110772104357 -0.001889028539585916 0)
(24.99480176391944 -4.143173272318196e-06 0)
(24.99997655785661 8.255558586634744e-09 0)
(24.99999996098469 3.031086436183416e-10 0)
(24.65028683237511 -0.006238209219748836 0)
(24.99479690651323 1.115860887439256e-05 0)
(24.99997644155841 1.173985531668955e-07 0)
(24.9999999588682 1.702671301030571e-09 0)
(24.64102466120414 0.006675144696036178 0)
(24.99477872125026 0.0001797268249468468 0)
(24.99997638247163 6.228779003053281e-07 0)
(24.99999995542128 2.818836568769283e-09 0)
(25.01788634688646 0.09592030769079792 0)
(25.00018341810195 0.0005365644247531576 0)
(25.00000047625547 1.174379017299575e-06 0)
(24.99999999970355 1.544967242464091e-09 0)
(24.94184322435306 0.03358320685611446 0)
(24.99989771525853 0.0002974161904701427 0)
(24.99999993119241 4.688050121267777e-07 0)
(24.99999999995463 4.697338849899962e-10 0)
(24.5544971554904 -0.1202839728394874 0)
(24.99776524875126 0.001110592014681984 0)
(24.99999756383981 2.425855525973726e-06 0)
(24.99999999828997 2.669436138273767e-09 0)
(23.56982865450173 -0.2824300167213771 0)
(24.98308953152476 0.005524806371336547 0)
(24.99997124022306 2.23449466460953e-05 0)
(24.9999999760897 3.352014088472799e-08 0)
(24.99999983224255 3.268909323857212e-07 0)
(24.9998164392502 0.0001947495453274232 0)
(24.92482815186458 0.03235545441418922 0)
(21.89573868252189 0.1812748056809235 0)
(24.99999984495636 2.410761354857219e-07 0)
(24.99983125536004 0.0001419870174557743 0)
(24.93446935811424 0.02135986972462854 0)
(22.25578657759438 -0.1332471707545473 0)
(24.99999993235664 1.387816271435529e-07 0)
(24.9999167713113 9.107171331371552e-05 0)
(24.95898722589557 0.01845515023313597 0)
(22.75619709350303 0.027676285726062 0)
(24.99999990349357 1.585247476009997e-07 0)
(24.99988263025469 0.0001032781408266035 0)
(24.94623448024053 0.01825273495249139 0)
(22.46219340707673 -0.1505730399355301 0)
(21.8380257240866 0.4387129696105856 0)
(24.8752156774465 0.03092611934758621 0)
(24.99952148360653 0.0002838715499396085 0)
(24.99999964574964 4.35012377916444e-07 0)
(23.26648906385427 1.105664373057385 0)
(24.93816010496158 0.0389432338936717 0)
(24.99967664783989 0.0002657835918636098 0)
(24.99999969173556 4.706336025587233e-07 0)
(24.83562548716029 0.7256481258563863 0)
(24.98210932687451 0.0251122252588097 0)
(24.99967869828057 0.0005006524893441887 0)
(25.00000033616502 6.416828438294777e-07 0)
(25.4289646558069 -0.9361209116383552 0)
(25.01871512618855 -0.009028942199076214 0)
(25.00006503318475 0.0001721879366699812 0)
(24.99999421818606 1.745202785994301e-05 0)
(24.99999964655979 3.297174077116773e-07 0)
(24.99999406834081 -1.982992506354373e-05 0)
(24.99210449709274 -0.01600881456327134 0)
(23.20973795406331 -2.901703060615025 0)
(24.99999959686813 3.811554469509124e-07 0)
(24.99999221809225 -2.318719930374826e-05 0)
(24.99101404003946 -0.01786170451791189 0)
(23.18741925584565 -2.971586408364984 0)
(24.99999951471546 4.811686987880784e-07 0)
(24.99999114969528 -2.807037863179912e-05 0)
(24.99056820174833 -0.01923860516422612 0)
(23.31763033974645 -2.844970041996939 0)
(24.99999958800936 3.452702459070853e-07 0)
(24.99999456965617 -1.895145599244071e-05 0)
(24.9923195905188 -0.01340797832777983 0)
(24.07310138785961 -1.941993209196425 0)
(23.31809362670186 -2.698629641946784 0)
(24.99230094192742 -0.01624599846163531 0)
(24.9999932344852 -2.338837442957948e-05 0)
(24.99999960207132 3.638877109524603e-07 0)
(23.39529654640161 -2.506163907454743 0)
(24.99332462942752 -0.01254636099992718 0)
(24.99999424668275 -1.601348642303863e-05 0)
(24.99999974213053 2.449278682014404e-07 0)
(23.50732856779726 -2.391043446277061 0)
(24.99463568599457 -0.01087202636178882 0)
(24.99999588911555 -1.295614843178419e-05 0)
(24.99999979249685 1.916916419288345e-07 0)
(23.5658692775696 -2.26437681461175 0)
(24.99535819103581 -0.00913420750066656 0)
(24.99999665015898 -1.004606408006826e-05 0)
(24.99999984441683 1.461874358126705e-07 0)
(25.0000000014525 1.91131917474218e-09 0)
(24.99999682023108 1.254672171165518e-06 0)
(24.99934269976196 0.0002385272855813495 0)
(24.43317219489424 -0.2620871270522411 0)
(24.99999996978419 3.792057824091388e-08 0)
(24.99999777275951 -2.476779801381538e-06 0)
(24.99719731869783 -0.003014471927787722 0)
(23.68585975554037 -1.153994235054566 0)
(24.99999990847893 8.515790238804507e-08 0)
(24.99999783548406 -6.185692190465515e-06 0)
(24.99653065027001 -0.006311320261992708 0)
(23.61601823173643 -1.888399132885702 0)
(24.99999987806809 1.141060891842821e-07 0)
(24.99999736744114 -8.049920428093218e-06 0)
(24.99605444825613 -0.00785791568033848 0)
(23.63402774597367 -2.143870187521183 0)
(25.00000000021402 2.230795992999821e-09 0)
(24.9999999979792 1.500149395565453e-09 0)
(25 1.868276568640592e-12 0)
(25 -1.665300865284991e-15 0)
(24.99999990549017 4.265241378209953e-06 0)
(24.99999996339474 -1.795817673224868e-07 0)
(24.99999999995633 7.575143637457698e-10 0)
(25 1.759455003539671e-12 0)
(25.00056766876425 0.001192383406443588 0)
(24.9999987754336 -6.583237868864301e-06 0)
(24.99999999646339 2.201225541615329e-08 0)
(24.99999999881317 2.265558142203154e-09 0)
(25.01895902667398 0.004702766038991398 0)
(24.99997151284395 -0.0001151746269576094 0)
(24.99999982083425 4.858237043208521e-07 0)
(24.99999982019673 1.832077268595183e-07 0)
(25.00000000000002 -4.939390916982872e-15 0)
(24.99999999998629 1.396012870436719e-11 0)
(24.99999999775637 8.522151736743398e-09 0)
(24.9999996841438 6.395595674122075e-07 0)
(25 7.830774979265678e-14 0)
(25.00000000000232 1.126183640937328e-10 0)
(25.00000000504048 1.148115564034021e-08 0)
(25.00000241698036 3.644875088784817e-08 0)
(24.99999999998778 1.273909322547598e-11 0)
(25.00000000120736 -1.667193546137758e-09 0)
(25.00000148590393 -1.525144239145062e-06 0)
(25.00037623087335 -0.0002643174041458943 0)
(24.999999998737 6.13015900678693e-10 0)
(25.00000004106926 -7.202746267351884e-08 0)
(25.00004329698301 -5.913202475257577e-05 0)
(25.0089085324045 -0.007416397211662448 0)
(24.99999993394134 4.795518181318344e-08 0)
(24.99999984771711 -3.661320340359123e-06 0)
(24.99984753554778 -0.002791438359992474 0)
(25.00087903965451 -0.5892242701425799 0)
(24.99999993357116 4.454733482063319e-08 0)
(25.00000020092609 -3.50766962918565e-06 0)
(25.00014440060393 -0.00265449679905874 0)
(25.11453071763206 -0.4415203505925291 0)
(24.99999995698658 2.510300150720225e-08 0)
(25.00000048456451 -2.241175607358851e-06 0)
(25.00040664116698 -0.001706266749776306 0)
(25.12742710020116 -0.2077627389660329 0)
(24.99999998702022 6.635531136425682e-09 0)
(25.00000027290464 -6.856132453876441e-07 0)
(25.00025449074444 -0.000530671194866525 0)
(25.055339725858 -0.05831969418727768 0)
(24.81837076111838 -0.5708326779768773 0)
(24.99950199261073 -0.0009663635195507224 0)
(24.99999963789241 -4.766037614544974e-07 0)
(24.99999999456051 6.766892036427222e-09 0)
(24.88629515727743 -0.5295640930651244 0)
(24.99977563922609 -0.001294871184474066 0)
(24.99999988801457 -1.156048834075638e-06 0)
(24.99999997970706 1.541239075421444e-08 0)
(24.87719235217681 -0.5109881115107135 0)
(24.99976264554854 -0.001165788455908338 0)
(24.99999987000322 -9.905746804578215e-07 0)
(24.99999998313488 1.320450232306482e-08 0)
(24.86975704180541 -0.4620792505286047 0)
(24.99979718835879 -0.001044247709820915 0)
(24.99999982007599 -6.617664518842087e-07 0)
(24.99999998984291 8.607614796178569e-09 0)
(24.86938322451822 -0.4184969303204994 0)
(24.99986465492862 0.0003860625493372263 0)
(25 -6.845768380582749e-14 0)
(25.00000000000001 -3.209163808661596e-12 0)
(24.85661414151483 -0.3306495104702552 0)
(25.00004459143139 -7.773178482064659e-05 0)
(25 5.786810595746405e-16 0)
(25.00000000000001 6.027544422564191e-15 0)
(24.90271285088677 -0.1612507683216115 0)
(24.99999997159236 -2.705875543162176e-08 0)
(25 3.709941798090211e-16 0)
(25.00000000000001 3.737520284877071e-15 0)
(24.97927903997333 -0.02752377265522053 0)
(25.00000000249245 2.137206085328528e-09 0)
(25 -1.410336657540298e-15 0)
(25.00000000000002 -4.748217498501241e-15 0)
(25 1.420908939734042e-15 0)
(25 2.031241557625116e-15 0)
(25 -1.366656764132813e-15 0)
(24.99999998160273 9.683715524489074e-09 0)
(24.99999999999999 -2.843418720158383e-19 0)
(25 1.540348729941858e-15 0)
(25 7.039954200559402e-14 0)
(25.00000444473713 6.865068500483082e-06 0)
(25 -1.366459512028481e-15 0)
(25 -1.384123782183158e-15 0)
(25 2.145697248462044e-12 0)
(24.99999064671002 3.896710683983424e-05 0)
(25 -1.223177646233899e-15 0)
(25 -3.365101914600816e-16 0)
(25.00000000000005 -3.902594915931214e-12 0)
(24.99937274848387 0.0005550659549844892 0)
(25.00000840649097 2.036018184851487e-09 0)
(25.00002424067601 1.495656929224442e-05 0)
(25.00006044710235 8.161562091894233e-05 0)
(24.99867083904139 -0.003617844859936908 0)
(25.0000242401581 -1.4956887704348e-05 0)
(25.00009714205107 -7.355944496226846e-10 0)
(25.00029482222586 -0.0003604489626714139 0)
(24.95775122974213 -0.03553785540451743 0)
(25.0000604470411 -8.161412154159956e-05 0)
(25.00029482214629 0.0003604488269993913 0)
(24.9892752892112 4.815037209097192e-10 0)
(24.61858523891624 -0.1055486695656367 0)
(24.99867083870207 0.003617845196773687 0)
(24.95775122991245 0.03553785464825001 0)
(24.61858523918201 0.1055486699442385 0)
(22.48557097898061 -6.183419317411127e-11 0)
(20.36928097008434 2.411614141007872 0)
(21.47159510720587 2.991668080237886 0)
(23.80075092261411 1.847399485680342 0)
(24.61456728234821 0.689086823898124 0)
(20.92035364267387 4.62711853363683 0)
(21.19238708177071 4.762193492461072 0)
(22.45469606587577 4.221517311098701 0)
(23.41428513246507 2.997432132897309 0)
(21.75990929200006 5.380153680658276 0)
(22.28538733028515 5.414537800219161 0)
(22.76170757612506 5.277767427920326 0)
(23.25544680777592 4.714353499538909 0)
(22.24637253635894 5.501000612374075 0)
(23.19800075224561 5.815411818430925 0)
(23.30875189437012 5.831905589619424 0)
(23.51532615469383 5.483034914965502 0)
(23.62168600104224 5.784646165715608 0)
(23.66142228158177 5.841770938479421 0)
(23.6772365941972 5.850220352287793 0)
(23.37199230673498 6.16237957389492 0)
(23.5656368345576 6.092001058087265 0)
(23.64327740109122 6.139911427826267 0)
(23.664787700608 6.138960026259732 0)
(23.64041434200235 6.591907505643796 0)
(23.62890854447215 5.910286874576235 0)
(23.74499302046579 5.917023616261348 0)
(23.7681120894419 5.913499128064609 0)
(24.73619728577113 6.579133764564586 0)
(22.3299589371843 5.511482586155497 0)
(22.35610590746524 5.506619426350771 0)
(22.3670981612638 5.508252898577375 0)
(26.07190297240805 7.659149080615513 0)
(25.51237333778241 4.646808869717903 0)
(26.72060189525029 2.009996733516291 0)
(26.05798146332948 0.515631293373129 0)
(25.35445681121673 0.1225849772012052 0)
(27.27333901669184 3.755673347526465 0)
(28.44608038517089 0.3245675226450598 0)
(26.47956918212681 -0.1752822975863804 0)
(25.52444822283094 -0.0622893968818785 0)
(29.01686228339601 2.01875236436109 0)
(28.061022041429 -0.8373508295041736 0)
(26.84407580859355 -0.6061076324333149 0)
(25.84581284103441 -0.2532418114826572 0)
(21.26835749813787 1.49690540814162 0)
(21.83662607865514 0.5743814013470571 0)
(23.30333700166417 -0.2948761595766631 0)
(24.31574827470157 -0.2968746190835476 0)
(25.0512039315435 0.01812089442439186 0)
(25.00259914135623 0.0003068206289650844 0)
(25.00003000075544 -1.872795008657007e-05 0)
(24.99999991253649 -3.363728192609284e-06 0)
(25.09228029708117 -0.004643676626271665 0)
(25.00529689447364 -0.0004349918978704859 0)
(25.00009353337625 -4.311769649172795e-05 0)
(25.0000009949805 -2.380432382236246e-06 0)
(25.19631093505031 -0.05791243329728007 0)
(25.01340972990639 -0.004689780661975887 0)
(25.00024854169647 -0.0001396503225471779 0)
(25.00000182758217 -3.488952803846135e-06 0)
(24.8311608066246 -0.08059486354219234 0)
(24.98501103619011 -0.007500908262892561 0)
(24.99966983496494 -0.0002321966501714737 0)
(24.9999877556202 -3.419094791727948e-06 0)
(24.99999957334459 -4.270328421731116e-07 0)
(25.00000011558153 2.229492813284127e-07 0)
(24.99998717149745 -7.683463691259197e-05 0)
(24.66261498274033 1.098460161621494 0)
(24.99999979257555 3.113473960733806e-09 0)
(25.00000000146139 1.022761043411397e-07 0)
(24.99999808862265 -5.048269554891645e-05 0)
(23.30223403825648 1.938654550332453 0)
(24.99999993263427 -2.894251624104726e-08 0)
(24.99999998111994 3.606889829388713e-08 0)
(25.00000329195326 -2.169090351055987e-05 0)
(21.90801218202911 1.30415681374902 0)
(24.99999982531466 -2.843586378496185e-08 0)
(24.99999997048337 -1.193020088789794e-08 0)
(24.99999446322447 4.912397434046591e-06 0)
(19.39565826975797 -0.2361990541963285 0)
(16.90272144872601 6.578233160388932 0)
(17.26078081902519 9.143262032681577 0)
(17.70951130601377 10.57243866835449 0)
(17.87949326250384 11.08858730162127 0)
(13.97479810559436 7.157816074369962 0)
(16.10929283964062 9.589196684080902 0)
(17.2630029392604 11.19695140550818 0)
(17.68912271999929 11.70097993554319 0)
(12.11346799122419 6.729031784282363 0)
(15.12608350962766 9.479247347721868 0)
(17.0207985399155 10.89055223448622 0)
(17.63300262473938 11.36470488271104 0)
(11.56421878046156 5.170001524816716 0)
(13.78775755642712 8.212914975951781 0)
(14.70847270928153 10.01755806462626 0)
(15.4001789422551 10.35932702192136 0)
(17.88510123933585 11.17569417245844 0)
(17.8840515294972 11.19639668913074 0)
(17.85524288968226 11.21583355335398 0)
(17.8665980931487 11.24942597272487 0)
(17.74972382223351 11.7620715672521 0)
(17.76552612772021 11.75700262293303 0)
(17.76935067050465 11.75238707396062 0)
(17.80516053644873 11.74708336161012 0)
(17.71355975090288 11.44093054504115 0)
(17.71788800052973 11.44384166286496 0)
(17.71609036719844 11.44723246578823 0)
(17.73241027829133 11.44299845394414 0)
(15.61302097712725 10.39998100363728 0)
(15.62061355043902 10.39922783064756 0)
(15.61701752181695 10.39864910769633 0)
(15.56773482769717 10.36927891820538 0)
(17.82290413347047 11.22612008199192 0)
(17.89504028157521 11.18372364617273 0)
(18.58385010497923 10.63094718494899 0)
(20.07912648892503 8.574391475179835 0)
(17.80130746987387 11.72161852220924 0)
(17.90547294635731 11.66827850536478 0)
(18.64781447601697 11.24862481531106 0)
(20.68574979395068 10.419278752326 0)
(17.74245069677826 11.44760328942788 0)
(17.8791968082681 11.38275010692492 0)
(18.86553865598301 11.265278518852 0)
(24.93469592954371 14.27226592201598 0)
(15.73571180636252 10.38614871979385 0)
(15.91846032554381 10.29501592537116 0)
(18.08413361650543 11.03437623766913 0)
(32.74522582788742 18.84201750935264 0)
(25.09406646410656 4.325269863557184 0)
(21.93445983235821 -4.097831164769657 0)
(5.878950190460144 -4.446732101945243 0)
(2.68041857420401 -0.3602184726670431 0)
(24.3884478577648 4.745160539123327 0)
(17.194744355947 -5.594940095118238 0)
(0.3645851733262775 -5.102238163857892 0)
(-3.709558917360259 -0.6153274236609908 0)
(25.15270360497266 0.6850210288553595 0)
(10.9102051057553 -10.07131366095955 0)
(-2.014329886265656 -4.512485807008948 0)
(-2.727949383523177 -0.8826401813230305 0)
(15.0303496007532 -6.994841735545605 0)
(5.59237291975527 -2.557299744170783 0)
(-2.995741916375498 -1.916887378112693 0)
(-2.120428094787201 -0.7310000239624925 0)
(2.888226459479158 -0.04213626526076507 0)
(3.332731968687109 0.279328927827787 0)
(3.994909069333077 0.6674573249190926 0)
(2.82491263354808 2.934541696476233 0)
(-3.859969542253207 0.01775643307700551 0)
(-3.57340814816699 0.7058988378217398 0)
(-2.042283321850959 2.571123741363377 0)
(-1.036926142746652 5.683505469008658 0)
(-2.945360457063664 -0.1501755537200699 0)
(-2.662372264373874 1.25018884084329 0)
(-1.02808907431783 4.152290449324819 0)
(-0.5372794388643782 7.669868307161116 0)
(-2.156039976138072 -0.1772332632613259 0)
(-2.263196190942222 1.073514870813185 0)
(-1.183120653446079 4.284820994807874 0)
(-0.4567135807694991 8.917117579340404 0)
(19.40811927761775 -5.047649393754769 0)
(22.49505316335899 -3.213156046287897 0)
(24.15701531127593 -2.278853843153014 0)
(24.9974893586104 -2.138285789836738 0)
(13.03139185800974 -5.170423286210014 0)
(19.17730426714439 -4.649923162690909 0)
(22.65184467182259 -3.894123330116836 0)
(25.38416170718219 -2.320208499743821 0)
(5.391159660393178 -2.881996787783125 0)
(13.77811358512984 -2.762283736867093 0)
(19.87228081985687 -4.451815615828573 0)
(27.3714173265268 -2.030869021299733 0)
(3.660791666082515 3.098175501028891 0)
(8.685305588956556 5.352854729194862 0)
(16.61346388378013 2.660236462473714 0)
(32.98582056886929 -0.4484295550641388 0)
(26.04522703424974 -4.67078816210958 0)
(26.37858582092743 -8.74438658907988 0)
(19.56757709055406 -10.00107092344833 0)
(13.66316453038559 -9.942817436207282 0)
(28.00626721395555 -8.436427843919311 0)
(32.48114494240949 -12.74185542881765 0)
(21.15625971159646 -17.19693238730945 0)
(11.16428163590755 -14.0250346770951 0)
(29.34632814794268 -10.73016344070822 0)
(29.51639671795744 -16.6886746175164 0)
(19.64298972943076 -12.37867235527428 0)
(7.708096098080397 -12.80746137929319 0)
(18.20692061659738 -9.412995533510079 0)
(9.400717230213669 -13.64541400873806 0)
(3.937705841170029 -14.1856255198748 0)
(0.3841559978268223 -9.109398142182595 0)
(-0.1670227908886114 -6.631334068374003 0)
(-0.421067535498004 -6.417920875186217 0)
(-0.2969253123590068 -5.310109495437332 0)
(0.2032149444824741 -1.535602464584946 0)
(2.442407523782084 -12.51195916396802 0)
(1.502109839134628 -11.98165576876909 0)
(0.6627050587130942 -10.2365667458498 0)
(-0.5561803746540609 -3.630911094825303 0)
(7.015590611720063 -12.37518599361106 0)
(4.274547478509414 -10.36476609567933 0)
(2.435708398566413 -5.615107698830985 0)
(1.259995037944425 -0.7744664518878682 0)
(10.22378704642094 -7.996420582447992 0)
(9.016407419294739 -4.944862641158527 0)
(8.214801667575284 -1.743075075537184 0)
(7.865476565802441 -0.1942344781105071 0)
(0.2032149444782645 1.535602464609084 0)
(-0.5561803746272064 3.630911094834822 0)
(1.259995037962723 0.7744664518710769 0)
(7.865476565754905 0.1942344780386414 0)
(-0.2969253123672068 5.310109495454057 0)
(0.662705058728063 10.236566745859 0)
(2.435708398594604 5.615107698814618 0)
(8.214801667590487 1.743075075526554 0)
(-0.4210675354995824 6.417920875193283 0)
(1.502109839139446 11.98165576877092 0)
(4.274547478528664 10.36476609569251 0)
(9.01640741930945 4.944862641172907 0)
(-0.1670227908798225 6.631334068366779 0)
(2.442407523781462 12.51195916396014 0)
(7.01559061174104 12.37518599361947 0)
(10.2237870464517 7.996420582432386 0)
(13.66316453038623 9.942817436216451 0)
(19.56757709058883 10.00107092342924 0)
(26.37858582098272 8.744386589041895 0)
(26.04522703434684 4.670788162136617 0)
(11.16428163591066 14.02503467711625 0)
(21.15625971154927 17.19693238726411 0)
(32.48114494239455 12.74185542879432 0)
(28.00626721400034 8.436427843904536 0)
(7.708096098067655 12.80746137928275 0)
(19.64298972938666 12.37867235525944 0)
(29.51639671796486 16.68867461750903 0)
(29.34632814795941 10.73016344070717 0)
(0.3841559978259897 9.109398142171578 0)
(3.937705841181146 14.18562551987548 0)
(9.40071723019914 13.64541400874919 0)
(18.20692061657445 9.412995533506995 0)
(32.98582056887965 0.4484295550695627 0)
(16.61346388378209 -2.66023646244165 0)
(8.685305588989396 -5.352854729156418 0)
(3.660791666079694 -3.098175501011666 0)
(27.37141732656064 2.030869021296422 0)
(19.87228081990557 4.451815615838248 0)
(13.77811358513854 2.762283736916777 0)
(5.39115966038715 2.881996787788722 0)
(25.38416170722029 2.320208499729488 0)
(22.65184467189076 3.894123330132808 0)
(19.17730426715274 4.649923162739382 0)
(13.03139185797577 5.170423286217244 0)
(24.99748935865841 2.138285789825784 0)
(24.1570153113294 2.278853843155996 0)
(22.49505316336759 3.213156046348237 0)
(19.40811927755463 5.047649393746554 0)
(2.824912633561406 -2.934541696421758 0)
(3.994909069276867 -0.6674573249154518 0)
(3.33273196866802 -0.2793289278864131 0)
(2.888226459474122 0.04213626526772488 0)
(-1.036926142727656 -5.683505468986215 0)
(-2.042283321870203 -2.571123741352425 0)
(-3.573408148155562 -0.7058988378428577 0)
(-3.859969542234918 -0.01775643308136539 0)
(-0.5372794388536546 -7.669868307162257 0)
(-1.028089074313997 -4.152290449321122 0)
(-2.662372264347892 -1.250188840845083 0)
(-2.945360457023122 0.1501755537266182 0)
(-0.4567135807726831 -8.917117579352759 0)
(-1.183120653438731 -4.284820994829795 0)
(-2.263196190939737 -1.073514870810668 0)
(-2.156039976124499 0.1772332632694097 0)
(2.680418574232796 0.3602184726036075 0)
(5.878950190417819 4.446732101990595 0)
(21.93445983221022 4.097831164799229 0)
(25.0940664641007 -4.325269863561003 0)
(-3.709558917251746 0.6153274236245878 0)
(0.364585173298198 5.102238163849482 0)
(17.19474435588157 5.594940095083232 0)
(24.38844785782717 -4.745160539129261 0)
(-2.72794938339199 0.8826401812952368 0)
(-2.014329886276677 4.512485806960074 0)
(10.91020510568558 10.07131366091079 0)
(25.15270360501793 -0.6850210288785938 0)
(-2.120428094735954 0.7310000239512292 0)
(-2.995741916397177 1.916887378061261 0)
(5.592372919689781 2.557299744192864 0)
(15.03034960078416 6.994841735517749 0)
(20.07912648895327 -8.574391475163285 0)