/*--------------------------------*- C++ -*----------------------------------*\
  =========                 |
  \\      /  F ield         | OpenFOAM: The Open Source CFD Toolbox
   \\    /   O peration     | Website:  https://openfoam.org
    \\  /    A nd           | Version:  11
     \\/     M anipulation  |
\*---------------------------------------------------------------------------*/
FoamFile
{
    format      ascii;
    class       volScalarField;
    location    "0.107";
    object      p;
}
// * * * * * * * * * * * * * * * * * * * * * * * * * * * * * * * * * * * * * //

dimensions      [0 2 -2 0 0 0 0];

internalField   nonuniform List<scalar> 
880
(
80
80
80
80.00023227001748
80
80
80.00000000002098
80.00105904629513
80
79.99999999999999
80.00000000332624
80.00558423233478
80
80
80.00000009890141
80.01066474435433
80
80.00000000000001
79.99999999999994
79.99999999998374
79.99999999999999
80
79.99999999999983
80
79.99999914210485
80.00000385798103
80.02532339582147
79.95298898226854
80.87289797246616
83.4183711149756
85.50160873264404
86.41013281009116
80.00000447723929
80.00001726091048
80.00002117062736
80.00001249033795
80.00009232727045
80.00024817104755
80.00061447507959
80.00042475099559
80.05341690895779
80.11086170057742
80.18338114358414
80.18383401178934
87.43668789776126
88.75637309685233
90.11582900257727
91.68856910267046
90.90336925310751
88.47301580224625
86.57510971218517
85.29665453449812
80.3184514648576
80.60397152055812
80.77033266120731
80.67926941856184
80.00123789652787
80.00326898910976
80.00651985852677
80.00698404293783
80.00005173367002
80.00011992970532
80.00021376878088
80.00020767686549
80.00013177390231
80.00004115839643
80.00000466579378
80.00000012253025
80.00550343990842
80.00275297934323
80.00065340759161
80.00006189989057
80.52913454924308
80.31758573308825
80.11139021416719
80.02002371722648
84.02117214318004
82.79674353411619
81.64802158059962
80.67979729346499
80.14498879401428
80.00146654653889
80.00000206421362
80.00000000267849
80.01348012609326
80.00011930584887
80.00000015567336
79.99999999703131
79.9978691003807
79.99972919833672
79.99999992519491
80.00000036244842
81.83363775865675
80.007402699596
79.9997359420538
79.99997864610795
79.99996824029579
79.99987773522589
80.05954057990228
95.68982001501884
79.9999926122383
80.00050422628085
80.31068615549101
108.9738191652332
80.0000670264232
80.00159837189588
80.60472446278558
116.0180499666401
80.00018301633027
80.00461173620582
81.08945091593172
122.6471562812048
128.5445665222993
81.49175375601428
80.00611076657934
80.000255802436
135.6776260042416
82.11835793954999
80.01101500457651
80.00043574663319
140.5306166247967
82.47383935372781
80.01231790597022
80.00047154618694
146.1071076085306
83.17106659370695
80.02059896811396
80.00085264538562
80.00092227212522
80.02332267618911
83.92644460952995
151.9322195468496
80.00138666889514
80.03479829039479
84.98940964212915
153.9463012882607
80.00247612121778
80.0479777610315
85.28933484063052
145.8010129782397
79.99979250190754
80.01830894430292
83.11007921945443
123.6919506688013
80.00473516730572
80.11746455143773
83.56096780183714
96.95641721917511
80.00519629964748
80.13126143060686
81.27096187505543
70.34365015882514
79.99964012010572
80.03745122250497
79.79665999052041
57.36694841900707
79.9987300007538
79.93717898279424
77.78128571949489
50.57310032222136
48.67737529135889
76.91510864890968
79.91531927523934
79.99943881015201
46.23106766485253
76.54621649124033
79.91965487383412
79.99963046356032
44.60751964557669
76.68161392660498
79.95202904034932
79.99985174779704
41.87168415933765
76.4439870124145
79.95241943648402
79.9998521290685
48.6907876790424
78.12980072232143
79.98411667370144
79.99995020041239
57.0012185436294
79.26883360509767
79.99594801799746
79.99998897429826
63.44594000599025
79.68733882648161
79.99865970216415
79.99999689464435
69.20665572506805
79.88641521691756
79.99959611439037
79.99999840568931
71.44196147605831
79.51421187978264
79.99175327780463
79.99994551352383
71.98649368975205
79.52910209314302
79.99182964023201
79.99994571026559
72.71272815715096
79.54098844887262
79.99176516729048
79.99994554743941
73.85672892862131
79.59738017431371
79.99174966429392
79.99994710451435
69.20665572491494
79.88641521650327
79.99959611387014
79.99999840634712
63.44594000558057
79.68733882603945
79.99865970075068
79.99999689467771
57.0012185433601
79.26883360545618
79.99594801794545
79.99998897445722
48.69078767924683
78.12980072333488
79.98411667371252
79.99995020004995
79.99943881042587
79.9153192763859
76.91510864947138
48.67737529124171
79.99963046399331
79.91965487435731
76.54621649170998
46.23106766511471
79.99985174699391
79.95202904134935
76.68161392630905
44.6075196457085
79.9998521293258
79.95241943669741
76.44398701364894
41.87168415904026
50.57310032149741
77.78128571856971
79.93717898181339
79.99873000090992
57.36694841804874
79.79665998973266
80.03745122151963
79.99964011796416
70.34365015869508
81.27096187418667
80.13126143078115
80.00519629958649
96.95641721937609
83.56096780161211
80.11746455090919
80.00473516896866
80.00092227159458
80.02332267778101
83.92644461056651
151.9322195481843
80.00138666905399
80.03479829062505
84.98940964224386
153.9463012882814
80.00247612193348
80.04797776099906
85.28933483980532
145.8010129781588
79.99979250379926
80.01830894440657
83.11007921886862
123.6919506686581
146.1071076103646
83.17106659208429
80.02059896940051
80.00085264539463
140.5306166262374
82.47383935606227
80.01231790578539
80.00047154653494
135.6776260040308
82.11835794148588
80.01101500712065
80.00043574620395
128.5445665236247
81.49175375387888
80.00611076634706
80.0002558021054
79.99996824124517
79.99987773605139
80.0595405802176
95.6898200137923
79.9999926116398
80.00050422522816
80.31068615526571
108.973819165653
80.000067025809
80.00159837191549
80.60472446360393
116.018049966671
80.00018301565248
80.00461173601846
81.08945091544651
122.6471562816486
79.99997864578454
80.00000036286619
79.99999999711493
80.00000000260761
79.99973594107388
79.99999992522831
80.0000001566594
80.00000206362894
80.00740269988023
79.99972919863654
80.00011930520125
80.00146654624291
81.83363775895867
79.99786910071683
80.01348012574526
80.14498879410415
80.00000012162552
80.00006190001231
80.02002371778825
80.67979729379663
80.00000466562345
80.00065340724959
80.11139021576523
81.64802158076127
80.00004115898102
80.00275297940053
80.31758573227377
82.79674353405625
80.00013177421035
80.00550343978104
80.52913454998654
84.02117214284354
80.00005173253268
80.00123789553548
80.3184514642796
90.90336925292362
80.00011992870272
80.00326898919263
80.6039715205964
88.47301580147237
80.00021376837391
80.00651985967045
80.77033266131258
86.57510971182896
80.00020767649092
80.00698404371352
80.67926941869231
85.29665453392144
91.68856910316813
80.18383401269806
80.00042475036712
80.00001248977328
90.11582900283052
80.18338114473205
80.0006144749497
80.00002117059447
88.75637309788695
80.11086170111763
80.00024817118
80.00001726089332
87.43668789749795
80.05341690854786
80.00009232691126
80.00000447756301
86.41013281027769
79.95298898295269
80
80.00000000015649
85.50160873238006
80.02532339305857
80
79.99999999999999
83.41837111527971
80.00000385775876
80
79.99999999999999
80.87289797206641
79.99999914172241
80
79.99999999999989
80
79.99999999999997
80
80.0002322689483
80.00000000000003
80.00000000000001
80.00000000000706
80.00105903872974
80
80
80.0000000033872
80.00558423024583
80
80
80.00000009837224
80.01066474374596
80.000417885185
80.00169516075736
80.00944948326725
80.20310019106617
80.00169518597177
80.00199868802116
80.0070197945834
80.79213849027974
80.00944947833517
80.00701977707914
80.3026209171678
85.13450562601207
80.2031001781333
80.79213848496941
85.13450567949468
102.8176883017634
132.9539450935349
111.884347904576
100.4804579858138
89.40102904609604
127.8769740017964
123.3375629547007
120.8675697326791
111.7300266139706
124.9527168265303
123.6332501790153
123.4523203408549
119.2769230726714
125.5537036940976
124.2927403386565
123.9781904469665
121.3138723068904
123.2063064082625
123.9008225431292
125.0240711318343
127.705284063395
124.5590033259341
125.2235088268065
126.2057201571809
129.2070612574248
124.9433101579389
125.3262837908814
126.271117306042
128.6330336629277
125.3326433519727
125.2454042542432
126.2060934168393
126.8974366348303
107.2425680935038
86.95698411284738
81.6016424249222
81.47082860083682
97.56990198222705
79.42962625406572
79.34929388777677
81.13008697757556
87.9721521542982
75.96830695493078
80.1659262125888
82.21689857466031
69.1848228088339
70.74446086588378
78.94263569534856
81.63781113477708
81.65549638582439
81.96222088662675
82.08764088829871
81.39589735359058
81.59391948112278
82.0880510729594
82.0384652459625
81.29703756929202
82.38388650895978
82.54027090995348
82.30744278139042
81.4553739961418
81.8672442151951
81.96302391245376
82.01920866703554
81.10496369643175
80.5075811862349
80.08882456239621
79.99813968927481
103.8409538681365
80.52018177957571
80.11475568267471
79.99566332506383
116.6008182401716
80.6287771818653
80.15057140425692
80.01219904696573
122.9481122292898
80.35188682866045
80.04603031435839
80.01433276504144
125.9644911599785
194.5453333839443
207.410833473226
208.2294624631359
208.7681579872047
217.2009126841503
217.7372910273866
213.2139737099372
211.2864337726964
215.2664001747474
211.916357649193
213.4228113992421
211.8028544000013
227.602752818648
218.9333750470048
214.3748867208461
212.2009726815307
209.477642909051
215.3862537862566
219.0041320522829
222.3803460840499
210.769866285332
215.8238505582279
218.8866880441379
221.9905674289523
210.7196555545419
215.1206759850147
218.5782495603099
221.8396008617188
210.616729626208
214.7037963498477
217.9746925277086
221.4509026675403
221.6544611415395
214.7542061572425
198.0306363236895
164.9522062948577
220.8369763204615
214.4684214125521
197.7013061025569
174.4120593562727
221.1996116627026
215.1722444988601
199.4111556809996
185.6636445694342
221.0678727725119
216.3373920615201
201.8351897520704
206.2283198317723
100.4844986525054
20.74980549283044
6.278545586767657
7.906062808057947
77.32620335874344
12.13064285757904
6.994561518828646
7.982125604434479
52.09808155595213
6.853482790746622
6.066793982190098
8.400177717462368
29.04310923862104
3.463572988146173
6.938064474233023
8.618914925523914
9.806444244404144
10.68428746956394
10.85057893769476
9.441308267785999
9.551153997221288
9.872594672259499
9.380897513898718
8.137341889964988
9.757945641319894
9.63245170514895
8.922973449619885
8.556388441290482
9.635230706642036
9.024315894941191
8.40003123160505
9.814364850677403
21.15645765489126
30.68330885436506
37.87870059988556
48.59752837363878
20.75099153852194
29.77068043617083
35.3034016644739
46.75365294443045
18.62114686014819
28.97519413583296
36.12493253294156
45.16927133662411
14.43457846386841
23.81646070454011
32.08342406126937
43.51365723798014
34.299849019037
22.1423198336695
10.21576736421393
7.488796017277122
31.24880201292101
17.70666323561415
7.418532494439833
8.858768873626175
24.32988195631849
10.8218173003981
4.143975087566054
10.64519670731617
16.33074248223019
5.171741498331508
3.222948431638341
12.44079712693406
17.4874126610579
17.01713534319068
17.50330583418678
18.04798453200817
15.9676897822855
15.5118228218582
15.50617731728779
15.49473090352552
16.14701850664177
17.85775848173283
17.79128155357265
17.65448451284799
19.78886667319408
31.03590323228916
30.82494258902172
29.32025701895339
18.04798453201095
15.49473090352001
17.65448451284801
29.32025701893398
17.50330583419215
15.50617731727295
17.79128155357958
30.824942588977
17.01713534319258
15.51182282185956
17.85775848174168
31.03590323221855
17.48741266106056
15.96768978231719
16.14701850667461
19.7888666730954
7.488796017225424
10.21576736414249
22.14231983352218
34.29984901878149
8.858768873605548
7.418532494402439
17.70666323560216
31.24880201275485
10.64519670735099
4.143975087543403
10.82181730033177
24.32988195628332
12.4407971269374
3.222948431644779
5.171741498322642
16.33074248218641
43.51365723787661
32.08342406117682
23.81646070432914
14.43457846365168
45.16927133655481
36.12493253290915
28.97519413567122
18.62114685988207
46.75365294435598
35.30340166445025
29.77068043606709
20.75099153827242
48.59752837353363
37.87870059979294
30.68330885420056
21.15645765469964
9.441308267664489
10.85057893778108
10.68428746959822
9.806444244338321
8.137341889915501
9.380897513968979
9.872594672288164
9.551153997178487
8.556388441256141
8.922973449691003
9.632451705191849
9.757945641265197
9.814364850619858
8.400031231653683
9.024315894982754
9.63523070656802
7.906062807932438
6.278545586628241
20.74980549262102
100.4844986524083
7.982125604331827
6.994561518699707
12.13064285746641
77.32620335829479
8.400177717336144
6.066793982064525
6.853482790706949
52.0980815557336
8.618914925351636
6.938064474043599
3.463572988075228
29.04310923851151
164.9522062946367
198.0306363238529
214.7542061575325
221.6544611426027
174.4120593561285
197.7013061028365
214.468421413051
220.8369763217895
185.6636445693173
199.4111556812148
215.1722444995731
221.1996116639435
206.2283198315954
201.835189752405
216.3373920622221
221.067872773773
222.3803460856849
219.0041320525187
215.3862537853848
209.4776429107466
221.9905674302521
218.8866880439642
215.8238505574915
210.7698662870064
221.8396008626353
218.5782495600416
215.1206759845765
210.7196555564192
221.4509026684521
217.9746925273978
214.703796349315
210.6167296285177
208.7681579899122
208.2294624609642
207.4108334740313
194.5453333826999
211.2864337764067
213.2139737070137
217.7372910284375
217.2009126827743
211.802854403743
213.4228113954151
211.9163576495409
215.2664001724427
212.200972683567
214.3748867171865
218.9333750476587
227.6027528150225
103.8409538670453
79.99813968733743
80.0888245638088
80.5075811860752
116.6008182380664
79.99566332244629
80.11475568472711
80.52018177905808
122.9481122260697
80.01219904489716
80.15057140698701
80.62877718087994
125.9644911557903
80.0143327628269
80.04603031887767
80.35188682649566
81.39589735370389
82.08764088802999
81.96222088635209
81.6554963858196
81.29703756934288
82.03846524574465
82.08805107279183
81.59391948101218
81.45537399630302
82.30744278118776
82.54027090996675
82.38388650868281
81.10496369694397
82.01920866665296
81.96302391278776
81.86724421485064
81.47082860018401
81.60164242467272
86.95698411238216
107.2425680936636
81.13008697685179
79.34929388760949
79.42962625364508
97.56990198236427
82.21689857400028
80.16592621249772
75.96830695461242
87.97215215433746
81.63781113408659
78.9426356953816
70.74446086550286
69.18482280856733
127.7052840631019
125.0240711307277
123.9008225436321
123.2063064099281
129.2070612565539
126.2057201562944
125.2235088278381
124.5590033275333
128.6330336619268
126.2711173052992
125.3262837918146
124.9433101592561
126.8974366342819
126.2060934164911
125.2454042554098
125.3326433524731
121.3138723069037
119.2769230724659
111.7300266121919
89.40102904622829
123.9781904465913
123.4523203398976
120.8675697325091
100.4804579742693
124.2927403384878
123.633250179252
123.3375629542798
111.8843478870776
125.5537036934441
124.9527168268237
127.8769739999193
132.9539450945337
73.00932715644548
79.85292734456741
79.99884339465254
79.9999953604238
72.41459750226713
79.81007210633642
79.99806903111129
79.99999002065256
72.90487506329345
79.76281125553901
79.99681766810149
79.99998086703363
73.29144516695247
79.67970545998455
79.99365624706988
79.99996131719287
79.9999455140146
79.99175327799612
79.51421187914536
71.4419614753095
79.99994571066871
79.99182964089766
79.52910209221302
71.98649368978353
79.99994554679638
79.99176516783602
79.54098844855011
72.71272815655608
79.99994710267733
79.99174966504221
79.59738017297074
73.85672892822193
79.99996131655693
79.99998086635894
79.99999001842643
79.9999953582187
79.99365624738346
79.99681766807814
79.9980690308434
79.99884339389703
79.67970545968632
79.76281125469349
79.81007210701387
79.85292734426118
73.29144516678269
72.90487506243154
72.41459750185263
73.00932715673848
)
;

boundaryField
{
    back
    {
        type            empty;
    }
    inlet
    {
        type            zeroGradient;
    }
    front
    {
        type            empty;
    }
    top
    {
        type            zeroGradient;
    }
    outlet
    {
        type            fixedValue;
        value           uniform 80;
    }
    bottom
    {
        type            zeroGradient;
    }
    wall
    {
        type            zeroGradient;
    }
}


// ************************************************************************* //
