/*--------------------------------*- C++ -*----------------------------------*\
  =========                 |
  \\      /  F ield         | OpenFOAM: The Open Source CFD Toolbox
   \\    /   O peration     | Website:  https://openfoam.org
    \\  /    A nd           | Version:  11
     \\/     M anipulation  |
\*---------------------------------------------------------------------------*/
FoamFile
{
    format      ascii;
    class       volScalarField;
    location    "0.204";
    object      Ma;
}
// * * * * * * * * * * * * * * * * * * * * * * * * * * * * * * * * * * * * * //

dimensions      [0 0 0 0 0 0 0];

internalField   nonuniform List<scalar> 
880
(
1.443353270571932
1.443353270571945
1.443353270074314
1.443339887434129
1.443353270571932
1.443353270572886
1.443353267696656
1.443307335551531
1.443353270571931
1.443353270561134
1.443353243487031
1.443276011865065
1.443353270571931
1.443353271102362
1.443352971264822
1.442452487959409
1.443353270571932
1.443353270571932
1.44335327057898
1.443353288775073
1.443353281598105
1.443353234478035
1.443353304530316
1.443351400151629
1.443360280206883
1.443339144357417
1.442744035686607
1.444481289823078
1.42370200287409
1.377580328946117
1.350596373153171
1.342836753359461
1.443352836103317
1.443352563131507
1.44334934475564
1.443348276527608
1.443349750476957
1.443332688070101
1.443298077035782
1.443291648463333
1.441374762508801
1.438780146845002
1.436499513466821
1.434781790402216
1.338335742433286
1.324820969300529
1.327010808477182
1.311325975291546
1.342035730923698
1.378962703880521
1.412446614568081
1.432982038690961
1.429212611528653
1.420509806584348
1.420124994532682
1.426617099006231
1.443158862447454
1.442659105229469
1.44192304263922
1.441599578170788
1.443337841193804
1.443299956732302
1.443222165480161
1.443111927762869
1.443010777712278
1.442983454630177
1.442998483231329
1.443049180072723
1.44206512769421
1.442849794981262
1.443307347000788
1.443691236370637
1.435074209790628
1.440861739260422
1.445633654304763
1.448961349687131
1.443737404768884
1.453927522148847
1.464924942927911
1.470594653836109
1.472093226574164
1.45040803286082
1.44385396636297
1.44312957818518
1.471726052175437
1.450283393819733
1.443815644913163
1.443219912113704
1.465117406360638
1.449593211219593
1.443675481684467
1.44329375111565
1.409941518895817
1.446613193787467
1.443489612604626
1.443340533758272
1.443350249016952
1.443360471334419
1.439929789407983
1.160085603350404
1.44334625873313
1.443303405015136
1.424101186330724
0.9930370780868374
1.443339114618647
1.442985995782923
1.398005358708297
0.9389234168920964
1.443293242118396
1.442483188568353
1.369408122703219
0.9334280141112666
0.9375029408160493
1.33635131920988
1.441418965731101
1.443216037052736
0.952782835817611
1.300303164310929
1.439476029419901
1.443048705006201
0.9649989086037808
1.265342017476379
1.436959804904498
1.44272770515502
0.982511517783267
1.23055061648708
1.431919795111737
1.442229274019881
1.441389190759708
1.426082907012396
1.205585231743548
1.006914917203034
1.440184300910534
1.41554702649848
1.218022305965077
1.054906552089796
1.443639573517324
1.420943614033034
1.271617026894089
1.150028188399151
1.433848945532797
1.429159946230977
1.339589665051554
1.272726080841044
1.438821290747846
1.429750289657618
1.418573378317492
1.463229409612574
1.43796662345789
1.44934965435832
1.499844820719467
1.64474576328566
1.440064678440315
1.459451726563376
1.527506674890973
1.749426822291395
1.443196721016596
1.456077968765599
1.510160982859861
1.720096836296831
1.436996420606962
1.477796731070089
1.450746375241961
1.443994199479729
1.272330087108849
1.447716840996935
1.446478006440707
1.443611667714673
1.126421935412007
1.416909973240471
1.443377536422381
1.44350296308104
0.9701682600447348
1.385562903598119
1.440509042758576
1.44341830622406
0.9649505538483431
1.372026523517468
1.439925223924387
1.443346351633271
1.050690696612412
1.384246680864748
1.441054009018312
1.443338853688532
1.145553316407413
1.403162920026577
1.442168897209
1.443347770297175
1.262631966078565
1.423073039341646
1.443178813024522
1.443351568400094
1.232761208804734
1.416064020219891
1.441836438842491
1.443322495583802
1.231014178584579
1.416035443595403
1.44189755344511
1.443323699641327
1.231443417290841
1.41487124210702
1.441860867216665
1.443325254680794
1.232120985309275
1.41461507555023
1.442027896369239
1.443331873550423
1.262631966077244
1.423073039344224
1.443178813031977
1.443351568382769
1.145553316403762
1.403162920025814
1.442168897228758
1.44334777030103
1.05069069661303
1.384246680859278
1.441054009018216
1.443338853689418
0.9649505538451006
1.372026523504826
1.439925223919635
1.443346351637805
1.443994199461191
1.450746375240635
1.477796731077306
1.436996420609638
1.443611667705671
1.446478006436611
1.447716840991098
1.272330087097739
1.443502963088678
1.443377536408395
1.416909973241027
1.126421935406419
1.443418306223506
1.440509042752537
1.385562903576282
0.9701682600436289
1.720096836333669
1.510160982878991
1.456077968785127
1.443196721033377
1.749426822298682
1.527506674908522
1.459451726577439
1.440064678458196
1.644745763283672
1.499844820727005
1.449349654346047
1.437966623433612
1.463229409610018
1.418573378308997
1.42975028962899
1.438821290877937
1.441389190762097
1.426082907006928
1.205585231737119
1.006914917197979
1.440184300908534
1.41554702646452
1.218022305960015
1.054906552087
1.443639573246057
1.420943614058975
1.271617026906131
1.150028188397982
1.433848945652798
1.429159946234884
1.33958966503713
1.272726080837551
0.9825115177720352
1.230550616474622
1.431919795076737
1.442229274012396
0.9649989085874799
1.265342017460285
1.436959804937278
1.442727705147162
0.9527828358126496
1.300303164293884
1.439476029348722
1.44304870502223
0.9375029408237702
1.336351319234473
1.441418965796903
1.443216037064627
1.443350249020891
1.443360471327977
1.439929789407824
1.160085603355602
1.443346258744862
1.443303405009499
1.424101186326029
0.9930370780945601
1.443339114634694
1.442985995803185
1.39800535869601
0.9389234168780491
1.443293242145891
1.442483188514661
1.369408122701423
0.9334280141094392
1.443340533709276
1.443293751112514
1.443219912115511
1.443129578198067
1.443489612637778
1.443675481669268
1.443815644906456
1.44385396637116
1.446613193784076
1.449593211219699
1.450283393824984
1.450408032854369
1.409941518896403
1.465117406360287
1.471726052177444
1.472093226571425
1.443049180088507
1.44369123637094
1.448961349677796
1.470594653830695
1.4429984832273
1.44330734700224
1.445633654300873
1.464924942930342
1.442983454621293
1.442849794976523
1.440861739256349
1.45392752215087
1.44301077771089
1.442065127688698
1.435074209790815
1.443737404775536
1.443337841231991
1.443158862463181
1.42921261152281
1.342035730918762
1.443299956767335
1.442659105240231
1.420509806583602
1.378962703885547
1.443222165485471
1.441923042634013
1.420124994530385
1.412446614575902
1.443111927772425
1.44159957815622
1.426617099003483
1.432982038699415
1.31132597528958
1.434781790397859
1.44329164848351
1.443348276482791
1.327010808459033
1.436499513454761
1.443298077054875
1.44334934457175
1.324820969283914
1.438780146835137
1.443332688069446
1.443352563316628
1.338335742427833
1.441374762501761
1.443349750480036
1.443352836094647
1.342836753369251
1.444481289840259
1.443351400145114
1.443353288770211
1.350596373163091
1.442744035719132
1.443353304529207
1.443353270579595
1.377580328933919
1.44333914436371
1.443353234476565
1.443353270571933
1.423702002864728
1.443360280210145
1.443353281597585
1.443353270571932
1.443353270571932
1.443353270571941
1.443353270069077
1.443339887467554
1.443353270571931
1.443353270573266
1.443353267694034
1.443307335568409
1.443353270571932
1.443353270561415
1.443353243487484
1.443276011853772
1.443353270571932
1.44335327110294
1.443352971275998
1.442452488009402
1.443320530189792
1.443260929485969
1.443097395272992
1.439113278544945
1.443260929457843
1.443163132439383
1.442578875705349
1.42937570076502
1.443097395225373
1.442578875707367
1.436104067674773
1.365657990261247
1.439113278475653
1.429375700545422
1.365657989826334
1.166294900850079
1.001960577669077
1.09148631341726
1.247274312054066
1.348003462597938
1.070218006701618
1.084599378291772
1.135184727560658
1.210655096203353
1.068462666935906
1.122602422765536
1.168319741821412
1.211014492166885
1.086417960934882
1.149839806482712
1.184390889774562
1.208739562191453
1.218722151280349
1.22631112326379
1.235850064085824
1.238476751365683
1.202624877096887
1.21778071304685
1.22821218930566
1.265151728885719
1.177980635215711
1.202857432684405
1.215474441234037
1.339581374267823
1.112373371651444
1.149546867428145
1.157796281201056
1.453178928521327
1.377667282758482
1.508614404901211
1.510661465242746
1.499730891289087
1.464267966554935
1.616178776566209
1.589315057349254
1.559050601595461
1.637961597948102
1.714103981921577
1.635482280337298
1.587780361078995
1.273103041552296
1.302635495719594
1.316138549700065
1.327468368087033
1.488601344651659
1.483241733393182
1.482230954631212
1.48431089172172
1.526830704891252
1.503886335959328
1.49139940874165
1.488665370930151
1.544984629069381
1.510956755880591
1.494157875521924
1.483599753976634
1.314914042549658
1.309951089269299
1.31309792180143
1.323733296919733
1.482835293736243
1.478549610911256
1.464583298226865
1.118940997115529
1.487020345729652
1.481599797112939
1.458576424990122
0.9137375962064122
1.481865606350142
1.479538847068138
1.424350569433674
0.7062658390405153
1.344955634387022
1.389034002254858
1.2364428389059
0.38321435477614
0.7554215500751162
0.7464911859244711
0.772194926573181
0.8140517000160652
0.6778075537475465
0.7205208250170151
0.7656229501551525
0.8128073177337829
0.53169284556276
0.6320089580472935
0.7221907936283738
0.7909115606880417
0.2507967552016485
0.3697092333298182
0.518778083826973
0.6532609345945121
0.8588013961458134
0.9021177226103412
0.9269180291499235
0.9145648194450768
0.8601820559391362
0.9034148223426133
0.9278329342046916
0.9239882769069184
0.8498586835518326
0.8985615800227815
0.9258928780415422
0.9287409548723562
0.7713768606329274
0.8615266351656755
0.9080044010690994
0.911617234179759
0.8996745465170279
0.9459399691673128
1.034943081430369
1.169977011009021
0.9116998415656212
0.9520570008423422
1.034190992878905
1.202165728576486
0.9281092574897651
0.9613474980165142
1.064216480259476
1.534632634608966
0.9172207472552011
0.946214463921028
1.08917885287082
2.166050209175964
1.443982115800003
1.777998486350475
0.7715321481029928
0.6841528002980339
1.509535362101057
1.627136712136136
0.5191432165819008
0.7816966453339752
1.548133614691224
1.416370277743588
0.3602314569627544
0.7262278336527772
1.180354376420766
0.8914099899370658
0.4858050816563241
0.6157378105939225
0.5793800048059704
0.3631177369444358
0.1112570339972137
0.1189085367322869
0.6928198196890949
0.4893560291705085
0.2723653748757165
0.1601778532469366
0.6486266549949019
0.5033881803151125
0.3690368603345192
0.1858888410991868
0.5756749793883931
0.4692934664076814
0.3724280837396574
0.1877918975040962
0.2062714158946806
0.6704492177484558
0.8958275938724347
1.16997969996437
0.03484979953269458
0.4559774056232009
0.7570143770889998
1.056413475993685
0.1359025608552725
0.217041555011409
0.557005311314417
0.935836345899238
0.1754425793138747
0.02867620657251161
0.384366773324516
0.9475708542043215
1.384016962100344
1.537599794812575
1.547433962969661
1.154271100180186
1.26305491005796
1.308618137888733
1.177054421899339
0.8669368428322758
1.239074193740876
1.190156211346269
0.8120941427939381
0.4756446155057383
1.174298196595926
0.7348768763858587
0.2996912898777733
0.1322967173967371
0.06398458190823041
0.04771207358465335
0.07430811605618111
0.08952674377146941
0.2402637130318283
0.0841077400901126
0.04132567135920128
0.08341125100203224
0.4636865982276992
0.2032101798684516
0.1234263660095239
0.1116519300309868
0.6919696110986295
0.4589746857710236
0.3318074502287631
0.2975721447517065
0.08952674377158559
0.08341125100334937
0.1116519300325987
0.2975721447449995
0.07430811605710447
0.04132567136242403
0.1234263660059375
0.3318074502216927
0.04771207358542139
0.08410774008457313
0.2032101798596266
0.458974685763504
0.06398458190802554
0.24026371302626
0.4636865982206852
0.6919696110943888
1.154271100173667
1.547433962965545
1.537599794811263
1.384016962102698
0.8669368428260983
1.177054421895753
1.308618137885118
1.263054910056048
0.4756446155011865
0.8120941427895914
1.190156211338442
1.239074193735405
0.1322967173949206
0.2996912898756345
0.7348768763795507
1.174298196590307
0.9475708541978122
0.3843667733198557
0.02867620656822002
0.1754425793119819
0.9358363458942708
0.5570053113084158
0.2170415550005644
0.1359025608562092
1.05641347599183
0.7570143770844853
0.4559774056109583
0.03484979953498916
1.169979699963782
0.8958275938690505
0.6704492177369841
0.2062714158892942
0.1189085367300666
0.11125703398948
0.3631177369382913
0.5793800048091325
0.1601778532429103
0.2723653748644114
0.4893560291609116
0.6928198196934174
0.1858888410955928
0.3690368603227365
0.5033881803056856
0.6486266549998154
0.1877918975014051
0.3724280837300048
0.4692934663995172
0.5756749793916602
0.6841528003017755
0.7715321480792434
1.7779984863532
1.443982115802924
0.7816966453522098
0.5191432165864824
1.627136712136281
1.509535362106857
0.726227833670694
0.3602314569853702
1.416370277747319
1.548133614696373
0.6157378106139159
0.4858050816860279
0.8914099899375497
1.180354376423279
1.169977011006965
1.0349430814254
0.9459399691618482
0.8996745465137429
1.20216572857625
1.034190992878414
0.9520570008392102
0.9116998415613466
1.534632634616593
1.064216480262702
0.9613474980168457
0.9281092574868192
2.166050209190503
1.089178852878252
0.9462144639272922
0.9172207472586801
0.9145648194319114
0.9269180291466985
0.9021177226072444
0.8588013961471199
0.9239882768961603
0.9278329341985723
0.9034148223407522
0.8601820559392845
0.9287409548635327
0.9258928780367361
0.8985615800209054
0.8498586835508009
0.9116172341747465
0.9080044010678284
0.8615266351561259
0.7713768606214536
0.8140517000106033
0.7721949265656686
0.7464911859280264
0.7554215500786736
0.8128073177287148
0.7656229501489885
0.7205208250193791
0.6778075537503245
0.7909115606820952
0.7221907936224137
0.6320089580467972
0.5316928455668971
0.6532609345825906
0.5187780838198818
0.369709233327272
0.2507967552058284
1.118940997127251
1.464583298239337
1.478549610909955
1.482835293731083
0.9137375962197635
1.458576424995819
1.481599797109446
1.487020345724994
0.7062658390542883
1.424350569446225
1.479538847063413
1.481865606346668
0.3832143548007056
1.236442838937453
1.389034002246778
1.344955634368876
1.484310891717371
1.482230954632317
1.483241733399299
1.488601344659481
1.488665370927063
1.491399408736577
1.503886335968542
1.526830704901121
1.483599753977067
1.494157875521627
1.51095675588725
1.544984629080078
1.323733296898812
1.313097921783533
1.309951089270715
1.314914042552564
1.49973089129931
1.510661465254979
1.508614404907854
1.377667282748412
1.559050601610723
1.589315057365481
1.616178776575938
1.46426796654715
1.58778036109865
1.635482280355407
1.714103981935362
1.637961597933551
1.327468368093188
1.3161385497129
1.302635495739667
1.273103041545816
1.23847675136335
1.235850064080005
1.226311123241013
1.218722151267571
1.265151728884151
1.228212189300325
1.217780713030205
1.202624877079498
1.339581374269428
1.215474441228591
1.202857432669796
1.177980635184472
1.453178928517617
1.157796281155622
1.149546867372377
1.112373371592889
1.208739562198723
1.211014492134524
1.210655096231018
1.348003462675281
1.184390889733916
1.168319741742874
1.135184727577638
1.247274312293105
1.149839806386579
1.122602422650196
1.084599378276984
1.091486313680969
1.086417960862404
1.068462666869456
1.070218006644991
1.001960577743935
1.301301050589894
1.4206003251597
1.442559654471323
1.443347349318253
1.319768010309174
1.419028630371085
1.442327335349347
1.443342137364321
1.298694743677139
1.418876663474834
1.442307655060751
1.443340719034485
1.248967382494291
1.416653919161235
1.442217967655969
1.443338005299356
1.44332249557848
1.441836438844
1.416064020210722
1.232761208796632
1.443323699633231
1.44189755342978
1.416035443618898
1.231014178580017
1.443325254692989
1.44186086719895
1.414871242127842
1.231443417303268
1.443331873573945
1.442027896354103
1.41461507557058
1.23212098532264
1.443338005314806
1.443340719052355
1.443342137404548
1.443347349347985
1.442217967650092
1.442307655064809
1.442327335357986
1.442559654494218
1.416653919163702
1.418876663491822
1.419028630368921
1.420600325168166
1.248967382506887
1.298694743685446
1.319768010314695
1.301301050595422
)
;

boundaryField
{
    back
    {
        type            empty;
    }
    inlet
    {
        type            calculated;
        value           nonuniform List<scalar> 
16
(
1.443353270571932
1.443353270571932
1.443353270571932
1.443353270571932
1.443353270571932
1.443353270571932
1.443353270574239
1.443353260145846
1.443353260143344
1.443353270574496
1.443353270571932
1.443353270571932
1.443353270571932
1.443353270571932
1.443353270571932
1.443353270571932
)
;
    }
    front
    {
        type            empty;
    }
    top
    {
        type            calculated;
        value           uniform 0;
    }
    outlet
    {
        type            calculated;
        value           nonuniform List<scalar> 
16
(
1.443296489628363
1.443299601070267
1.443306687936355
1.443316486720605
1.443344462321606
1.443337585604333
1.44333542251854
1.443329370341992
1.443296489622705
1.443299601063286
1.443306687942322
1.443316486733072
1.443329370347319
1.443335422522985
1.443337585625946
1.44334446233889
)
;
    }
    bottom
    {
        type            calculated;
        value           uniform 0;
    }
    wall
    {
        type            calculated;
        value           uniform 0;
    }
}


// ************************************************************************* //
