/*--------------------------------*- C++ -*----------------------------------*\
  =========                 |
  \\      /  F ield         | OpenFOAM: The Open Source CFD Toolbox
   \\    /   O peration     | Website:  https://openfoam.org
    \\  /    A nd           | Version:  11
     \\/     M anipulation  |
\*---------------------------------------------------------------------------*/
FoamFile
{
    format      ascii;
    class       volScalarField;
    location    "3.5";
    object      p;
}
// * * * * * * * * * * * * * * * * * * * * * * * * * * * * * * * * * * * * * //

dimensions      [0 2 -2 0 0 0 0];

internalField   nonuniform List<scalar> 
5472
(
97.336347
94.937359
92.544765
90.154349
87.791938
85.476544
83.217966
81.055227
78.975597
76.988147
75.123912
73.368518
71.775701
70.279083
68.98597
67.837708
66.88822
66.153947
65.597262
98.056121
95.830533
93.582579
91.324959
89.07561
86.854774
84.68323
82.575622
80.542964
78.596191
76.744772
75.004647
73.410384
71.921626
70.634406
69.482726
68.525843
67.698924
67.039858
98.733059
96.693162
94.589565
92.470649
90.341559
88.224011
86.137263
84.091863
82.105805
80.187887
78.346137
76.625539
75.027208
73.556896
72.262238
71.102045
70.13239
69.303366
68.717373
99.351416
97.476886
95.513621
93.534506
91.532238
89.518539
87.514526
85.547786
83.622353
81.73935
79.92719
78.213843
76.621013
75.169849
73.86526
72.710332
71.735871
70.923582
70.323959
99.904127
98.175133
96.377008
94.528576
92.630156
90.714338
88.809189
86.929517
85.058314
83.226846
81.44721
79.756952
78.188331
76.739359
75.433576
74.289389
73.319445
72.501569
71.882052
100.40077
98.810502
97.148935
95.419237
93.658503
91.864528
90.058653
88.251815
86.433775
84.664808
82.922001
81.259886
79.712187
78.285981
76.998703
75.858102
74.888827
74.085624
73.494735
100.80667
99.372451
97.853408
96.232041
94.588863
92.913385
91.212338
89.496569
87.755337
86.026371
84.324729
82.707312
81.177068
79.776222
78.507021
77.381359
76.422659
75.631126
75.026927
101.18276
99.860706
98.460265
96.975034
95.458219
93.884947
92.279048
90.643906
88.99697
87.337202
85.693642
84.116756
82.616514
81.245262
79.981252
78.875142
77.929672
77.147601
76.564133
101.49991
100.31323
99.030693
97.656232
96.237711
94.776742
93.278419
91.719642
90.151852
88.559403
86.974842
85.445574
83.999171
82.653077
81.411663
80.336451
79.390716
78.626491
78.053447
101.79292
100.6914
99.514734
98.275445
96.955139
95.581085
94.191176
92.747971
91.259714
89.721637
88.203413
86.719177
85.31339
83.995028
82.795792
81.738618
80.813186
80.071027
79.500195
102.04695
101.05582
99.962157
98.81027
97.594245
96.338441
95.023016
93.65958
92.256181
90.807575
89.361792
87.937551
86.583976
85.298092
84.130502
83.080542
82.188225
81.465335
80.917314
102.25305
101.34327
100.3593
99.298403
98.176787
97.024198
95.799751
94.526436
93.190863
91.8156
90.429241
89.077261
87.772822
86.530994
85.408829
84.378868
83.506633
82.799411
82.274203
102.44493
101.62252
100.71284
99.738331
98.720906
97.64638
96.498331
95.305982
94.057571
92.772362
91.447973
90.14929
88.889689
87.702289
86.61256
85.623666
84.778356
84.091565
83.580827
102.60114
101.84388
101.02796
100.135
99.191001
98.195668
97.138113
96.019804
94.851566
93.641036
92.393573
91.163853
89.950241
88.808148
87.742969
86.792656
85.978804
85.327488
84.833369
102.74131
102.067
101.31908
100.49663
99.627417
98.706226
97.729314
96.674672
95.573154
94.429765
93.2627
92.097669
90.956087
89.860313
88.832607
87.911191
87.107197
86.472588
86.008607
102.86137
102.24858
101.56416
100.81178
100.00793
99.162649
98.262082
97.282489
96.24603
95.156826
94.055287
92.948596
91.869432
90.820026
89.842278
88.957982
88.196568
87.593155
87.13161
102.99208
102.425
101.7938
101.10705
100.36259
99.573609
98.733606
97.828459
96.862597
95.844778
94.807576
93.759836
92.726679
91.71974
90.781904
89.923163
89.20131
88.610104
88.175823
103.09507
102.58156
102.00518
101.37153
100.6882
99.958626
99.166188
98.314486
97.405283
96.454445
95.482792
94.50142
93.519687
92.558464
91.657474
90.843871
90.158675
89.57668
89.158522
103.20728
102.7387
102.20271
101.61276
100.98434
100.30798
99.57268
98.77682
97.913822
97.014278
96.09658
95.166375
94.233722
93.315548
92.443153
91.659754
90.981554
90.453669
90.052642
103.3062
102.88053
102.38676
101.84089
101.25513
100.62314
99.940625
99.194967
98.385228
97.536839
96.666017
95.780777
94.895842
94.026834
93.192988
92.433711
91.781823
91.262862
90.873792
103.41946
103.02925
102.57702
102.06888
101.51413
100.91798
100.27406
99.568545
98.807799
98.007153
97.176614
96.329596
95.477317
94.645583
93.86353
93.140959
92.519501
92.013697
91.640175
103.51665
103.17071
102.7555
102.28802
101.77466
101.21154
100.59821
99.928258
99.205858
98.447536
97.658458
96.847595
96.020988
95.198392
94.41754
93.714557
93.118192
92.630026
92.2633
103.62701
103.31398
102.93368
102.50163
102.02201
101.48922
100.90564
100.26772
99.577371
98.844965
98.08631
97.316915
96.542999
95.783956
95.049701
94.369304
93.755085
93.263003
92.906665
103.73439
103.46143
103.12526
102.73087
102.28232
101.78215
101.22588
100.61201
99.938645
99.213969
98.451573
97.667743
96.875167
96.092283
95.363159
94.697266
94.133649
93.659189
93.306429
103.82264
103.59971
103.30936
102.95443
102.54197
102.07733
101.55921
100.98942
100.36365
99.688455
98.972452
98.228752
97.473434
96.712878
95.952868
95.254085
94.643404
94.149954
93.799217
103.91454
103.74952
103.50768
103.18713
102.7943
102.33186
101.80381
101.2105
100.56089
99.860607
99.116936
98.348374
97.569725
96.80437
96.072347
95.40341
94.81215
94.320913
93.977016
103.97761
103.90617
103.76449
103.54778
103.25761
102.88857
102.43834
101.9094
101.30228
100.62208
99.88118
99.087298
98.270157
97.440007
96.617186
95.831619
95.132713
94.587473
94.222959
65.124447
64.707299
64.687374
64.795763
65.102432
65.543416
66.09458
66.873967
67.655765
68.638716
69.699052
70.859848
72.166551
73.550604
75.075764
76.636221
78.262902
79.902237
81.593442
66.633794
66.328387
66.374821
66.525717
66.952233
67.465132
68.215112
69.140384
70.153652
71.390247
72.653778
74.117455
75.646522
77.304782
79.042323
80.830308
82.674542
84.533463
86.44354
68.231768
68.001538
68.047219
68.283776
68.790158
69.441456
70.376482
71.432799
72.699551
74.089457
75.602238
77.268356
79.01118
80.881014
82.783373
84.785325
86.793759
88.872949
90.93159
69.842779
69.640104
69.707059
70.039334
70.622551
71.448396
72.507675
73.747399
75.192057
76.74204
78.46434
80.269403
82.200723
84.180259
86.237676
88.352465
90.481992
92.671618
94.802779
71.432306
71.25602
71.37108
71.78061
72.478334
73.43825
74.631248
76.033892
77.600174
79.31528
81.161855
83.109265
85.138797
87.213706
89.352043
91.501063
93.66408
95.815849
97.89071
73.021191
72.866242
73.028506
73.521715
74.317648
75.395899
76.721454
78.244832
79.95196
81.790366
83.741068
85.784026
87.859311
89.990307
92.118352
94.239963
96.317834
98.326306
100.19322
74.576565
74.448495
74.660165
75.225246
76.130055
77.326991
78.759552
80.397583
82.19931
84.123521
86.152267
88.235754
90.333843
92.445988
94.501289
96.512496
98.399337
100.16262
101.75709
76.118533
76.010252
76.27513
76.915966
77.919996
79.188581
80.725493
82.458795
84.346127
86.342177
88.39953
90.483631
92.542553
94.559355
96.486926
98.303815
99.946997
101.45102
102.74041
77.620103
77.535375
77.84111
78.567315
79.647368
80.995146
82.625333
84.415774
86.365086
88.373088
90.433236
92.461091
94.431476
96.3207
98.066918
99.662563
101.06922
102.30171
103.31511
79.085813
79.02293
79.391561
80.180098
81.30482
82.737812
84.43282
86.275001
88.249819
90.245406
92.259809
94.180187
96.039622
97.747421
99.292989
100.66671
101.83863
102.82578
103.62815
80.505203
80.465935
80.89352
81.714517
82.89535
84.401707
86.126358
88.000547
89.960382
91.915853
93.837804
95.647604
97.356312
98.86195
100.21482
101.3593
102.32805
103.11595
103.71963
81.868836
81.886007
82.33401
83.182463
84.424409
85.980142
87.721824
89.598576
91.510045
93.39849
95.204569
96.876918
98.402917
99.720493
100.87074
101.78927
102.5613
103.09833
103.44064
83.185535
83.229139
83.676808
84.585352
85.878633
87.450699
89.193569
91.047199
92.886477
94.682187
96.355755
97.873325
99.210011
100.33891
101.27364
101.9665
102.49709
102.75767
102.8624
84.455395
84.506944
84.982413
85.934874
87.244743
88.818737
90.544069
92.342107
94.093433
95.778454
97.302776
98.65295
99.801214
100.73205
101.43887
101.92684
102.22801
102.31505
102.27436
85.650202
85.698898
86.210584
87.19476
88.51045
90.073148
91.769531
93.493853
95.149245
96.702396
98.068429
99.252433
100.20579
100.93838
101.46033
101.79159
101.94812
101.99594
101.97487
86.785531
86.841244
87.404919
88.371257
89.676695
91.21655
92.857707
94.494535
96.047986
97.454621
98.669725
99.691497
100.46642
101.03944
101.44151
101.69719
101.82709
101.93203
102.0537
87.831607
87.919847
88.489127
89.438895
90.757867
92.263634
93.837457
95.383674
96.822454
98.08544
99.15989
100.02603
100.65653
101.12367
101.47068
101.73268
101.91283
102.10652
102.32549
88.825891
88.926544
89.463029
90.433425
91.739838
93.17929
94.686637
96.141036
97.464067
98.602158
99.543099
100.28283
100.81776
101.24321
101.58831
101.89169
102.14191
102.39879
102.64866
89.738826
89.844096
90.39763
91.387844
92.628823
94.022768
95.465298
96.818155
98.028363
99.055029
99.879132
100.52956
101.02739
101.44169
101.80888
102.15239
102.44237
102.7207
102.96568
90.564311
90.648701
91.19929
92.156422
93.382366
94.753811
96.121647
97.382484
98.503664
99.429391
100.1795
100.76164
101.27285
101.69491
102.07334
102.42187
102.72246
103.01201
103.25087
91.351549
91.459921
92.035866
92.970788
94.155189
95.453244
96.723466
97.905449
98.951815
99.807821
100.4913
101.0617
101.5754
101.98985
102.35495
102.67104
102.96241
103.19997
103.35517
91.96561
92.049547
92.585516
93.517923
94.714951
95.984798
97.219923
98.346641
99.318743
100.15256
100.81292
101.37882
101.85471
102.25152
102.59882
102.86158
103.06972
103.19037
103.19159
92.631878
92.761335
93.342355
94.278304
95.397356
96.591924
97.766915
98.829804
99.750571
100.53193
101.15875
101.68345
102.10915
102.45812
102.70082
102.85818
102.92799
102.85849
102.7035
93.018899
93.100798
93.645777
94.569299
95.730613
96.976891
98.158289
99.217094
100.12057
100.86855
101.4803
101.96558
102.3405
102.60027
102.7367
102.76557
102.64889
102.42377
102.17308
93.530511
93.687346
94.321848
95.289498
96.438338
97.616444
98.74316
99.744598
100.57236
101.23831
101.75957
102.14181
102.39344
102.5123
102.51511
102.3999
102.18923
101.95479
101.68969
93.69814
93.816891
94.41611
95.386608
96.55863
97.824867
99.026088
100.04446
100.86606
101.51801
102.00895
102.34151
102.51904
102.55006
102.43549
102.2141
101.92759
101.58362
101.21277
93.944786
94.153658
94.922496
96.061807
97.393233
98.706906
99.846788
100.75691
101.44013
101.92763
102.24341
102.38769
102.34831
102.16877
101.91018
101.61148
101.30176
101.00555
100.76877
83.275341
84.96687
86.630615
88.237189
89.886252
91.429276
92.878043
94.059824
94.944926
95.275501
95.04685
93.883878
91.247826
86.597135
80.351987
72.649755
62.259476
49.933957
38.189035
88.278026
90.109606
91.75378
93.466735
95.193925
96.802538
98.400188
99.67246
100.71864
101.22436
100.80709
99.231401
96.170149
91.563801
84.887035
75.836786
64.381041
51.401799
39.044151
92.973171
94.825802
96.490716
98.247761
99.91852
101.68703
103.24344
104.59486
105.616
105.92641
105.32938
103.43978
99.915194
95.194077
88.95195
81.035454
71.625647
61.36845
51.4687
96.909592
98.694111
100.34375
101.98607
103.66485
105.34269
106.79397
108.08428
108.8996
109.14852
108.30146
105.68221
101.80416
97.414909
91.755932
85.16486
77.946839
70.55335
63.72741
99.871589
101.50132
102.95552
104.42078
105.97819
107.4509
108.79285
109.85449
110.5105
110.5981
109.62879
107.29955
103.88118
99.888121
95.065359
89.779049
84.307434
79.048201
74.488799
101.90249
103.26828
104.48231
105.73556
107.03801
108.2225
109.26509
109.99023
110.4651
110.56829
110.05942
108.42495
105.65169
102.13743
97.964041
93.636216
89.455757
85.612084
82.356281
103.13288
104.23163
105.20822
106.19543
107.18894
108.03108
108.75914
109.21572
109.57932
109.75563
109.34564
107.98006
105.64262
102.61491
99.090587
95.4025
92.114981
89.557549
87.64649
103.81467
104.69135
105.43006
106.20723
106.92849
107.50615
108.00947
108.36846
108.67161
108.36847
107.52956
105.74144
103.23479
100.23427
97.283339
94.368914
91.66389
89.588077
88.343934
104.17517
104.84382
105.42506
106.0526
106.53969
106.88277
107.00068
106.93131
106.78027
105.96728
104.15953
101.45368
98.23906
94.880942
91.785697
89.476492
87.970838
87.098895
86.729868
104.3231
104.82916
105.33381
105.79581
106.08038
106.12409
104.70515
104.33235
103.04487
100.84348
97.690095
93.681884
89.250898
85.28072
82.282372
80.460001
79.861698
80.524813
82.095846
104.17797
104.56029
104.97241
105.24227
105.24529
104.77919
103.54636
101.57611
98.094944
93.363032
87.985608
82.000804
75.93645
70.712616
67.422803
66.170659
66.669814
68.846724
72.373387
103.62638
103.88393
104.16893
104.2718
104.09272
103.4947
102.10572
100.19796
95.38412
87.679796
78.143523
67.975884
57.927012
48.908577
41.935619
38.202028
39.093321
44.160299
51.749751
102.77274
102.80865
102.87199
102.69044
102.1767
101.13117
99.403045
96.736498
92.103536
84.899194
75.477591
63.740036
50.698486
38.153427
28.417343
23.588513
25.210407
33.729092
45.237487
102.01229
101.92523
101.81662
101.49117
100.7996
99.643417
97.995075
95.555287
92.036467
86.947315
80.255775
72.283845
63.793856
55.601526
49.473784
46.413183
47.082643
51.604302
58.925564
101.83624
101.80107
101.7111
101.45763
100.9195
100.19289
99.189275
97.750676
95.838071
93.230822
89.766492
85.735958
81.317616
76.907933
73.411378
70.856232
69.828889
71.139022
74.398706
102.10182
102.14941
102.11708
101.95923
101.66115
101.29583
100.76285
100.00516
98.98921
97.561218
95.75371
93.623627
91.095476
88.57944
86.327961
84.651463
83.842165
83.907857
84.541214
102.5035
102.60624
102.6183
102.55587
102.38026
102.20981
101.9182
101.47988
100.88814
100.04186
99.004894
97.666804
96.077667
94.446013
92.607557
90.746456
89.354488
88.471286
87.768702
102.9173
103.08365
103.16228
103.15585
103.13409
103.09881
102.97439
102.74213
102.36712
101.82357
101.0779
100.07152
98.89043
97.466932
95.670826
93.664434
91.721363
89.955493
88.170254
103.31741
103.53819
103.63966
103.69117
103.81394
103.90928
103.92702
103.82296
103.62271
103.33251
102.88198
101.89926
100.4244
98.600341
96.254122
93.455778
90.050611
85.583681
80.256158
103.57829
103.7671
103.89075
104.06195
104.23013
104.39362
104.40241
104.40175
104.07731
102.97361
101.99897
101.75248
101.51664
100.27946
97.963582
94.81969
90.767701
85.904599
80.629991
103.54951
103.69181
103.85735
104.09033
104.28
104.42544
104.51275
104.36501
104.40985
103.89119
102.51354
101.81458
100.85445
99.373844
97.380187
94.894761
91.878861
88.577301
85.332432
103.16794
103.28887
103.5167
103.73114
103.91527
104.03745
104.1923
103.98851
103.85831
102.82266
101.16388
100.25238
99.542872
98.243155
96.695022
95.06969
93.427811
91.970312
90.940801
102.50677
102.61727
102.78943
102.93233
103.06491
103.15459
103.27493
103.27048
103.23515
102.81101
101.2614
98.484138
95.012008
92.285402
90.670659
89.928497
89.838628
90.522724
91.861574
101.8959
101.90188
101.95912
102.00973
101.98845
101.92272
101.7994
101.54246
101.09788
100.12219
98.285841
96.268704
94.707906
93.00609
90.887954
88.994134
87.7674
87.968911
89.200089
101.45367
101.40116
101.37243
101.32985
101.24064
101.15858
101.04483
100.88906
100.76254
100.52752
99.883537
98.818596
97.197049
95.107704
93.068361
91.47796
90.916309
91.317851
92.385703
100.94895
100.96348
101.00585
101.01098
100.98537
100.93673
100.85791
100.70653
100.45455
100.10328
99.780033
99.348088
98.767302
98.816487
99.127853
99.032795
98.608679
98.114115
97.744092
100.57967
100.63002
100.65729
100.6524
100.6171
100.60642
100.61431
100.64892
100.69761
100.74997
100.80346
100.78277
100.70078
100.29989
99.739908
99.351998
99.214791
99.286999
99.455357
25.983934
14.415489
6.5148967
5.2411873
10.041277
19.555671
32.464746
45.998652
57.930961
68.421516
77.025796
83.830944
89.135274
92.820634
95.453388
97.220582
98.351658
99.064616
99.390395
28.630149
20.353183
15.395601
15.020406
19.344792
27.266372
37.557566
48.476821
58.78857
67.932428
75.668867
81.974371
86.845528
90.652638
93.421814
95.460887
96.884103
97.895517
98.568208
42.980823
36.805786
33.486498
33.466059
36.688858
42.347736
49.605003
57.254542
64.700961
71.539049
77.413276
82.429963
86.439898
89.749004
92.362942
94.392603
95.926321
97.091309
97.979464
58.087408
54.218082
52.430562
52.723126
54.790026
58.407362
62.920357
67.903303
72.751134
77.268347
81.328744
84.867889
87.956995
90.499339
92.664081
94.434194
95.791355
96.881377
97.767285
70.909174
68.503037
67.566954
68.215794
69.70526
71.907114
74.596038
77.472479
80.517953
83.42104
86.111627
88.457283
90.658858
92.534572
94.119144
95.493715
96.571276
97.371664
98.081117
80.111329
79.031698
78.605848
78.724309
79.77129
81.351934
83.226598
85.226258
87.201502
88.987716
90.700922
92.25911
93.697689
95.022893
96.152934
97.140719
97.959477
98.515695
98.943369
86.215879
85.26039
85.098799
85.694071
86.696138
88.021025
89.348329
90.677677
92.202157
93.558465
94.704609
95.74372
96.645675
97.559041
98.326614
99.018324
99.610491
99.989152
100.17229
87.951619
88.236457
88.986732
89.909842
90.878312
92.088965
93.460317
94.672313
95.824227
96.912568
97.774301
98.605666
99.231956
99.819035
100.38164
100.853
101.28892
101.55567
101.59505
87.079551
88.069423
89.573513
91.50643
93.288734
94.757265
96.111839
97.399156
98.498966
99.518085
100.26216
100.84966
101.34769
101.72965
102.10378
102.44172
102.76396
102.9365
102.90558
84.240603
86.464312
88.835125
91.598253
94.308814
96.45896
98.105488
99.50109
100.62654
101.4772
102.20238
102.73269
103.08519
103.3297
103.566
103.77406
103.97694
104.10183
104.00315
76.776443
81.312302
85.603559
89.655737
93.544824
96.704028
98.976948
100.69217
102.1093
103.02344
103.61764
104.08297
104.40974
104.59894
104.71937
104.85979
104.97354
105.05049
104.93585
60.935951
70.271092
78.524067
85.313527
90.995068
95.445363
98.528527
100.68441
102.39595
103.56372
104.33587
104.79685
105.1212
105.34098
105.45981
105.5645
105.64868
105.70107
105.62265
56.89818
68.014029
77.277521
84.793076
90.789311
95.347097
98.472123
100.6373
102.35651
103.55964
104.41347
104.99657
105.40311
105.66914
105.83196
105.95437
106.03939
106.06629
106.01906
67.230922
75.414165
82.786571
88.970223
93.895987
97.586222
100.11326
101.69896
103.24183
104.40522
104.93379
105.38036
105.74712
106.00627
106.14805
106.235
106.31684
106.31919
106.24484
78.732456
83.387841
88.084416
92.437774
96.167647
99.198038
101.49561
103.22293
104.33915
105.04086
105.88541
106.27822
106.38711
106.51306
106.5884
106.59108
106.60835
106.59027
106.47454
85.798028
87.694047
90.155843
92.839303
95.530289
98.111214
100.55879
102.68827
104.488
105.51571
105.52296
105.91433
106.44958
106.68387
106.78971
106.79219
106.74833
106.72196
106.6086
87.343434
87.687673
88.580979
89.834678
91.574385
93.694366
96.050274
98.417071
100.64128
102.50147
104.25729
105.64253
106.19592
106.63026
106.75331
106.78015
106.70823
106.63159
106.57054
86.41867
85.010567
83.861788
83.412576
83.970741
85.449291
87.735462
90.952537
94.888563
99.137443
102.8888
104.92462
105.64109
106.16461
106.32419
106.36478
106.30729
106.1785
106.14176
74.904785
70.200938
67.451189
67.975543
71.455945
76.644185
82.889057
89.390306
95.463851
99.72215
102.51516
104.06189
104.73544
105.09984
105.30748
105.44002
105.45447
105.40163
105.38483
75.49815
70.928615
68.553119
68.225932
70.042249
74.142223
79.910743
86.284595
92.197917
96.858779
99.973512
101.8167
102.88514
103.58329
104.03996
104.38055
104.55297
104.62846
104.69311
82.628874
80.9661
80.746125
81.953607
84.399617
87.732442
91.340484
94.733179
97.650044
99.897619
101.41551
102.43993
103.09181
103.55615
103.87722
104.11694
104.2703
104.34165
104.42231
90.571907
91.129571
92.673755
94.473373
96.21708
98.12514
100.03762
101.58712
102.66928
103.36544
103.76552
104.0535
104.20119
104.27583
104.30343
104.32418
104.3595
104.34193
104.3443
93.455578
95.142692
96.987746
98.982677
100.71442
102.00314
103.12223
104.16638
104.6693
104.78041
104.79136
104.69747
104.6335
104.53112
104.43716
104.35524
104.27021
104.20423
104.14047
91.128754
93.501214
95.882974
98.239907
100.37465
101.92566
102.69597
103.00712
103.57872
104.22642
104.41964
104.36975
104.34713
104.20712
104.10965
104.01073
103.90711
103.8279
103.77958
93.907505
95.655142
97.372101
98.945598
100.30072
101.34149
102.10234
102.31221
103.20625
103.8329
103.6739
103.72388
103.65308
103.56856
103.46542
103.36902
103.27223
103.0977
103.02018
97.6235
97.64016
97.77194
97.996344
98.368279
99.075637
100.28854
101.93235
103.13869
102.76447
102.27224
102.45877
102.43051
102.39265
102.33852
102.26609
102.19228
102.06278
102.03702
99.57067
99.747322
100.06335
100.56396
100.99084
101.2433
101.15907
100.86638
100.77697
101.27875
101.55782
101.4332
101.24766
101.10686
101.02342
100.97359
100.94895
100.90967
100.85863
99.47074
99.400996
99.119792
98.682173
98.127931
97.480322
96.775654
96.074079
95.326059
94.618251
93.879222
93.20711
92.543674
91.901718
91.340183
90.862204
90.45858
90.173692
89.983476
98.915718
99.109224
99.117114
98.937299
98.591423
98.121086
97.543135
96.948903
96.250211
95.57491
94.858685
94.142026
93.482722
92.811762
92.235622
91.751037
91.35078
91.079426
90.911239
98.604809
99.002804
99.235725
99.232997
99.060058
98.746171
98.296154
97.781094
97.162805
96.483025
95.809564
95.067557
94.382542
93.712306
93.116193
92.617517
92.215714
91.957723
91.817849
98.458445
98.937855
99.295048
99.430977
99.372696
99.192183
98.864901
98.432105
97.917913
97.281054
96.647561
95.93389
95.233477
94.569349
93.964664
93.463431
93.059554
92.820463
92.716782
98.668708
99.068913
99.397815
99.590165
99.614665
99.525903
99.301363
98.949466
98.521262
97.974135
97.391372
96.737016
96.055986
95.401309
94.798784
94.290589
93.90118
93.644486
93.593389
99.299039
99.515916
99.734342
99.881555
99.917128
99.879753
99.715873
99.442265
99.081817
98.602673
98.066451
97.470982
96.82597
96.193712
95.60973
95.095811
94.727571
94.485341
94.444846
100.27738
100.29935
100.33484
100.36359
100.34979
100.28553
100.1492
99.915901
99.602247
99.192322
98.696202
98.151014
97.553337
96.935382
96.37106
95.876208
95.512109
95.315531
95.269566
101.45319
101.28677
101.15824
101.02883
100.91483
100.79347
100.63207
100.4097
100.12301
99.756157
99.300781
98.786584
98.23149
97.657177
97.095903
96.636072
96.269165
96.102075
96.084878
102.65451
102.35222
102.07267
101.81993
101.5967
101.38065
101.16814
100.92798
100.63826
100.29204
99.875128
99.404547
98.863978
98.337402
97.787354
97.351306
97.007747
96.863871
96.87449
103.72447
103.3821
103.02097
102.65699
102.34271
102.0443
101.75698
101.48699
101.16688
100.83129
100.42597
99.982615
99.479384
98.97715
98.461626
98.035357
97.708091
97.583703
97.635505
104.62428
104.26837
103.89056
103.49003
103.09082
102.74057
102.38722
102.06663
101.71837
101.36431
100.9661
100.53754
100.06509
99.584563
99.102638
98.686212
98.387923
98.261954
98.377132
105.34957
105.02235
104.63562
104.24056
103.81692
103.42093
103.02122
102.65073
102.27981
101.90613
101.49806
101.07555
100.61816
100.15606
99.715779
99.306488
99.061598
98.925047
99.066325
105.82071
105.59083
105.26031
104.88264
104.46843
104.05483
103.63508
103.22944
102.82578
102.43296
102.02181
101.59623
101.15293
100.6891
100.29252
99.888234
99.668598
99.573237
99.708084
106.08737
105.93958
105.70091
105.38927
105.01395
104.61372
104.19149
103.77795
103.35856
102.94587
102.53111
102.08956
101.6687
101.20342
100.81886
100.45808
100.23425
100.19161
100.32355
106.27343
106.17468
105.99257
105.76171
105.44766
105.08297
104.68609
104.27392
103.85321
103.41918
103.01503
102.56803
102.14881
101.70935
101.30812
100.99233
100.765
100.7553
100.90641
106.41162
106.32304
106.16688
105.98372
105.74691
105.44802
105.09586
104.6945
104.30177
103.86299
103.44662
103.01862
102.58798
102.17202
101.76734
101.47785
101.2654
101.27128
101.4552
106.44709
106.37926
106.26166
106.11846
105.94796
105.70496
105.42151
105.05198
104.67889
104.27752
103.85539
103.43456
103.00269
102.61083
102.21388
101.93086
101.74469
101.75787
101.96713
106.19985
106.25216
106.2257
106.14257
106.0384
105.84982
105.62801
105.32944
104.9784
104.60392
104.19689
103.79427
103.37193
102.99555
102.62515
102.33706
102.17162
102.19206
102.4258
105.66601
105.86166
106.00522
106.03376
106.01526
105.91274
105.74894
105.53002
105.22849
104.89564
104.52213
104.14547
103.73218
103.33896
102.99578
102.71583
102.59268
102.61552
102.85892
105.04587
105.3294
105.58304
105.74917
105.83515
105.84335
105.75366
105.61142
105.37925
105.09079
104.74693
104.37966
104.01145
103.63938
103.31485
103.04278
102.92139
102.97387
103.22153
104.63106
104.87411
105.13884
105.38921
105.5695
105.68088
105.68601
105.62462
105.47041
105.24669
104.98101
104.65114
104.3098
103.9387
103.61198
103.35693
103.23695
103.31831
103.58459
104.4113
104.5948
104.79876
105.03949
105.26256
105.43499
105.53317
105.54582
105.46888
105.29657
105.06052
104.76913
104.45199
104.13373
103.82894
103.59906
103.49084
103.55372
103.85397
104.13998
104.34342
104.52911
104.73862
104.95613
105.16324
105.33605
105.42598
105.43293
105.34079
105.18023
104.96176
104.69679
104.38918
104.07602
103.83555
103.74087
103.8374
104.13469
103.85869
104.11112
104.33089
104.55775
104.7648
104.95856
105.14604
105.2805
105.33724
105.31255
105.18726
104.98589
104.73191
104.45997
104.1936
103.97914
103.89683
104.00672
104.32661
103.3064
103.64462
103.90852
104.14454
104.38306
104.61084
104.84476
105.061
105.21391
105.27217
105.23543
105.12337
104.93728
104.69062
104.40525
104.16316
104.05338
104.18191
104.51144
102.60103
103.1735
103.65394
104.03962
104.33982
104.58022
104.78866
104.98592
105.12692
105.20158
105.18936
105.083
104.91051
104.68608
104.43195
104.20697
104.10638
104.24936
104.624
101.37365
101.91121
102.46939
103.0022
103.47813
103.90167
104.26561
104.58428
104.85728
105.06111
105.16692
105.16702
105.06548
104.88251
104.6351
104.35347
104.1753
104.28191
104.68624
89.963897
90.071465
90.335607
90.736683
91.207662
91.882926
92.685387
93.648662
94.727798
95.896789
97.204578
98.607249
100.05973
101.62804
103.23537
104.89055
106.57863
108.26295
109.97858
90.910077
91.017612
91.29052
91.735546
92.293831
92.987764
93.810785
94.777003
95.834038
97.00846
98.292222
99.658294
101.06879
102.57159
104.10778
105.65012
107.23193
108.79397
110.33916
91.848031
91.977078
92.297797
92.754403
93.340091
94.06058
94.904678
95.866056
96.915129
98.089287
99.328318
100.65915
102.05417
103.47044
104.92292
106.37948
107.8292
109.26639
110.66152
92.771251
92.956611
93.279961
93.76121
94.358184
95.098347
95.945667
96.917816
97.960071
99.113851
100.34444
101.62162
102.97895
104.34429
105.69155
107.02088
108.34276
109.65733
110.93564
93.669788
93.895234
94.237197
94.734192
95.359753
96.10065
96.969469
97.928796
98.968452
100.08765
101.28724
102.53682
103.81373
105.09735
106.36494
107.59445
108.77255
109.94264
111.12806
94.571841
94.809177
95.215741
95.690256
96.326669
97.085484
97.948365
98.891814
99.920961
101.02356
102.17399
103.35753
104.58141
105.77619
106.95526
108.09377
109.15405
110.20959
111.2648
95.438012
95.6987
96.071344
96.606108
97.254154
98.005675
98.876492
99.806361
100.81202
101.86701
102.98986
104.12597
105.26014
106.39301
107.46985
108.50088
109.47672
110.39777
111.32124
96.27326
96.566904
96.983962
97.500952
98.158372
98.899899
99.760513
100.67913
101.65903
102.67893
103.72691
104.82538
105.90047
106.92738
107.9106
108.83295
109.70504
110.54308
111.36147
97.095851
97.391483
97.817597
98.345517
98.995976
99.745906
100.5719
101.48094
102.42839
103.41917
104.42362
105.43063
106.42093
107.38087
108.27286
109.11203
109.89784
110.63594
111.37378
97.882082
98.198064
98.623686
99.164269
99.805981
100.5517
101.36564
102.25682
103.1627
104.09301
105.03819
105.98034
106.8974
107.7825
108.59719
109.33228
110.01654
110.69126
111.3616
98.627346
98.967594
99.395248
99.940736
100.57352
101.30251
102.0923
102.93928
103.81316
104.69056
105.57879
106.45858
107.30949
108.11156
108.84392
109.50784
110.11756
110.70111
111.28357
99.334403
99.690021
100.12684
100.66053
101.27999
101.98514
102.76151
103.58151
104.42292
105.25902
106.0931
106.90426
107.66773
108.38672
109.04708
109.64342
110.19351
110.69474
111.1969
100.00806
100.36373
100.8123
101.3324
101.95741
102.64833
103.3976
104.1802
104.9691
105.74811
106.51294
107.24464
107.94907
108.60647
109.20768
109.74165
110.22632
110.67562
111.11575
100.65073
101.01078
101.46331
101.98254
102.58331
103.23984
103.94932
104.69507
105.4412
106.17098
106.89428
107.57575
108.22017
108.81882
109.35388
109.82135
110.23938
110.63564
111.01149
101.24663
101.60848
102.05692
102.5635
103.14755
103.78829
104.46927
105.18349
105.8946
106.57855
107.23386
107.84742
108.42201
108.95554
109.43007
109.85197
110.22204
110.55891
110.8835
101.80331
102.16678
102.61155
103.11055
103.67523
104.29336
104.93756
105.61057
106.27388
106.90574
107.49687
108.0558
108.59057
109.08806
109.52206
109.90406
110.22678
110.51662
110.80003
102.32017
102.68232
103.11919
103.60922
104.1573
104.74328
105.34979
105.98397
106.6043
107.20162
107.75733
108.27278
108.75273
109.19689
109.58006
109.90444
110.17773
110.42164
110.66395
102.78863
103.14826
103.57509
104.05381
104.57097
105.13955
105.72521
106.32656
106.91319
107.46716
107.97765
108.43852
108.86235
109.25389
109.60658
109.90942
110.16549
110.37801
110.58559
103.22666
103.58113
103.99661
104.46701
104.97355
105.52019
106.07014
106.62727
107.17417
107.68196
108.14868
108.5719
108.96526
109.33291
109.6586
109.92757
110.14714
110.32303
110.48612
103.60185
103.95476
104.36024
104.81718
105.30165
105.80501
106.34776
106.88383
107.39651
107.87509
108.31301
108.71099
109.07291
109.39827
109.68723
109.91946
110.11056
110.26902
110.41249
103.96293
104.31137
104.71154
105.15932
105.64139
106.15109
106.65635
107.13959
107.61245
108.05908
108.46618
108.82301
109.1517
109.4439
109.70867
109.9315
110.10902
110.25769
110.38715
104.23494