/*--------------------------------*- C++ -*----------------------------------*\
  =========                 |
  \\      /  F ield         | OpenFOAM: The Open Source CFD Toolbox
   \\    /   O peration     | Website:  https://openfoam.org
    \\  /    A nd           | Version:  11
     \\/     M anipulation  |
\*---------------------------------------------------------------------------*/
FoamFile
{
    format      ascii;
    class       volVectorField;
    location    "0.1315";
    object      U;
}
// * * * * * * * * * * * * * * * * * * * * * * * * * * * * * * * * * * * * * //

dimensions      [0 1 -1 0 0 0 0];

internalField   nonuniform List<vector> 
880
(
(25 -7.768126373978579e-16 0)
(25 2.85264261598343e-16 0)
(25.00000000004973 -6.544514258284943e-11 0)
(24.99998701620229 -5.23617917804816e-06 0)
(25 1.210301178234613e-15 0)
(25 -2.331916449005376e-15 0)
(25.00000000019791 -6.370146049057168e-10 0)
(24.99982717334635 -0.0003960234963119551 0)
(25 0 0)
(25.00000000000001 2.535613030115412e-15 0)
(25.00000000379727 -7.464427712471055e-09 0)
(25.0000423697462 -0.001078408438241198 0)
(25 0 0)
(25 -1.704454933500167e-15 0)
(25.00000010990072 -8.571823583172649e-08 0)
(24.99785036039515 -0.009264969757057063 0)
(25 -5.037645357921037e-16 0)
(25 -2.71196826503168e-15 0)
(25.00000000000001 -9.202099894564708e-12 0)
(24.99999999883706 2.566765001629034e-09 0)
(25 -8.810639152351062e-15 0)
(25 1.523624484358837e-14 0)
(25.00000000000003 1.349098319605845e-12 0)
(25 -4.943451776814077e-12 0)
(25.00001076429995 -8.546564953074666e-06 0)
(24.99996423204721 2.885476184435438e-05 0)
(24.99982262171207 0.007508968637394834 0)
(25.00469208146508 -0.014211670178167 0)
(24.84081929567766 0.03718708725578201 0)
(24.44691985027874 0.3354730120913713 0)
(24.2550093349048 0.7247268156581996 0)
(24.20434908153304 0.9908522057749073 0)
(24.9999995529572 -1.135509302287142e-06 0)
(24.99999991441908 -2.240545087678768e-07 0)
(24.99998661647784 -1.748546647921949e-05 0)
(24.99998894164662 -7.525974704796708e-06 0)
(24.99997265709111 5.131273561462529e-06 0)
(24.99992291330011 5.801196911392802e-05 0)
(24.99992138497271 0.0002488705960628883 0)
(24.99993241734893 0.0001844591365288957 0)
(24.98389258336598 0.005792270788267402 0)
(24.97704674090547 0.0229382863948586 0)
(24.97932362906781 0.04515064168283654 0)
(24.97655571062616 0.04756761382403404 0)
(24.20341886846851 1.236200732094405 0)
(24.11876416810917 1.572261972452231 0)
(24.24337008431275 1.710889507230366 0)
(24.05691420450284 2.017505141485964 0)
(24.54427740931872 2.276555778513143 0)
(24.9802923566279 2.183583080236198 0)
(25.35292386353227 1.833768055118267 0)
(25.58120476806062 1.327747609798678 0)
(24.96362708666926 0.08529211234241509 0)
(24.9189792790099 0.1801196253906263 0)
(24.97318254793096 0.2606729948416046 0)
(25.03559514721251 0.2437160101240302 0)
(24.99979176533522 0.0005354848713604938 0)
(24.99899177011535 0.001615952605407749 0)
(24.99858837544119 0.003841536674248679 0)
(24.99976734619212 0.004939281468847738 0)
(24.99997441203873 -2.219692116068318e-05 0)
(24.99993899279676 -6.049686763445223e-05 0)
(24.99985270803051 -0.000143026535000148 0)
(24.99977912476104 -0.0001708890033293365 0)
(24.99977448074138 -0.0001541043730242104 0)
(24.99981848109304 -0.0001032040642892507 0)
(24.99990554790924 -4.486611383224621e-05 0)
(24.9999739741435 -1.117322640789786e-05 0)
(25.00056933172544 0.004627961258354516 0)
(25.00110788027422 0.003589711787794255 0)
(25.00097588904572 0.0019217013204268 0)
(25.00039486332072 0.0005668301378068038 0)
(25.0640398161107 0.2087798095786439 0)
(25.07476401655792 0.1516723165610976 0)
(25.06261123156415 0.09252830630810395 0)
(25.0345599199287 0.04162473869397438 0)
(25.63801878250913 0.8642742235628048 0)
(25.57435876778636 0.5583177120130474 0)
(25.46192554215524 0.3615583141738013 0)
(25.32978658985013 0.2259643068888925 0)
(25.19244950416048 0.1180287866588648 0)
(25.01073995392146 0.01064379217249641 0)
(25.00006031902407 7.066627119899142e-05 0)
(24.99999697599463 -1.188481189600876e-06 0)
(25.07837623322195 0.04417019925494926 0)
(25.00161828072399 0.00154979792616271 0)
(25.00000374598847 5.526721449707404e-06 0)
(24.99999981169479 -7.701552029647708e-08 0)
(25.01268728187691 0.006231500765753948 0)
(25.00010522228054 1.373925377452883e-05 0)
(25.0000015193051 -2.822776110830458e-06 0)
(24.99999995431992 -5.133589562014222e-08 0)
(24.69326252213373 0.2513371738602974 0)
(24.9979725268837 0.002653124266005459 0)
(25.00002389923222 1.339937213382986e-06 0)
(25.000007459461 -2.036992036689326e-06 0)
(24.99999981369151 -6.281949606755157e-06 0)
(25.00000851646918 -2.979625452642316e-05 0)
(24.98378995891031 0.006143750296881176 0)
(22.37495700933513 0.9343576004450768 0)
(24.99999320192065 -5.515573698490278e-06 0)
(24.99986077066342 8.567683125910598e-05 0)
(24.92639755446526 0.03459962537541716 0)
(20.81676125631996 2.253847608625931 0)
(24.99998857094877 -2.593601557405897e-05 0)
(24.99926492210026 0.0005153651424343165 0)
(24.8341765501906 0.1157294727174551 0)
(19.99078766790049 3.69518499641751 0)
(24.99991028159679 -7.984691515425265e-05 0)
(24.99903667561687 0.001600194784786195 0)
(24.76384586432194 0.2172160231869587 0)
(19.71387588031572 4.998875491692595 0)
(19.42223894844347 6.332928726041282 0)
(24.66200220891155 0.3995808585520829 0)
(24.99784655161924 0.003045365212726991 0)
(24.99988519915261 -0.0001466264466065679 0)
(19.52647279360515 7.127404999548583 0)
(24.61069861874849 0.5686930535933874 0)
(24.99807211179301 0.006190908521710147 0)
(24.99968923491719 -0.0002794633302441472 0)
(19.49181472815492 7.873995725511826 0)
(24.52557335072969 0.7586336713615517 0)
(24.99627230838204 0.007583463416145179 0)
(24.9996718646057 -0.00034980626143578 0)
(19.56030644283973 8.28693141332303 0)
(24.42123944365851 0.9917702484469609 0)
(24.99554946471146 0.01322256319924764 0)
(24.99937781582269 -0.0005833816370586967 0)
(24.99919924365719 -0.000756868820843402 0)
(24.9941580870001 0.01567000522461815 0)
(24.28325830627761 1.212665797328861 0)
(19.18499811657321 8.818754444318753 0)
(24.99888047715368 -0.001165220390839964 0)
(24.98858787138663 0.02566814492235857 0)
(24.09737769963928 1.590116918363652 0)
(19.59397437115181 9.05113370622016 0)
(24.99885495130904 -0.002177050435182428 0)
(24.99023284169933 0.03617785112997014 0)
(24.28013688929118 1.624497667072005 0)
(20.74327759987038 8.484441183977841 0)
(24.99784662398284 -0.0007430085728771407 0)
(24.9864890496001 0.01854441898712362 0)
(24.47489703561211 1.154867692941746 0)
(22.67401416156128 6.770156012619513 0)
(24.9973503684093 -0.001589525301418239 0)
(25.0020516662029 0.08250906066979315 0)
(25.23763024865787 1.328130728629511 0)
(26.16051089687659 4.362469618186808 0)
(24.99443972765789 -0.000890830754409818 0)
(25.05993780104596 0.07113323367878302 0)
(25.62782952888075 0.6256962800361061 0)
(28.28398864168398 1.777821747759627 0)
(24.99904548705626 -5.214274779366362e-05 0)
(25.05047901009377 0.01640744007512905 0)
(25.52888076511808 -0.02377521693745363 0)
(27.64540488298691 -0.8225358980449311 0)
(25.00025157845201 -0.000309500933297794 0)
(25.00961682638657 -0.01703484563143217 0)
(25.06027756369605 -0.4949144199174336 0)
(24.15534089431829 -2.898558008194437 0)
(21.05023930312781 -3.81509371853454 0)
(24.70542719827479 -0.6519584095315248 0)
(24.99110537457833 -0.02469845248924675 0)
(24.99996162136497 -0.0004056317219862443 0)
(19.0882233714406 -4.197515155948593 0)
(24.41252683243576 -0.6761332813902109 0)
(24.98183122844947 -0.02723484654001176 0)
(24.99981517404959 -0.0002608845410235983 0)
(18.39130932518367 -3.260842546431591 0)
(24.27074241532475 -0.5398313486293349 0)
(24.98135235821043 -0.01888930545375631 0)
(24.99994363184267 -0.0001055661907627125 0)
(17.14459932498177 -2.346763207017039 0)
(24.10962046117248 -0.4783155586829112 0)
(24.97839080056564 -0.01680457734337554 0)
(24.99992647153457 -9.823118735718692e-05 0)
(18.37784115769445 -0.5698444809775163 0)
(24.3552856520606 -0.208725189925813 0)
(24.98962562666281 -0.006128987562452975 0)
(24.99996926955747 -3.126514955459819e-05 0)
(20.27781788516931 0.5461059399467444 0)
(24.65847683641872 -0.09720648346090481 0)
(24.99676471482783 -0.00195859816762339 0)
(24.99999199543878 -7.864165038678153e-06 0)
(21.99563936924838 0.6868583623044798 0)
(24.8400922624651 -0.05355926784025378 0)
(24.99900324864493 -0.0007113201853027529 0)
(24.99999807446243 -2.532722131610429e-06 0)
(23.43711996786265 0.6314405847088598 0)
(24.95721006303658 -0.0582750417121002 0)
(24.99998973397742 -0.0004889382078416768 0)
(24.9999996182912 -1.540811063499042e-06 0)
(23.14310581518927 -0.2154389339072866 0)
(24.85605219724536 -0.00631171629087412 0)
(24.99614769770111 -6.225617373083628e-05 0)
(24.99996514360797 -2.355857764893359e-07 0)
(23.29492947403461 -0.5729855971028337 0)
(24.86379230913825 -0.01624961683413243 0)
(24.99618247175853 -0.0001455678889019165 0)
(24.99996496965632 -5.127466099475172e-07 0)
(23.21387149139668 -0.8829353934703672 0)
(24.85902230141769 -0.03399395914208573 0)
(24.99608649998239 -0.0002788315651969864 0)
(24.99996394656902 -7.151660807115813e-07 0)
(23.17191982155981 -0.8663000944497415 0)
(24.86779858079571 -0.04802170266177168 0)
(24.99612219274444 -0.0007084838895206968 0)
(24.99996198028559 -3.78006851285986e-06 0)
(23.4371199679499 -0.6314405847822719 0)
(24.95721006309099 0.05827504173347553 0)
(24.99998973409295 0.0004889382872959614 0)
(24.99999961811535 1.541062343170204e-06 0)
(21.99563936928244 -0.6868583621421648 0)
(24.84009226255547 0.05355926786607129 0)
(24.99900324887814 0.0007113202708243334 0)
(24.99999807443178 2.532615865203935e-06 0)
(20.27781788512841 -0.5461059397401751 0)
(24.65847683633974 0.09720648365700905 0)
(24.99676471481404 0.00195859834146625 0)
(24.99999199543433 7.864171294007381e-06 0)
(18.37784115756808 0.5698444808639181 0)
(24.35528565185723 0.2087251898064983 0)
(24.98962562661524 0.006128987486612093 0)
(24.99996926962163 3.12651312716082e-05 0)
(24.99996162115448 0.0004056316032238283 0)
(24.99110537446137 0.02469845230582758 0)
(24.7054271982057 0.6519584094104967 0)
(21.05023930304879 3.815093718493615 0)
(24.99981517378004 0.0002608847054747305 0)
(24.98183122835423 0.02723484658569224 0)
(24.41252683241102 0.6761332812934493 0)
(19.08822337141851 4.197515155785549 0)
(24.99994363202428 0.0001055661725254346 0)
(24.98135235803157 0.01888930539354315 0)
(24.27074241531345 0.5398313486316538 0)
(18.39130932513707 3.260842546325417 0)
(24.99992647151489 9.823117434769519e-05 0)
(24.97839080049897 0.01680457740260115 0)
(24.10962046097088 0.4783155585220856 0)
(17.14459932499153 2.346763207120418 0)
(24.15534089446151 2.898558008329145 0)
(25.06027756383123 0.4949144199694506 0)
(25.00961682657698 0.01703484541000721 0)
(25.00025157863381 0.0003095007593240255 0)
(27.64540488318248 0.8225358981437576 0)
(25.52888076528116 0.02377521696405356 0)
(25.05047901028994 -0.01640743984523738 0)
(24.99904548746073 5.214263589001193e-05 0)
(28.28398864168307 -1.777821747770253 0)
(25.62782952905332 -0.6256962800004627 0)
(25.0599378010972 -0.07113323365918719 0)
(24.99443972767847 0.0008908312570243121 0)
(26.16051089685546 -4.362469618201445 0)
(25.23763024874454 -1.328130728672584 0)
(25.00205166627756 -0.08250906044720757 0)
(24.99735036793232 0.001589525291649014 0)
(24.9991992437312 0.0007568688437968451 0)
(24.9941580870507 -0.01567000527766075 0)
(24.28325830622828 -1.212665797176874 0)
(19.1849981164537 -8.818754444219485 0)
(24.99888047715801 0.001165220365483791 0)
(24.98858787115514 -0.02566814508973271 0)
(24.09737769956395 -1.590116918321107 0)
(19.59397437115321 -9.051133706175058 0)
(24.99885495084889 0.002177050412718442 0)
(24.99023284166427 -0.03617785104567183 0)
(24.28013688938124 -1.624497666992228 0)
(20.7432775998843 -8.484441183959978 0)
(24.99784662416317 0.0007430084302887334 0)
(24.98648904953741 -0.01854441883526479 0)
(24.4748970356417 -1.154867692840389 0)
(22.67401416158141 -6.77015601263289 0)
(19.56030644255672 -8.286931413334869 0)
(24.42123944344578 -0.9917702485937422 0)
(24.9955494641337 -0.013222563414083 0)
(24.9993778158202 0.0005833816823175694 0)
(19.49181472795932 -7.873995725489102 0)
(24.52557335039671 -0.7586336713904798 0)
(24.99627230850326 -0.007583463361543753 0)
(24.99967186453796 0.000349806251702388 0)
(19.52647279364426 -7.127404999532983 0)
(24.61069861881619 -0.5686930533910635 0)
(24.99807211167127 -0.006190908724193086 0)
(24.99968923499796 0.0002794633275217696 0)
(19.42223894835638 -6.332928726057301 0)
(24.66200220921088 -0.3995808588166371 0)
(24.99784655166606 -0.003045365211527547 0)
(24.99988519921646 0.0001466264460449194 0)
(24.99999981359048 6.281973244598853e-06 0)
(25.00000851635966 2.979626993845451e-05 0)
(24.9837899589774 -0.006143750211219698 0)
(22.3749570093885 -0.9343576004420967 0)
(24.99999320201133 5.515569080451393e-06 0)
(24.99986077087739 -8.567679318634889e-05 0)
(24.92639755426881 -0.03459962548752713 0)
(20.81676125658305 -2.253847608604186 0)
(24.9999885710988 2.593600840768895e-05 0)
(24.99926492209384 -0.0005153650376702564 0)
(24.83417655014985 -0.1157294725439629 0)
(19.99078766769561 -3.695184996475879 0)
(24.99991028178902 7.984691934990863e-05 0)
(24.99903667540982 -0.00160019493447461 0)
(24.76384586429358 -0.2172160233069906 0)
(19.71387588031893 -4.998875491632191 0)
(25.00000745939867 2.036987701971559e-06 0)
(24.99999995423363 5.13418871782314e-08 0)
(24.99999981168278 7.700390674306957e-08 0)
(24.99999697601003 1.1885096433389e-06 0)
(25.0000238993666 -1.339898628779071e-06 0)
(25.00000151926441 2.822734615124188e-06 0)
(25.00000374581434 -5.526709331865038e-06 0)
(25.00006031912359 -7.066620460152403e-05 0)
(24.99797252684027 -0.002653124279846561 0)
(25.00010522222247 -1.373923026404772e-05 0)
(25.00161828089499 -0.00154979786989914 0)
(25.0107399539501 -0.01064379233399087 0)
(24.69326252214701 -0.2513371737746551 0)
(25.01268728185015 -0.006231500675527442 0)
(25.07837623314989 -0.0441701994459188 0)
(25.19244950419714 -0.1180287865525676 0)
(24.99997397431994 1.1173210513943e-05 0)
(25.00039486333771 -0.0005668302296869248 0)
(25.03455991974005 -0.0416247387825008 0)
(25.32978658978345 -0.2259643068289087 0)
(24.99990554797603 4.48660875148261e-05 0)
(25.00097588909847 -0.00192170129729962 0)
(25.06261123136956 -0.09252830614505796 0)
(25.46192554213753 -0.3615583140806957 0)
(24.999818480932 0.0001032040819040809 0)
(25.00110788029761 -0.003589711807334963 0)
(25.07476401664543 -0.1516723166072549 0)
(25.57435876781138 -0.5583177120234392 0)
(24.99977448071526 0.0001541044391154141 0)
(25.00056933168351 -0.004627961393585523 0)
(25.06403981603422 -0.2087798095490981 0)
(25.63801878260593 -0.8642742234941726 0)
(24.99997441225213 2.219682257558049e-05 0)
(24.99979176547714 -0.000535484963192766 0)
(24.96362708641905 -0.0852921126054391 0)
(24.5442774093159 -2.276555778604163 0)
(24.99993899301882 6.049681999326032e-05 0)
(24.99899177017562 -0.001615952521894558 0)
(24.91897927896914 -0.1801196254336589 0)
(24.98029235673963 -2.183583080331577 0)
(24.99985270812081 0.0001430265621173184 0)
(24.9985883752399 -0.003841536580441526 0)
(24.97318254795421 -0.2606729948408462 0)
(25.35292386363342 -1.833768055159648 0)
(24.99977912483644 0.0001708890264669472 0)
(24.99976734604793 -0.004939281510812883 0)
(25.03559514726525 -0.2437160100613662 0)
(25.5812047681342 -1.327747609870465 0)
(24.05691420451269 -2.017505141369 0)
(24.97655571029655 -0.04756761380442255 0)
(24.99993241748558 -0.0001844591901485163 0)
(24.99998894176152 7.525900500861659e-06 0)
(24.24337008420762 -1.710889507281972 0)
(24.97932362891416 -0.04515064152215488 0)
(24.9999213850119 -0.0002488706316347261 0)
(24.99998661625089 1.748569288087348e-05 0)
(24.1187641679859 -1.572261972293762 0)
(24.97704674141342 -0.02293828600809913 0)
(24.99992291325582 -5.801195524955477e-05 0)
(24.99999991461652 2.238830727000824e-07 0)
(24.20341886841527 -1.236200732211882 0)
(24.9838925840353 -0.005792271045477964 0)
(24.99997265713628 -5.131234491126375e-06 0)
(24.99999955289362 1.135510108950433e-06 0)
(24.20434908142985 -0.9908522057922846 0)
(25.00469208073564 0.0142116698779792 0)
(25 5.09996290066324e-12 0)
(24.99999999879048 -2.548640490358909e-09 0)
(24.25500933491942 -0.7247268156308405 0)
(24.99982262219901 -0.007508968296103118 0)
(25 -1.400760521723711e-12 0)
(25.00000000000001 9.316710499212252e-12 0)
(24.44691985020086 -0.3354730120007803 0)
(24.99996423210496 -2.885475268050924e-05 0)
(25 -5.903742926610848e-15 0)
(25.00000000000001 1.862354794906595e-15 0)
(24.84081929560767 -0.03718708735330798 0)
(25.00001076434977 8.546562919657499e-06 0)
(25 -1.980374883025641e-15 0)
(25.00000000000002 -7.240853889321215e-15 0)
(25 1.420908939734042e-15 0)
(25 2.497271035834737e-15 0)
(25.00000000004143 6.620269598888747e-11 0)
(24.99998701828703 5.236054304459423e-06 0)
(24.99999999999999 -2.843418720158383e-19 0)
(25 4.026035869210561e-15 0)
(25.00000000018558 6.38366261241747e-10 0)
(24.99982717444989 0.0003960235818836121 0)
(25 -1.366459512028481e-15 0)
(25 -3.324063163236401e-15 0)
(25.0000000037863 7.455938380453475e-09 0)
(25.00004236983916 0.001078408534570308 0)
(25 -2.830547572929067e-15 0)
(25 -1.586958371149953e-15 0)
(25.00000011001068 8.568925835027761e-08 0)
(24.99785036048068 0.009264969961574993 0)
(24.99996021338133 -1.452895365234025e-09 0)
(24.99982659138449 0.0004944829070515943 0)
(24.99879845338378 0.001951391546654489 0)
(24.97106609225038 0.002432360919903393 0)
(24.99982658833865 -0.0004944932265678872 0)
(24.99980059269994 -6.80900608141365e-09 0)
(24.9977513979353 -0.0009471362202491776 0)
(24.87088921578406 -0.04849036473252603 0)
(24.9987984479244 -0.001951394164291619 0)
(24.99775139700948 0.0009471335145512145 0)
(24.94079919930275 1.781431768649598e-08 0)
(24.18105149291305 -0.18142548575154 0)
(24.97106609036256 -0.002432363120096006 0)
(24.87088921995211 0.04849035319657656 0)
(24.18105150393996 0.1814255039434388 0)
(21.59621139945164 -6.581857555040394e-09 0)
(19.21787618127655 2.47349409669884 0)
(20.24195984856997 3.128678552041706 0)
(22.73587603450058 2.292337354158045 0)
(24.04971395546097 1.0656315359668 0)
(19.75558755329145 4.467150619207897 0)
(19.98926441393852 4.607521371294667 0)
(21.0144614674366 4.410080678783673 0)
(22.26544931608052 3.653786273495825 0)
(20.13057489737426 5.544619622675373 0)
(20.84510241784241 4.877232481825365 0)
(21.5929232453597 5.072655885417359 0)
(22.47694239735958 4.788872439927156 0)
(20.78841895550459 6.041637262839405 0)
(21.49198315104177 5.129449696662109 0)
(22.07140608631246 5.29335553539546 0)
(22.69158926061112 5.104917971368793 0)
(22.88254877568968 5.171248175039337 0)
(22.99742091362306 5.338287316970394 0)
(23.14111550584505 5.429146316993387 0)
(23.11860652578964 5.687160136897059 0)
(22.54111996256173 5.401242860991229 0)
(22.84729898658445 5.50408079927312 0)
(23.01472467096845 5.556792527498887 0)
(23.55031125709462 5.968962420595655 0)
(22.05065453945993 5.329141333955946 0)
(22.61999271600846 5.521436299175989 0)
(22.84996817194551 5.61492236852204 0)
(25.03745687420566 6.394535546545473 0)
(20.80683479386112 6.133918495566582 0)
(21.06200502823153 5.874785713891074 0)
(21.35962711441834 5.539752075988055 0)
(26.86845211261043 7.559674616041769 0)
(25.2028549496722 4.194830476194909 0)
(27.0182310817291 1.606080996950058 0)
(26.58561273837511 0.3352463041417498 0)
(26.27222294312274 0.2387997487118802 0)
(26.63575150697024 3.368909478625772 0)
(28.54162690888035 0.4774616722102445 0)
(27.65688567648791 0.008222069853902345 0)
(27.03040223326757 0.139750262426321 0)
(29.44356969704844 2.691643521206162 0)
(30.03406850017864 -0.1166800296071485 0)
(28.41962039813607 -0.1199495465192279 0)
(27.35503894865058 0.0141803929904124 0)
(21.58308715683796 1.724836664546353 0)
(22.24877776456655 0.6469109063628128 0)
(22.29424272144822 0.09521755582314419 0)
(22.37873043358276 0.01210241047144609 0)
(25.99015029517097 0.1429703224078206 0)
(25.79008401625815 0.08770035696093458 0)
(25.58841887627456 0.08494313828785266 0)
(25.45576622384673 0.05267518141142397 0)
(26.49219297412638 0.1385153842042023 0)
(26.14437404264756 0.0715211597634275 0)
(25.83477968384311 0.05524180072260156 0)
(25.63667981476965 0.02700451332805003 0)
(26.74336938482647 -0.04038096523866495 0)
(26.34076825001214 -0.08844624849954558 0)
(26.02527624342357 -0.06864287240559122 0)
(25.79045777974734 -0.03611530190897987 0)
(22.78486789426729 -0.2254201491176105 0)
(23.39399587593742 -0.4720262935877801 0)
(23.99805411830206 -0.5042572916839352 0)
(24.51376701321388 -0.3799026924903461 0)
(25.36186974461598 0.03472540256703149 0)
(25.20935288162683 0.05518234746406512 0)
(25.05066097302298 0.01359734152552725 0)
(22.17279842436096 2.964323968418048 0)
(25.49761005299977 0.008368192216639293 0)
(25.30943769045701 0.01486112810667816 0)
(25.1013845497146 0.01797586399341448 0)
(19.62133332348832 3.375116508882797 0)
(25.61299592381865 -0.02945054447213204 0)
(25.40191057959439 -0.0298303008348453 0)
(25.12118480683031 0.01523700854739269 0)
(16.96465176143463 2.357497526944788 0)
(24.75592774385114 -0.2763303730950041 0)
(24.86551048555974 -0.2206765186688325 0)
(24.77004709584282 -0.02685679863827759 0)
(12.01957130032703 0.6495449274714827 0)
(15.0007634220198 7.635058628146957 0)
(15.20009295319436 7.858120856658131 0)
(15.3397301211674 8.714925550084148 0)
(15.89185980546371 9.639822480180797 0)
(12.86447176666818 7.867327244280092 0)
(14.32843670589943 8.087437690944741 0)
(15.07972717960842 8.962077758471178 0)
(15.79775414850833 9.811511350873159 0)
(10.39165073123947 6.751957752287304 0)
(12.57410336057966 7.737287860637357 0)
(14.20804886821012 9.003982407730787 0)
(15.40763637900072 9.863482246218783 0)
(7.048107835163254 2.791805561795113 0)
(9.591153669594553 4.238608433369414 0)
(11.90981790337634 6.405604264513032 0)
(13.50765832914277 8.520943283220699 0)
(16.10266534353397 10.51657538822355 0)
(16.29858985338585 10.87098239675833 0)
(16.52403114147916 11.16036734775155 0)
(16.73401139978675 11.21829584558665 0)
(16.10928111482032 10.46637879831739 0)
(16.27128614981048 10.74059172861564 0)
(16.46513836363363 10.97319084184284 0)
(16.67553259534951 11.06137354287184 0)
(15.92294080604375 10.41726061777051 0)
(16.13984173591799 10.68228163943141 0)
(16.35969835848353 10.90591129955226 0)
(16.55516493198655 11.01980669555748 0)
(14.57572577875003 9.896102469922528 0)
(14.97276117608334 10.64493391754644 0)
(15.34793543102336 10.76242890457142 0)
(15.49412513269742 10.80549753577485 0)
(16.95486627624443 11.31665917158291 0)
(17.53644491463559 11.2854188038506 0)
(18.99902929865542 10.81930853236662 0)
(21.20446478723993 9.692741618043003 0)
(16.9452595341292 11.16740014208579 0)
(17.49619693156471 11.15548466504112 0)
(18.79560864874041 10.93568331821041 0)
(22.02416128328549 11.45012963266966 0)
(16.83657112709261 11.13452692864409 0)
(17.2440051618457 11.12763653543267 0)
(19.0983645935299 11.41655462677423 0)
(27.27583258232054 16.76467150095511 0)
(16.05121265845534 10.98621030835871 0)
(16.7629787584232 10.76867336530673 0)
(19.43992862831521 11.79584732629868 0)
(37.55434921803243 22.3729027026509 0)
(26.42864772907903 5.331468547244439 0)
(30.07352054503921 -2.36574642782904 0)
(8.557857069522045 -5.041086313283367 0)
(5.739643455401324 -0.7981479720859427 0)
(27.54516416198124 4.779470752245514 0)
(25.18105883666744 -1.956846454310857 0)
(4.641335774001866 -4.801639585462304 0)
(2.729398913651132 0.3777666921260527 0)
(27.11757349982685 4.157449436038446 0)
(17.40493515203081 -5.567794962884677 0)
(1.93025447448076 -1.832382565445638 0)
(1.433190904071119 0.9647340344340786 0)
(17.68413495480177 -6.792805817303825 0)
(6.707157408437264 -6.74179961075334 0)
(-0.006267427841240186 0.6386009889174065 0)
(0.3357268819767475 0.4710128528744723 0)
(3.092065755245633 -0.5151305272040925 0)
(1.142734860780064 -0.8553870197113742 0)
(0.01874325866496587 -0.6494282186508827 0)
(-1.365244996152777 0.8048920308502351 0)
(1.311083729928597 1.301041410061154 0)
(-0.2585055161711911 1.136947790259786 0)
(-1.115688119616372 1.404954352873233 0)
(-1.195680308387813 2.552046364330845 0)
(0.5265018752662443 0.9790787224538501 0)
(-0.230113137559732 1.637082974596689 0)
(-0.1094122825100705 2.804670567611363 0)
(-0.798871029139292 4.172566622120546 0)
(0.2291072636670412 0.4550391791337958 0)
(-0.06200039706610756 1.655407814364593 0)
(-0.3613896836309226 3.738816024868031 0)
(-1.204534860645177 4.583374653281594 0)
(6.621675158727767 -3.878921737754534 0)
(13.96176670199036 -4.697954456213893 0)
(18.66539794694385 -4.538789612375248 0)
(22.28877088944168 -3.91799926692112 0)
(2.906402309140323 -1.105114741097337 0)
(10.50522884349655 -2.573284624241531 0)
(16.20019028309144 -3.422848711775636 0)
(20.65242650235277 -4.130507069387503 0)
(-1.070078722017474 -0.9921075742906859 0)
(4.576818697922735 -2.431655581770425 0)
(11.67627056445433 -3.691282274728472 0)
(19.50367936029469 -3.382168828516386 0)
(-2.095071059873358 1.272871530306202 0)
(1.483388589659749 0.8990333748212861 0)
(9.048992067093149 1.807185048426888 0)
(22.30614498645325 -1.671091398393073 0)
(23.38584072551146 -7.69767054966107 0)
(23.72761153030335 -13.5619226644797 0)
(24.0003263383423 -20.2029779808728 0)
(22.18729632935701 -16.41045892571659 0)
(21.88887268759714 -8.27543661255984 0)
(22.55916613978532 -16.3080163641628 0)
(20.98640176754138 -16.00300177547237 0)
(15.89808936340114 -4.645787021792468 0)
(21.14091656552755 -10.0806059997174 0)
(19.60324758843452 -15.11542126652639 0)
(12.19261249307119 -5.09405818021124 0)
(6.280921690204671 1.803292063192161 0)
(15.32700268456691 -11.42960662817176 0)
(6.234776756665319 -7.728808520750668 0)
(3.676075966814933 2.076309752691239 0)
(1.201094771149007 4.748118570256883 0)
(-0.5655003004135339 4.821752902149357 0)
(-1.583294037248985 3.378365734004712 0)
(-2.3108782487855 2.207518711429858 0)
(-2.165238200451785 0.8983790485151288 0)
(1.664067751875363 2.503429463649179 0)
(-1.075918383964408 2.239121392776082 0)
(-2.995212169524663 1.539087384008024 0)
(-3.387117224950438 0.4517431541519225 0)
(7.466861568748386 -2.601616462593169 0)
(1.165421083965392 -1.727358650738636 0)
(-2.568420605892086 -0.7536762488915907 0)
(-3.657909762998671 -0.2741848167525348 0)
(16.39152035105559 -7.932250702441086 0)
(9.723009905213987 -4.182725464761076 0)
(5.478038558660085 -2.639786771187429 0)
(4.373688948951803 -0.8313243810427137 0)
(-2.165238200446799 -0.8983790485068267 0)
(-3.387117224946485 -0.4517431541715413 0)
(-3.657909762996754 0.274184816705794 0)
(4.373688948860301 0.8313243809074379 0)
(-2.310878248772517 -2.207518711422846 0)
(-2.995212169518104 -1.539087384011365 0)
(-2.568420605893466 0.753676248827866 0)
(5.47803855863983 2.639786771051059 0)
(-1.583294037248136 -3.378365734004334 0)
(-1.075918383969914 -2.239121392766056 0)
(1.16542108395236 1.727358650667633 0)
(9.723009905175802 4.182725464599032 0)
(-0.5655003004176711 -4.821752902150306 0)
(1.664067751863858 -2.503429463650753 0)
(7.46686156872526 2.601616462537895 0)
(16.39152035102923 7.932250702283873 0)
(22.18729632936937 16.41045892562449 0)
(24.00032633842289 20.20297798085662 0)
(23.72761153041547 13.56192266447016 0)
(23.38584072561769 7.697670549672591 0)
(15.89808936339585 4.645787021732713 0)
(20.98640176753481 16.0030017754168 0)
(22.55916613982021 16.30801636414726 0)
(21.88887268766046 8.27543661256288 0)
(6.280921690193869 -1.803292063230619 0)
(12.19261249307538 5.094058180157941 0)
(19.60324758841867 15.11542126652403 0)
(21.14091656554931 10.08060599971781 0)
(1.201094771146402 -4.748118570273721 0)
(3.676075966807464 -2.076309752713241 0)
(6.23477675665405 7.728808520694808 0)
(15.32700268457926 11.42960662816443 0)
(22.30614498647588 1.671091398392712 0)
(9.04899206708229 -1.80718504844921 0)
(1.48338858963822 -0.8990333748468387 0)
(-2.095071059862499 -1.272871530308581 0)
(19.50367936031157 3.382168828513983 0)
(11.67627056441153 3.691282274747426 0)
(4.576818697832103 2.431655581728034 0)
(-1.070078722032803 0.9921075742467899 0)
(20.65242650239126 4.130507069385196 0)
(16.20019028303473 3.422848711836874 0)
(10.50522884337458 2.573284624157219 0)
(2.906402309078271 1.105114741005156 0)
(22.28877088950959 3.917999266896999 0)
(18.66539794685353 4.5387896124844 0)
(13.96176670186782 4.697954456168921 0)
(6.621675158671254 3.878921737618616 0)
(-1.365244996063929 -0.8048920308065368 0)
(0.01874325861921397 0.6494282186931926 0)
(1.142734860708998 0.855387019578567 0)
(3.092065755201156 0.515130527032545 0)
(-1.195680308317749 -2.552046364303988 0)
(-1.115688119616089 -1.404954352816369 0)
(-0.258505516245213 -1.136947790348318 0)
(1.311083729923264 -1.301041410246854 0)
(-0.798871029091664 -4.172566622069194 0)
(-0.1094122825273697 -2.804670567548602 0)
(-0.2301131375962835 -1.637082974669285 0)
(0.5265018752508366 -0.9790787226260248 0)
(-1.20453486061634 -4.58337465322699 0)
(-0.3613896836157026 -3.738816024798782 0)
(-0.06200039708715609 -1.655407814426938 0)
(0.2291072636457465 -0.455039179247521 0)
(5.739643455453836 0.7981479720744553 0)
(8.55785706941505 5.041086313285434 0)
(30.07352054507511 2.365746427825096 0)
(26.42864772910927 -5.331468547269646 0)
(2.7293989137144 -0.3777666922503516 0)
(4.641335774016129 4.801639585431206 0)
(25.18105883673254 1.956846454261277 0)
(27.54516416207722 -4.779470752274401 0)
(1.433190904095702 -0.9647340345665801 0)
(1.930254474430697 1.832382565424557 0)
(17.4049351520826 5.567794962891329 0)
(27.11757349991821 -4.157449436123011 0)
(0.3357268819471413 -0.471012853005279 0)
(-0.006267427874565498 -0.6386009889597485 0)
(6.707157408503934 6.741799610761772 0)
(17.68413495488128 6.792805817266084 0)
(21.20446478724408 -9.692741618036401 0)
(18.99902929858441 -10.81930853234286 0)
(17.53644491458043 -11.28541880381123 0)
(16.95486627614185 -11.31665917147916 0)