/*--------------------------------*- C++ -*----------------------------------*\
  =========                 |
  \\      /  F ield         | OpenFOAM: The Open Source CFD Toolbox
   \\    /   O peration     | Website:  https://openfoam.org
    \\  /    A nd           | Version:  11
     \\/     M anipulation  |
\*---------------------------------------------------------------------------*/
FoamFile
{
    format      ascii;
    class       volScalarField;
    location    "0.0175";
    object      p;
}
// * * * * * * * * * * * * * * * * * * * * * * * * * * * * * * * * * * * * * //

dimensions      [0 2 -2 0 0 0 0];

internalField   nonuniform List<scalar> 
880
(
80
80
80
79.99999999896977
80
80
79.99999999999991
79.99999999666987
80
79.99999999999999
80
79.99999930096885
80
80
80
80.00000891785339
80
80.00000000000001
79.99999999999994
80
79.99999999999999
80
79.99999999999983
80
80
80
80.00000000433201
79.99999993030571
80.0016245984022
80.00453379010753
80.00489228694248
80.00438473845904
80
80
79.99999999999996
80
80.00000000011039
80.00000000012179
80.00000000015847
79.99999999999217
80.00000102222273
80.00000110418985
80.00000116025663
80.00000032505204
80.0048145301035
80.00516444814727
80.00526868634684
80.00366921158395
80.01563082073463
80.00581193999191
80.00056445867196
80.00000820134278
80.00000743264259
80.00000333493436
80.00000039894161
80.00000000846539
80.00000000218688
80.00000000100428
80.00000000005558
80
80
80.00000000000001
80
80
79.99999999999996
79.99999999999997
80
80.00000000000001
80
80.00000000000001
80.00000000000001
80.00000000000001
79.9999999999655
80
79.99999999999989
80
79.999999857025
79.99999998357319
79.99999999985231
80
80
80
79.99999999999999
80
79.99999999603781
79.99999999999073
80
79.99999999999999
80.00000558760136
80.00000003873144
80
79.99999999999999
79.98966446761828
79.99999591831202
79.99999999903808
79.99999999999999
79.99999999999991
79.99999999999999
80.00000001490075
80.00018470198388
80
80.00000000000119
80.00000010207602
80.00083386419314
80
80.00000000000028
80.00000011806475
80.00088764267032
80
80.00000000000001
80.00000013532684
80.00093126175048
80.00097982904599
80.00000015607445
80.00000000000088
80
80.00103362352425
80.00000018117176
80.00000000000412
80
80.00109151542533
80.00000021145135
79.99999999999933
79.99999999999999
80.00120727782557
80.00000026199899
80.00000000000382
80
79.99999999999993
80.0000000000007
80.00000015607465
80.00079918414011
80
80.00000000000044
80.00000014452949
80.0006373217489
80.00000000049474
80.00000000006804
80.00000009935415
80.00052592500015
79.99999999407339
80.00000000181481
80.0000012474505
80.00025335462281
80.00000012812619
80.00000106231415
79.99796090584508
79.36383812177807
80.00000013204546
80.0000006683487
79.99538040539578
77.90463027836584
80.00000009911288
80.00000062441708
79.99547362284318
77.50203162314085
80.00000007394614
80.00000070972098
79.99637196741105
77.58282860385576
78.1503069499542
79.99737723455941
80.00000039124286
80.00000005342025
78.25253780700639
79.99783800813073
80.00000052034838
80.00000004854401
78.38470711728787
79.99824555363752
80.000000546446
80.0000000411781
77.84318467476882
79.99769418749531
79.99999997634033
80.00000002504828
79.83963731269199
79.99991242660178
80.00000009139447
80.00000000252501
79.99904845590575
80.00000116387835
80.00000001169603
79.99999999997119
79.99976124805571
79.99999994407847
80.00000000000831
80
79.9968734933523
79.99999770078296
79.99999999954146
80
79.99835012362026
80.00010090643632
80.00000035873583
80.00000000004648
79.99826549632125
80.00010044904445
80.00000036144523
80.00000000008589
79.99744813514573
80.00009301474182
80.00000038509781
80.0000000000941
79.99559573621468
80.00007178398282
80.00000042208204
80.00000000011543
79.99687349324265
79.9999977007042
79.99999999944872
80
79.99976124793021
79.99999994399809
79.9999999999181
80
79.99904845585468
80.00000116389351
80.00000001169593
79.9999999999706
79.83963731285692
79.99991242679742
80.00000009139842
80.00000000247879
80.00000005355609
80.00000039144768
79.99737723465614
78.15030694999805
80.00000004861985
80.0000005203858
79.99783800821247
78.25253780704274
80.0000000410602
80.00000054656824
79.99824555364155
78.38470711753719
80.00000002507473
79.9999999763719
79.99769418770745
77.84318467462008
77.58282860369454
79.99637196730679
80.00000070965395
80.00000007392518
77.50203162293916
79.99547362271292
80.0000006242113
80.00000009894005
77.90463027830374
79.99538040521537
80.00000066833606
80.00000013189157
79.36383812183897
79.9979609057809
80.00000106224147
80.00000012832966
79.99999999999991
80.00000000004009
80.00000015616646
80.00079918429975
80.00000000000001
80.00000000000033
80.00000014452826
80.0006373216989
80.00000000055955
80.00000000004624
80.00000009927463
80.00052592497491
79.9999999941808
80.0000000018079
80.00000124737333
80.00025335462347
80.00120727814142
80.00000026189369
80.00000000003467
80
80.00109151568059
80.00000021160103
80.0000000000129
80
80.00103362350613
80.00000018134436
80.00000000001074
79.99999999999999
80.00097982917434
80.00000015597001
80.0000000000007
80
80
80
80.00000001489005
80.00018470173424
80
79.99999999999999
80.00000010212777
80.00083386421875
80
80.00000000000004
80.00000011808331
80.00088764278082
79.99999999999999
80
80.00000013524451
80.00093126178726
80
80
80
80
79.9999999989293
80
80
80.00000000000001
79.99999591833348
80.00000003883586
79.99999999998883
80
79.98966446762006
80.00000558760468
79.99999999604572
80
79.99999999999991
80
79.99999999999989
80
80
79.99999999999999
80
79.99999999985171
79.99999999999999
80
80
79.99999998358267
80
79.99999999999999
80.00000000000051
79.99999985701089
80
80.00000000205534
80.00000743252762
80.01563082070084
80.00000000000001
80.00000000100768
80.00000333494765
80.00581193983216
79.99999999999999
80.00000000014944
80.00000039888597
80.00056445865749
80
79.99999999999999
80.00000000848415
80.00000820123806
80.00366921165495
80.00000032520092
79.99999999999808
79.99999999999999
80.00526868628175
80.000001160542
80.000000000151
79.99999999999999
80.00516444831916
80.00000110433001
80.00000000013436
79.99999999999993
80.00481453005531
80.00000102188076
80.00000000008151
80
80.00438473856856
79.9999999303069
80
80
80.00489228688427
80.00000000420142
80
79.99999999999999
80.00453379021835
80.00000000000001
80
79.99999999999999
80.00162459837847
80
80
79.99999999999989
80
79.99999999999997
80
79.99999999910645
80.00000000000003
80.00000000000001
79.99999999999999
79.99999999672598
80
80
80
79.99999930091937
80
80
79.99999999999989
80.00000891776276
79.99999989438449
79.99999719225897
79.99994122352533
80.00081713125134
79.99999719217911
79.99997737808697
79.99840927008707
79.97929357325211
79.99994122352616
79.99840927017837
80.00109437480704
80.61206966433748
80.00081713132141
79.9792935733124
80.61206966433446
89.60884119919663
122.4731934814122
93.92179748842534
83.90923154588847
80.23742498799216
137.4175974640871
106.776467411435
90.18091734530476
80.82259456559582
140.0421190881256
109.2220464802386
91.60753547921901
80.97920805086382
140.2424040132079
109.3145868213388
91.59658189624095
80.96990803337636
81.07345521106276
81.12838601106823
81.13379191629772
80.97661654440941
92.37607363874207
92.75002418708264
92.78836415370975
93.41179606342571
109.9642729618464
110.2402895272665
110.2914676497541
115.1982221816531
141.5711922335793
142.0401128040726
142.1420853302448
153.9327188074252
81.64106098479884
80.41325632321377
80.02333662431208
80.00004329231241
87.04638444541636
80.91727713695768
80.02777544420499
79.99848183264169
88.81676788883227
80.65574001010198
79.98515693535116
79.99650838266965
84.12783347970156
79.90562207484734
79.9354063823757
79.98486518111184
79.9999693189642
79.99999813177202
79.99999999213804
80.00000000008357
79.99987936067122
79.99999928729609
80.00000001463694
80.00000000356889
79.99994742282412
80.00000023303917
80.00000003096193
80.00000001109082
79.99931164387904
79.9999965664304
80.00000005923113
80.00000002363562
80.00000000001251
80.00000000002157
80.0000000388667
78.73240946276321
80.00000000014541
80.00000000001263
80.00000001491784
71.92119954289197
80.0000000007432
80
80.00000000101542
65.44833355512114
80.00000000123136
80
80.00000000005227
71.36895050849984
80.26391242266824
80.71729369274915
80.73199474576477
80.73115263777457
98.8925547841706
111.5883615761334
111.8337648923851
111.7684145085021
159.9513937531078
178.0929681543512
177.8722731217333
177.6490159374709
243.588708706209
278.1250922033635
277.973835949905
277.4220034793798
80.73133538244667
80.73146468869351
80.73160140021078
80.75975506695779
111.763350675582
111.763451229091
111.7635651340581
112.0777256679446
177.616052659797
177.6154798009275
177.6154989682204
177.6406534260765
277.2898018036574
277.2863569263293
277.2863651037298
277.1660767543938
80.45017252992396
80.32976633224625
80.24907665474763
80.10851738543157
105.4286999622978
101.9145887506263
98.9993944434075
92.80202855799708
172.0817556440199
168.4864009272695
164.5618605193501
162.6946838671898
271.4805335300484
269.2380040531378
265.2280893607531
296.3167322662031
71.95515058226329
46.19709349026561
35.51021470372407
35.2960816513182
62.40174864539356
27.20109646224919
15.71578964610159
15.19035279251471
55.36804490260815
13.43767476769593
6.614651443076001
6.345827088794477
45.81736672282586
5.285707907054494
2.78453805531074
2.692755642573797
33.9237779617929
33.96551497348758
33.72865559496289
23.01659808810774
15.10667149609195
15.07578527970682
15.20600769384038
8.481456148394932
5.916707554093608
5.881958349355446
6.257459589678672
5.964440762823321
2.472394710780621
2.449421624465082
2.754276173140306
4.074565403670365
70.37691144746204
79.81733198516676
79.9707423011273
79.61604822550095
58.36802119812067
78.79839282679093
79.74481066445431
78.69330534889016
46.00308154579019
75.60546731189925
78.58896079681038
77.22503709134277
34.948505485618
68.42080610718448
76.45387685174508
75.89173320857529
79.36016649510128
78.21243837935516
77.20899675877369
77.10030186484454
72.04970765476151
64.08968266890373
57.88702044220474
56.41523265438601
50.7307669947768
35.32963094270269
24.19274748901132
21.24742360813715
32.42491540649215
16.15498780485055
6.777740336745113
4.534732029981042
4.690658911918545
4.642887494173797
4.527301183504919
4.493086440483174
19.73025954275442
19.27659827089158
18.87461760385399
18.76770116996449
54.92712234067338
54.75608667670665
54.56499601087077
54.50340132098743
76.87872256534217
76.92830587617911
76.96372984982786
76.97131142293324
4.493086440483811
18.76770116993972
54.50340132123721
76.97131142298021
4.527301183519136
18.87461760385351
54.56499601093595
76.96372984977209
4.6428874941667
19.27659827093413
54.75608667663892
76.92830587613192
4.690658911926351
19.73025954276192
54.92712234062908
76.8787225652634
77.10030186478049
77.20899675872255
78.21243837923311
79.36016649488559
56.41523265426087
57.88702044223595
64.08968266904648
72.04970765464431
21.24742360815703
24.1927474890387
35.32963094269812
50.73076699477592
4.534732029981636
6.777740336748546
16.15498780485588
32.42491540649087
75.89173320855217
76.45387685167687
68.420806107194
34.94850548560284
77.22503709132253
78.58896079677046
75.60546731189524
46.00308154577339
78.69330534887838
79.74481066429531
78.79839282676235
58.36802119812613
79.61604822546546
79.97074230105135
79.81733198512923
70.37691144749542
23.01659808808848
33.72865559491801
33.96551497344933
33.92377796169985
8.481456148392363
15.20600769384665
15.07578527975845
15.10667149613315
5.964440762857379
6.257459589683784
5.881958349371144
5.91670755411084
4.074565403674147
2.754276173144657
2.449421624464018
2.472394710786183
35.29608165116881
35.5102147037684
46.19709349029022
71.95515058227417
15.19035279259758
15.71578964610127
27.20109646216878
62.40174864524971
6.345827088816715
6.614651443057677
13.4376747676784
55.36804490248182
2.692755642594344
2.784538055288817
5.285707907026807
45.81736672278141
80.10851738545067
80.24907665483074
80.32976633217299
80.45017253003169
92.80202855775779
98.99939444341484
101.9145887506191
105.4286999622371
162.6946838669292
164.5618605192655
168.4864009272518
172.0817556439105
296.3167322660652
265.2280893606639
269.238004053057
271.4805335299499
80.75975506698836
80.73160140037203
80.7314646887048
80.73133538252237
112.0777256676984
111.7635651341621
111.7634512291812
111.7633506754428
177.6406534257691
177.6154989682345
177.6154798009539
177.6160526596991
277.1660767540935
277.2863651036602
277.2863569262843
277.2898018036718
80.73115263759549
80.73199474591509
80.71729369275175
80.26391242273773
111.768414508528
111.8337648925183
111.5883615758195
98.89255478446493
177.6490159374003
177.8722731218292
178.0929681541637
159.951393753299
277.4220034792069
277.9738359500038
278.1250922032298
243.5887087062858
78.73240946274005
80.00000003886608
80.00000000002032
80.00000000001251
71.92119954288859
80.0000000149173
80.00000000001252
80.00000000014499
65.44833355514567
80.00000000101475
80
80.00000000074267
71.36895050852546
80.00000000005257
80
80.00000000123096
80.00000000008343
79.99999999215687
79.99999813177422
79.9999693189867
80.00000000356722
80.0000000146637
79.99999928729689
79.99987936066644
80.00000001108971
80.00000003099912
80.00000023303954
79.99994742280757
80.00000002363572
80.0000000592526
79.99999656643098
79.99931164384947
80.00004329228609
80.02333662430499
80.41325632316159
81.64106098476181
79.99848183262698
80.02777544420199
80.91727713693768
87.04638444537723
79.99650838266324
79.98515693535209
80.65574001008387
88.81676788883543
79.98486518110252
79.93540638237411
79.90562207483956
84.12783347970286
80.97661654450904
81.13379191623024
81.12838601104399
81.07345521121029
93.41179606320436
92.78836415364914
92.75002418704597
92.37607363882677
115.1982221814873
110.2914676496495
110.24028952706
109.9642729619242
153.9327188072834
142.1420853300931
142.0401128038165
141.5711922336639
80.96990803345312
80.97920805084833
80.82259456566126
80.23742498808205
91.59658189613795
91.60753547911993
90.18091734519695
83.9092315458463
109.3145868213438
109.2220464799458
106.7764674113393
93.92179748834947
140.2424040132449
140.0421190877922
137.4175974640573
122.4731934814372
79.99747719877264
80.00001174637633
80.0000001536493
80.00000000006465
79.99289907964884
80.00003401074301
80.00000040871532
80.00000000018385
79.98819297387328
80.00003678390894
80.00000050530272
80.00000000017629
79.98901049803007
80.00004927905593
80.00000054910247
80.00000000018754
80.00000000007419
80.00000035868925
80.00010090648028
79.99835012363201
80.00000000009705
80.00000036154823
80.00010044886453
79.99826549643346
80.00000000008318
80.00000038520642
80.00009301478222
79.99744813495958
80.00000000007385
80.00000042220086
80.00007178356063
79.99559573615871
80.00000000018355
80.00000000016794
80.00000000012636
80.00000000000654
80.00000054912731
80.00000050530322
80.00000040868107
80.00000015353996
80.00004927916738
80.00003678367696
80.00003401098975
80.00001174623438
79.98901049789878
79.98819297363337
79.99289907974429
79.99747719881661
)
;

boundaryField
{
    back
    {
        type            empty;
    }
    inlet
    {
        type            zeroGradient;
    }
    front
    {
        type            empty;
    }
    top
    {
        type            zeroGradient;
    }
    outlet
    {
        type            fixedValue;
        value           uniform 80;
    }
    bottom
    {
        type            zeroGradient;
    }
    wall
    {
        type            zeroGradient;
    }
}


// ************************************************************************* //
