/*--------------------------------*- C++ -*----------------------------------*\
  =========                 |
  \\      /  F ield         | OpenFOAM: The Open Source CFD Toolbox
   \\    /   O peration     | Website:  https://openfoam.org
    \\  /    A nd           | Version:  11
     \\/     M anipulation  |
\*---------------------------------------------------------------------------*/
FoamFile
{
    format      ascii;
    class       volVectorField;
    location    "0.0175";
    object      U;
}
// * * * * * * * * * * * * * * * * * * * * * * * * * * * * * * * * * * * * * //

dimensions      [0 1 -1 0 0 0 0];

internalField   nonuniform List<vector> 
880
(
(25 -3.702432430337341e-16 0)
(25 -2.517934851404331e-16 0)
(25 9.458666691654135e-16 0)
(25.00000000008797 -4.250833391105154e-11 0)
(25 3.554273400198152e-16 0)
(25 -4.766183279522561e-16 0)
(25.00000000000002 2.404131130860855e-15 0)
(25.00000000696072 6.309544480458256e-10 0)
(25 0 0)
(25.00000000000001 8.952035360478084e-16 0)
(25 -3.694846828656896e-15 0)
(25.00000011652331 -1.207798895966088e-07 0)
(25 0 0)
(25 -8.518216382901895e-16 0)
(25 3.553903047602494e-20 0)
(24.99999790848 6.829505531073238e-07 0)
(25 -2.901911022528401e-16 0)
(25 -2.418404432003956e-16 0)
(25.00000000000001 1.17443685063164e-15 0)
(25 -8.625097027599715e-16 0)
(25 0 0)
(25 -4.72744968925842e-18 0)
(25.00000000000003 5.172528112463975e-15 0)
(25 2.198077415082871e-14 0)
(25 9.977160663224433e-17 0)
(25 4.231578013461767e-14 0)
(25.00000000033217 5.859539979835924e-10 0)
(24.99999999617554 -1.143775437696081e-08 0)
(24.99993183141822 0.0002419218089850075 0)
(24.99983118558716 0.0006816141436340408 0)
(24.99984477330071 0.0007425230714871491 0)
(24.99985969204592 0.0006645728781817754 0)
(25 -8.57854680350993e-14 0)
(25 -8.587071990832867e-14 0)
(25.00000000000001 -1.134570623018899e-13 0)
(25 -4.663610414832917e-14 0)
(25.00000000000151 2.627359004743928e-11 0)
(25.00000000000267 3.004642559143803e-11 0)
(25.00000000000315 3.250054225012258e-11 0)
(25.00000000000031 5.090416196557603e-12 0)
(24.99999997375328 1.559274003086332e-07 0)
(24.99999997144492 1.684818809191276e-07 0)
(24.99999997047638 1.770866113046972e-07 0)
(24.99999993633959 4.526744306240363e-08 0)
(24.99984668297715 0.0007305509342203921 0)
(24.99984430428107 0.0007851834041360638 0)
(24.99984270482421 0.0008012883770035671 0)
(24.99977287596365 0.0005414475294653302 0)
(24.99988907654352 0.002426685175154012 0)
(25.00026280806597 0.0009152888731366942 0)
(25.00005513550914 7.754070656447509e-05 0)
(25.00000117204093 9.658989745910975e-07 0)
(24.99999996895015 1.150961031276531e-06 0)
(25.00000009238405 5.195369129767122e-07 0)
(25.00000002570551 5.915594939587929e-08 0)
(25.00000000066371 1.161289187183616e-09 0)
(24.99999999998017 3.370350986729131e-10 0)
(25.00000000002989 1.697890454464194e-10 0)
(25.00000000001794 2.069749053427322e-11 0)
(25 3.149468704405456e-13 0)
(25 -1.190445193110871e-12 0)
(25 -6.254681057153723e-13 0)
(25 -8.035647411170382e-14 0)
(25 -2.826492125996883e-16 0)
(25.00000000000001 1.400474741440353e-15 0)
(25.00000000000001 1.597720707740296e-16 0)
(25 -2.413609490350143e-16 0)
(24.99999999999999 -3.299428353677778e-16 0)
(25 -1.075884691942816e-15 0)
(25 -1.262474890078046e-16 0)
(25 -6.752733279751469e-16 0)
(25 -4.085581471474421e-16 0)
(25.0000000000045 -3.783121531984777e-12 0)
(25 -6.445673008324384e-13 0)
(25.00000000000002 -3.82645617993236e-15 0)
(25 -1.513098952792757e-15 0)
(25.00000000295398 -2.301598280894426e-08 0)
(24.99999999912502 -2.694156328899264e-09 0)
(24.9999999999868 -1.838412903639666e-11 0)
(25 2.22849344146233e-14 0)
(25 3.411512975953391e-13 0)
(25 1.191974118967862e-15 0)
(25 3.683703229029551e-16 0)
(25 4.611752595646911e-16 0)
(24.99999999951648 -5.445062560122737e-10 0)
(24.99999999999927 -4.845540472041984e-12 0)
(25 -1.504874811296881e-14 0)
(25 -1.689220131529372e-17 0)
(25.00000041582809 9.839195573334514e-07 0)
(25.00000000121852 6.048198080150571e-09 0)
(25 1.587091254539068e-12 0)
(25 1.090046485412957e-16 0)
(25.00025467585186 -0.001595916454848821 0)
(25.00000004776322 -6.313134982182918e-07 0)
(24.9999999999944 -1.603085278656818e-10 0)
(25.00000000000001 -2.24035658015546e-14 0)
(25.00000000000002 8.010295983061311e-16 0)
(25.00000000000001 1.038913026164195e-13 0)
(24.99999999594068 1.302250455117327e-09 0)
(24.99996006213813 1.847133760205551e-05 0)
(25 -2.961215417148861e-15 0)
(24.99999999999985 1.968757347096826e-12 0)
(24.99999999329776 1.437052708840417e-08 0)
(24.99993591784507 0.000112408063624523 0)
(25 -3.897254560931813e-15 0)
(24.99999999999999 2.433302076758932e-12 0)
(24.99999999229958 1.662798316107491e-08 0)
(24.99993255147126 0.0001200944870721631 0)
(25 -3.401813898200206e-15 0)
(25.00000000000002 2.983591711593446e-12 0)
(24.99999999117308 1.90545518230275e-08 0)
(24.99992928337339 0.0001260236092730608 0)
(24.99992558962457 0.0001325932040052281 0)
(24.9999999898138 2.197224901897105e-08 0)
(24.99999999999997 3.687118566978292e-12 0)
(25 1.221489744722833e-16 0)
(24.99992152756294 0.0001398662985895585 0)
(24.99999998819762 2.552381059968001e-08 0)
(25.00000000000001 4.606885795054444e-12 0)
(25 -8.369303254730405e-15 0)
(24.99991679365288 0.0001475785735916692 0)
(24.99999998613285 2.976280327328231e-08 0)
(25.00000000000061 5.778684582968678e-12 0)
(25 -6.975838236423155e-15 0)
(24.99990962260161 0.0001642049340946953 0)
(24.99999998319728 3.700377266761834e-08 0)
(25.00000000000253 7.849981952313568e-12 0)
(25 -1.375286091399394e-14 0)
(25.00000000000001 -9.019373351037931e-15 0)
(25.00000000000039 4.420312624840137e-12 0)
(24.99999998971319 2.18808795190581e-08 0)
(24.99993924227691 0.0001079853518278787 0)
(25 -1.275574975842009e-14 0)
(25 4.807504794821744e-12 0)
(24.9999999901135 2.009884747784101e-08 0)
(24.99995042352136 8.540554140980974e-05 0)
(25.00000000012112 1.964849415392908e-11 0)
(25.00000000000447 -4.912424011532718e-12 0)
(24.99999998650467 2.115293115932667e-08 0)
(24.99995917092552 7.060445725190744e-05 0)
(24.99999999833048 -5.241493168572273e-10 0)
(24.99999999947956 1.147514515087819e-09 0)
(24.99999993257365 1.262387794928069e-07 0)
(24.99997873770564 3.585543785603902e-05 0)
(24.999999994693 8.07525522464264e-09 0)
(25.00000012523297 1.674114098820146e-07 0)
(24.9997135152497 -0.0001399539006399864 0)
(24.90814859307711 -0.04068161497556108 0)
(24.99999999407896 8.07284299506103e-09 0)
(25.00000011673994 7.966646538208093e-08 0)
(24.99930215927577 -0.0002253010861253986 0)
(24.69617422533912 -0.03530665549181224 0)
(24.99999999587889 6.065597705244899e-09 0)
(25.00000010708295 6.445965445677125e-08 0)
(24.99929860114293 -0.0001690131407738533 0)
(24.64076639754991 -0.008743403530614155 0)
(24.99999999695291 4.585563188906537e-09 0)
(25.00000010836601 6.898064290227682e-08 0)
(24.99943759296603 -0.0001179556830271412 0)
(24.6533720117186 0.004159884215945951 0)
(24.73888272372143 -0.003234085618910528 0)
(24.99959670104791 -0.0001824892983605025 0)
(25.00000005037108 3.879441678004837e-08 0)
(24.99999999631612 2.592054562316581e-09 0)
(24.75404813848283 -3.03776215823842e-05 0)
(24.99966747502834 -0.0001480178378607698 0)
(25.00000006810433 7.031061085114558e-08 0)
(24.99999999633492 2.200008448037401e-09 0)
(24.77354844487051 -0.003392090252183185 0)
(24.99973277343407 -0.0001251420874876614 0)
(25.00000007455028 7.175373663280672e-08 0)
(24.99999999683545 1.825478050370817e-09 0)
(24.70516065650025 0.0208646835541175 0)
(24.99963459039731 -0.0001470071930845425 0)
(25.00000001459858 -8.054113685140091e-09 0)
(24.99999999811097 1.079019156706701e-09 0)
(24.97548514992228 0.003594713793573235 0)
(24.99998321329031 -6.586708784039928e-06 0)
(25.00000001850104 7.121450102337628e-09 0)
(24.99999999970641 3.55603711014167e-11 0)
(24.99984583434697 1.694943819728918e-05 0)
(25.00000017606094 8.692508290279829e-08 0)
(25.00000000147709 1.495818165739408e-09 0)
(24.99999999999992 -5.419484857361583e-12 0)
(25.00001409507924 -4.554534684420651e-05 0)
(25.00000003504257 -3.054850722674171e-08 0)
(25.00000000000964 -8.783518095475619e-12 0)
(25 -2.981558864507585e-14 0)
(24.99999747307182 -0.0004882675726794689 0)
(25.00000000094815 -3.488207915573418e-07 0)
(25.00000000003636 -4.449220253125867e-11 0)
(25 -1.57858122624608e-14 0)
(24.99975051873374 2.453213502799465e-07 0)
(25.0000155879022 9.638040588943559e-10 0)
(25.00000005442205 1.633342156037223e-12 0)
(25.00000000002357 -7.383092854353525e-15 0)
(24.99974664865902 1.674528187870504e-05 0)
(25.0000155271018 9.280178835987687e-08 0)
(25.00000005481895 1.753252267597322e-10 0)
(25.00000000001674 -2.643150772166627e-15 0)
(24.99965635724463 0.000137477459147356 0)
(25.00001443368851 9.97324611321679e-07 0)
(25.00000005867942 2.382852913821941e-09 0)
(25.00000000001666 2.965414773773656e-13 0)
(24.99935346400575 0.0002911674055537323 0)
(25.00001108637619 2.150778323484e-06 0)
(25.00000006525705 7.217293641079781e-09 0)
(25.00000000001671 1.061064124895096e-12 0)
(24.99999747308978 0.0004882675712572431 0)
(25.00000000096085 3.488210653188733e-07 0)
(25.00000000005053 4.496931600996258e-11 0)
(25 5.298043236849186e-14 0)
(25.00001409509871 4.554534933567969e-05 0)
(25.00000003505522 3.055003008222204e-08 0)
(25.00000000002462 9.449984156524944e-12 0)
(25 1.025199026458946e-14 0)
(24.99984583435465 -1.694943516471773e-05 0)
(25.00000017605822 -8.692319885398736e-08 0)
(25.00000000147703 -1.495656845107212e-09 0)
(24.99999999999999 5.343772260581428e-12 0)
(24.97548514989573 -0.003594713791294051 0)
(24.99998321325937 6.586710027645797e-06 0)
(25.0000000184997 -7.121456474317735e-09 0)
(24.99999999971396 -3.553324064571415e-11 0)
(24.99999999629454 -2.592304160361822e-09 0)
(25.00000005033892 -3.879703618633948e-08 0)
(24.99959670103271 0.0001824892986876049 0)
(24.73888272371286 0.003234085620515554 0)
(24.99999999632302 -2.197744301129486e-09 0)
(25.00000006809805 -7.030982324296368e-08 0)
(24.99966747501576 0.0001480178400699761 0)
(24.75404813847104 3.037761048823018e-05 0)
(24.99999999685431 -1.82557661095211e-09 0)
(25.00000007453087 -7.175523997354935e-08 0)
(24.99973277343334 0.0001251420875568259 0)
(24.77354844482959 0.003392090251922763 0)
(24.99999999810705 -1.080207595137106e-09 0)
(25.00000001459355 8.055749206606411e-09 0)
(24.99963459036423 0.0001470071867411925 0)
(24.70516065652204 -0.02086468354524919 0)
(24.6533720117398 -0.004159884222052782 0)
(24.99943759298206 0.0001179556778208186 0)
(25.00000010837631 -6.898290803822153e-08 0)
(24.9999999969565 -4.587286919148438e-09 0)
(24.64076639757907 0.008743403534027402 0)
(24.99929860116448 0.0001690131403225731 0)
(25.00000010711519 -6.445790006774506e-08 0)
(24.99999999590656 -6.066583186130181e-09 0)
(24.69617422534516 0.03530665549398369 0)
(24.999302159304 0.0002253010880544435 0)
(25.0000001167426 -7.966597379832024e-08 0)
(24.99999999410295 -8.070478586378202e-09 0)
(24.9081485930664 0.04068161497378749 0)
(24.99971351525962 0.0001399539010593224 0)
(25.00000012524433 -1.674102730340431e-07 0)
(24.99999999466051 -8.075161427025567e-09 0)
(25.00000000000001 1.722380312570458e-14 0)
(24.99999999999561 -4.469435284719863e-12 0)
(24.99999998969977 -2.188238531019618e-08 0)
(24.99993924225161 -0.0001079853516467605 0)
(25 7.375283184985547e-15 0)
(24.99999999999996 -4.747076542118241e-12 0)
(24.99999999011336 -2.009821094590495e-08 0)
(24.99995042352909 -8.540553835552659e-05 0)
(25.00000000011114 -1.971874372862941e-11 0)
(25.00000000001068 4.893958748611198e-12 0)
(24.99999998651763 -2.11518820927883e-08 0)
(24.99995917092926 -7.060445730273659e-05 0)
(24.99999999831367 5.241924356843603e-10 0)
(24.99999999948075 -1.146773589953779e-09 0)
(24.99999993258569 -1.262383572341764e-07 0)
(24.99997873770617 -3.585543902402993e-05 0)
(24.99990962255202 -0.0001642049366853588 0)
(24.99999998321368 -3.700347387540537e-08 0)
(24.99999999999737 -7.877712951611921e-12 0)
(25 1.893416033914388e-14 0)
(24.99991679361187 -0.0001475785753922797 0)
(24.99999998610901 -2.976231411766002e-08 0)
(24.99999999999918 -5.812067352455975e-12 0)
(25 1.4833500319709e-14 0)
(24.99992152756724 -0.0001398662993365476 0)
(24.99999998816989 -2.552467466404607e-08 0)
(24.99999999999901 -4.62317344583531e-12 0)
(25 1.080598318057698e-14 0)
(24.9999255896066 -0.0001325932046815743 0)
(24.99999998983331 -2.19723181460084e-08 0)
(25.00000000000003 -3.688877233691647e-12 0)
(25 7.779351689916625e-15 0)
(25 2.072257337347973e-16 0)
(25 -9.342354780996002e-14 0)
(24.99999999594247 -1.302130349973819e-09 0)
(24.99996006217915 -1.84713354930708e-05 0)
(25 -1.229205892594702e-16 0)
(25 -1.966899989557812e-12 0)
(24.99999999329001 -1.437072269034936e-08 0)
(24.99993591784002 -0.0001124080633912926 0)
(25 1.806272098236218e-15 0)
(25.00000000000007 -2.431673204058271e-12 0)
(24.99999999229697 -1.662806048106915e-08 0)
(24.99993255145358 -0.0001200944877338518 0)
(25 3.121910538953264e-15 0)
(25.00000000000001 -2.979528890812276e-12 0)
(24.9999999911846 -1.905416809942385e-08 0)
(24.99992928336654 -0.0001260236098862173 0)
(25 2.988678827965965e-14 0)
(25 -1.618495390807379e-16 0)
(25 2.806058011500504e-16 0)
(25 5.19582770160762e-16 0)
(25.00000000001163 1.605278733865271e-10 0)
(25 -1.596212325674861e-12 0)
(25 1.568552730450795e-14 0)
(25 -1.495865069647771e-17 0)
(25.00000004775989 6.313127551686255e-07 0)
(25.000000001202 -6.048018679136896e-09 0)
(24.99999999999943 4.838073021748872e-12 0)
(25 -8.831815002846035e-16 0)
(25.00025467585088 0.001595916453760479 0)
(25.00000041582804 -9.839193775989303e-07 0)
(24.99999999951543 5.445853431950516e-10 0)
(25 -3.408001100026453e-13 0)
(25.00000000000002 -1.78705413081272e-15 0)
(25 -2.371569412505315e-16 0)
(25.00000000000002 -1.987233981864191e-15 0)
(25 -2.359407165172096e-14 0)
(25 1.339796773679128e-16 0)
(25 -2.119684162100407e-16 0)
(25 5.015011217458579e-15 0)
(24.99999999998702 1.836180440319623e-11 0)
(25 0 0)
(25 4.917249931392248e-16 0)
(25 6.046213574273185e-13 0)
(24.99999999912336 2.694247814860615e-09 0)
(25 1.986650020278537e-16 0)
(25.00000000000001 1.495865069645972e-17 0)
(24.99999999999981 3.766122346269485e-12 0)
(25.0000000029558 2.301599637555344e-08 0)
(25 1.212123098100332e-12 0)
(25.00000000000055 -3.37670922056324e-10 0)
(24.99999996896883 -1.150962047654898e-06 0)
(24.999889076548 -0.00242668517767361 0)
(25 6.371385961182999e-13 0)
(25.00000000003166 -1.683302931958334e-10 0)
(25.00000009238266 -5.195348856654652e-07 0)
(25.0002628080911 -0.0009152888751939758 0)
(25.00000000000001 7.625221410188001e-14 0)
(25.00000000000424 -2.091168001202493e-11 0)
(25.00000002571247 -5.915575589893361e-08 0)
(25.00005513551159 -7.754070600388583e-05 0)
(25 2.085641952720437e-16 0)
(25 -3.942799660134288e-13 0)
(25.00000000066076 -1.161173186519756e-09 0)
(25.00000117205824 -9.658969218715051e-07 0)
(24.99977287595254 -0.0005414475260325201 0)
(24.99999993631587 -4.527348389450599e-08 0)
(25.00000000000028 -5.24243594220529e-12 0)
(25 4.176034742199019e-14 0)
(24.99984270483418 -0.0008012883753708577 0)
(24.99999997043162 -1.770879262571946e-07 0)
(25.000000000002 -3.252584861120243e-11 0)
(25 1.137983298844488e-13 0)
(24.99984430425442 -0.0007851834107599662 0)
(24.99999997142179 -1.684790123334275e-07 0)
(25.00000000000314 -3.00669319784551e-11 0)
(25.00000000000002 8.260638692631595e-14 0)
(24.99984668298486 -0.0007305509327421999 0)
(24.99999997380537 -1.559160707388697e-07 0)
(25.0000000000082 -2.608941875352087e-11 0)
(25 9.996168413852503e-14 0)
(24.99985969202856 -0.0006645728801499737 0)
(24.99999999617718 1.14308881903117e-08 0)
(25 -1.378353810235449e-13 0)
(25 0 0)
(24.99984477330963 -0.0007425230683210073 0)
(25.00000000035234 -5.852362054802134e-10 0)
(25 3.640093611851787e-16 0)
(25.00000000000001 4.750788730723093e-16 0)
(24.9998311855702 -0.0006816141435197302 0)
(25 -7.985437826510979e-14 0)
(25 8.825250888413767e-17 0)
(25.00000000000001 1.830378099024823e-15 0)
(24.99993183142215 -0.0002419218071235864 0)
(25 1.702261270806069e-15 0)
(25 -3.815079144102737e-16 0)
(25.00000000000002 -1.897818749602068e-15 0)
(25 7.402749184992014e-16 0)
(25 5.036445296543173e-16 0)
(25 0 0)
(25.00000000007167 4.552255546328857e-11 0)
(24.99999999999999 -2.843418720158383e-19 0)
(25 7.148730212619385e-16 0)
(25 -1.422460094272691e-16 0)
(25.00000000695134 -6.333760567697997e-10 0)
(25 -6.830344693985636e-16 0)
(25 -4.52319079413281e-16 0)
(25 -1.070017491734857e-18 0)
(25.00000011653094 1.20776391220151e-07 0)
(25 -3.082567041720943e-16 0)
(25 -4.124231717892083e-17 0)
(25.00000000000002 -1.778688493922379e-15 0)
(24.99999790849477 -6.829517688426914e-07 0)
(25.00000000851373 5.025035506459744e-12 0)
(25.00000067923437 -1.346509755430259e-07 0)
(25.00001542907845 3.960713924291562e-06 0)
(25.00001428451391 -0.0001396059975464266 0)
(25.00000067924833 1.346546997549095e-07 0)
(24.99999989638162 1.466740151733006e-11 0)
(25.00007912816929 -0.0002509861085325455 0)
(25.00098142704307 -0.004428114931933907 0)
(25.00001542908106 -3.960723221994538e-06 0)
(25.00007912816931 0.0002509861087460535 0)
(24.99947461542879 -7.372696635926421e-12 0)
(24.93340382994894 -0.00226508759663123 0)
(25.00001428450057 0.0001396059900522897 0)
(25.00098142703726 0.004428114925087419 0)
(24.9334038299567 0.002265087590345033 0)
(23.18197891020817 6.458080265125036e-12 0)
(22.93820412000056 1.670085767298103 0)
(23.73212852942817 2.477182316820559 0)
(24.92359081510493 0.5311771457405864 0)
(24.99214311393085 0.03599014979943622 0)
(23.57190120145808 3.476501995538667 0)
(23.60945072469373 4.63836481420142 0)
(24.89607249574786 1.391244251426855 0)
(24.97565722349202 0.1251337438708361 0)
(23.76601675429121 3.73258935964018 0)
(23.72856756613906 5.011079248575495 0)
(24.93672934956556 1.580985144713897 0)
(24.97587157595422 0.149664897935735 0)
(23.78175917705567 3.747562748099797 0)
(23.74323317737239 5.025903460376788 0)
(24.93794706719384 1.579213183962512 0)
(24.9759614559107 0.1481669367477355 0)
(24.97431457910585 0.1645192885779085 0)
(24.97469142972279 0.1732487922551819 0)
(24.97493632706174 0.174108103926243 0)
(24.96188368141521 0.148219105600638 0)
(24.94831794116367 1.671963800526793 0)
(24.96772843351419 1.71696455814701 0)
(24.97117054739557 1.720811107757881 0)
(24.92965167987908 1.80122017548664 0)
(23.64930353564738 5.151719034484485 0)
(23.65872710939733 5.218698107180213 0)
(23.66346073632966 5.228308123358133 0)
(23.88038326251851 6.078512080910978 0)
(23.71849903063396 3.736078062699682 0)
(23.75221112331309 3.763713340323349 0)
(23.76381346352808 3.769050331494675 0)
(25.27670981987353 4.686271528653084 0)
(24.98616178218724 0.2527448767890911 0)
(25.03164161596546 0.06588305340064267 0)
(25.00368931969413 0.002870662939469041 0)
(25.00004656887291 -1.766155489841383e-05 0)
(25.25010280049987 0.9724603015487633 0)
(25.11417546147014 0.1218774056479104 0)
(25.00618521037583 0.001921491236281024 0)
(25.00013530038597 -0.000275572991900056 0)
(25.68023964899117 1.864131594310312 0)
(25.17135272398243 0.08149630674022507 0)
(25.00778731370588 -0.00599300275036807 0)
(25.0011495970523 -0.001187347192173058 0)
(24.60520883621609 0.4939854164824885 0)
(24.94338493026967 -0.01426783249130925 0)
(24.97640748113609 -0.003513477797929216 0)
(24.99616650917931 -0.0007305830193399188 0)
(25.00000020880016 -4.759379888047384e-06 0)
(24.99999982147782 -3.051433504569658e-07 0)
(24.99999999852301 -8.628162379090486e-10 0)
(25.00000000002068 2.178164306560356e-11 0)
(25.00000126606699 -2.998348629334294e-05 0)
(24.99999987689726 -1.91542668188145e-07 0)
(25.00000000048097 1.625951673447804e-09 0)
(25.00000000035592 4.255237043442664e-10 0)
(25.00003568487393 -4.787843952397125e-05 0)
(25.00000008036618 -1.699836462068131e-07 0)
(24.9999999992574 8.691480577469492e-09 0)
(25.00000000170089 2.218519164250221e-09 0)
(24.99984958190932 -2.948572493682089e-05 0)
(24.99999932802638 -9.632106498456594e-08 0)
(25.00000001210108 7.313791081133297e-09 0)
(25.00000000422296 1.62003046412877e-09 0)
(25.00000000000022 1.420058629678947e-12 0)
(25.00000000004121 -3.437894637463931e-12 0)
(24.99999995888894 -2.215848874586538e-08 0)
(25.05678211264129 -0.1968712650275465 0)
(25.00000000001441 1.538985356198308e-11 0)
(25 -2.298886379703025e-13 0)
(24.9999999966041 -2.10392490946651e-09 0)
(25.20359238481477 -1.228023793167878 0)
(25.00000000010791 8.051719617341678e-11 0)
(25 1.167701370923592e-13 0)
(24.99999999978332 -1.700711489781033e-10 0)
(24.56365702418196 -2.932717053379847 0)
(25.00000000018624 4.477287949362985e-11 0)
(25 7.890834513505434e-14 0)
(24.99999999999856 1.193743974030207e-11 0)
(16.90531552985458 -4.887883383064242 0)
(24.97770024584538 0.03454888672947965 0)
(24.95163256363275 0.1013000862963593 0)
(24.95198835325932 0.1040252739178131 0)
(24.9521122413712 0.1039462058513591 0)
(23.9196998214976 2.289470826721751 0)
(23.61190119087518 3.885491974234483 0)
(23.64991796383088 3.919659460221486 0)
(23.65211651810996 3.911285101727895 0)
(17.97265638853296 9.330797863467643 0)
(17.41677402897475 11.43656390123221 0)
(17.44910513993808 11.4326344234494 0)
(17.45077649893001 11.40284636201208 0)
(18.18439031636606 8.054496462305385 0)
(18.41172822909942 8.897330739734521 0)
(18.41774283897076 8.873130018144279 0)
(18.39587104875882 8.84986064457193 0)
(24.952094612339 0.1039653402524002 0)
(24.95207484137829 0.1039741344444441 0)
(24.95205269201614 0.1039820577822243 0)
(24.9515155991306 0.108680746260263 0)
(23.6516235639245 3.910468370828339 0)
(23.65161404592536 3.910485882744025 0)
(23.65161544605147 3.910508309566216 0)
(23.65616235171001 3.948464680348921 0)
(17.44959782686589 11.39780976787481 0)
(17.44957076554757 11.39773699499472 0)
(17.44957032710894 11.39775766245677 0)
(17.45621440037727 11.40172483512131 0)
(18.38952438894781 8.846673910143458 0)
(18.38935406640051 8.84662913542541 0)
(18.3893501122662 8.846629023697462 0)
(18.38668447860127 8.842915220001151 0)
(24.96967668186136 0.06345766593298259 0)
(24.97706321000125 0.0460681302142585 0)
(24.98285972916491 0.03485770443131823 0)
(24.99106302456168 0.01417287239043579 0)
(23.87043650765985 3.189490048695664 0)
(23.96706721787988 2.770078893594098 0)
(24.09452234895224 2.415229510562177 0)
(24.35349244540111 1.692133382198942 0)
(17.88507020546814 10.95686722452499 0)
(18.0703194324848 10.60078052141923 0)
(18.34530979932707 10.27996582835379 0)
(20.19059972715755 11.52111382581719 0)
(18.62787759022653 8.785479414291483 0)
(18.75278463722861 8.622810820361575 0)
(18.95320364439445 8.555004098393074 0)
(25.60402893806371 11.24349958121761 0)
(24.07150525542835 -1.024599014647595 0)
(18.6863469672021 -1.095155711736012 0)
(15.81295104487759 -0.08519215170011608 0)
(15.77161085073246 -0.0604661858170339 0)
(24.32792377749423 -2.314690216919242 0)
(13.57253069081001 -2.536123864510303 0)
(7.473133291087543 -0.1732019179968798 0)
(7.174223193044247 -0.1175615370744201 0)
(23.48456956551304 -1.276255941975909 0)
(10.96147033248245 -3.344639830178935 0)
(3.813370879656246 -0.1537436574550836 0)
(3.615279959021141 -0.2177604220861079 0)
(17.93555984366728 -8.934279770757723 0)
(6.126808849003599 -3.708533869784782 0)
(1.624192465506814 -0.06998999785622981 0)
(1.548622559162838 -0.05428170277771315 0)
(15.32299549887777 -0.07999101892772315 0)
(15.34295213457932 -0.004729098521456226 0)
(15.28042475586853 -0.1321849643016067 0)
(11.37619211260527 1.544976223127712 0)
(7.195943305837733 -0.1340968535371196 0)
(7.201225223960207 -0.01455648837037186 0)
(7.00540683013132 -0.05873762131301938 0)
(1.019919804422299 4.513141785301121 0)
(3.998203868659637 -0.2371471385334914 0)
(4.033271606774291 -0.01444300520622155 0)
(3.770708350293336 0.4929460365726183 0)
(2.856359621820936 6.114933613287702 0)
(1.910941990051871 -0.04090059924754034 0)
(1.930748718795862 0.002090229885467116 0)
(1.755449906118788 0.7840916874440607 0)
(0.9296979669816499 6.465021562817772 0)
(23.58372460840419 0.1215991248494796 0)
(24.96949201819432 0.004114242547130794 0)
(25.00040427798058 -0.004570799812545674 0)
(24.99927552651349 -0.06535731290418095 0)
(22.20640265423588 -0.2038416657791238 0)
(24.865016292971 0.003427257430269543 0)
(25.00688497066412 -0.03849156431629389 0)
(25.11257632478964 -0.2920694114053348 0)
(20.88404762164867 -0.7956585970620118 0)
(24.88460873753972 -0.3366062913844367 0)
(25.08966441230715 -0.1644250714519684 0)
(26.90486795457006 -0.6200929193777414 0)
(15.59280483242924 5.377200719864583 0)
(22.70274523514238 0.9677356985564629 0)
(24.71725524029799 0.0742972408491345 0)
(31.456668802292 0.140120819307606 0)
(24.91750237319384 -0.08051865039201535 0)
(24.71374842744047 -0.09085258803146504 0)
(24.54916443805753 -0.02220116362708443 0)
(24.53029318337566 1.461497970797757e-05 0)
(24.49569537805484 -1.323483432921774 0)
(22.65378040950284 -1.107551904928526 0)
(21.499666017519 -0.2861300162303283 0)
(21.29548671423804 -0.1818292945621604 0)
(23.94575725308425 -6.36692514910628 0)
(18.56781168839444 -5.21430389112033 0)
(15.71653930416278 -1.41578486192481 0)
(15.18630493853205 -0.8922845065343871 0)
(15.86526463177576 -12.74572943426771 0)
(8.961093325281823 -10.92291635836735 0)
(5.332659260442085 -3.34520909378968 0)
(4.424123774880107 -0.5395470405970917 0)
(4.52978280201806 -0.4173814325467676 0)
(4.534390346312386 -0.2184251235876881 0)
(4.514870324343232 -0.05279323845279112 0)
(4.518148773378023 -0.00181642119315511 0)
(15.05892428300679 -0.8234787147278506 0)
(15.19707845323668 -0.2890626872462643 0)
(15.15570170419046 -0.0693203531092479 0)
(15.15222460356261 -0.00430562841166483 0)
(21.12824364264477 -0.1563108484681123 0)
(21.16898776829771 -0.04122441450446868 0)
(21.14550060005529 -0.01509217154906822 0)
(21.1362501901861 -0.001418562458706678 0)
(24.50838896820239 0.0111990710287065 0)
(24.52261774255807 0.01131567804997385 0)
(24.52297477052582 0.001988217664348191 0)
(24.52137009322654 2.919338073056481e-05 0)
(4.518148773379944 0.001816421204143698 0)
(15.15222460356101 0.004305628378437155 0)
(21.13625019018359 0.001418562505196069 0)
(24.52137009323891 -2.919337544233686e-05 0)
(4.514870324342234 0.05279323847050029 0)
(15.15570170421066 0.0693203531190647 0)
(21.14550060005024 0.01509217151514236 0)
(24.52297477052778 -0.001988217672374607 0)
(4.534390346309087 0.2184251235564901 0)
(15.19707845323696 0.2890626873015311 0)
(21.16898776831752 0.04122441447591901 0)
(24.52261774256657 -0.01131567806363923 0)
(4.52978280201936 0.4173814325401659 0)
(15.05892428298746 0.8234787147218552 0)
(21.12824364265796 0.1563108484680624 0)
(24.50838896822028 -0.01119907103097388 0)
(24.53029318338763 -1.461497408443271e-05 0)
(24.54916443806146 0.02220116362768156 0)
(24.71374842745903 0.09085258801733377 0)
(24.91750237322773 0.08051865040056673 0)
(21.29548671426166 0.1818292945647331 0)
(21.49966601751068 0.2861300162599633 0)
(22.6537804094739 1.107551904907119 0)
(24.49569537807587 1.323483432918114 0)
(15.1863049385221 0.8922845065311703 0)
(15.71653930415856 1.415784861905898 0)
(18.56781168839832 5.214303891123391 0)
(23.94575725308639 6.366925149105442 0)
(4.424123774879918 0.5395470405981145 0)
(5.332659260442299 3.345209093799883 0)
(8.961093325279968 10.92291635836702 0)
(15.86526463177507 12.74572943426612 0)
(31.45666880228575 -0.140120819310448 0)
(24.71725524029297 -0.07429724084119679 0)
(22.70274523514274 -0.9677356985560561 0)
(15.59280483241657 -5.377200719861555 0)
(26.90486795457384 0.6200929193718879 0)
(25.08966441233106 0.1644250714297011 0)
(24.88460873753499 0.336606291389983 0)
(20.88404762164559 0.7956585970628798 0)
(25.11257632479785 0.2920694113980383 0)
(25.00688497069545 0.03849156432608969 0)
(24.86501629297006 -0.003427257431721194 0)
(22.20640265423464 0.2038416657837448 0)
(24.99927552652108 0.06535731290043538 0)
(25.00040427799131 0.004570799813274408 0)
(24.96949201820091 -0.004114242546958862 0)
(23.58372460839388 -0.1215991248369459 0)
(11.37619211261347 -1.544976223131882 0)
(15.28042475588494 0.1321849643050582 0)
(15.342952134586 0.004729098519847237 0)
(15.32299549889683 0.07999101892025799 0)
(1.019919804423445 -4.513141785296517 0)
(7.005406830125766 0.05873762132359738 0)
(7.201225223946521 0.01455648837274987 0)
(7.195943305829362 0.1340968535438104 0)
(2.856359621803624 -6.114933613302883 0)
(3.770708350281322 -0.4929460365812337 0)
(4.033271606757286 0.014443005206792 0)
(3.998203868648611 0.2371471385339425 0)
(0.9296979669787828 -6.465021562843949 0)
(1.75544990611244 -0.7840916874523691 0)
(1.930748718794592 -0.002090229884322141 0)
(1.910941990052153 0.04090059925739001 0)
(15.77161085076338 0.06046618582237325 0)
(15.81295104484844 0.08519215170150565 0)
(18.68634696714658 1.095155711727641 0)
(24.07150525541233 1.024599014649095 0)
(7.174223193025028 0.1175615370663088 0)
(7.473133291065683 0.173201917984014 0)
(13.57253069077375 2.536123864498551 0)
(24.32792377750625 2.314690216927752 0)
(3.615279959012919 0.2177604220818579 0)
(3.81337087964466 0.1537436574528073 0)
(10.96147033243368 3.34463983016666 0)
(23.48456956553329 1.276255941974114 0)
(1.54862255916476 0.05428170277088933 0)
(1.624192465503427 0.06998999783835737 0)
(6.126808849005676 3.708533869788583 0)
(17.93555984369494 8.934279770748612 0)
(24.99106302455929 -0.01417287239218985 0)
(24.9828597291547 -0.03485770444073587 0)
(24.97706321001238 -0.04606813020953548 0)
(24.96967668184121 -0.06345766592737871 0)
(24.35349244541977 -1.692133382176594 0)
(24.09452234894442 -2.415229510559342 0)
(23.96706721788276 -2.770078893593502 0)
(23.87043650764556 -3.189490048666373 0)
(20.19059972718208 -11.52111382581704 0)
(18.34530979933539 -10.27996582834421 0)
(18.07031943248853 -10.60078052141174 0)
(17.88507020548009 -10.95686722451062 0)
(25.60402893808848 -11.24349958122711 0)
(18.95320364440584 -8.555004098393368 0)
(18.75278463724092 -8.622810820361083 0)
(18.62787759025022 -8.785479414294235 0)
(24.95151559911609 -0.1086807462372441 0)
(24.95205269199003 -0.1039820577780166 0)