/*--------------------------------*- C++ -*----------------------------------*\
  =========                 |
  \\      /  F ield         | OpenFOAM: The Open Source CFD Toolbox
   \\    /   O peration     | Website:  https://openfoam.org
    \\  /    A nd           | Version:  11
     \\/     M anipulation  |
\*---------------------------------------------------------------------------*/
FoamFile
{
    format      ascii;
    class       surfaceScalarField;
    location    "4";
    object      phi;
}
// * * * * * * * * * * * * * * * * * * * * * * * * * * * * * * * * * * * * * //

dimensions      [0 3 -1 0 0 0 0];

internalField   nonuniform List<scalar> 
8667
(
15.882645
2.0011206
-0.1059881
13.972425
2.2037744
-0.29355399
12.045501
2.4301368
-0.5032127
10.119094
2.61346
-0.68705314
8.1727612
2.8005436
-0.85421082
6.2472831
2.9495006
-1.0240224
4.2981613
3.1148368
-1.1657149
2.3878871
3.2428663
-1.3325921
3.5083356
-1.6613764
0.54092792
15.883388
3.8955105
13.973009
4.1141531
12.053207
4.3499395
10.122751
4.5439157
8.1795525
4.7437422
6.2399519
4.8891012
4.2957187
5.05907
2.3815103
5.1570746
5.3776374
0.51220844
15.883966
5.7893222
13.975517
6.0226027
12.057709
6.2677476
10.126446
6.475178
8.1820692
6.6881194
6.2388387
6.8323317
4.2902315
7.0076771
2.375199
7.0721071
7.2634971
0.48933938
15.884861
7.6822393
13.979363
7.9281009
12.063107
8.1840037
10.134508
8.4037762
8.18685
8.6357779
6.2404152
8.7787664
4.2798988
8.9681935
2.3607806
8.9912253
9.1644866
0.45979113
15.886115
9.5739002
13.985858
9.8283576
12.072439
10.097423
10.143553
10.332663
8.194087
10.585243
6.2450703
10.727783
4.2776457
10.935618
2.3472097
10.921661
11.067989
0.44370689
15.888184
11.463494
13.99257
11.723972
12.082142
12.007851
10.155344
12.259461
8.2046039
12.535983
6.246422
12.685965
4.2724983
12.909542
2.3297241
12.864436
12.986915
0.41079834
15.889853
13.35142
14.000527
13.613297
12.092861
13.915516
10.166496
14.185827
8.2172535
14.485225
6.2568741
14.646344
4.2732611
14.893155
2.3121214
14.825575
14.917646
0.38139089
15.892369
15.236829
14.007186
15.498481
12.106846
15.815856
10.181921
16.110752
8.2275066
16.43964
6.2608446
16.613006
4.2726942
16.881305
2.2927981
16.805471
16.880185
0.33025874
15.89559
17.119017
14.013728
17.380342
12.114669
17.714915
10.195976
18.029445
8.2442145
18.391402
6.2736834
18.583538
4.2752634
18.879725
2.2720152
18.80872
18.885028
0.26717265
18.93883
15.957965
20.754951
15.961657
22.567173
15.965561
24.375998
15.968955
26.18141
15.972348
27.982392
15.976799
29.78162
15.978552
31.573235
15.986164
15.982983
33.368032
19.202571
14.135736
21.020588
14.143639
22.833373
14.152776
24.640769
14.16156
26.445601
14.167516
28.242319
14.180081
30.036214
14.184656
31.819824
14.202555
14.201844
33.600964
19.561867
12.288785
21.401634
12.303872
23.236917
12.317493
25.062266
12.336211
26.884213
12.345568
28.696419
12.367875
30.509397
12.371678
32.319911
12.39204
12.389932
34.131823
19.909115
10.409114
21.78137
10.431617
23.653596
10.445268
25.518995
10.470811
27.380708
10.483856
29.236079
10.512504
31.083393
10.524365
32.921083
10.554349
10.565831
34.745184
20.312886
8.4876297
22.235175
8.5093284
24.157324
8.5231193
26.081031
8.5471036
28.002241
8.5626461
29.927933
8.5868116
31.853303
8.5989947
33.777466
8.6301866
8.6452537
35.698044
20.533167
6.5380006
22.495499
6.5469963
24.459433
6.5591853
26.434686
6.5718503
28.405285
6.592047
30.381697
6.6103995
32.344239
6.6364525
34.315534
6.6588924
6.6890051
36.271782
20.868925
4.5488004
22.885442
4.5304793
24.913325
4.5313027
26.966893
4.5182825
29.024345
4.5345943
31.099937
4.5348084
33.177442
4.5589467
35.269603
4.5667319
4.5929307
37.365677
20.86712
2.4904003
22.951701
2.4458977
25.034338
2.4486662
27.134618
2.4180025
29.236089
2.433123
31.351504
2.4193934
33.459874
2.4505762
35.576743
2.4498636
2.4841153
37.685558
21.020444
0.35498417
23.479237
-0.012895378
25.981456
-0.053552552
28.437008
-0.037550023
30.759768
0.11036347
33.055584
0.12357742
35.372549
0.1336111
37.698962
0.1234508
40.04946
0.13361728
33.280201
0.087831339
33.195652
0.084548298
33.120666
0.074985927
33.055388
0.065278309
32.995583
0.059804878
32.9504
0.045183506
32.906095
0.044304527
32.87876
0.027334768
0.02821095
32.85055
33.551649
0.13714687
33.51683
0.11936716
33.48231
0.10950513
33.461175
0.086413399
33.439416
0.081563988
33.431
0.053599963
33.420161
0.05514313
33.422445
0.025050513
0.030956026
33.4197
34.114477
0.15449299
34.110589
0.12325537
34.101595
0.1184991
34.100861
0.08714716
34.097442
0.084982666
34.098183
0.052859851
34.100354
0.052971263
34.106392
0.019012689
0.022661276
34.114687
34.747768
0.15190865
34.75147
0.11955348
34.755645
0.11432406
34.759542
0.083250485
34.76401
0.080514303
34.767612
0.049257908
34.771908
0.048675617
34.775278
0.015642685
0.018619004
34.77932
35.689444
0.16050799
35.680421
0.1285767
35.671279
0.12346648
35.659806
0.094723106
35.648051
0.092269894
35.63321
0.064098196
35.618767
0.063118507
35.599406
0.035004387
0.036305057
35.58172
36.263558
0.16873199
36.250824
0.14131051
36.241518
0.13277312
36.226607
0.10963395
36.214472
0.10440479
36.193249
0.085321567
36.17397
0.082397236
36.143686
0.065288292
0.064175775
36.115815
37.34939
0.18501976
37.321862
0.16883817
37.296591
0.15804382
37.258432
0.14779295
37.222329
0.14050797
37.171748
0.135903
37.120317
0.13382787
37.055072
0.13053302
0.13337796
36.98587
37.705683
0.16489532
37.715424
0.15909681
37.733191
0.14027682
37.737532
0.14345154
37.742103
0.13593712
37.726701
0.15130492
37.701474
0.15905482
37.638858
0.19314945
0.22052665
37.551709
40.093444
0.12091065
40.112269
0.14027209
40.089061
0.16348501
40.034374
0.19813823
39.930061
0.24024963
39.771857
0.30950921
39.570182
0.36072987
39.301649
0.46168241
39.003689
0.51848677
38.78521
0.80202682
-0.58354762
38.426934
0.7570836
-0.39880814
37.987341
0.72284014
-0.28324665
37.543927
0.68787031
-0.24445634
37.089044
0.66157295
-0.20668989
36.636697
0.63537925
-0.18303194
36.168351
0.61498806
-0.14664238
35.717401
0.59125919
-0.1403092
0.57956101
35.251908
-0.11406834
37.568816
0.78492005
37.54266
0.78323961
37.480785
0.78471479
37.389541
0.77911433
37.276223
0.77489171
37.147347
0.76425481
37.004355
0.75798016
36.841421
0.75419341
0.75066813
36.670314
37.035211
0.73557873
37.075378
0.74307341
37.101966
0.75812691
37.117314
0.76376614
37.11551
0.7766957
37.099575
0.78018924
37.066695
0.79086009
37.026861
0.79402806
0.80484383
36.972685
36.209512
0.64188233
36.304877
0.64770802
36.38835
0.67465393
36.472825
0.67929105
36.544372
0.7051485
36.616352
0.70820934
36.673979
0.73323354
36.732516
0.73549058
0.7607931
36.776567
35.693067
0.53053476
35.808753
0.5320223
35.915921
0.56748626
36.027779
0.5674328
36.129947
0.60298059
36.236468
0.60168772
36.332795
0.63690718
36.434605
0.63368072
0.66907427
36.526323
34.911592
0.39826212
35.048396
0.39521901
35.182283
0.43359903
35.320623
0.42909253
35.455769
0.46783483
35.596149
0.46130772
35.732171
0.50088486
35.873118
0.49273414
0.5335326
36.00866
34.255267
0.25768208
34.396709
0.25377718
34.5422
0.28810752
34.688759
0.28253364
34.83829
0.3183043
34.990571
0.30902639
35.145017
0.34643946
35.302925
0.33482553
0.37376727
35.46269
33.563891
0.11349146
33.703409
0.11425886
33.855252
0.13626485
34.003097
0.13468879
34.165628
0.15577349
34.323572
0.15108204
34.497035
0.17297691
34.665081
0.16677958
0.19006394
34.848784
32.964041
33.0783
33.214565
33.349254
33.505027
33.656109
33.829086
33.995866
34.185929
34.368344
-0.18241442
34.575696
-0.20735235
34.773527
-0.19783054
34.997873
-0.22434607
35.211322
-0.21344955
35.452342
-0.24101992
35.680974
-0.22863202
35.940556
-0.25958123
-0.24380174
36.184357
35.025865
-0.35949588
35.220162
-0.40164859
35.406981
-0.38464956
35.611675
-0.42904029
35.808595
-0.41037017
36.02496
-0.45738436
36.23241
-0.43608257
36.460339
-0.48750944
-0.4635288
36.680066
35.627057
-0.52386251
35.791467
-0.56605891
35.962074
-0.55525654
36.132034
-0.59900011
36.309249
-0.58758517
36.485424
-0.63355865
36.671395
-0.62205385
36.855215
-0.67132948
-0.65992748
37.051614
36.150094
-0.66529714
36.285932
-0.70189718
36.429013
-0.69833683
36.566756
-0.73674306
36.713357
-0.73418603
36.855277
-0.77547919
37.007773
-0.77454953
37.157106
-0.82066266
-0.82142693
37.318605
36.624207
-0.76318055
36.711774
-0.7894645
36.805675
-0.79223745
36.890295
-0.82136327
36.983978
-0.8278688
37.069894
-0.86139548
37.167699
-0.87235481
37.258969
-0.91193282
-0.9270644
37.364607
36.823008
-0.80962141
36.857566
-0.82402309
36.897096
-0.83176691
36.927894
-0.85216088
36.963524
-0.86349897
36.992164
-0.89003576
37.027752
-0.90794293
37.058206
-0.94238712
-0.96671344
37.097855
36.915388
-0.75232408
36.846657
-0.75529226
36.776491
-0.76160059
36.697826
-0.77349677
36.619609
-0.78528183
36.536125
-0.80655198
36.454646
-0.82646326
36.370604
-0.85834518
-0.88689875
36.290789
36.478223
-0.56023312
36.286767
-0.56383685
36.076149
-0.55098225
35.867569
-0.56491719
35.642442
-0.56015408
35.418672
-0.58278283
35.176559
-0.58434966
34.939267
-0.62105295
-0.63204493
34.684413
34.812934
-0.12125847
34.353012
-0.10391508
33.926311
-0.12428149
33.470949
-0.10955493
33.048396
-0.13760161
32.589303
-0.12369
32.166082
-0.16112818
31.694321
-0.14929145
31.263226
-0.20095058
0.68346941
30.773134
-0.19337766
0.93260946
34.435273
1.0122652
36.211133
0.97424656
37.135874
0.8724814
37.466372
0.71326234
37.477824
0.51920218
37.245674
0.27759222
36.921676
36.46195
0.70770735
30.330742
-0.26531448
0.97016896
34.172811
1.0427105
36.138592
0.99513533
37.183449
0.87954835
37.581959
0.70402073
37.653352
0.49422806
37.455466
0.26207782
37.153826
36.724027
0.77610251
29.816285
-0.2616464
1.032353
33.916561
1.1008529
36.070092
1.0506891
37.233613
0.93164811
37.701
0.75733027
37.82767
0.55330544
37.659491
0.29680773
37.410324
37.020835
0.81563846
29.36334
-0.36269321
1.080516
33.651683
1.1390316
36.011576
1.0757173
37.296927
0.94595133
37.830766
0.75518333
38.018438
0.53060041
37.884074
0.28392821
37.656996
37.304763
0.90878665
28.823223
-0.36866976
1.1616057
33.398864
1.2128203
35.960362
1.1427339
37.367014
1.0026412
37.970859
0.80601729
38.215062
0.58379338
38.106298
0.31356534
37.927224
37.618329
0.96014824
28.381167
-0.51809187
1.2208145
33.138198
1.257799
35.923377
1.1713615
37.453451
1.0201524
38.122068
0.81022993
38.424984
0.57332877
38.343199
0.30856913
38.191983
37.926898
1.0812234
27.854076
-0.5541326
1.3249172
32.894504
1.350156
35.898139
1.2507611
37.552846
1.081981
38.290848
0.85880694
38.648158
0.61737565
38.58463
0.33278331
38.476576
38.259681
1.1692345
27.479485
-0.79464347
1.3946137
32.669125
1.3986578
35.894094
1.2804496
37.671054
1.102437
38.468861
0.86774559
38.88285
0.61329102
38.839085
0.33127044
38.758596
38.590952
1.3407868
26.988835
-0.85013656
1.5334913
32.47642
1.521026
35.90656
1.3778177
37.814263
1.1662307
38.680448
0.90868862
39.140392
0.64805884
39.099715
0.35137037
39.055285
38.942322
0.041474053
38.900848
0.14627621
38.950483
0.25585351
38.990137
0.38352251
39.012723
0.52093364
38.543036
0.65196495
37.683231
0.77280626
35.785718
0.87594004
32.373287
27.18787
0.67690503
0.044781573
38.856066
0.14740212
38.847862
0.25674436
38.880795
0.36358875
38.905878
0.45421365
38.452412
0.54681052
37.590634
0.62032395
35.712205
0.66788629
32.325724
27.266708
0.58904861
0.051184326
38.804882
0.15242889
38.746618
0.25344997
38.779774
0.36232085
38.797008
0.4722571
38.342475
0.55841948
37.504472
0.61660501
35.654019
0.6539606
32.288369
27.362454
0.55821377
0.059017499
38.745864
0.15818807
38.647447
0.25959178
38.67837
0.34844616
38.708153
0.4068446
38.284077
0.45911621
37.4522
0.4875673
35.625568
0.49178006
32.284156
27.422189
0.43204572
0.068569755
38.677295
0.17106845
38.544948
0.26672394
38.582715
0.3630044
38.611873
0.44937636
38.197705
0.49780221
37.403775
0.5154433
35.607927
0.51016502
32.289434
27.511974
0.42037996
0.080519478
38.596775
0.18642756
38.43904
0.28537034
38.483772
0.3653188
38.531924
0.3990159
38.164008
0.40914437
37.393646
0.39740221
35.619669
0.35710835
32.329728
27.526554
0.34252852
0.095057807
38.501717
0.2081311
38.325967
0.30435764
38.387546
0.39356431
38.442718
0.46166593
38.095906
0.47281054
37.382501
0.44704883
35.645431
0.394684
32.382093
27.567046
0.35419121
0.11428034
38.387437
0.23523929
38.205008
0.34544481
38.27734
0.41860559
38.369557
0.42631694
38.088195
0.40083248
37.407986
0.34408482
35.702179
0.26897356
32.457204
27.562125
0.27389514
0.13486253
38.252575
0.26916439
38.070706
0.3781646
38.16834
0.46618383
38.281538
0.51325507
38.041124
0.48539013
37.435851
0.41790746
35.769661
0.34085661
32.534255
27.579707
0.32327495
-0.22471729
27.533543
0.27088047
-0.33585251
32.64539
-0.44407575
35.877885
-0.50735194
37.499127
-0.5140932
38.047865
-0.43670263
38.204147
-0.30911313
38.04075
-0.16180959
37.923403
38.090765
-0.31997213
27.507288
0.34622744
-0.44204949
32.767468
-0.56082003
35.996655
-0.62350663
37.561814
-0.58335246
38.007711
-0.48854416
38.109339
-0.36146073
37.913667
-0.18972873
37.751671
37.901036
-0.21684514
27.441399
0.28273396
-0.38772974
32.938352
-0.55047925
36.159405
-0.64658787
37.657922
-0.65645984
38.017583
-0.56751709
38.020396
-0.41482363
37.760974
-0.22534542
37.562192
37.675691
-0.3423354
27.472679
0.31105556
-0.5296385
33.125655
-0.69844394
36.32821
-0.78968129
37.74916
-0.75309478
37.980996
-0.63896808
37.906269
-0.47889603
37.600901
-0.26333862
37.346635
37.412352
-0.26192995
27.509559
0.2250502
-0.50490005
33.368625
-0.7322727
36.555583
-0.84720623
37.864093
-0.84883996
37.98263
-0.74138601
37.798815
-0.5487406
37.408256
-0.30575483
37.103649
37.106597
-0.42141024
27.606412
0.32455748
-0.68554173
33.632757
-0.91385316
36.783894
-1.0216791
37.971919
-0.97635035
37.937301
-0.83261662
37.655082
-0.62409138
37.199731
-0.35200719
36.831565
36.75459
-0.35582979
27.688212
0.27402899
-0.70523275
33.98216
-0.99647716
37.075139
-1.1192954
38.094737
-1.0943506
37.912356
-0.94855528
37.509286
-0.70557657
36.956752
-0.38626156
36.51225
36.368329
-0.5485963
27.865097
0.37171148
-0.92968864
34.363252
-1.2152244
37.360674
-1.3207644
38.200277
-1.2478143
37.839406
-1.0619741
37.323446
-0.79169649
36.686474
-0.4503328
36.170886
35.917996
-0.52397153
28.05829
0.33077873
-1.0085066
34.847787
-1.3527243
37.704892
-1.4551547
38.302708
-1.3845167
37.768768
-1.1877551
37.126684
-0.88189956
36.380619
-0.49533067
35.784317
35.422665
0.67736757
34.745298
1.2228503
35.238835
1.7018146
35.901655
2.0783953
36.750104
2.3170592
37.530104
2.3216884
38.298079
1.9840696
38.042511
1.2728567
35.559
28.758815
0.57233206
0.73031131
34.014986
1.3221577
34.646988
1.8447238
35.379089
2.2545
36.340327
2.5299989
37.254605
2.5922968
38.235781
2.2231044
38.411703
1.3716847
36.41042
29.593387
0.53711224
0.78284775
33.232138
1.4089451
34.020891
1.9807708
34.807263
2.4464798
35.874619
2.7860437
36.915041
2.9446696
38.077155
2.6930493
38.663324
1.8553193
37.24815
30.835222
0.61348476
0.83742687
32.394712
1.5026141
33.355704
2.1240039
34.185873
2.6145103
35.384112
2.9977195
36.531832
3.2172636
37.857611
3.0230687
38.857518
2.1298671
38.141352
32.359146
0.60594301
0.88206607
31.512646
1.5741186
32.663651
2.246479
33.513513
2.8006694
34.829922
3.2516208
36.080881
3.5666796
37.542552
3.5643485
38.85985
2.8280616
38.877638
34.388818
0.79838925
0.92115896
30.591487
1.6567935
31.928017
2.3723993
32.797907
2.9472903
34.255031
3.4386475
35.589524
3.8371829
37.144017
3.9382699
38.758763
3.3521296
39.463779
36.646519
1.0944291
0.95896552
29.632521
1.7073081
31.179674
2.4685515
32.036663
3.1143127
33.60927
3.6629769
35.040859
4.1495398
36.657454
4.4771949
38.431107
4.1173682
39.823606
38.733642
2.0302446
0.9868231
28.645698
1.7725379
30.393959
2.5687905
31.240411
3.230786
32.947274
3.8165836
34.455062
4.3459074
36.12813
4.7507276
38.026287
4.7285238
39.845809
40.590509
2.8716573
1.0132056
27.632492
1.8038258
29.603339
2.641298
30.402939
3.3877446
32.200827
4.0571927
33.785614
4.6344411
35.550881
5.3056295
37.355099
5.7192276
39.432211
41.585113
4.7246229
-0.39751899
28.030011
-1.1257256
30.331545
-1.9970073
31.27422
-3.1699861
33.373806
-4.5917686
35.207396
-6.3526303
37.311743
-8.4493853
39.451854
-11.112421
42.095247
43.566303
-13.09361
-0.3469776
28.376989
-1.0590128
31.043581
-1.8877924
32.103
-3.0247997
34.510813
-4.4812885
36.663885
-6.332878
39.163333
-8.6372413
41.756217
-11.206438
44.664444
43.972809
-11.612944
-0.32476792
28.701757
-0.97860877
31.697422
-1.7885469
32.912938
-2.9398292
35.662096
-4.4491502
38.173206
-6.413661
41.127843
-8.819172
44.161728
-10.896587
46.741859
38.978069
-5.9018463
-0.28168786
28.983445
-0.89773158
32.313465
-1.6648567
33.680063
-2.7822859
36.779525
-4.3259527
39.716873
-6.3457435
43.147634
-8.7258592
46.541844
-10.547074
48.563073
30.014222
-1.583227
-0.26816877
29.251613
-0.82022429
32.865521
-1.5615857
34.421425
-2.651674
37.869613
-4.2237101
41.288909
-6.388741
45.312665
-8.6080089
48.761112
-10.001039
49.956103
21.274593
-1.2614095
-0.24020592
29.491819
-0.74440113
33.369716
-1.4463089
35.123332
-2.5131264
38.936431
-4.1157366
42.891519
-6.3374123
47.534341
-8.4954239
50.919124
-9.2391187
50.699798
12.6663
-0.63082557
-0.24067062
29.73249
-0.68015023
33.809196
-1.3535463
35.796728
-2.3546813
39.937566
-3.9682886
44.505127
-6.2000575
49.76611
-8.3234347
53.042501
-8.6647964
51.041159
4.4727808
-0.47127771
-0.23668154
29.969172
-0.6169928
34.189507
-1.2449546
36.42469
-2.1995158
40.892127
-3.8310336
46.136645
-6.0880268
52.023103
-8.0862634
55.040737
-6.2925793
49.247475
-2.2763214
0.45652285
-0.25498881
30.22416
-0.56966893
34.504187
-1.1560456
37.011067
-2.0466752
41.782757
-3.6715785
47.761548
-5.8850455
54.23657
-7.5119991
56.667691
-4.0788885
45.814365
-7.5688835
1.2136736
1.7975839
-10.183897
0.81742907
3.4606562
44.151293
2.3857479
57.742599
1.0521591
55.570159
0.1288536
48.684853
-0.15604203
42.067652
-0.24052015
37.095545
-0.083902631
34.347569
30.140258
1.6494885
-12.6546
0.82121496
3.2430155
42.557766
2.1887679
58.796847
0.88450042
56.874426
0.010343075
49.559011
-0.1975892
42.275584
-0.2451182
37.143074
-0.037246067
34.139697
30.103012
1.3397287
-15.136525
1.1421963
3.0634212
40.834073
2.0712038
59.789064
0.755246
58.190384
-0.11194454
50.426201
-0.25206255
42.415702
-0.24397432
37.134986
0.014001961
33.881721
30.117014
1.0324008
-17.577449
1.4085227
2.8411719
39.025302
1.8857037
60.744532
0.62305418
59.453034
-0.18060188
51.229857
-0.26413065
42.499231
-0.22942133
37.100276
0.063443074
33.588857
30.180457
0.81404552
-19.953755
1.562261
2.669096
37.170252
1.7559199
61.657708
0.47158666
60.737367
-0.30228711
52.003731
-0.30161687
42.498561
-0.20110428
36.999764
0.13035597
33.257396
30.310813
0.58945945
-22.220519
1.6773049
2.4457236
35.313987
1.5736685
62.529764
0.35442889
61.956607
-0.35407326
52.712233
-0.29223774
42.436725
-0.16124209
36.868768
0.20698388
32.88917
30.517797
0.39916799
-24.30791
1.688223
2.2770313
33.436124
1.4451986
63.361596
0.2074747
63.19433
-0.45643387
53.376142
-0.30920217
42.289494
-0.091299042
36.650865
0.30712564
32.490746
30.824922
0.25355666
-26.377312
1.815845
2.0540518
31.635629
1.2624771
64.153171
0.095594148
64.361213
-0.5021312
53.973867
-0.27787954
42.065242
-0.021504067
36.39449
0.41289511
32.056347
31.237817
0.09038376
-27.816063
1.3483671
1.8496184
29.876394
1.1254314
64.877358
-0.046446145
65.533091
-0.5809209
54.508342
-0.26648281
41.750804
0.099987985
36.028019
0.55647784
31.599857
31.794295
-0.077186839
-28.987841
1.2489651
-4.199051
33.998259
-7.1134583
67.791765
-7.6767022
66.096335
-6.0984816
52.930121
-3.2712198
38.923542
-1.1237444
33.880543
0.9136239
29.562488
32.707919
0.24487551
-29.14891
-0.083806156
-4.9375376
39.180672
-7.9736664
70.827894
-8.116976
66.239644
-5.7209651
50.53411
-2.4552662
35.657843
0.28645366
31.138824
2.0385039
27.810438
34.746423
-0.29709773
-26.156978
-2.6948345
-5.9942268
44.877801
-8.401933
73.2356
-7.9978823
65.835594
-5.2652605
47.801489
-1.4772178
31.869801
1.1638655
28.49774
2.4930224
26.481281
37.239445
-0.48617197
-21.589847
-4.0809597
-6.5121036
50.903732
-8.9307607
75.654257
-7.7516637
64.656497
-4.2208794
44.270704
-0.1949439
27.843865
3.1329455
25.169851
3.9259398
25.688287
41.165385
-1.3467152
-15.688814
-4.5543176
-7.3239014
56.880919
-9.0720411
77.402397
-7.1619261
62.746382
-3.0387897
40.147568
1.2702438
23.534832
3.9899802
22.450114
3.7571179
25.921149
44.922503
-1.5920315
-9.2521184
-4.8446639
-7.7223572
63.011244
-9.0888557
78.768895
-6.8566593
60.514185
-1.6162011
34.90711
3.5827215
18.335909
6.0450004
19.987836
5.0569425
26.909207
49.979446
-2.5283515
-1.7228512
-5.0009157
-8.4178464
68.900739
-8.8602891
79.211338
-5.6985248
57.352421
0.30046286
28.908122
5.2898983
13.346474
6.6248191
18.652915
4.0546561
29.47937
54.034102
-2.8056001
5.7779213
-4.6951725
-8.6207681
74.715907
-8.7832313
79.373801
-4.9588611
53.528051
1.5830517
22.366209
6.2869346
8.6425907
8.1172482
16.822601
4.9396564
32.656962
58.973758
-3.9656519
-3.0142034
12.757777
-9.3724032
80.122658
-8.3340892
78.335487
-3.8139432
49.007905
1.8039457
16.74832
6.5291711
3.9173653
8.0865886
15.265184
3.3419096
37.401641
62.315668
-0.5793632
0.18513663
0.30968554
0.084540902
-0.091983502
-43.577486
43.090106
0.098151998
-72.27811
72.087974
2.8071007
-39.169418
36.460469
6.1449138
15.654364
-18.992177
8.4001742
37.479446
-39.734706
9.4146403
48.902252
-49.916718
9.3242659
49.988175
-49.897801
18.230926
-18.087393
-0.52841244
0.40545919
0.30808993
0.13947049
-44.245368
0.19353944
-72.332179
2.4905515
-41.46643
5.7420833
12.402832
7.8191308
35.402398
8.8347999
47.886583
8.8625488
49.960426
18.202444
-0.4655015
0.56537742
0.30558317
0.34229169
-45.053162
0.31353272
-72.30342
2.3083547
-43.461252
5.3857062
9.3254808
7.3111814
33.476923
8.4219965
46.775768
8.6307132
49.75171
17.937919
-0.40615481
0.66566347
0.30586875
0.52723224
-45.986549
0.46337603
-72.239564
2.1905645
-45.188441
5.060872
6.4551732
6.8986461
31.639149
8.1542969
45.520117
8.6251981
49.280809
17.355722
-0.32848942
0.68607405
0.30807875
0.7777426
-47.092781
0.67102376
-72.132845
2.1334665
-46.650883
4.8586046
3.7300351
6.6936211
29.804132
8.1371446
44.076594
8.9425672
48.475386
16.319319
-0.27454736
0.65499732
0.30562404
1.0270512
-48.394379
0.95701907
-72.062813
2.1660119
-47.859876
4.7542758
1.1417712
6.5946152
27.963793
8.2153813
42.455828
9.4672281
47.223539
14.578913
-0.24177749
0.59001648
0.30675825
1.2603372
-49.896494
1.2785443
-72.08102
2.2573809
-48.838713
4.7009851
-1.301833
6.6029254
26.061852
8.4306296
40.628124
10.28709
45.367079
11.962683
-0.21159629
0.48906697
0.31254573
1.4936252
-51.601716
1.5898899
-72.177284
2.3793989
-49.628222
4.6521457
-3.5745798
6.6816179
24.03238
8.8023573
38.507384
11.416284
42.753152
8.3506013
-0.17609686
0.33003462
0.33512917
1.7061125
-53.483925
1.8543675
-72.325539
2.4888869
-50.262741
4.6343553
-5.7200482
6.783069
21.883666
9.2476944
36.042759
12.796199
39.204648
3.6133305
0.7926157
10.337177
1.0321017
-12.161894
3.5334911
30.871082
-33.611957
1.3654943
2.9352624
-0.76726556
-5.0190328
-63.25867
69.643197
-6.559838
-77.07909
78.619896
-5.8219787
-69.462027
68.724168
-3.5548614
-56.44902
54.181903
-1.6541819
-45.186874
43.286195
-35.938374
34.284192
0.72289052
9.2411287
0.37315805
3.7834906
27.810482
2.5855579
4.133195
-3.2734057
-57.399707
-5.6812195
-74.671276
-5.9800256
-69.163221
-4.2844025
-58.144643
-2.5009254
-46.970351
-38.439299
0.83965111
9.3211873
-0.91970951
3.6653804
24.984752
2.8192689
4.9793068
-2.4646088
-52.115829
-5.0168012
-72.119084
-5.2117889
-68.968233
-3.7246271
-59.631805
-1.8282883
-48.86669
-40.267587
1.2498695
9.1962385
-1.1249206
4.1851826
22.049439
3.6616334
5.5028561
-1.1319709
-47.322225
-4.2259155
-69.025139
-5.2311138
-67.963035
-4.1974524
-60.665467
-1.8816889
-51.182454
-42.149276
1.3590238
7.8642432
-0.027028109
4.0772837
19.33118
3.9683726
5.6117673
-0.1558392
-43.198013
-3.2944523
-65.886526
-4.2070998
-67.050387
-3.7358107
-61.136756
-1.7120567
-53.206208
-43.861333
1.3183588
6.0396406
0.50624446
4.1785891
16.470949
4.4830669
5.3072898
0.98009144
-39.695037
-2.4269572
-62.479478
-4.0485438
-65.428801
-3.989468
-61.195832
-2.2625949
-54.933081
-46.123928
1.1524693
4.2721966
0.61497592
4.0250671
13.598352
4.7838553
4.5485007
1.8719676
-36.78315
-1.2031893
-59.404321
-2.8215805
-63.810409
-3.0780521
-60.93936
-1.9124523
-56.098681
-48.03638
0.96593539
2.5634685
0.74279381
3.8902351
10.674054
5.0626825
3.3760527
2.9333224
-34.65379
-0.21620469
-56.254794
-2.3118745
-61.714739
-2.8789347
-60.3723
-1.9271934
-57.050422
-49.963574
0.54759395
1.2719273
0.7439483
3.4910045
7.730644
5.3430668
1.5239895
3.8172017
-33.127924
1.0069359
-53.444528
-0.99289144
-59.714912
-1.9708229
-59.394369
-1.6418814
-57.379364
-51.605455
-0.52050482
49.899791
-49.379287
-1.5229744
50.6262
-49.62373
-2.6177618
50.281645
-49.186858
-3.85702
48.568569
-47.329311
-4.7971007
44.880784
-43.940703
-4.8850727
37.033222
-36.94525
-2.132012
20.542106
-23.295167
0.38960675
6.977118
-9.4987361
-2.689394
2.468967
0.61003416
-0.43883427
50.338626
-1.4309921
51.618357
-2.5512406
51.401894
-3.8020229
49.819352
-4.7855023
45.864264
-4.7385734
36.986293
-1.5811533
17.384686
0.73273257
4.6632321
-2.5491269
0.59246556
-0.37871371
50.717339
-1.3288974
52.568541
-2.4500717
52.523068
-3.7797415
51.149022
-4.7854789
46.870001
-4.5611291
36.761943
-1.3010087
14.124565
0.82816455
2.5340593
-2.2857259
0.5647637
-0.30030676
51.017646
-1.2340171
53.502251
-2.376467
53.665518
-3.7068595
52.479414
-4.7357813
47.898923
-4.3780493
36.404211
-1.312036
11.058552
0.67590535
0.54611833
-2.1170395
0.50721928
-0.2428413
51.260487
-1.1165382
54.375948
-2.2572557
54.806236
-3.6600432
53.882201
-4.7154272
48.954307
-4.2195121
35.908296
-1.3858508
8.2248908
0.47772372
-1.3174564
-2.0637754
0.42445958
-0.16605677
51.426544
-1.0160705
55.225962
-2.1730329
55.963198
-3.5694885
55.278657
-4.6429099
50.027728
-4.0773237
35.34271
-1.4321042
5.5796697
0.33685906
-3.086418
-2.0797814
0.35286588
-0.11511432
51.541658
-0.89091028
56.001758
-2.0350471
57.107335
-3.5020765
56.745687
-4.621606
51.147258
-3.9490591
34.670163
-1.4553253
3.0859348
0.19843724
-4.740179
-1.8364052
-0.044937733
-0.05205162
51.59371
-0.7839451
56.733652
-1.9337549
58.257145
-3.3879302
58.199862
-4.5267992
52.286127
-3.8073902
33.950754
-1.4578937
0.73643716
0.097937514
-6.2960089
-1.6599196
-0.078546773
-0.011744887
-0.6574569
-1.7946809
-3.3097311
-4.4681324
-3.6453029
-1.3848762
0.049759012
-0.33823333
0.33980408
0.94171066
1.1874523
4.8838549
-14.042787
7.9924665
-26.403779
7.598315
-36.551099
6.225695
-42.568083
4.4656421
-45.569258
2.779141
-47.500357
1.1613793
-48.005968
-48.217907
1.4288201
-1.9142786
1.4271693
6.3458172
-18.959784
8.1963723
-28.254334
7.568824
-35.92355
6.1854677
-41.184727
4.4722569
-43.856048
2.8351315
-45.863231
1.2435493
-46.414386
-46.974358
3.283276
-6.4060578
1.2085032
7.1636562
-22.840164
8.1921711
-29.282849
7.4609759
-35.192355
6.142324
-39.866075
4.527874
-42.241598
2.8823109
-44.217668
1.294316
-44.826391
-45.680042
5.6789206
-12.043257
-0.041721219
7.7512687
-24.912512
8.1857482
-29.717328
7.4072769
-34.413884
6.0940091
-38.552808
4.5066502
-40.654239
2.9116876
-42.622706
1.3701453
-43.284849
-44.309897
6.7994923
-18.710186
-0.13256346
8.002084
-26.115104
8.0646989
-29.779943
7.2861192
-33.635304
6.0399376
-37.306626
4.5475156
-39.161817
2.9513824
-41.026573
1.40807
-41.741537
-42.901827
7.6083708
-26.180972
-0.13758466
8.1911352
-26.697868
7.997991
-29.586799
7.2284996
-32.865813
5.9846075
-36.062734
4.499495
-37.676704
2.9556844
-39.482762
1.4348591
-40.220711
-41.466968
8.2896135
-30.650814
-3.8197714
8.3102492
-26.718504
7.9273972
-29.203947
7.1000674
-32.038483
5.9114179
-34.874084
4.5205565
-36.285843
2.9907155
-37.952921
1.4499019
-38.679898
-40.017066
8.7786438
-30.46518
-8.9642784
8.3208295
-26.26069
7.8818819
-28.765
7.0302068
-31.186808
5.8528121
-33.69669
4.4539423
-34.886973
2.9656961
-36.464675
1.4867713
-37.200973
-38.530294
8.8488662
-28.819895
-10.494151
8.231061
-25.642884
7.7756768
-28.309615
6.895294
-30.306425
5.7702554
-32.571651
4.4606387
-33.577356
2.9855507
-34.989587
1.4851327
-35.700555
-37.045162
0.0013781982
38.379559
-38.380937
0.086902272
36.874133
-36.959657
0.19488806
36.127315
-36.235301
0.33959814
34.880654
-35.025364
0.48560523
33.806407
-33.952414
0.67004256
32.094647
-32.279085
0.77984592
30.898102
-31.007906
0.67486399
28.48338
-28.378399
24.95035
-24.612653
0.3371668
0.021840322
38.357718
0.093372039
36.802601
0.16884631
36.05184
0.30036212
34.749138
0.45239664
33.654372
0.67081555
31.876229
0.83106609
30.737852
0.77928219
28.535164
25.250452
0.4791804
0.060665646
38.297053
0.17444871
36.688818
0.30182462
35.924465
0.45985694
34.591106
0.61954621
33.494683
0.842569
31.653206
1.0466551
30.533766
1.0150994
28.56672
25.913404
0.35214654
0.09254677
38.204506
0.19367286
36.587692
0.28754892
35.830588
0.42877206
34.449883
0.59307615
33.330379
0.85087563
31.395406
1.1271317
30.25751
1.2168328
28.477019
26.565754
0.564483
0.13789587
38.06661
0.28179616
36.443792
0.435201
35.677184
0.60076433
34.284319
0.76554918
33.165594
1.0122941
31.148661
1.3396105
29.930193
1.4963284
28.320301
27.53965
0.52243237
0.17712641
37.889484
0.31113034
36.309788
0.43270843
35.555606
0.58916551
34.127862
0.75078299
33.003977
1.0143796
30.885065
1.3987031
29.54587
1.7782521
27.940752
28.362053
0.95584937
0.23063543
37.658848
0.4231764
36.117247
0.60681042
35.371971
0.77783869
33.956834
0.92750966
32.854306
1.1538639
30.658711
1.5506816
29.149052
2.0831719
27.408262
29.143663
1.3015617
0.27706295
37.381785
0.4449369
35.949373
0.60373032
35.213178
0.78433457
33.77623
0.93282589
32.705814
1.1490869
30.44245
1.5719752
28.726163
2.3646894
26.615548
29.233676
2.2746771
0.33662361
0.58544173
0.80903279
1.0079063
1.1420695
1.2780942
1.6946422
2.6673055
3.0810864
-0.22368842
-24.680358
0.29139381
-0.16365609
-28.438431
-0.064847967
-31.106714
0.10337722
-32.44731
0.1930357
-34.042072
0.24606794
-35.078396
0.2077357
-36.196968
0.15632351
-36.908245
-38.224613
-0.21541093
-24.68574
0.22079276
-0.18059587
-28.473246
-0.097492139
-31.189817
0.048886812
-32.593689
0.12779617
-34.120982
0.19433912
-35.144939