/*--------------------------------*- C++ -*----------------------------------*\
  =========                 |
  \\      /  F ield         | OpenFOAM: The Open Source CFD Toolbox
   \\    /   O peration     | Website:  https://openfoam.org
    \\  /    A nd           | Version:  11
     \\/     M anipulation  |
\*---------------------------------------------------------------------------*/
FoamFile
{
    format      ascii;
    class       surfaceScalarField;
    location    "0.1225";
    object      phi;
}
// * * * * * * * * * * * * * * * * * * * * * * * * * * * * * * * * * * * * * //

dimensions      [0 3 -1 0 0 0 0];

internalField   nonuniform List<scalar> 
1652
(
2.843686947071611
0.8895636090847481
0
1.954123337988149
0.8895636090834615
-2.220446049250313e-16
1.064559728905243
0.8895636090502166
-4.686695476152636e-12
0.8895538325906747
2.958078226811267e-12
0.1749973620841872
2.843686947076741
1.779127218162428
1.954123337998014
1.779127218162188
1.064559728933766
1.779127217923983
1.779073452183343
0.1750107704336397
2.843686947090741
2.668690827246526
1.954123338008367
2.668690827244562
1.06455972920169
2.66869082533787
2.668386761472903
0.1750525770705322
2.843686947092868
3.558254436328659
1.954123338013008
3.558254436324421
1.064559735838336
3.558254393718334
3.556985129311325
0.1751620885539755
4.418652025448567
2.872852967045247
5.279049614570485
2.872852967043177
6.139447203695006
2.872852967042494
2.872852967041851
6.99984479324337
4.418652025437511
2.012455377932159
5.279049614550981
2.012455377929711
6.139447203663376
2.012455377929228
2.012455377926294
6.999844792777119
4.418652065809235
1.152058246862881
5.279051001427413
1.152055917148239
6.138357495366841
1.152167046826325
1.152167115131463
6.998801760914739
4.438807465334023
0.2494446079106667
5.421468657889529
0.1125013187757389
6.450215849358761
0.04877562245471201
7.487157916132198
0.03005525089722849
6.941512776916612
0.05833176514806993
6.883178419449466
0.05832972043937912
6.824847782749477
0.05832421790958098
0.05832659706476195
6.766515804783871
6.941521967033705
0.1166468725331924
6.883228135196304
0.1166092983696051
6.824940868819477
0.1165327087762146
0.116533614420127
6.766649466818873
6.946504624557059
0.1673509332315662
6.896069121261236
0.1637134624004319
6.844207803465919
0.1605763207745292
0.1562554172506564
6.792166219746069
7.554669027780375
0.02236309133015069
7.614757326733328
0.01528876554078279
7.675150699608636
0.0142555289439012
7.733648911513928
-0.00110693012654195
7.769175219968599
0.03971243900267751
-0.1820033484332427
7.652287825254687
0.08161917207107355
-0.05351943144313015
7.526824446388077
0.07507931569828413
-0.0164116582178076
0.05589154474964636
7.40110786732449
-0.008261713886544675
6.810046874471487
0.0003669444488013651
6.845629426463839
0.001252012916117318
6.868316440656075
0.002426337862923122
0.002529390760667716
6.867018335032527
6.766775947346924
1.617794995223409e-05
6.767177939981667
4.648605938695205e-05
6.767873063352241
0.0001093118280445227
0.0001329080152193685
6.768046020542065
6.766516560109678
6.766516692095968
6.766514328503923
6.766509183749674
6.766505472939999
-0.0001216895606751534
6.766507321726219
-8.369437318545003e-05
6.766512856281321
-3.460635983376648e-05
-6.564002380193834e-06
6.766516162762872
6.767943281174089
-0.002225398976653969
6.767434231990711
-0.001586055642747275
6.766808067751802
-0.0007749151368960927
-0.0001795969311694234
6.76654746193911
6.851681586354802
-0.03948360344552215
6.826375123919256
-0.02735649950351277
6.795676749129023
-0.01833600946421815
-0.008688498287557911
6.773450836400825
7.269476508210305
-0.004855294370002705
7.139738985378346
-0.003823010192730569
7.014867845931084
-0.003953080105901785
6.89961924518841
-0.00127819873035151
0.002115504996132556
6.812204076030929
-0.002420778932326673
1.800625589976068e-05
6.767215275993636
4.936521323939402e-07
6.766517906426696
6.766516616059469
0.0003183593691921671
6.773193825123376
-0.001980771426504546
1.224093791551972e-06
6.766533294954865
4.434217870663559e-08
6.766516085172983
6.766516638913323
2.032740796464871e-06
6.768203130258431
-2.225703194019824e-05
-2.578094105754047e-06
6.766507486350259
-1.295631979481016e-08
6.76651484573497
6.76651664334154
0.001554652016006297
6.851059310923293
-0.1332760495672926
5.861282039165694e-06
6.767078541859045
-1.483858824147255e-06
6.766512126692043
6.766513819219956
0.155553876705791
6.610961889213718
0.3110873023527215
6.610976642381993
0.4578750089376916
6.616494182065636
6.942975240941347
0.1297810169843893
0.1555502463348541
6.455411115490341
0.3109647243933359
6.455442227894907
0.4390907051722668
6.468030055780362
6.875453972300291
0.148937147824184
0.1555343061366342
6.299865229383562
0.3107117104289024
6.300036268850334
0.4153545638322172
6.323884517752626
6.729719952635694
0.09708759054629856
0.1555005146717074
6.144316680079298
0.3102367678410782
6.144590572338702
0.3866252730965516
6.181783299789644
6.548848318080336
0.06085207141202298
-0.3478515591206004
6.410471556280808
0.01549529314136322
-0.3095273959563466
6.045713471505682
-0.1554602343159054
5.989403527790854
5.988774361536948
-0.3111914421036364
6.281885306753574
0.00586591063055153
-0.3084829146867539
5.908300395603075
-0.1553744479521403
5.833934679263531
5.833229435684189
-0.2703927928433895
6.102421555250512
-0.005772625294090283
-0.3074908646808179
5.759643415237599
-0.155349431424942
5.678736278427793
5.677686917294353
-0.2276933795605649
5.814411512691448
0.002129560910484329
-0.3058814863208762
5.6128837102656
-0.155192973378355
5.523474353088131
5.522159299548203
0.1988867190404888
5.322869770131907
0.3916128000624202
5.324197889971427
0.2901113952860226
5.407560772833055
5.461314421988782
0.0293060701188359
0.1986138064658677
5.123628369580893
0.3879640642864319
5.125496147734698
0.2435036599555535
5.209028190962176
5.126033285393659
0.07249649487687471
0.1983394792903811
4.92404030078608
0.3858628643462187
4.925959777523855
0.2970638914866442
4.992168844566
4.923732516476795
0.1831058408497857
0.1987812707787342
4.725297584498788
0.3908640045129015
4.727959896704911
0.413182846174215
4.776504579024891
4.76280492531262
0.3697435103710801
-0.3374146392339892
5.060757812629091
-0.7028478768439321
5.068430031488596
-1.253620992819591
5.155851501225648
4.883837828583112
-1.438953291294937
-0.3381609974013133
5.395956756317571
-0.7059698328668769
5.410618379066421
-1.03061664188496
5.439855172402567
4.396004670299461
-0.4556544547104457
-0.3370343028559837
5.73138046829214
-0.6718324488150798
5.735965697040349
-0.9324262243342636
5.712233164329501
3.824518122691067
-0.06167540744918942
-0.3353348733411611
6.066590706532318
-0.6640410877755696
6.064925416718357
-0.7970344646611067
5.90400609188817
3.435249696167852
-0.03724835410575896
0.350751764113048
3.29579200434921
-0.01220092503101598
0.3412854787004931
5.987625275040747
0.1748837891986657
6.23749244602202
6.241523546845062
0.3281012533047823
3.170277229133171
-0.005181467581562245
0.3399608576877615
6.08837996777058
0.174879530629992
6.410310177000734
6.416507119531069
0.3350537743620183
3.017955192330927
0.0002375261729790287
0.3410978379488225
6.225109195195205
0.1749256046877222
6.585419471815441
6.591503813364697
0.3175533855112482
2.848865831666374
0.01186306304043416
0.3405875374576255
6.369736748001465
0.1749278142856495
6.761425243181272
6.766503130411414
-0.1510934814370144
3.417376414941379
0.07807885125832682
-0.007333963233023821
6.560546285213768
-5.440896609298917e-05
6.76513481863806
6.766513374877008
-0.09490917482619454
4.169218805996199
0.107180329472421
-0.002552734593891381
6.682781644191393
-1.444498678693229e-05
6.76617667625904
6.766516006650087
-0.05880551655991395
4.930065664582471
0.1246250624057308
-0.0009922513505040698
6.743461545259175
-4.75716209558108e-06
6.766505722466015
6.76651660727588
-0.03699366146068439
0.1147340140576996
5.61107075801052
-0.0004402864154597896
6.745960459961728
-1.999315866418883e-06
6.766339686376595
6.766516604160984
1.030479971473817
-0.8699231074937694
-0.01924465741626879
-7.541034463542928e-11
1.978995533863611
-0.8683425539914893
-4.952482868247898e-12
2.858206458655236
-0.8747852395095874
3.274802651276332e-11
-0.8749788902617843
-3.381028790272467e-11
1.037956446991703
-1.764576950338895
-0.0218883090696343
1.979135459403608
-1.736688982141934
2.858206844708977
-1.749547912502486
-1.74995766561945
1.037529567723466
-2.591483676635906
-0.03584305066318959
1.979192953135192
-2.609509922243678
2.8582064422318
-2.624379111188083
-2.624936590068827
1.040958502352841
-0.05259919292243956
-3.388294427942866
1.979711894409592
-3.488464002791681
2.858210423191992
-3.499518044088281
-3.499918425578219
-0.03699366145992922
-4.930065664591934
0.1147340140566876
5.611070758022215
-0.0004402864246344507
-6.743461545264113
6.745960459974288
-1.999354365178618e-06
-6.766505722486301
6.766339686395491
-6.766516607320927
6.766516604237932
-0.05880551656369726
-4.16921880601965
0.1246250624078959
-0.0009922513588687121
-6.68278164421306
-4.757149355993917e-06
-6.766176676282331
-6.766516006623642
-0.09490917484441241
-3.417376414939962
0.1071803294718144
-0.00255273461398553
-6.560546285215138
-1.444498771618896e-05
-6.765134818647959
-6.766513374880871
-0.1510934814311413
-2.848865831649023
0.07807885125551217
-0.007333963222474038
-6.369736747983847
-5.44089628857769e-05
-6.761425243164477
-6.766503130412888
-0.1748837891955284
6.241523546867974
-6.066590706587387
-0.3412854786865061
6.237492446050332
-6.064925416773958
-0.350751764106229
5.987625275006074
-5.904006091828997
3.295792004313051
-3.435249696123349
-0.01220092503119001
-0.1748795306071799
6.41650711955012
-0.3399608576635016
6.410310177025914
-0.3281012533012404
6.08837996776618
3.170277229099005
-0.005181467581096229
-0.1749256046765451
6.591503813373441
-0.3410978379281265
6.585419471823059
-0.3350537743543819
6.225109195186953
3.017955192310137
0.0002375261736517614
-0.1749278142747641
-0.340587537432626
-0.3175533855002862
0.01186306303907189
0.7970344646637415
-3.824518122652802
-0.03724835410606894
0.6640410878124549
-5.712233164298977
0.335334873366995
-5.735965697075211
-5.731380468304958
0.9324262243403731
-4.396004670272153
-0.06167540744782672
0.6718324488317947
-5.439855172383437
0.3370343028582566
-5.410618379105552
-5.395956756321763
1.030616641895805
-4.883837828573115
-0.4556544547083689
0.7059698328875028
-5.155851501222249
0.3381609974011615
-5.068430031523337
-5.060757812614349
1.253620992833098
-4.762804925310556
-1.438953291299311
0.7028478768609911
-4.776504579028478
0.3374146392373581
-4.727959896713445
-4.725297584478271
0.1988867190453673
5.322869770148051
-5.522159299572839
0.3916128000824058
5.32419788994674
-5.5234743531863
0.2901113953018069
5.407560772815056
-5.612883710181715
5.461314421979579
-5.814411512637806
0.02930607012072195
0.1986138064640919
5.123628369601852
0.3879640642871701
5.125496147723809
0.2435036599670716
5.20902819093305
5.126033285387277
0.07249649487682053
0.1983394792977246
4.924040300879398
0.3858628643640032
4.925959777523586
0.2970638914900338
4.992168844551434
4.923732516471425
0.1831058408485308
0.1987812707900619
0.3908640045329331
0.4131828461773045
0.3697435103708534
-0.2276933795234156
-6.102421555198251
0.002129560917800588
-0.3058814862982273
-5.75964341513755
-0.1551929733657503
-5.678736278409199
-5.67768691731686
-0.2703927928369215
-6.281885306755748
-0.005772625296807887
-0.3074908646691377
-5.908300395684988
-0.1553494314201488
-5.83393467933382
-5.833229435696843
-0.3111914421236156
-6.410471556308099
0.005865910630181936
-0.3084829146664482
-6.045713471517413
-0.1553744479400485
-5.989403527881187
-5.988774361542668
-0.3478515590923772
-6.548848318088228
0.0154952931540695
-0.3095273959493334
-6.18178329972262
-0.1554602343104675
-6.144590572388331
-6.14431668008735
0.15555387670821
6.610961889237851
-6.766513819244457
0.3110873023542284
6.610976642406533
-6.76651212668513
0.45787500894593
6.61649418207828
-6.767078541866906
6.94297524095815
-6.851059310942842
0.1297810169760395
0.1555502463349426
6.45541111547927
0.3109647243926012
6.455442227906778
0.4390907051600596
6.46803005578803
6.87545397231734
0.1489371478368338
0.1555343061413332
6.299865229380759
0.3107117104376784
6.300036268844759
0.4153545638441833
6.323884517773644
6.729719952614598
0.09708759054063121
0.1555005146639167
0.3102367678238374
0.3866252730858483
0.06085207141243298
-6.766516643346204
1.483864375262378e-06
-6.766516638915937
1.295646356869185e-08
-6.766516616059984
-4.434237110828576e-08
-4.936489247375775e-07
-6.76651616275456
-6.766514845714811
-5.861280024221927e-06
-6.766516085174694
2.578090203653183e-06
-6.766517906442186
-1.224092566975976e-06
-1.800625288106428e-05
-6.766547461935075
-6.76650748635731
-0.00155465201647359
-6.766533294958705
-2.032738870672013e-06
-6.76721527598793
-0.000318359368133625
-0.002115505001823503
-6.773450836388442
-6.768203130272944
-0.1332760495655609
-6.773193825105889
-2.225704559599695e-05
-6.812204076025863
-0.001980771424928418
-6.899619245188621
-0.002420778930154632
-6.564006091447361e-06
-6.766512856284539
-0.0001795969361122474
-6.76680806774978
-0.008688498288366597
-6.79567674913704
-7.014867845940035
-0.001278198728135838
-3.460635951624269e-05
-6.766507321724204
-0.000774915137793819
-6.767434231991619
-0.01833600944941916
-6.826375123912296
-7.139738985383601
-0.003953080102682305
-8.369437324928786e-05
-6.76650547294416
-0.001586055642318285
-6.767943281171998
-0.02735649950647495
-6.851681586366059
-7.269476508212365
-0.003823010192285092
-0.0001216895628659564
-6.766509183749626
-0.002225398984475047
-6.768046020558572
-0.03948360343768587
-6.867018335053857
-7.401107867324739
-0.004855294368530383
-1.617796148412065e-05
6.766516560100514
-6.766515804770576
-0.0003669444638473296
6.766775947328551
-6.766649466799772
-0.03971243902220012
6.810046874420411
-6.792166219676184
7.769175219990483
-7.733648911563122
-0.1820033484348846
-4.648606240753583e-05
6.766516692091351
-0.0012520129200847
6.767177939979771
-0.0816191720799157
6.845629426472523
7.652287825267399
-0.05351943144686583
-0.0001093118293273854
6.76651432850026
-0.002426337866604511
6.767873063363947
-0.07507931570748505
6.868316440683355
7.526824446392866
-0.01641165821855506
-0.0001329080224449219
-0.002529390773044704
-0.05589154475461816
-0.008261713889144373
-0.1562554172589867
-7.675150699654054
-0.001106930122788174
-0.1165336144360877
-6.844207803424991
-0.05832659706415566
-6.824940868820497
-6.82484778274148
-0.1605763207929431
-7.614757326772999
0.01425552894038118
-0.116532708793442
-6.896069121430565
-0.05832421791855835
-6.883228135193504
-6.883178419327568
-0.1637134624351736
-7.55466902778706
0.01528876555012521
-0.1166092983889578
-6.946504624788706
-0.05832972043939855
-6.941521967043553
-6.941512776909229
-0.1673509332357991
-7.487157916096924
0.02236309132812042
-0.1166468725569286
-6.998801761015947
-0.05833176515469241
-6.999844792820238
-6.999844793239186
-1.152167115066322
-6.450215849336463
0.03005525089907379
-2.012455377911052
-6.138357495233442
-2.872852967041782
-6.13944720369133
-6.139447203692096
-1.152167046839296
-5.421468657854986
0.04877562247258149
-2.012455377916462
-5.279051001417431
-2.872852967042251
-5.279049614566449
-5.279049614567382
-1.152055917147857
-4.438807465318392
0.1125013188078943
-2.012455377921992
-4.4186520658054
-2.872852967044603
-4.418652025443835
-4.418652025446893
-1.152058246860725
-3.556985129318859
0.2494446078851321
-2.012455377927508
-3.558254393720618
-2.872852967046921
-3.558254436324423
-3.558254436328661
2.843686947076677
0.8895636090796828
1.954123337995112
0.8895636090815642
1.064559728911137
0.8895636090516104
0.8895538325423902
0.174997362038666
2.843686947077599
1.7791272181565
1.954123337999196
1.77912721815997
1.064559728934998
1.779127217926237
1.779073452178943
0.1750107701966583
2.843686947089469
2.668690827241873
1.95412333800662
2.668690827242819
1.064559729199935
2.668690825345886
2.668386761455274
0.1750525771182488
2.843686947088214
1.954123338006611
1.06455973583164
0.1751620884836016
0.1749965369883723
0.174996536901319
0.1749944729876014
0.1750074214446138
0.1750004679564166
0.1750265919495392
0.1751436871455723
0.1749440664421156
0.1750074217348934
0.1749944728748659
0.1750037070956119
0.1750037068278256
0.1749907178111612
0.175016018899874
0.1744354615554222
0.1755005402187233
0.1750265918972433
0.1750004678707766
0.1750160187492058
0.174990717693309
0.174965446155367
0.1749654464089832
0.1719315877566424
0.1768424332505096
0.1751436872194487
0.1749440663802053
0.1744354615402932
0.1755005402056428
0.1719315877582884
0.1768424333960418
0.1715187475781377
0.1715187476682496
-0.07313552452936473
0.2433203884498237
-0.1361156661292095
0.2378554397018022
-0.2025547535306821
0.2397986514376823
0.2199580603192352
-0.01429376149001749
0.2564420383014238
-0.03414397313437756
0.2562215409646299
-0.06346685836490618
0.2668342706158081
0.2659933812034917
-0.008012069146299372
0.2629031242056205
-0.02104867125170895
0.2674715394179048
-0.032720929359211
0.2769583105130128
0.2805148756432281
-0.002615481451186064
0.2667028273066618
-0.01314434610086257
0.2777277105027534
-0.02188445530471883
0.2846429030973999
0.2871065752691185
0.2895162610513185
0.01919217189834721
0.2913875781918204
0.01315508659795817
0.2942602384260162
0.01153130291209514
-0.001157337303011929
0.2959939388635761
0.2901598371008075
0.01298479047595313
0.2932713956561795
0.0107279151281523
0.2972389685148382
0.008370113300380622
-0.006678496269122258
0.3048373950727677
0.2873483690261711
0.002496351916863759
0.2927627390546907
0.005640901592401881
0.297652711678849
0.004377178755306299
-0.03182316921438155
0.3248322902409219
0.2676508189931111
0.2729816002196961
0.2784641668049901
0.2497583350548429
0.2747258327057888
-0.1586963207264435
0.2514198896588233
-0.0278526371210821
0.2450862004161969
-0.005385902936996534
-0.004983065649990071
0.244582215357258
0.2681162699393524
-0.1204352659546761
0.2511835007418877
-0.00854565565737897
0.2493973883175323
0.0005275368340678099
-0.002433990458225066
0.2500933597022093
0.2734386832453018
-0.06770156145776601
0.258713708421329
0.007804921230603112
0.2558031650318747
0.007889511128452042
0.003608378918421418
0.2531936629089988
0.1822769893088934
0.1914170348270617
0.2036340108762391
0.2108555339416891
0.2439074411435586
-0.003551896102066632
0.2423887203276134
-0.00227187008085239
0.241380866190355
-0.002678282868585846
-0.0008657553312738098
0.2407677507297429
0.2471889932429051
0.00043618730217998
0.2442718685926856
0.00116441524397759
0.2430331287915938
0.0002933773313605337
0.0001383785149364214
0.2417341973724322
0.2494677338925265
0.005482811198891435
0.2465956098704234
0.005536577775345497
0.2451876603070755
0.003839783050946288
0.001988241317358475
0.2432293659858233
0.2180969008966673
0.2253727431774446
0.2319667407685907
0.2340094507546039
0.2375842220817656
-0.001282910303123941
0.2345265354857624
-0.001309370972894297
0.2337320297582274
-7.413252687604732e-05
-0.1529078274033226
0.2456323296065916
0.2382724990934302
0.0002811573794567757
0.234950852480786
2.518724679606565e-05
0.2339199727958356
-7.688444623787927e-06
-0.1447002088663951
0.216175682178483
0.2394196614552954
0.002133625173511566
0.2356286307036869
0.001648793695436523
0.233684411436283
6.66416443987905e-05
-0.09807235419299426
0.1770080960114496
0.2338921952376223
0.2335529803880762
0.2307270686300314
0.1218577888652891
0.2699985805323049
0.09574044263979586
0.2742102635867072
0.1357325192619867
0.2778002144260817
0.08361322227103052
0.0507758848569777
0.2793631557838844
0.2473079126036753
0.05903542177083254
0.2699549641821474
0.1076301543425928
0.2788960209061985
0.06780027022763235
0.04092034769664565
0.2826413499657045
0.2007273704476482
0.03027642045320211
0.2442032521705232
0.05780971879559604
0.2722919980049066
0.03471607623204365
0.02584151158302417
0.2821977976315565
0.1493264378620872
0.2035666558518999
0.2343467179335705
0.2546342820572473
0.2801939358777761
0.01272577863385693
0.2862233043886256
0.003355090347125111
0.2931184210049129
-0.006786526002958038
-0.0008689283927002522
0.3004538956852258
0.2839574554722293
0.01099492170208227
0.2895559484867228
0.002894264901119215
0.2958341820740341
-0.004798993089029313
-0.001036140248711237
0.3040077276823546
0.2849337916695504
0.009195658643973648
0.291574530684021
0.002391403668332348
0.2989696643841036
-0.002384047992718963
0.0002909421396092293
0.3070556594397419
0.2640702915296776
0.2729355579862739
0.2808545433054281
0.2912217377497531
0.3090249833347667
0.02151534187527337
0.3251797069824266
0.05784169058674937
0.3560297110852977
0.1527961102048911
0.3020027073097329
0.4261784566856037
0.3135628119544508
0.01416616377075086
0.32999241809657
0.04276078465602839
0.3590556746247038
0.1247204651497986
0.1967540950029462
0.4659581498465043
0.3158152678712791
0.009634658512874816
0.331578902494478
0.02937922501058565
0.3694993974431806
0.09070787522103407
0.04661659177341604
0.5250386750382481
0.3051413077467785
0.336869309220736
0.4303867503349717
0.484689347048795
0.2215577162644262
-1.224906382737205
0.02421828491772072
-0.2534661485261565
0.003679314742270153
-0.03330344743092827
-0.02650889285516306
0.0006433734613772758
0.1555612131145461
-0.9093511357978317
0.01335175421870889
-0.1081415384775336
0.003457045170405787
-0.0165899929279095
-0.01484188333111053
-0.001571085843912209
0.07670935911610549
-0.4584106425393599
0.005319160395734708
-0.03404865452721717
-0.0005135696548874032
-0.004894710214002902
-0.007199295263464071
-0.001463994618905154
0.02881495444612832
-0.001993812846062262
-0.0001638670683437368
-0.0007278458572845536
0.001809753649069917
-0.01022845252231171
0.001367200262159474
-0.002569329755052946
-0.0003505458743511825
0.002556702649378038
0.005522129529260407
0.005079930062259805
-0.001862704195066263
-0.006940621251286236
-0.002910858663212737
-0.0002731755501669889
-0.002907669987824017
0.001650695371702406
0.003706203097973093
-0.004311098337345054
-0.002256774426929209
-0.003412267940489148
-0.003734702629026834
0.0004839796847802558
-0.005673675980072328
0.0009975824661042146
0.003252885269415917
-0.00919382853871812
-0.001154902324938437
-0.004601300991456244
-0.009035366664093202
-0.009857419539767142
0.05424757220859848
0.03385256533913072
0.104565842052956
0.07138715103351757
0.1487715578973685
0.09834527430979351
0.1045857995462205
0.1827593647582694
0.02532919892997699
0.008865570980391382
0.07501221519625537
0.03440714933563499
0.1242039485026492
0.06539647972888966
0.08189768939426181
0.170002123277547
0.005188791169062637
-0.001408014942296948
0.04482449715764149
0.007221202664939197
0.09649478564324132
0.03296760447927782
0.05458950974331853
0.1487065154536442
-0.009602006978729011
0.006663934469992194
0.05566414930711682
0.1283810839851993
0.1466054338623489
-0.1735809406551449
0.2238631297949736
0.1141440335329798
-0.1230693357220211
0.1666030603003915
0.08291478344520832
-0.06612719924541809
0.1020157158015565
-0.07001635221191423
0.05435944943412856
0.08585347946567136
0.132565273690516
-0.1225677744249525
0.09466165765251287
-0.07708710772963115
0.06000351064356761
-0.04541375427757109
-0.04138708384037981
0.0284019798548664
0.1049972918811702
-0.07077474295334224
0.06716205799772744
-0.03516878600334359
0.01336270963449332
-0.02059320699117688
-0.01098992551713058
-0.01453134213858809
0.06237499527423268
0.01415482142102139
-0.02853384152805278
-0.03875424007274157
-0.03334475958053836
0.001938955144524471
-0.02293240589325407
-0.002814646507784554
-0.01258823521711293
-0.004940507637742302
-0.004689013915220185
-8.062994716340199e-15
-0.01564798350027885
0.01260592246557617
-0.0129487644869525
-0.000262837190210221
-0.007413668473693891
-0.006969616180461101
-0.008565848602090994
6.786238238021269e-14
0.01405329128883597
0.03356696188509926
0.004781274801304983
0.01237704657355689
0.001194058483316364
4.322338113919855e-07
-0.003169824885536108
1.176489461407471e-13
0.03803139542504396
0.02581428621379142
0.01315483334772925
3.475345011771935e-13
-0.004689013915208911
0.01258823521708204
-0.008565848602098266
0.007413668473806829
-0.003169824885569258
-0.001194058483044803
-0.01315483334681056
0.01924465741607305
-0.00494050763773104
0.02293240589324226
-0.006969616180465125
0.0129487644869457
4.322337968896972e-07
-0.004781274800984121
-0.02581428621300094
0.02188830906979342
-0.002814646507817316
0.03334475958049835
-0.0002628371902016792
0.01564798350022796
0.01237704657355743
-0.01405329128853905
-0.03803139542428969
0.03584305066325565
0.001938955144477783
0.03875424007273395
0.01260592246556378
0.01453134213868552
0.03356696188503578
-0.0284019798544321
-0.05435944943334939
0.05259919292233096
-0.08291478344445774
-0.07001635221171432
0.08585347946551007
-0.1141440335326123
-0.06612719924537219
0.1020157158015672
-0.1466054338620623
-0.1230693357221346
0.1666030603005266
-0.1735809406551132
-0.1827593647581721
0.223863129795006
-0.06000351064309847
-0.04138708384027517
-0.09466165765228989
-0.04541375427752865
-0.132565273690283
-0.07708710772953915
-0.1225677744249301
-0.1700021232774306
-0.01336270963431725
-0.01098992551711995
-0.06716205799753219
-0.02059320699113946
-0.1049972918810135
-0.03516878600325601
-0.0707747429532824
-0.1487065154535148
0.02853384152812565
-0.01415482142083661
-0.06237499527405088
-0.1283810839849502
-0.05566414930695108
-0.05458950974330362
-0.006663934469678785
-0.03296760447930151
0.009602006978709231
-0.007221202664448062
0.001408014942471586
0.009857419539576069
-0.09649478564324973
-0.08189768939400147
-0.04482449715696981
-0.06539647972956128
-0.005188791168620907
-0.03440714933472001
-0.008865570979563503
0.009193828538559386
-0.1242039485028225
-0.1045857995454949
-0.07501221519557699
-0.0983452743115224
-0.02532919892903632
-0.07138715103256187
-0.03385256533712942
0.004311098337221719
-0.1487715578973264
-0.1045658420524737
-0.05424757220764258
-0.005079930061912093
0.0003505458739788102
0.00552212952871789
-0.001367200262011804
0.002556702649553877
-0.00180975364880308
-0.002569329754651843
-0.0102284525223374
-0.0006433734612332105
0.002907669987521084
0.003706203097600662
0.002910858663396071
0.001650695371775403
0.001862704195318357
-0.0002731755498935617
-0.006940621251197134
0.001571085844136027
0.005673675979825021
0.003252885269299011
0.003734702629072719
0.0009975824660887131
0.002256774427247988
0.0004839796849623115
-0.003412267940378362
0.001463994619161574
0.009035366663843736
0.004601300991456742
0.001154902325183699
0.0007278458574562392
-0.003679314742238604
-0.02650889285540704
-0.02421828491687557
-0.03330344743037576
-0.2215577162627391
-0.2534661485247008
-1.224906382739533
-0.4261784566852448
-0.003457045170395121
-0.01484188333105328
-0.01335175421836539
-0.01658999292768127
-0.1555612131133387
-0.1081415384768192
-0.909351135799106
-0.4659581498462969
0.0005135696549905377
-0.007199295263363048
-0.005319160395609288
-0.004894710213826366
-0.07670935911546317
-0.03404865452690471
-0.4584106425400142
-0.525038675038543
0.0001638670684637623
0.001993812846074397
-0.02881495444586619
-0.4846893470493638
-0.3560297110847217
0.3020027073098789
-0.3251797069815206
0.1527961102042524
-0.3090249833339727
0.05784169058635324
0.02151534187736259
-0.3004538956842311
-0.3590556746248214
0.1967540950030132
-0.329992418096441
0.1247204651494539
-0.3135628119543816
0.04276078465576361
0.01416616377430446
-0.3040077276824794
-0.36949939744382
0.04661659177287414
-0.331578902494714
0.09070787521987067
-0.3158152678720986
0.02937922501142021
0.009634658515490946
-0.3070556594397128
-0.4303867503370544
-0.3368693092245664
-0.3051413077500904
-0.2912217377510529
-0.2931184210045565
-0.0008689283853744456
-0.2862233043897046
-0.006786526004883275
-0.2801939358800586
0.003355090345954714
0.01272577864539259
-0.2793631557842055
-0.2958341820735873
-0.001036140241882144
-0.2895559484883066
-0.004798993090486259
-0.2839574554764342
0.002894264901344257
0.01099492171038607
-0.2826413499670286
-0.2989696643838384
0.0002909421437617965
-0.2915745306862334
-0.002384047993487459
-0.284933791673432
0.002391403669046666
0.009195658649804095
-0.282197797633122
-0.2808545433053415
-0.2729355579896667
-0.2640702915340928
-0.2546342820549364
-0.2778002144230678
0.0507758848578439
-0.2742102635882749
0.08361322226783596
-0.269998580533824
0.1357325192762893
0.09574044263113513
-0.2456323296059165
-0.2788960209031011
0.04092034769696551
-0.2699549641839012
0.06780027022688551
-0.2473079126007648
0.1076301543530712
0.05903542176522381
-0.2161756821760654
-0.2722919980012513
0.02584151158166359
-0.2442032521699335
0.03471607623095052
-0.200727370441917
0.05780971880250363
0.03027642044899115
-0.177008096007435
-0.2343467179274271
-0.2035666558511479
-0.1493264378540483
-0.1218577888632094
-0.2337320297556978
-0.1529078274030516
-0.2345265354848093
-7.413254227228716e-05
-0.2375842220817418
-0.001309370973933022
-0.001282910299799433
-0.2407677507308945
-0.2339199727912342
-0.1447002088680734
-0.2349508524817243
-7.688458463828152e-06
-0.2382724990922391
2.518724715350196e-05
0.0002811573837431802
-0.2417341973732976
-0.2336844114329623
-0.09807235419452254
-0.2356286307060437
6.664163408909296e-05
-0.239419661453376
0.00164879369798554
0.002133625177691334
-0.2432293659863979
-0.2307270686268988
-0.2335529803958306
-0.2338921952340947
-0.2340094507483308
-0.2413808661911017
-0.0008657553298950793
-0.2423887203277656
-0.002678282866211412
-0.2439074411442691
-0.002271870080350347
-0.003551896101517904
-0.2445822153569161
-0.2430331287920346
0.0001383785154824291
-0.2442718685928037
0.0002933773324172995
-0.2471889932431451
0.001164415244182426
0.0004361873018037254
-0.2500933597016397
-0.2451876603068039
0.001988241317140704
-0.2465956098704298
0.003839783051424461
-0.2494677338924162
0.005536577775585083
0.005482811198362747
-0.2531936629087357