/*--------------------------------*- C++ -*----------------------------------*\
  =========                 |
  \\      /  F ield         | OpenFOAM: The Open Source CFD Toolbox
   \\    /   O peration     | Website:  https://openfoam.org
    \\  /    A nd           | Version:  11
     \\/     M anipulation  |
\*---------------------------------------------------------------------------*/
FoamFile
{
    format      ascii;
    class       volScalarField;
    location    "0.1225";
    object      T;
}
// * * * * * * * * * * * * * * * * * * * * * * * * * * * * * * * * * * * * * //

dimensions      [0 0 0 1 0 0 0];

internalField   nonuniform List<scalar> 
880
(
300
300
299.9999999998453
300.0004580172717
300
300
300.0000000017822
300.0020287629649
300
300
300.0000000290467
300.0102673363288
300.0000000000001
300
300.0000007406713
300.0177213188128
300
300
299.9999999999999
299.9999999983216
300
300
299.9999999999997
300
299.9999957507831
300.0000621241916
300.0427385987809
299.9251095942977
301.215000517699
304.9016757479544
308.1580307965796
309.3566525043827
300.0000065552948
300.0000396415064
300.0000518083911
300.0000360099994
300.000161473411
300.0004474597449
300.001350675754
300.001030572816
300.0904761436577
300.1995468237176
300.3465474438703
300.3650976163349
310.8609008078269
312.7514909717091
314.3346943784093
316.3985305698845
315.8052929250082
312.9535884868016
310.4308326914626
308.4895221557809
300.6427505894449
301.1646642792277
301.4603356670569
301.3474129912757
300.0030176829321
300.0079603646154
300.0158648850069
300.0191491454937
300.0001239988262
300.0003262109387
300.0006823820235
300.0007548637556
300.0006004783175
300.0003026559176
300.0000753088263
300.000005662865
300.017024914529
300.0120999933143
300.0055290192397
300.0011949066519
301.0834449105723
300.7702635423567
300.4384172376118
300.1570387873655
306.4841417896362
304.6198508978684
303.1028467998087
301.8628475790575
300.8479516686946
300.0296809309109
300.0000988206
300.0000000694873
300.2278286982385
300.0029651211534
300.0000070386304
300.0000000236113
300.0145513318297
299.9996586836722
299.9999846178034
300.0000003540102
303.0307520569643
300.0178241748923
299.9997953252013
299.9999800335508
299.9999532950541
299.9998960243486
300.10134917558
323.3958090530241
299.9999904132391
300.0012309195906
300.5787749688678
340.7216072238149
300.0001316800804
300.0031878855887
301.2123366549646
351.2340009088106
300.0004387159167
300.0110747029951
302.2803431674074
360.1181194579935
367.5027559203241
303.4259507435982
300.0160943078071
300.0006691988735
375.3454899261927
304.9969238093136
300.0333695687413
300.0012887842561
380.9878961050223
306.2543716071867
300.0381747152553
300.0013980578972
386.4296003016867
307.9024761206481
300.0649968756679
300.0025654912686
300.002922932966
300.0789915628544
309.8872252277805
391.1996091190449
300.0045985478404
300.1241827012437
312.3724335963778
391.0149390031205
300.0089843428179
300.1698794052839
312.5835834132751
382.5138264879164
299.9998657667459
300.0718725309544
307.7937646392844
360.917437964175
300.0157050173849
300.3278519758142
309.0033819725599
340.1470637737369
300.0181748315961
300.4320859191194
305.5297503864605
317.6668066778937
300.0030561296882
300.2337608587181
304.5751833876199
313.2687953402839
299.9948394809334
299.9870994428676
302.8615564064708
317.6095297184281
313.4672424959397
300.0757122308005
299.8451096095283
299.9951718310244
306.0340447317193
298.8250430882777
299.8266307450601
299.9981762824192
298.8141367579168
297.9804481997239
299.8690545617405
299.9994319785553
289.6918166534071
297.6548758586978
299.9110902136384
299.9995678172547
284.6329808827791
298.4480474465173
299.9708172955086
299.9998635060253
281.2841372436721
299.1922467097333
299.9919838200818
299.9999682040499
281.1548081294832
299.4777768717323
299.9965322182094
299.9999893668067
283.7314941855624
299.7468730086667
299.9988479446714
299.9999947632162
297.1757199261138
299.5669613793372
299.984991732788
299.9998586159414
298.3341230461882
299.5938416805951
299.9843862516957
299.9998558455823
298.820007061478
299.5980662518861
299.981942118336
299.9998433555877
300.0766973119421
299.6765637962031
299.9736083594503
299.9997900960003
283.7314941850852
299.7468730078203
299.9988479433777
299.999994765555
281.1548081290603
299.4777768712593
299.9965322156983
299.999989366649
281.2841372432601
299.192246711019
299.9919838205335
299.9999682042525
284.6329808831415
298.4480474488482
299.970817295596
299.9998635052526
299.9951718309772
299.845109611301
300.0757122309208
313.4672424958032
299.9981762843785
299.8266307460411
298.8250430891453
306.0340447323579
299.9994319768855
299.8690545636696
297.9804481985963
298.8141367582886
299.9995678179012
299.9110902142805
297.6548758606053
289.6918166526602
317.6095297172043
302.8615564046174
299.9870994400358
299.9948394793748
313.2687953379483
304.5751833863565
300.2337608572645
300.0030561271824
317.6668066785098
305.5297503851624
300.4320859194131
300.0181748317186
340.1470637740053
309.0033819721189
300.3278519748255
300.0157050208837
300.0029229318388
300.0789915660499
309.8872252295075
391.1996091197929
300.0045985476544
300.1241827031998
312.3724335978224
391.0149390032955
300.0089843437577
300.1698794053828
312.5835834122066
382.5138264879039
299.9998657706144
300.0718725313022
307.7937646383906
360.9174379639943
386.4296003030069
307.9024761208768
300.0649968772536
300.0025654917227
380.9878961065144
306.2543716109724
300.0381747137412
300.0013980582947
375.34548992609
304.9969238068094
300.0333695772887
300.0012887832318
367.5027559213726
303.425950742628
300.0160943008489
300.0006691981165
299.9999532966916
299.9998960254954
300.1013491756838
323.3958090520276
299.9999904127055
300.0012309188068
300.5787749698706
340.7216072240275
300.0001316790166
300.0031878825647
301.2123366544442
351.2340009090195
300.0004387144759
300.011074708244
302.2803431684147
360.1181194579997
299.9999800330238
300.000000354827
300.00000002371
300.0000000690924
299.9997953237344
299.9999846182557
300.0000070403989
300.0000988189755
300.0178241752898
299.9996586841233
300.0029651197004
300.0296809311371
303.030752057421
300.0145513324218
300.2278286978022
300.8479516690522
300.0000056608681
300.0011949071432
300.1570387891152
301.862847579418
300.0000753087076
300.0055290187143
300.4384172395566
303.1028467997804
300.000302657258
300.0120999935669
300.7702635413503
304.6198508974196
300.0006004785232
300.0170249146644
301.0834449116732
306.4841417889833
300.000123996932
300.0030176814123
300.6427505897812
315.805292925217
300.0003262088745
300.0079603643727
301.1646642797121
312.9535884860579
300.0006823808208
300.0158648864266
301.4603356672291
310.430832690887
300.0007548628157
300.0191491467501
301.3474129913689
308.4895221547488
316.3985305708718
300.3650976188615
300.0010305719493
300.0000360091471
314.3346943787635
300.3465474453489
300.0013506755541
300.0000518080751
312.7514909728234
300.1995468230005
300.000447459943
300.0000396418022
310.8609008075679
300.0904761423859
300.0001614728279
300.000006556002
309.3566525046033
299.9251095958404
300
299.9999999988385
308.158030795671
300.0427385937614
300
300.0000000000001
304.901675747481
300.0000621237278
300
300
301.2150005176148
299.9999957502193
300
299.9999999999999
300
299.9999999999999
299.9999999998333
300.0004580179702
300.0000000000002
300
300.0000000018027
300.0020287591709
300
300
300.0000000291899
300.0102673332061
300
300
300.000000739527
300.0177213196843
300.0010563746416
300.0039356155042
300.0178260825072
300.2611432754859
300.0039356446446
300.0050746997483
300.0168005624454
301.0060646289831
300.0178260599033
300.0168005084871
300.3909698205475
306.3280120303523
300.2611432527668
301.0060646103293
306.3280120921491
326.0097195150965
354.9536497896594
335.936591628263
322.748826724139
310.790343047328
351.1136751625134
346.4351616200938
342.0216388754916
333.1777863276531
348.0853776821159
345.9812690588549
343.8956591814341
339.8092025441443
346.4169885943668
345.467552695549
344.8433852199169
342.7574408937203
344.5348852758498
345.1375714517291
345.9674989708334
348.128527227989
344.7431308697968
344.6293753045447
345.2709925693303
347.4794202433459
344.9837342507064
344.1288121061496
344.545182641208
345.8488553908317
345.4855989663731
343.9440644850645
344.2869833922301
342.0881722123816
331.2051751008149
313.2932179210258
304.5308630158147
304.2693413763286
322.1499931930758
305.0553115336161
302.5399635158641
304.9453369374538
311.7770994724505
298.5679520408765
303.5207685860188
306.4510924324092
287.6802067609281
291.3513274264102
302.972493235588
306.0083879331993
303.6089470457584
302.8747256847084
302.390375554103
302.3069149582953
304.5774313629508
303.4204993310821
302.7601355765294
302.3180779694501
305.8067311512578
304.2223156943031
303.2996965275589
302.5863198073805
305.2541093229564
303.6248711068017
302.7078748587292
302.3283085345184
301.5562152279099
300.6748131804758
300.1170574399617
332.4015610451142
301.4112608770158
300.6361021127069
300.1032051554569
349.0572287420677
301.5539262498236
300.7306500395304
300.3575492749952
358.3194359386248
301.2472665002657
300.4255445710539
300.7706337370107
363.7463281251146
409.0909210613005
419.6716686373582
422.4648719634208
424.6514727216266
422.812191706198
425.5349535073755
423.1726755204098
422.4224171594317
425.5932856989604
423.6193878810823
422.3380664027132
419.635498115761
433.9265798196992
427.6114439477476
422.4427990614711
418.3686485546136
425.8124759794045
429.5529033894713
432.2085332173818
434.8865716599119
421.8350161849787
424.3937482710364
426.2933487298304
428.9553032145932
416.6945592612597
418.2694562993113
419.7989128906532
422.3891974344482
414.7650929753735
415.6862200398297
416.8446971395223
419.4649418795044
434.8606746579421
429.6094953763173
417.8890874901341
399.1959694785992
429.4569637205462
425.1491892222404
415.202912585005
415.304495449178
423.2097487468438
420.1533559267844
415.2943225856824
428.3499944475353
420.0666025358486
418.6084553499112
419.4905292892745
409.3305570432369
362.8867329772231
297.3776365938313
207.1232844367271
206.9250544910673
350.4948806660269
261.3583299868097
190.4315631532713
174.2213165050281
316.9812385277907
214.5070953060893
167.0161324716772
157.0907773134991
241.1725012813125
156.7606029713551
166.9630011230698
151.7921013121147
218.4971238435962
225.5701107949619
230.4425175898708
229.8442450057011
182.6394723982291
191.7237649654484
203.0846637279832
219.5741055877992
158.1741780495778
163.9813932336261
184.3109298443685
219.7591924599377
148.6717350114331
152.5148888269266
178.2510659929699
226.3669872227874
265.0032234204367
256.8359399875662
252.8074183214196
257.7038587502635
273.065786765977
268.3412451793131
259.7107005792225
263.7467543409379
266.2419265851158
276.8506730989888
272.6044328350949
278.3360864413242
248.7099297814622
267.4453388019219
272.2834641868434
289.1481629725615
236.5712914628523
212.359169216527
183.2686656843814
199.2548091130595
240.3056959451774
213.7959384571695
184.6839730652255
217.2492351218434
242.287688320091
184.8175553695551
209.5342273387559
208.7497857895691
215.1664627561074
168.4970251591131
203.370673889452
182.3446845678783
173.6251883386892
171.5744333198047
167.9462068260164
166.9742620764269
185.1498062270198
173.7651238486479
172.117620249875
171.3590022485762
215.6652362940691
207.7429278940592
208.9905762772654
210.7166437575953
250.9716749290167
269.1026396142091
261.9775818343001
258.1812047735355
166.9742620764871
171.3590022485733
210.7166437575384
258.1812047730537
167.9462068262619
172.1176202498755
208.9905762773274
261.9775818339977
171.5744333200231
173.7651238488469
207.7429278940959
269.1026396139238
173.6251883388651
185.1498062273382
215.6652362940796
250.9716749289243
199.254809112937
183.2686656840905
212.3591692159957
236.5712914621338
217.2492351218878
184.6839730653732
213.7959384570035
240.3056959447092
208.7497857895743
209.5342273388211
184.8175553693456
242.2876883199155
182.3446845679073
203.3706738893639
168.4970251592042
215.1664627559263
289.1481629724486
272.2834641865874
267.4453388009622
248.7099297799625
278.3360864411393
272.6044328349229
276.8506730982455
266.24192658351
263.7467543406765
259.7107005790623
268.3412451785283
273.065786764493
257.7038587499835
252.8074183212873
256.8359399867233
265.0032234192033
229.8442450052393
230.4425175903372
225.5701107954754
218.4971238432801
219.5741055873115
203.0846637286816
191.7237649661098
182.6394723979086
219.7591924594347
184.3109298448615
163.9813932341008
158.1741780494939
226.3669872219073
178.2510659930864
152.5148888272675
148.6717350114956
206.9250544894059
207.1232844352522
297.3776365937224
362.8867329773501
174.2213165038294
190.4315631520211
261.3583299863516
350.4948806654413
157.0907773126606
167.0161324706374
214.5070953057011
316.9812385275578
151.79210131157
166.9630011207248
156.7606029696832
241.1725012809376
399.1959694785331
417.8890874903242
429.6094953761468
434.8606746580036
415.3044954492726
415.2029125852134
425.1491892223179
429.4569637208657
428.3499944477603
415.2943225859772
420.1533559272146
423.209748747473
409.3305570432728
419.4905292898142
418.6084553504598
420.066602536695
434.8865716598277
432.2085332180208
429.5529033904431
425.8124759800558
428.9553032149366
426.2933487303608
424.3937482716645
421.8350161858559
422.3891974349527
419.7989128911216
418.2694562997505
416.6945592622299
419.4649418802107
416.8446971399316
415.6862200403211
414.765092976741
424.6514727220625
422.4648719618921
419.6716686370827
409.0909210606311
422.4224171599316
423.1726755185048
425.5349535077408
422.8121917045362
419.6354981164566
422.3380664010289
423.6193878806386
425.5932856962074
418.3686485553278
422.4427990601399
427.611443947092
433.9265798164675
332.4015610425006
300.1170574342653
300.6748131821851
301.556215227649
349.0572287388603
300.1032051501869
300.6361021154217
301.4112608760291
358.319435935712
300.3575492731284
300.7306500425732
301.5539262482092
363.746328122305
300.770633737656
300.4255445739474
301.2472664982401
302.3069149581615
302.3903755539492
302.8747256842667
303.608947045245
302.3180779695768
302.7601355762529
303.4204993308008
304.5774313624341
302.5863198075991
303.2996965270542
304.2223156942819
305.8067311506746
302.3283085347835
302.7078748582319
303.6248711070106
305.2541093222822
304.2693413751655
304.5308630155524
313.2932179198958
331.2051751007034
304.945336936519
302.5399635156234
305.0553115323845
322.1499931930738
306.4510924316361
303.5207685857459
298.5679520397962
311.7770994723221
306.0083879323234
302.972493235439
291.3513274252457
287.6802067602033
348.1285272276913
345.9674989711633
345.1375714540732
344.5348852774829
347.4794202426855
345.2709925697031
344.6293753067653
344.7431308702357
345.8488553900113
344.5451826408936
344.1288121077999
344.9837342511024
342.0881722116888
344.2869833914374
343.9440644863386
345.4855989665766
342.7574408924478
339.8092025453587
333.1777863241631
310.7903430521354
344.8433852181117
343.8956591811437
342.0216388756862
322.7488267230223
345.4675526943258
345.9812690578996
346.4351616201742
335.9365916258865
346.4169885935549
348.0853776798435
351.1136751581266
354.9536497889039
287.0826973652906
299.6793831382192
299.996988878333
299.999986512891
290.561048365807
299.7005158330774
299.9959760492659
299.9999746353982
295.2174841000428
299.7240145441759
299.9937970846979
299.9999522769712
299.7989350008247
299.7326839661016
299.9793969340762
299.999845855269
299.9998586169241
299.9849917329369
299.5669613783726
297.175719924207
299.999855846582
299.9843862529125
299.5938416789455
298.3341230462901
299.999843353978
299.9819421198106
299.5980662506997
298.8200070605823
299.9997900921634
299.9736083610296
299.6765637934624
300.0766973109146
299.9998458540325
299.9999522749117
299.9999746300713
299.9999865084803
299.9793969346818
299.9937970847483
299.9959760488333
299.9969888768066
299.7326839654766
299.7240145427085
299.700515834266
299.6793831372934
299.7989349999032
295.2174840981767
290.5610483649173
287.082697365898
)
;

boundaryField
{
    back
    {
        type            empty;
    }
    inlet
    {
        type            zeroGradient;
    }
    front
    {
        type            empty;
    }
    top
    {
        type            zeroGradient;
    }
    outlet
    {
        type            fixedValue;
        value           uniform 300;
    }
    bottom
    {
        type            zeroGradient;
    }
    wall
    {
        type            zeroGradient;
    }
}


// ************************************************************************* //
