/*--------------------------------*- C++ -*----------------------------------*\
  =========                 |
  \\      /  F ield         | OpenFOAM: The Open Source CFD Toolbox
   \\    /   O peration     | Website:  https://openfoam.org
    \\  /    A nd           | Version:  11
     \\/     M anipulation  |
\*---------------------------------------------------------------------------*/
FoamFile
{
    format      ascii;
    class       volScalarField;
    location    "19.5";
    object      p;
}
// * * * * * * * * * * * * * * * * * * * * * * * * * * * * * * * * * * * * * //

dimensions      [0 2 -2 0 0 0 0];

internalField   nonuniform List<scalar> 
5472
(
100.24429
98.117754
96.003018
93.893992
91.824622
89.792742
87.829653
85.941981
84.153246
82.464426
80.90901
79.454041
78.125282
76.967585
75.906645
75.101913
74.41266
73.970734
73.621777
100.91126
98.945944
96.975255
94.997917
93.041219
91.106198
89.19587
87.364606
85.619209
83.954682
82.405386
80.958208
79.647072
78.469863
77.413832
76.587849
75.858698
75.345542
74.949647
101.52416
99.711252
97.88331
96.057105
94.205107
92.352032
90.527666
88.752271
87.041415
85.420417
83.879659
82.460284
81.148003
79.951225
78.918029
78.039195
77.30221
76.770225
76.392435
102.03913
100.40745
98.755642
97.051874
95.306966
93.542349
91.795819
90.092085
88.420463
86.835145
85.338349
83.906089
82.582383
81.416853
80.367406
79.468745
78.745006
78.188965
77.800031
102.50684
101.031
99.518674
97.940503
96.314719
94.660646
92.998374
91.35063
89.742268
88.210528
86.723584
85.308738
84.007413
82.818417
81.778689
80.888113
80.155207
79.578888
79.179885
102.92472
101.5976
100.19456
98.743026
97.22905
95.677796
94.11026
92.543634
90.999434
89.497731
88.056181
86.688431
85.384843
84.208047
83.174514
82.270697
81.544146
80.96459
80.560277
103.2809
102.07362
100.79236
99.458286
98.058523
96.617012
95.133487
93.648043
92.175376
90.726681
89.321508
87.972306
86.698769
85.549942
84.510962
83.615231
82.886855
82.308543
81.891968
103.5788
102.47309
101.31458
100.11093
98.819946
97.466423
96.07342
94.683485
93.287177
91.895137
90.53231
89.21352
87.966421
86.832952
85.814646
84.936452
84.20213
83.623303
83.203365
103.82575
102.80326
101.75667
100.65499
99.47399
98.236668
96.943883
95.632098
94.310214
92.9892
91.678206
90.397337
89.181737
88.067047
87.060657
86.19497
85.46973
84.894958
84.455427
104.02951
103.11572
102.17914
101.16245
100.06989
98.91501
97.717156
96.493411
95.248428
93.998752
92.739582
91.510147
90.342792
89.253299
88.271449
87.413764
86.694476
86.123906
85.707845
104.17406
103.36893
102.5205
101.60052
100.61929
99.548388
98.437693
97.295454
96.134539
94.94317
93.732549
92.549477
91.416751
90.364717
89.412032
88.575092
87.873019
87.301842
86.870329
104.31802
103.60007
102.815
101.96549
101.05859
100.08826
99.076684
98.021777
96.9366
95.81203
94.677663
93.538422
92.452484
91.437281
90.502118
89.680394
88.989262
88.428864
88.017014
104.42065
103.7875
103.0926
102.34349
101.49681
100.58696
99.642589
98.667325
97.655935
96.593878
95.520306
94.442195
93.413276
92.435034
91.535744
90.738117
90.060041
89.502043
89.094714
104.50449
103.91244
103.28159
102.60695
101.85976
101.05199
100.17651
99.265468
98.321438
97.333722
96.31188
95.283666
94.294333
93.359314
92.497954
91.725
91.067264
90.525705
90.127956
104.60701
104.08518
103.50679
102.86474
102.17087
101.42749
100.62499
99.793249
98.91712
97.997887
97.039562
96.074146
95.129691
94.237033
93.404368
92.656789
92.016653
91.490422
91.112414
104.61255
104.15407
103.66938
103.10861
102.47345
101.7834
101.04785
100.27376
99.456207
98.589346
97.687767
96.780868
95.883128
95.038653
94.239835
93.519921
92.899461
92.388273
92.014874
104.68674
104.26881
103.80596
103.28186
102.70788
102.08053
101.41768
100.70856
99.949508
99.134343
98.292517
97.43479
96.589205
95.785202
95.020025
94.329542
93.729023
93.241155
92.877242
104.72901
104.36901
103.95491
103.47947
102.94398
102.3587
101.74252
101.08775
100.38047
99.619111
98.828365
98.019443
97.225158
96.455402
95.730294
95.062909
94.485604
94.018704
93.670285
104.76687
104.43768
104.06432
103.63745
103.15035
102.61332
102.0437
101.43737
100.7794
100.07132
99.325582
98.565478
97.810011
97.076843
96.381904
95.740373
95.185506
94.726694
94.393715
104.8355
104.53788
104.19421
103.7916
103.33381
102.83837
102.30708
101.73802
101.12336
100.45984
99.762798
99.048564
98.334347
97.640957
96.972816
96.362777
95.830518
95.382619
95.048197
104.86516
104.60711
104.30424
103.9412
103.52465
103.06803
102.57118
102.03566
101.45539
100.82413
100.1629
99.483111
98.798242
98.135437
97.498063
96.917479
96.41535
95.998223
95.67723
104.94383
104.69711
104.4106
104.07286
103.68206
103.25546
102.79637
102.29983
101.75557
101.16247
100.53721
99.885874
99.227497
98.57131
97.93593
97.358926
96.85545
96.448063
96.153293
105.00543
104.7969
104.54392
104.23415
103.87122
103.46606
103.02237
102.54213
102.02179
101.46276
100.87337
100.26257
99.652404
99.048714
98.45534
97.906311
97.413374
96.99474
96.67326
105.04585
104.87084
104.65001
104.37723
104.05322
103.68218
103.26497
102.8006
102.28738
101.7217
101.11988
100.4918
99.859262
99.238059
98.644889
98.106022
97.638358
97.269664
96.990609
105.1208
104.96662
104.7716
104.52901
104.23419
103.894
103.51523
103.09829
102.63757
102.13197
101.58385
101.00119
100.40176
99.789755
99.190179
98.620768
98.105026
97.678427
97.353341
105.164
105.05458
104.89737
104.68327
104.40686
104.07027
103.67657
103.23258
102.73727
102.20012
101.62448
101.01903
100.39722
99.78816
99.204296
98.66139
98.198281
97.819599
97.521906
105.20223
105.15874
105.06784
104.9281
104.7352
104.48214
104.16577
103.78252
103.33609
102.82896
102.26432
101.65697
101.00023
100.30707
99.627002
98.999494
98.458814
98.013425
97.679322
73.434666
73.393928
73.504682
73.850889
74.265055
74.881857
75.528553
76.2532
77.039639
77.885547
78.724858
79.639077
80.489004
81.407962
82.266418
83.078253
83.872379
84.519209
85.044096
74.790014
74.772737
74.946456
75.310113
75.813641
76.446182
77.163617
77.982582
78.891679
79.821192
80.770519
81.756017
82.707241
83.689293
84.587853
85.461542
86.256233
86.935591
87.512662
76.177157
76.186012
76.361028
76.751058
77.339858
77.997914
78.822204
79.727906
80.729022
81.722145
82.781106
83.825144
84.876239
85.890043
86.872139
87.77448
88.643629
89.389713
90.069933
77.572666
77.562625
77.755481
78.213738
78.813564
79.557265
80.457657
81.444362
82.498179
83.574303
84.688094
85.795774
86.895022
87.967179
88.995283
89.967239
90.907103
91.757669
92.565514
78.936422
78.925717
79.172908
79.620133
80.269381
81.106356
82.049405
83.103379
84.205697
85.358347
86.509465
87.672104
88.813821
89.933516
91.013216
92.059689
93.064001
94.04323
94.950095
80.275033
80.294006
80.537189
81.006837
81.728544
82.611064
83.618786
84.729242
85.882416
87.083759
88.27021
89.482591
90.663979
91.827982
92.973773
94.075738
95.179589
96.247351
97.246109
81.602979
81.619587
81.847552
82.396474
83.147372
84.082183
85.141949
86.289318
87.493682
88.729269
89.965459
91.220748
92.434114
93.655528
94.840618
96.005253
97.170871
98.28168
99.331902
82.923521
82.925629
83.185535
83.752475
84.525984
85.521339
86.611149
87.811682
89.056404
90.325328
91.604888
92.881481
94.131543
95.389897
96.596187
97.805646
98.97084
100.08564
101.11216
84.168336
84.152157
84.449475
85.051154
85.873559
86.897365
88.030573
89.270407
90.53995
91.844689
93.145862
94.444863
95.720806
96.982769
98.198082
99.387856
100.50472
101.58034
102.52476
85.438258
85.392158
85.721459
86.313882
87.191456
88.234654
89.40593
90.674139
91.969295
93.291376
94.609658
95.915956
97.18718
98.431847
99.608009
100.73397
101.78414
102.73136
103.54113
86.535948
86.557526
86.900138
87.515622
88.434319
89.47988
90.715553
91.991727
93.312465
94.644152
95.958722
97.245862
98.491059
99.680124
100.78769
101.818
102.72227
103.502
104.13145
87.714395
87.7188
88.054516
88.717455
89.630997
90.710678
91.963738
93.243153
94.583762
95.895149
97.184287
98.433017
99.626446
100.73556
101.73289
102.61789
103.36472
103.96695
104.40603
88.79341
88.806644
89.158188
89.847565
90.758961
91.87677
93.126902
94.417349
95.74012
97.013395
98.279642
99.465297
100.56991
101.5639
102.43435
103.178
103.76677
104.22783
104.55982
89.822612
89.84422
90.210985
90.910706
91.827138
92.973303
94.209721
95.495837
96.785377
98.030037
99.233493
100.32354
101.33331
102.20034
102.93884
103.53202
104.00071
104.37524
104.64165
90.819503
90.828924
91.198376
91.903383
92.840031
93.995723
95.209578
96.483536
97.729298
98.912973
100.0276
101.03367
101.93433
102.67124
103.29364
103.75487
104.13139
104.41712
104.62084
91.732957
91.745485
92.128662
92.840022
93.79425
94.929975
96.118418
97.356613
98.53181
99.658824
100.69055
101.59771
102.36569
102.98685
103.489
103.8374
104.11829
104.27081
104.33361
92.595109
92.601693
92.999079
93.713553
94.669925
95.777059
96.95127
98.13867
99.246893
100.30178
101.23351
102.02791
102.66959
103.18328
103.5501
103.78346
103.92242
103.90853
103.82184
93.39231
93.40428
93.811565
94.515687
95.459619
96.536495
97.680646
98.80043
99.844859
100.81275
101.63136
102.31182
102.83907
103.23423
103.46373
103.57631
103.58199
103.49627
103.34453
94.121259
94.148733
94.545969
95.239389
96.182055
97.240083
98.341276
99.389051
100.36506
101.23375
101.94176
102.50844
102.92052
103.19321
103.31263
103.34732
103.30054
103.22501
103.15679
94.780505
94.816816
95.20289
95.897835
96.810829
97.828365
98.879368
99.864009
100.76704
101.52652
102.1392
102.59931
102.91741
103.0979
103.16392
103.17759
103.16437
103.1625
103.16938
95.39715
95.419957
95.807863
96.500842
97.403883
98.407771
99.386991
100.29895
101.10914
101.77293
102.3057
102.6675
102.90631
103.0332
103.09196
103.12512
103.15392
103.19876
103.23385
95.90471
95.942314
96.328656
96.997942
97.866358
98.816242
99.74868
100.62373
101.36101
101.95846
102.41277
102.70608
102.89691
103.00845
103.08485
103.15167
103.2059
103.25417
103.2723
96.384857
96.417939
96.803446
97.497677
98.386326
99.303614
100.18892
100.9598
101.62218
102.14939
102.52259
102.76539
102.91971
103.01283
103.10107
103.16504
103.18725
103.18467
103.11344
96.740375
96.784971
97.162759
97.826725
98.658609
99.561383
100.41601
101.18158
101.80977
102.28435
102.61735
102.82995
102.97739
103.09069
103.15791
103.14862
103.09638
102.96556
102.73003
97.06979
97.118007
97.541665
98.278326
99.16592
100.03957
100.84069
101.52505
102.08249
102.48177
102.73369
102.89085
102.97924
103.00256
102.9512
102.85145
102.67412
102.38661
102.04007
97.260304
97.308727
97.720666
98.4207
99.268523
100.15042
100.96522
101.66764
102.20261
102.57758
102.83818
103.00381
103.06288
103.03163
102.89919
102.66439
102.30862
101.87635
101.43031
97.395401
97.487978
98.039923
98.890383
99.847224
100.76231
101.54461
102.14249
102.5571
102.80608
102.91849
102.90954
102.77936
102.55638
102.24831
101.86405
101.44742
101.03789
100.6702
85.447027
85.670265
85.717288
85.598244
85.213059
84.538134
83.757493
82.610105
81.052217
79.268098
77.204717
74.717414
72.124679
69.479824
66.935707
65.010726
63.901929
64.074382
66.344335
87.948071
88.20996
88.328629
88.311229
88.105213
87.658956
87.072469
86.339558
85.217491
83.900651
82.498605
80.781451
78.828516
76.78623
75.084683
73.755649
72.958746
73.371303
75.007068
90.600409
90.961465
91.177454
91.225563
91.097864
90.80869
90.459795
89.90423
89.069463
88.283839
87.141002
85.702522
84.225754
82.668926
81.218066
79.782609
78.72542
78.444726
79.193674
93.22158
93.7237
94.006042
94.131913
94.128057
94.010792
93.864672
93.510565
93.008917
92.304213
91.315217
90.193791
88.57278
86.778067
85.061619
83.141996
81.378936
80.011295
79.087927
95.76097
96.355942
96.715616
96.935637
97.012783
97.046107
97.082789
96.828667
96.428771
95.763025
94.768669
93.278352
91.472409
89.558076
87.032623
83.931819
80.945837
78.393205
76.191984
98.161312
98.807678
99.195723
99.43339
99.59793
99.746182
99.798442
99.655425
99.254217
98.49404
97.356611
95.802629
93.865769
91.094015
87.349784
83.145984
78.80026
74.433999
70.115425
100.27036
100.92868
101.28859
101.56818
101.80595
102.05932
102.18807
102.08816
101.67627
100.96221
99.763328
98.018823
95.368265
91.447997
86.376495
80.360932
73.415087
65.542659
57.13353
102.03143
102.6482
103.00718
103.34512
103.67547
104.01281
104.16863
104.12112
103.81749
103.042
101.61625
99.40498
95.707257
90.545191
84.497346
77.640431
69.323936
59.215934
47.479631
103.36797
103.90406
104.27781
104.64444
105.03813
105.38516
105.58382
105.58701
105.23413
104.34649
102.85214
100.46228
96.618392
91.721025
86.146275
79.70051
72.008048
62.938296
52.417492
104.23898
104.67687
105.02128
105.3402
105.68944
105.94621
106.09115
106.03787
105.61738
104.82763
103.52284
101.56508
98.440391
94.58474
90.001535
84.648493
78.53318
71.64508
64.077104
104.63713
104.99138
105.26464
105.49789
105.73501
105.86963
105.91906
105.8085
105.49669
104.98611
104.0078
102.57133
100.35729
97.401632
93.829385
89.668748
85.107808
80.426991
75.724202
104.79374
105.0877
105.29353
105.47042
105.63635
105.70899
105.68172
105.60106
105.5895
105.15151
104.40009
102.95507
100.99096
98.477
95.668643
92.626845
89.44214
86.461841
84.067174
104.88797
105.13836
105.3029
105.4805
105.61454
105.68723
105.67894
105.38124
105.2428
104.78404
103.6746
101.86442
99.565285
97.018168
94.493869
92.217532
90.124181
88.295191
87.020896
104.92098
105.09378
105.21178
105.31245
105.256
105.00792
104.42361
105.17729
104.01834
102.45859
100.38489
97.769927
94.870642
92.02058
89.698879
88.078968
87.090052
86.695781
86.863635
104.80515
104.9228
105.08702
105.19345
105.16171
104.94113
104.27108
103.32432
100.85564
97.663507
94.333695
90.467538
86.720462
83.38427
81.190436
80.444143
80.806016
82.044073
83.932398
104.30587
104.38717
104.54259
104.60069
104.49088
104.19881
103.47638
102.18752
100.92391
95.844708
88.508491
80.375755
73.179797
67.198495
62.227566
59.422699
60.220679
64.24779
70.20394
103.59524
103.5927
103.63321
103.52379
103.23188
102.72451
101.84451
100.41286
97.657128
92.910477
86.740669
79.200951
70.109289
61.367414
53.751704
48.607121
47.618608
52.633195
60.455333
103.06295
103.01962
102.97439
102.77702
102.3649
101.76861
100.87625
99.57393
97.580779
94.405469
89.985908
84.401531
78.0683
71.727348
66.411867
63.136694
62.730115
65.422859
70.519277
103.04907
103.03643
102.98808
102.84611
102.57919
102.22494
101.74994
101.04128
99.995617
98.517887
96.406472
93.647219
90.425139
86.933077
83.649718
81.03753
79.605359
79.718009
81.248822
103.21581
103.28876
103.3338
103.28181
103.21769
103.11468
102.97891
102.6827
102.23736
101.60047
100.64415
99.380418
97.728948
95.709269
93.659601
91.769702
90.032285
88.743542
88.171202
103.39458
103.53336
103.58258
103.61868
103.71704
103.8083
103.87259
103.82969
103.67599
103.38475
102.94703
102.2663
101.10528
99.696002
98.223599
96.429959
94.545554
92.814753
91.0734
103.4156
103.52601
103.59949
103.74397
103.87384
104.01633
104.11945
104.12582
104.16525
103.79047
102.88055
102.03402
101.27011
100.11068
98.17739
95.482247
92.299757
88.848718
85.573668
103.13634
103.20583
103.33629
103.50172
103.65203
103.77712
103.94407
103.99697
103.91325
103.91352
103.53014
102.19975
101.67514
100.56792
98.968879
96.809313
94.138018
91.035086
87.724847
102.49873
102.57007
102.74929
102.86521
102.98933
103.09218
103.19378
103.17346
103.00867
102.8519
101.27407
100.24442
99.826152
99.111499
98.156614
96.928316
95.548024
94.163614
93.012258
101.70648
101.75831
101.86125
101.93296
101.99079
102.01091
102.06162
102.10063
102.03419
102.31507
102.10609
101.00276
98.661002
96.028795
94.141254
93.299995
93.235159
93.847578
95.033078
101.02667
100.93321
100.91316
100.88115
100.79563
100.68023
100.54655
100.31722
100.04226
99.256066
98.007504
96.831194
96.05275
95.58597
94.820833
94.296071
94.21604
94.604214
95.425161
100.36228
100.32311
100.27151
100.18082
100.06016
99.914656
99.725404
99.459075
99.130359
98.652835
97.895372
97.192063
96.760172
96.583238
96.50317
96.498637
96.699847
97.156588
97.83557
70.893727
76.952838
84.145222
92.221592
100.38263
107.76482
114.30973
119.45152
122.48738
123.61406
122.62211
119.85616
116.91795
113.70668
110.51391
107.54068
104.56438
101.93039
99.426782
77.897321
82.129032
87.637984
94.043065
100.85114
107.59581
113.78269
118.45611
121.08775
122.08769
122.11953
120.24503
118.13491
115.55633
112.75607
110.15415
107.5363
105.08282
102.73296
80.843892
83.487227
87.389051
92.442185
98.245222
104.31539
110.07845
114.777
117.8169
119.56909
120.38758
119.57296
118.21218
116.47455
114.31588
112.15779
109.94845
107.80563
105.68518
79.067906
80.324621
83.179906
87.20213
91.961583
97.370329
103.16403
108.4674
112.62807
115.85466
117.45922
117.95414
117.46091
116.3547
114.84315
113.13412
111.31758
109.50298
107.67896
74.740979
74.292265
74.80681
76.865175
80.745458
86.068534
92.431904
98.875135
104.69532
109.38832
112.58555
114.33643
114.78896
114.81685
114.02419
112.87848
111.49559
110.07077
108.57971
66.129137
62.921464
61.125854
61.638668
64.499264
69.477488
76.860793
85.431017
93.363444
100.06514
105.24433
108.97246
111.33124
112.25849
112.17839
111.59762
110.66755
109.63974
108.59747
48.852714
41.481641
36.752283
36.173273
39.862929
47.165079
56.938995
68.208334
79.184126
89.094724
96.508959
101.94676
106.57277
108.8239
109.36706
109.38004
108.95116
108.32393
107.73967
34.206482
20.697348
10.113047
5.9865643
9.6201355
20.269298
34.793964
50.784566
66.262761
80.215923
91.253649
97.425331
101.17935
104.0318
105.56001
106.32577
106.47783
106.34697
106.16724
40.447674
28.082443
17.851294
12.747622
13.593416
20.481218
31.945062
45.763954
59.727671
72.209239
82.453901
90.132567
95.661842
99.411787
101.77701
103.23275
103.9446
104.25249
104.46844
56.279102
49.021347
43.618336
41.533772
43.074922
47.622593
54.668442
63.014293
71.446079
79.165968
85.707896
90.964839
94.984966
97.951478
100.07523
101.52458
102.39313
102.83187
103.21641
71.322592
67.739673
65.732296
65.783563
68.032329
71.464947
75.276778
79.755437
84.280042
88.411314
91.930359
94.801735
97.046619
98.865231
100.28875
101.34056
102.05873
102.4355
102.73135
82.222835
80.898018
80.186622
80.170983
81.093508
83.433997
86.313172
89.11304
91.756563
94.120712
96.166455
97.864072
99.162361
100.25901
101.16198
101.86682
102.36074
102.6524
102.84452
86.671849
87.01219
87.620804
88.493962
89.743027
91.327159
93.014281
94.683123
96.349655
97.802113
99.04037
100.09464
100.88226
101.54512
102.10806
102.58277
102.91844
103.10223
103.18114
87.566676
88.866111
90.412771
91.959634
93.531416
95.248522
96.796841
97.987673
99.102515
100.10002
100.93523
101.67496
102.2029
102.61824
102.9748
103.26129
103.50645
103.64413
103.63207
86.063963
88.463479
90.886498
93.011134
94.852727
96.622973
98.331504
99.526552
100.46767
101.38015
102.07692
102.6343
103.06766
103.36613
103.64184
103.83723
103.98253
104.08981
104.05721
76.486817
82.328011
87.342396
91.232307
94.161629
96.645471
98.764362
100.21662
101.2446
102.08132
102.82234
103.37047
103.76035
104.00166
104.17701
104.32545
104.40945
104.44355
104.35976
69.248986
77.707803
84.927215
90.441593
94.221035
96.728868
98.994992
101.26649
102.7024
103.35983
103.81348
104.23822
104.5502
104.7317
104.82026
104.84191
104.87085
104.83998
104.70866
76.586686
82.669647
88.305823
93.045804
96.773448
99.786164
101.99007
102.75319
102.53571
103.14909
104.43485
105.07637
105.29909
105.34705
105.33997
105.26629
105.20652
105.14831
104.98918
83.752952
86.804759
90.069307
93.210537
95.979108
98.376866
100.35091
101.92524
103.13147
104.06841
104.69753
104.98728
105.32421
105.51855
105.4864
105.41084
105.27842
105.18852
105.06775
88.399421
89.265405
90.729789
92.528914
94.342142
96.199739
97.801425
99.119478
100.49583
102.37154
104.4455
104.92558
105.2595
105.41549
105.39451
105.29195
105.12248
104.956
104.85063
89.451459
88.142327
87.460154
87.51174
88.16154
89.482745
91.455698
94.732211
99.266222
102.32752
103.94746
104.29698
104.60735
104.66649
104.66214
104.59944
104.47727
104.32125
104.21987
82.945211
81.38007
81.213099
82.381335
84.689903
87.945942
91.344621
94.527584
97.500295
100.01496
101.86077
102.80207
103.18628
103.41921
103.56038
103.63569
103.6356
103.58928
103.5792
84.679895
82.629074
81.994296
82.674015
84.681089
87.84502
91.522187
95.051612
97.956456
100.0421
101.30266
102.03312
102.46552
102.76277
102.92705
103.0395
103.07026
103.0789
103.12518
92.346717
92.450295
93.517417
95.443147
97.498821
99.054657
100.27102
101.39148
102.16233
102.55907
102.78824
102.87796
102.88459
102.91931
102.89884
102.91118
102.88482
102.83118
102.83247
96.547373
98.044559
99.441665
100.57598
101.36275
101.91614
102.34891
102.76845
103.04372
103.00632
102.91737
102.86668
102.80899
102.75743
102.72133
102.68048
102.62949
102.57605
102.55554
96.532288
98.186271
99.169922
99.932868
100.9202
101.7987
102.27115
102.53606
102.87889
102.96574
102.89636
102.80204
102.66128
102.50515
102.39506
102.30296
102.20324
102.02691
101.90963
98.660755
99.524677
100.29664
100.91876
101.4257
101.83894
102.24232
102.64128
102.80149
102.59015
102.35101
102.13155
101.90321
101.73777
101.59021
101.50344
101.43933
101.31992
101.21566
97.051014
94.861279
92.739687
90.806111
88.9985
87.322714
85.816716
84.410615
83.187022
82.086461
81.127801
80.28699
79.545433
78.93423
78.437116
78.079457
77.831748
77.747067
77.78886
100.39214
98.137214
95.943979
93.903027
91.992975
90.191811
88.510164
86.939691
85.509409
84.213458
83.061166
82.040076
81.134179
80.389726
79.791289
79.356488
79.06432
78.955183
79.005125
103.43536
101.21606
99.000882
96.876778
94.865472
92.937266
91.109241
89.388329
87.792705
86.317991
84.98851
83.80993
82.761455
81.8758
81.173337
80.654253
80.315998
80.1705
80.231136
105.66294
103.58973
101.49688
99.395832
97.36843
95.384196
93.47666
91.65909
89.939295
88.347469
86.876909
85.548508
84.381516
83.379525
82.571525
81.968895
81.578031
81.386287
81.44179
106.91375
105.13377
103.27788
101.35092
99.408631
97.476081
95.559652
93.718194
91.929546
90.24603
88.681112
87.24156
85.962352
84.869478
83.96009
83.263576
82.82733
82.610212
82.635278
107.37097
105.97332
104.43103
102.77201
101.01339
99.222524
97.383455
95.557348
93.764989
92.036087
90.408173
88.890771
87.51091
86.320646
85.340362
84.56719
84.061571
83.823406
83.839041
107.09291
106.2004
105.06201
103.72589
102.21686
100.60801
98.924294
97.178483
95.426622
93.686448
92.024076
90.4534
89.010599
87.735165
86.682736
85.85581
85.287685
85.00328
85.02922
106.13406
105.80033
105.15369
104.19129
103.02835
101.65904
100.15791
98.558444
96.901646
95.198199
93.532187
91.937578
90.447272
89.113512
87.988694
87.105534
86.51592
86.176906
86.188647
104.84062
104.95049
104.7849
104.22674
103.44037
102.36455
101.09076
99.674937
98.15336
96.545335
94.909499
93.318561
91.807145
90.427265
89.258531
88.309302
87.692207
87.331307
87.316895
103.71881
104.0378
104.1595
103.96356
103.50838
102.75504
101.76258
100.55461
99.185975
97.708128
96.15082
94.5848
93.078813
91.674398
90.477778
89.488914
88.830048
88.476282
88.424358
103.11985
103.38852
103.55671
103.58336
103.36515
102.88609
102.17253
101.20457
100.02999
98.692682
97.240152
95.73432
94.258545
92.855119
91.623207
90.620226
89.902409
89.553056
89.489542
103.03973
103.11823
103.21157
103.28685
103.17357
102.88256
102.37774
101.63857
100.67966
99.504141
98.178285
96.759588
95.330266
93.963727
92.70909
91.69671
90.944473
90.592298
90.542797
103.21401
103.16575
103.15554
103.15545
103.05835
102.8641
102.48504
101.92141
101.1384
100.14898
98.9816
97.668938
96.290523
94.979617
93.741807
92.717755
91.948854
91.557743
91.532552
103.52068
103.3996
103.29888
103.20718
103.07417
102.89247
102.57807
102.1394
101.49073
100.66383
99.652426
98.462953
97.153564
95.896888
94.689708
93.675461
92.917083
92.481402
92.480165
103.88957
103.71344
103.53689
103.3811
103.19108
102.99405
102.70279
102.31967
101.76669
101.0809
100.20924
99.133823
97.917858
96.732832
95.565747
94.555244
93.836369
93.390881
93.352224
104.17889
104.0343
103.83322
103.62305
103.38372
103.15717
102.86145
102.50791
102.0265
101.44047
100.67181
99.699402
98.599092
97.466371
96.37012
95.369682
94.659195
94.246539
94.179336
104.45126
104.30261
104.11048
103.89226
103.63255
103.36941
103.06011
102.71471
102.28394
101.757
101.07437
100.18344
99.211969
98.12829
97.094726
96.147862
95.41216
95.035083
94.96346
104.6929
104.53575
104.33586
104.12556
103.87657
103.59991
103.28661
102.93756
102.53988
102.02142
101.41809
100.60731
99.723174
98.73524
97.725412
96.847663
96.119568
95.745989
95.692428
104.85177
104.72502
104.53115
104.31866
104.09276
103.83069
103.53193
103.17197
102.79655
102.29904
101.73407
101.01861
100.17436
99.280979
98.321007
97.472822
96.789311
96.402487
96.366108
104.78804
104.75553
104.63069
104.45193
104.25658
104.00732
103.7368
103.39599
103.00986
102.55419
101.99963
101.35723
100.5656
99.725791
98.844536
98.012618
97.372746
96.996331
96.971245
104.39865
104.50572
104.53896
104.47007
104.35026
104.15116
103.90872
103.61358
103.23996
102.82428
102.30919
101.70875
100.97095
100.14983
99.330173
98.531243
97.919392
97.557671
97.527646
103.84833
104.0737
104.27085
104.34431
104.32169
104.21708
104.0196
103.76058
103.41467
102.99937
102.49065
101.90874
101.2675
100.48707
99.706202
98.951435
98.352465
98.015432
97.989177
103.34694
103.5736
103.81911
104.0257
104.1212
104.13557
104.05391
103.88007
103.61476
103.26325
102.8287
102.274
101.63302
100.89696
100.10248
99.372371
98.798184
98.462516
98.440213
102.99574
103.25343
103.49318
103.74179
103.94151
104.04563
104.05028
103.93705
103.72182
103.3908
102.96077
102.43464
101.81363
101.1172
100.36203
99.636158
99.09983
98.780669
98.748957
102.63801
102.8808
103.11026
103.3224
103.53835
103.72324
103.84494
103.86664
103.7739
103.55681
103.22528
102.77294
102.19257
101.49718
100.74333
100.03768
99.440871
99.106093
99.072873
102.21386
102.60076
102.92805
103.23096
103.49107
103.69467
103.84175
103.91169
103.86947
103.6846
103.33843
102.86456
102.28819
101.62534
100.86698
100.14458
99.604432
99.283807
99.225364
101.59608
101.86286
102.17506
102.51635
102.85929
103.16905
103.43987
103.65083
103.75676
103.77591
103.6582
103.29877
102.75307
102.08488
101.31929
100.51343
99.854615
99.447752
99.391105
78.038642
78.458672
78.949536
79.641203
80.444321
81.432913
82.571238
83.822841
85.208443
86.738025
88.349978
90.052236
91.840272
93.692404
95.594776
97.543238
99.537689
101.55116
103.53745
79.227515
79.637315
80.173135
80.901409
81.747253
82.74207
83.880336
85.125905
86.504315
88.014964
89.600027
91.258551
92.993548
94.770827
96.591087
98.457217
100.31278
102.1599
104.00097
80.456541
80.878024
81.426353
82.147569
83.022639
84.024508
85.166298
86.414592
87.778667
89.260264
90.820905
92.440581
94.112573
95.823757
97.561745
99.308717
101.00243
102.71022
104.44125
81.690557
82.100766
82.672888
83.385237
84.267923
85.283517
86.419593
87.666801
89.021766
90.475182
92.005539
93.593386
95.193396
96.815664
98.443066
100.06938
101.67127
103.25467
104.80397
82.911213
83.312636
83.887697
84.624346
85.500874
86.517156
87.648146
88.881778
90.214937
91.64412
93.128792
94.666943
96.205626
97.73557
99.263363
100.7635
102.25958
103.72423
105.1372
84.10975
84.533667
85.111982
85.847232
86.713208
87.718132
88.831331
90.05849
91.360004
92.754643
94.204022
95.678796
97.161216
98.598701
100.00964
101.39805
102.78379
104.11655
105.37205
85.287434
85.706515
86.276082
87.019531
87.88798
88.890066
89.98871
91.187712
92.469097
93.815863
95.215434
96.625137
98.031836
99.378848
100.70127
101.9729
103.20205
104.41266
105.58937
86.460468
86.871925
87.450103
88.178841
89.035899
90.023033
91.108186
92.26107
93.519647
94.823498
96.164561
97.50246
98.815198
100.07018
101.28245
102.4477
103.59486
104.71163
105.76403
87.599996
88.001024
88.577214
89.297052
90.143309
91.103666
92.171936
93.298952
94.510748
95.761051
97.046641
98.30826
99.533665
100.70408
101.82833
102.91082
103.93704
104.93633
105.87732
88.706407
89.099887
89.675986
90.368599
91.206163
92.148582
93.185084
94.281584
95.444464
96.63781
97.846684
99.045099
100.1945
101.28314
102.28866
103.27418
104.22614
105.12702
105.98099
89.781925
90.171867
90.72098
91.407515
92.22965
93.152422
94.153485
95.209145
96.310677
97.459196
98.595939
99.715698
100.77624
101.77992
102.7195
103.61201
104.45869
105.27771
106.04024
90.818986
91.20202
91.737817
92.418855
93.208822
94.095781
95.052974
96.079557
97.130601
98.217146
99.280516
100.31951
101.31148
102.23483
103.08863
103.89366
104.65905
105.38663
106.07644
91.801576
92.178963
92.696112
93.345261
94.10433
94.980639
95.905229
96.889359
97.888209
98.903726
99.904226
100.86691
101.78172
102.62234
103.40711
104.1418
104.83051
105.48057
106.08953
92.741312
93.115521
93.610794
94.246824
94.99361
95.830008
96.718609
97.644993
98.584468
99.52542
100.45468
101.34382
102.18898
102.96622
103.69022
104.3631
104.98251
105.55378
106.08249
93.618411
93.988479
94.472602
95.080909
95.796135
96.586591
97.443357
98.319302
99.20956
100.09333
100.96494
101.80072
102.58522
103.29068
103.93405
104.5269
105.07939
105.59714
106.06981
94.455071
94.810595
95.289152
95.867319
96.556361
97.312172
98.132244
98.96788
99.801655
100.62428
101.42547
102.1839
102.89271
103.53758
104.13027
104.68074
105.17769
105.63965
106.0711
95.238968
95.581252
96.040616
96.599258
97.256484
97.976669
98.748631
99.537347
100.31681
101.0769
101.81185
102.51923
103.18359
103.79146
104.33659
104.82596
105.25954
105.6644
106.04396
95.961847
96.295546
96.736613
97.273787
97.900142
98.586845
99.314878
100.05885
100.79289
101.50718
102.18725
102.84283
103.45647
104.00796
104.489
104.91958
105.31038
105.68046
106.02605
96.628218
96.952658
97.377109
97.891755
98.489033
99.139626
99.824912
100.5309
101.21791
101.8845
102.51079
103.10633
103.66841
104.17521
104.62474
105.02855
105.39262
105.72703
106.03419
97.228012
97.543432
97.953547
98.446223
99.015312
99.632901
100.29116
100.95885
101.59932
102.21516
102.80065
103.3581
103.88342
104.35448
104.76819
105.1384
105.46752
105.7619
106.03025
97.780179
98.083604
98.479957
98.957666
99.504367
100.10262
100.71489
101.33574
101.9401
102.51658
103.06849
103.59167
104.07646
104.51057
104.89081
105.22394
105.52334
105.79775
106.0474
98.24544
98.541648
98.924923
99.393233