/*--------------------------------*- C++ -*----------------------------------*\
  =========                 |
  \\      /  F ield         | OpenFOAM: The Open Source CFD Toolbox
   \\    /   O peration     | Website:  https://openfoam.org
    \\  /    A nd           | Version:  11
     \\/     M anipulation  |
\*---------------------------------------------------------------------------*/
FoamFile
{
    format      ascii;
    class       surfaceScalarField;
    location    "2.6";
    object      phi;
}
// * * * * * * * * * * * * * * * * * * * * * * * * * * * * * * * * * * * * * //

dimensions      [0 3 -1 0 0 0 0];

internalField   nonuniform List<scalar> 
8667
(
15.889459
1.8138938
0.074425417
13.992172
1.7112067
0.18608024
12.088409
1.6045005
0.29926163
10.184094
1.582915
0.32139997
8.2832674
1.5280354
0.37279158
6.3944501
1.5138045
0.37501281
4.4901137
1.5059485
0.39838791
2.6437279
1.4865022
0.35988364
1.5303322
0.28506131
0.82833438
15.888969
3.7027029
13.989285
3.6108912
12.083482
3.510303
10.175536
3.490861
8.2791545
3.4244171
6.3808385
3.4121206
4.4902745
3.3965125
2.6390402
3.3377364
3.3660662
0.80330623
15.888694
5.5917866
13.987657
5.5119285
12.07984
5.4181201
10.171547
5.3991536
8.2727617
5.3232026
6.3693689
5.3155134
4.4782317
5.2876496
2.6286955
5.1872726
5.2114412
0.78332049
15.888571
7.4809932
13.987389
7.4131115
12.077988
7.3275202
10.167136
7.310006
8.2654894
7.2248492
6.3621766
7.2188263
4.4626049
7.1872214
2.601722
7.0481555
7.0546118
0.75855138
15.888555
9.3702138
13.987041
9.3146263
12.076226
9.2383347
10.166215
9.2200171
8.2611181
9.1299461
6.3525379
9.1274064
4.4541024
9.0856569
2.5865501
8.9157078
8.9007469
0.74041511
15.888259
11.259733
13.987267
11.215618
12.076759
11.148843
10.166251
11.130525
8.2592178
11.036979
6.3431735
11.043451
4.4354444
10.993386
2.5560861
10.795066
10.736392
0.72044062
15.887875
13.149637
13.987957
13.115535
12.079043
13.057757
10.166598
13.04297
8.2577293
12.945848
6.3400652
12.961115
4.4303257
12.903125
2.5391455
12.686246
12.580538
0.69500002
15.887781
15.039633
13.988483
15.014834
12.082149
14.964091
10.171252
14.953867
8.2559044
14.861196
6.3286649
14.888354
4.4119659
14.819824
2.5048736
14.593339
14.413037
0.67237461
15.888452
16.928959
13.99069
16.912596
12.085718
16.869063
10.173465
16.86612
8.2575642
16.777097
6.327875
16.818043
4.4066238
16.741076
2.481972
16.51799
16.262091
0.63291802
18.755669
15.951068
20.581065
15.952382
22.405279
15.95357
24.228703
15.954357
26.050806
15.955657
27.871621
15.956965
29.691718
15.957684
31.507827
15.961671
15.965325
33.320281
18.746967
14.116696
20.579475
14.119874
22.410967
14.122078
24.240034
14.12529
26.066242
14.129449
27.890243
14.132963
29.713772
14.134155
31.542101
14.133342
14.131059
33.376368
18.711386
12.274373
20.551417
12.279843
22.390669
12.282826
24.22909
12.286869
26.067849
12.290689
27.903649
12.297163
29.732508
12.305296
31.552318
12.313532
12.322103
33.361274
18.717827
10.422667
20.571943
10.425727
22.423713
10.431056
24.274705
10.435878
26.1248
10.440594
27.978031
10.443932
29.846555
10.436772
31.71336
10.446728
10.446914
33.588549
18.645225
8.5545385
20.51473
8.5562217
22.39187
8.5539156
24.266825
8.5609229
26.144188
8.5632304
28.013075
8.575045
29.867607
8.5822396
31.723516
8.5908189
8.6004392
33.569991
18.706304
6.6662784
20.601816
6.6607089
22.509164
6.6465681
24.42806
6.6420265
26.358609
6.6326815
28.30283
6.6308241
30.25309
6.6319796
32.211203
6.6327058
6.6345619
34.17708
18.625714
4.7816405
20.529837
4.7565851
22.443263
4.7331429
24.377337
4.707952
26.311799
4.69822
28.26153
4.6810925
30.208022
4.6854875
32.161834
4.6788947
4.6968687
34.099527
18.453702
2.8459292
20.454009
2.7562777
22.507629
2.6795229
24.621166
2.5944147
26.755139
2.5642473
28.920758
2.5154733
31.097595
2.5086505
33.28204
2.4944501
2.5139572
35.464951
18.176736
0.93128401
20.276829
0.6561853
22.533976
0.42237506
24.826595
0.30179617
27.174639
0.21620287
29.518745
0.17136747
31.797906
0.2294898
33.943749
0.34860726
36.127784
0.32992169
33.197767
0.1225141
33.075632
0.12213485
32.955951
0.11968128
32.837397
0.1185543
32.722528
0.1148684
32.608982
0.11354666
32.500707
0.1082745
32.3938
0.10690659
0.099272895
32.294528
33.267188
0.23169354
33.160732
0.2285908
33.057463
0.22295076
32.956581
0.21943576
32.860848
0.21060215
32.770136
0.2042582
32.68345
0.19496091
32.603984
0.18637225
0.17586825
32.527389
33.257983
0.33498445
33.162289
0.32428478
33.070178
0.31506139
32.986376
0.3032373
32.905523
0.29145586
32.835126
0.27465529
32.766397
0.26368932
32.710119
0.24265003
0.23271489
32.653273
33.513976
0.40955775
33.448185
0.3900752
33.384833
0.37841356
33.330256
0.35781451
33.275039
0.34667245
33.22771
0.32198518
33.180942
0.31045696
33.142028
0.28156417
0.27075074
33.103992
33.513234
0.46631468
33.465405
0.43790406
33.420713
0.42310518
33.385212
0.39331568
33.35376
0.37812446
33.330342
0.34540304
33.310399
0.33039995
33.296569
0.29539447
0.28135824
33.285962
34.161375
0.48201974
34.154332
0.44494774
34.148571
0.42886612
34.145816
0.3960705
34.143149
0.38079141
34.139246
0.34930587
34.134741
0.33490483
34.124831
0.30530441
0.29354891
34.112641
34.116785
0.46476136
34.131993
0.42973962
34.149881
0.41097792
34.166253
0.37969922
34.188896
0.3581481
34.2108
0.3274023
34.239693
0.30601107
34.26127
0.28372777
0.27194602
34.282873
35.586464
0.34324814
35.69925
0.31695396
35.825429
0.28479923
35.947983
0.2571451
36.073806
0.23232521
36.175722
0.22548579
36.256404
0.22532914
36.283894
0.25623845
0.29885126
36.256988
36.350243
0.12078975
36.650795
0.016401404
36.939926
-0.0043317816
37.191824
0.0052475487
37.371334
0.052815127
37.450984
0.14583575
37.356565
0.31974795
37.141758
0.4710455
36.847349
0.59326052
36.588671
0.6800209
-0.4213437
36.131366
0.63151996
-0.17421451
35.623611
0.58060686
-0.072852142
35.179048
0.53759911
-0.093035448
34.798857
0.51483784
-0.13464759
34.482671
0.50400153
-0.18781556
34.235675
0.48933326
-0.24233678
34.017913
0.48880909
-0.27104706
0.4862927
33.811434
-0.2798133
36.317812
0.61919753
36.320517
0.62881413
36.264352
0.63677276
36.15791
0.64404076
36.023152
0.64959546
35.873464
0.6536902
35.705665
0.65713141
35.531628
0.66284611
0.66918196
35.348739
34.419275
0.48279495
34.542227
0.50586291
34.648276
0.53072326
34.740697
0.55161971
34.815124
0.57516897
34.872486
0.59632833
34.908031
0.62158639
34.92789
0.64298655
0.66882476
34.928247
34.220904
0.37453195
34.332619
0.39414759
34.435117
0.42822531
34.539601
0.44713614
34.632768
0.48200153
34.727817
0.50127955
34.812093
0.53731048
34.897229
0.55784984
0.59636664
34.969688
33.401028
0.25946536
33.520801
0.27437433
33.63907
0.30995652
33.761519
0.32468731
33.880193
0.36332725
34.003477
0.37799625
34.121676
0.4191114
34.24555
0.4339758
0.47744089
34.364476
33.196663
0.16679417
33.293282
0.17775552
33.395472
0.20776644
33.501131
0.21902837
33.610598
0.25385976
33.723755
0.26483991
33.83922
0.30364575
33.959444
0.31375201
0.35601795
34.080867
32.736806
0.083260635
32.818973
0.095588969
32.916076
0.11066303
33.012914
0.12219061
33.122118
0.1446561
33.235033
0.15192509
33.355308
0.18337035
33.482666
0.18639403
0.22414371
33.61454
32.583569
0.027080372
32.641977
0.037180892
32.711979
0.040661258
32.784451
0.049717911
32.869958
0.059149525
32.95791
0.063973317
33.061559
0.079720854
33.167907
0.080046288
0.10072518
33.291326
32.321608
32.358789
32.39945
32.449168
32.508318
32.572291
32.652012
32.732058
32.832783
32.934398
-0.10161478
33.057154
-0.12275601
33.182015
-0.12486068
33.332005
-0.14999001
33.484087
-0.1520821
33.6605
-0.17641275
33.84523
-0.18473094
34.053551
-0.20832054
-0.21659261
34.270144
33.416749
-0.22703847
33.561615
-0.26762149
33.70749
-0.27073639
33.874233
-0.31673255
34.041233
-0.31908257
34.232292
-0.36747141
34.423213
-0.37565186
34.640218
-0.42532508
-0.43321155
34.856837
33.753448
-0.36594667
33.898175
-0.4123484
34.049381
-0.421942
34.206053
-0.47340436
34.370305
-0.4833346
34.5443
-0.54146622
34.720472
-0.55182415
34.912101
-0.61695381
-0.62997706
35.108866
34.208433
-0.4935128
34.336904
-0.54081906
34.473967
-0.55900542
34.611874
-0.6113112
34.761111
-0.63257181
34.911911
-0.69226556
35.075895
-0.71580865
35.242865
-0.78392367
-0.81008428
35.422972
34.489759
-0.61879613
34.609553
-0.66061316
34.735801
-0.68525347
34.855676
-0.73118602
34.982855
-0.7597507
35.101652
-0.81106277
35.229908
-0.84406492
35.348199
-0.90221419
-0.93806959
35.476184
35.042796
-0.69190444
35.101945
-0.71976256
35.162949
-0.74625703
35.209404
-0.77764127
35.259203
-0.80954914
35.295091
-0.84695119
35.336797
-0.88577095
35.365516
-0.9309328
-0.97572244
35.403168
34.916136
-0.67979316
34.88814
-0.69176694
34.851452
-0.70956825
34.804156
-0.73034529
34.752596
-0.75798952
34.696851
-0.79120632
34.641897
-0.83081701
34.58353
-0.87256598
-0.91833678
34.526145
35.164515
-0.4955685
34.970225
-0.49747727
34.771443
-0.51078653
34.570215
-0.52911746
34.373693
-0.56146724
34.177683
-0.59519682
33.988003
-0.64113673
33.799514
-0.68407661
-0.73004028
33.611217
33.584618
-0.26875254
33.319695
-0.23255505
33.033517
-0.22460777
32.723602
-0.21920321
32.400624
-0.23848873
32.060155
-0.25472845
31.706769
-0.2877506
31.308614
-0.28592097
30.872469
-0.29389509
0.76203513
30.361255
-0.25082198
0.96792837
33.405324
1.0286888
34.465384
1.0024574
35.4294
0.88457059
35.594071
0.70013665
35.607406
0.48984537
35.319157
0.24553274
35.101149
34.515676
0.78010337
29.805438
-0.22428639
1.0179053
33.167522
1.0780934
34.405196
1.0396544
35.467839
0.91225329
35.721472
0.71719811
35.802461
0.50271054
35.533645
0.25636328
35.347496
34.77204
0.77957368
29.220638
-0.19477289
1.0709506
32.876145
1.1392409
34.336906
1.1126823
35.494397
0.99521811
35.838936
0.79311651
36.004563
0.55889443
35.767867
0.28326992
35.623121
35.05531
0.78521004
28.704021
-0.26859315
1.1203737
32.540982
1.193493
34.263786
1.1525568
35.535334
1.0254876
35.966006
0.81350048
36.21655
0.5768064
36.004561
0.29991074
35.900017
35.35522
0.80572802
28.231778
-0.33348514
1.1780881
32.168621
1.265158
34.176717
1.2354193
35.565072
1.1135744
36.08785
0.89197278
36.438152
0.6352663
36.261268
0.3278977
36.207385
35.683118
0.86289569
27.868814
-0.4999316
1.2302246
31.801293
1.3221425
34.084799
1.2796259
35.607589
1.1506172
36.216859
0.92045777
36.668311
0.66182912
36.519896
0.34986792
36.519346
36.032986
0.9598077
27.473931
-0.56492521
1.3099215
31.451179
1.4110695
33.983651
1.3749775
35.643681
1.2464861
36.34535
1.0028051
36.911992
0.718335
36.804366
0.37483409
36.862847
36.40782
1.0780741
27.157368
-0.76151094
1.3791048
31.150148
1.4748739
33.887882
1.4233914
35.695163
1.2850635
36.483678
1.0319782
37.165078
0.75000868
37.086336
0.40229273
37.210563
36.810113
1.2365148
26.659905
-0.73905204
1.506827
30.879836
1.5996964
33.795012
1.5425577
35.752302
1.3994134
36.626823
1.1239011
37.44059
0.80774849
37.402488
0.42724661
37.591065
37.237359
-0.080446492
37.317806
-0.074145621
37.584764
-0.032131266
37.360474
0.080146498
37.328312
0.21813301
36.488836
0.42636048
35.544075
0.64227987
33.579093
0.91951332
30.602602
26.689863
0.88955537
-0.089661168
37.407467
-0.10476336
37.599866
-0.095875098
37.351586
-0.013985639
37.246423
0.097865942
36.376985
0.28721141
35.354729
0.46199656
33.404308
0.67288558
30.391713
26.683812
0.67893656
-0.11029215
37.517759
-0.13213977
37.621714
-0.10705087
37.326497
-0.0093834574
37.148755
0.097211769
36.270389
0.2709468
35.180994
0.4334854
33.241769
0.64507735
30.180121
26.637241
0.69164862
-0.11607346
37.633833
-0.15768856
37.663329
-0.17573121
37.34454
-0.11976059
37.092785
-0.028428791
36.179057
0.13346463
35.019101
0.27616782
33.099066
0.46019339
29.996096
26.615165
0.48226978
-0.13710216
37.770935
-0.18291555
37.709143
-0.1736854
37.335309
-0.096098346
37.015198
-0.013195701
36.096155
0.14055908
34.865346
0.2786512
32.960974
0.45217801
29.822569
26.566083
0.50125992
-0.14203718
37.912972
-0.2067828
37.773888
-0.24765137
37.376178
-0.20670504
36.974251
-0.12721191
36.016662
0.013550401
34.724584
0.13843753
32.836087
0.28913901
29.671867
26.515944
0.33927762
-0.16290016
38.075872
-0.2238963
37.834884
-0.22935515
37.381637
-0.17205281
36.916949
-0.10309188
35.947701
0.035683504
34.585808
0.16215597
32.709614
0.30562801
29.528395
26.432798
0.38877402
-0.16584535
38.241717
-0.24626078
37.9153
-0.29981605
37.435192
-0.27025841
36.887391
-0.20620241
35.883645
-0.087896841
34.467503
0.031234431
32.590483
0.16218929
29.397441
26.334371
0.26061616
-0.18456001
38.426277
-0.25269814
37.983438
-0.27045846
37.452952
-0.22994495
36.846878
-0.17266384
35.826364
-0.04846318
34.343302
0.073775383
32.468244
0.20015368
29.271062
26.206923
0.327602
-0.075698387
26.061586
0.22103552
0.048737128
29.146627
0.16495242
32.352029
0.26614369
34.242111
0.31917591
35.773331
0.33816843
36.827885
0.27244407
37.518677
0.18347691
38.072405
38.609754
-0.13262577
25.893021
0.30119065
-0.0080687936
29.02207
0.10669203
32.237268
0.21384547
34.134957
0.2597261
35.727451
0.28928226
36.798329
0.26002554
37.547934
0.19262244
38.139808
38.802377
-0.023825519
25.708771
0.20807556
0.1010109
28.897233
0.21042435
32.127855
0.29875919
34.046623
0.34154644
35.684664
0.34801713
36.791858
0.27475796
37.621193
0.18862707
38.225939
38.991004
-0.09502501
25.51495
0.28884617
0.02507133
28.777137
0.13090609
32.02202
0.22479509
33.952734
0.26294944
35.646509
0.28615972
36.768648
0.25414883
37.653204
0.18966968
38.290418
39.180674
-0.0030855593
25.317662
0.20037307
0.11894295
28.655108
0.21938312
31.92158
0.29699944
33.875117
0.33151592
35.611993
0.33326654
36.766897
0.26094651
37.725524
0.17927802
38.372087
39.359952
-0.087853696
25.123495
0.2820206
0.025362154
28.541893
0.11724385
31.829698
0.20318574
33.789175
0.23809309
35.577085
0.25703613
36.747954
0.22656423
37.755996
0.17183042
38.42682
39.531782
-0.012971893
24.936799
0.19966788
0.097585559
28.431335
0.18748601
31.739798
0.25861169
33.71805
0.28563534
35.550062
0.28622543
36.747364
0.22394508
37.818276
0.1550229
38.495743
39.686805
-0.11648933
24.775958
0.27733067
-0.015457693
28.330303
0.06145626
31.662884
0.1445499
33.634956
0.17372142
35.52089
0.19182661
36.729259
0.17231176
37.837791
0.13462606
38.533428
39.821431
-0.060088808
24.636268
0.1997785
0.03478335
28.235431
0.1144435
31.583223
0.18421185
33.565188
0.20376181
35.50134
0.20626669
36.726754
0.16087574
37.883182
0.11232702
38.581977
39.933758
0.05968766
39.87407
0.15811664
38.483548
0.25786367
37.783435
0.35334307
36.631275
0.42901758
35.425666
0.50860316
33.485602
0.55915058
31.532676
0.5215903
28.272992
24.69956
0.45829912
0.099324754
39.774746
0.19832712
38.384546
0.27666172
37.7051
0.36312364
36.544813
0.4286684
35.360121
0.49558861
33.418682
0.5564231
31.471842
0.50548949
28.323925
24.841189
0.3638605
0.14998195
39.624764
0.29354224
38.240985
0.42635602
37.572286
0.54338031
36.427789
0.62769849
35.275803
0.70837882
33.338002
0.78401392
31.396206
0.75278594
28.355153
25.100381
0.49359346
0.1992652
39.425498
0.34506752
38.095183
0.45993818
37.457416
0.57310023
36.314627
0.65204337
35.19686
0.72541667
33.264628
0.82478878
31.296834
0.82719185
28.35275
25.534142
0.39343083
0.25375141
39.171747
0.45533189
37.893603
0.63224226
37.280505
0.77768936
36.169179
0.87417462
35.100374
0.95596129
33.182842
1.0676421
31.185153
1.1509531
28.269439
26.092961
0.59213377
0.30569437
38.866053
0.51460772
37.684689
0.68032764
37.114785
0.82625355
36.023254
0.92209524
35.004533
0.9934539
33.111483
1.1235394
31.055068
1.2771479
28.115831
26.75907
0.61103892
0.36887654
38.497176
0.64048577
37.41308
0.86987538
36.885396
1.0456184
35.847511
1.1663495
34.883802
1.2357087
33.042124
1.3297711
30.961006
1.6493191
27.796283
27.442857
0.96553268
0.42491635
38.07226
0.70438958
37.133607
0.92627977
36.663506
1.1094259
35.664364
1.2402549
34.752973
1.2895106
32.992868
1.3814114
30.869105
1.8192031
27.358491
27.825597
1.4364624
0.48599857
37.586261
0.8344353
36.78517
1.1353218
36.362619
1.3824789
35.417207
1.5458156
34.589636
1.6018434
32.93684
1.6409127
30.830035
2.1694618
26.829942
27.677008
2.3180516
-1.3589996
38.945261
-2.8038774
38.230048
-4.3125559
37.871298
-5.7816199
36.886271
-7.0855914
35.893607
-8.236681
34.08793
-8.9923727
31.585727
-9.2850596
27.122629
28.334326
-9.9423776
-1.3442398
40.289501
-2.7834166
39.669225
-4.2917944
39.379675
-5.7860509
38.380528
-7.1691529
37.276709
-8.3223368
35.241114
-9.1153493
32.37874
-9.1176799
27.124959
27.291174
-8.0745283
-1.2917991
41.5813
-2.7375144
41.11494
-4.2823696
40.924531
-5.8531115
39.95127
-7.2949318
38.71853
-8.432209
36.378391
-9.1928772
33.139408
-8.5269876
26.45907
21.67038
-2.9061936
-1.255007
42.836307
-2.7043892
42.564322
-4.2486761
42.468817
-5.8410771
41.543671
-7.3680931
40.245546
-8.5416412
37.551939
-9.0989568
33.696724
-7.864244
25.224357
13.962286
-0.15615047
-1.1985596
44.034866
-2.6346437
44.000406
-4.2206733
44.054847
-5.8838823
43.20688
-7.4471086
41.808772
-8.6347443
38.739575
-9.0268766
34.088856
-6.914656
23.112136
7.0978277
-0.050197294
-1.1565342
45.1914
-2.5858552
45.429727
-4.1784667
45.647458
-5.8444864
44.872899
-7.500423
43.464709
-8.7436
39.982752
-8.7542089
34.099465
-5.2118611
19.569788
1.3256399
0.56032672
-1.0940088
46.285409
-2.4890034
46.824722
-4.1251107
47.283566
-5.8431085
46.590897
-7.5767942
45.198394
-8.7416625
41.14762
-8.0108816
33.368684
-2.8077134
14.36662
-2.187492
0.70541851
-1.0535248
47.338934
-2.4269503
48.198147
-4.0708936
48.927509
-5.7906401
48.310644
-7.5972029
47.004957
-8.6959061
42.246323
-7.0968537
31.769631
-1.9739217
9.2436882
-4.7926558
0.63124206
-0.98946174
48.328396
-2.3122078
49.520893
-3.9951307
50.610432
-5.7786899
50.094203
-7.6291319
48.855399
-8.5135461
43.130737
-5.8163341
29.072419
-0.84884237
4.2761964
-6.5046476
0.8631494
0.11003272
-7.1203015
0.5056213
2.9343613
1.4518678
5.1214123
26.885368
4.5086837
43.743466
3.2740019
50.090081
2.1322777
51.235927
1.0873037
51.655406
0.38314231
50.225055
48.711538
-0.15849247
-7.5289793
0.56717022
2.5429242
-1.2495489
5.0120977
24.416195
4.4359902
44.319574
3.17218
51.353891
1.995913
52.412194
0.95813004
52.693189
0.32501809
50.858167
49.036556
-0.26840092
-7.8333986
0.57282027
2.3253514
-3.8433012
4.8867976
21.854749
4.3707607
44.835611
3.0948852
52.629767
1.9199279
53.587151
0.8869796
53.726137
0.29708346
51.448063
49.33364
-0.20867246
-8.2049549
0.58022878
2.3323682
-6.3843419
4.7471234
19.439994
4.2843171
45.298417
2.9815214
53.932562
1.7799599
54.788713
0.76530118
54.740796
0.25114589
51.962218
49.584786
-0.092739392
-8.6299848
0.51776935
2.3919704
-8.8690516
4.6333452
17.198619
4.2097948
45.721967
2.8951606
55.247197
1.693395
55.990478
0.69586003
55.738331
0.23448118
52.423597
49.819267
-0.038300786
-9.0352672
0.44358317
2.3688423
-11.276195
4.5057568
15.061704
4.1042164
46.123508
2.7679658
56.583447
1.547739
57.210705
0.58334223
56.702728
0.19934784
52.807591
50.018615
0.018964934
-9.3658273
0.31159526
2.3001508
-13.557381
4.3565808
13.005274
4.0196746
46.460414
2.6702691
57.932853
1.4547107
58.426264
0.52198772
57.635451
0.19822028
53.131359
50.216835
0.061518436
-9.8502934
0.42294767
2.2895639
-15.785426
4.2032964
11.091542
3.8904458
46.773264
2.54013
59.283168
1.3131238
59.65327
0.42401452
58.52456
0.17978848
53.375585
50.396623
0.094474604
-9.9731268
0.028358812
2.1787211
-17.869673
4.0277855
9.2424773
3.8127354
46.988314
2.4301613
60.665742
1.2042626
60.879169
0.37619749
59.352625
0.19548833
53.556294
50.592112
2.3611238
-12.750293
0.41604231
4.8505689
-20.359118
3.8103017
10.282745
1.0251937
49.773422
-1.2342992
62.925235
-2.3970477
62.041917
-2.4935987
59.449176
-0.97616764
52.038863
49.615944
3.0072966
-15.991955
0.23436577
4.8413375
-22.193159
3.0229553
12.101127
-0.037868361
52.834246
-2.5608405
65.448208
-3.2125884
62.693665
-2.564987
58.801575
-0.61764809
50.091524
48.998296
3.3818114
-19.472013
0.098246458
4.6967019
-23.508049
2.1021496
14.695679
-1.1330559
56.069452
-3.0146471
67.329799
-3.447805
63.126823
-2.5437387
57.897508
-0.40740019
47.955185
48.590896
3.663936
-22.45888
-0.67706907
4.5071963
-24.351309
1.454173
17.748702
-2.1579503
59.681575
-4.0271179
69.198966
-3.9968399
63.096545
-2.2410827
56.141751
0.25760796
45.456495
48.848504
3.7519036
-24.24952
-1.9612631
4.2222129
-24.821619
0.46395918
21.506956
-3.0805185
63.226052
-4.1801704
70.298618
-3.7524065
62.668781
-1.6488924
54.038237
0.54374019
43.263862
49.392244
3.7348477
-25.482266
-2.5021014
3.9546178
-25.041389
-0.10254474
25.564119
-3.8456878
66.969195
-4.9326103
71.385541
-4.058331
61.794502
-0.77378572
50.753692
1.4856449
41.004432
50.877889
3.5878944
-26.970019
-2.1001422
3.4657879
-24.919282
-1.1287841
30.158691
-4.6536003
70.494012
-4.8571659
71.589106
-3.3631689
60.300505
0.39347911
46.997044
1.7565636
39.641347
52.634452
3.4806797
-28.675291
-1.7754069
3.1094977
-24.5481
-1.6320134
34.900202
-5.2309047
74.092903
-5.312476
71.670678
-3.2525512
58.24058
1.4970106
42.247482
2.5601234
38.578234
55.194576
3.3334406
-2.0112653
-29.997467
2.4315376
-23.646197
-2.9234451
40.255184
-6.1714401
77.340898
-4.8076246
70.306862
-1.2534891
54.686444
3.649625
37.344368
2.8344412
39.393418
58.029017
-1.3436712
14.1007
0.64876069
-13.40579
-1.1635594
52.795739
-52.975851
0.81436461
48.228008
-50.205932
3.4621402
-15.464577
12.816802
3.9610431
-43.538915
43.040012
2.0579912
-53.25575
55.158802
-1.098119
-47.918795
51.074905
-1.9966269
-20.504825
21.403332
3.7344481
-4.9520234
-1.4082712
14.871447
0.63752415
-1.105748
52.493216
1.1663603
45.9559
3.8500265
-18.148243
4.5520189
-44.240908
2.6851733
-51.388905
-0.81100492
-44.422617
-1.0026627
-20.313167
1.5741523
-1.5211858
15.767639
0.6249941
-1.133732
52.105763
1.5316077
43.29056
4.2957839
-20.91242
5.2184201
-45.163544
3.6802322
-49.850717
-0.46408946
-40.278295
-2.2095153
-18.567741
0.25248322
-1.6658955
16.813407
0.62012686
-1.2225487
51.662416
1.9231944
40.144817
4.8406131
-23.829838
5.9929171
-46.315848
4.9647878
-48.822588
0.16547792
-35.478986
-4.3697246
-14.032538
0.94144708
-1.8099732
18.013226
0.61015388
-1.2899932
51.142436
2.3414922
36.513331
5.3658515
-26.854198
6.7562408
-47.706237
6.2380356
-48.304382
1.5537678
-30.794718
-3.8297239
-8.6490468
2.1477731
-1.9330175
19.334815
0.61142865
-1.3010418
50.51046
2.8238096
32.38848
5.9625068
-29.992895
7.4472485
-49.190979
7.2946175
-48.151751
2.8299488
-26.330049
-2.9275921
-2.891506
3.3834922
-2.0318328
20.76368
0.60296833
-1.2866231
49.765251
3.2884255
27.813431
6.595002
-33.299471
8.1923616
-50.788339
8.5199093
-48.479299
4.7535482
-22.563688
-0.90639095
2.7684331
4.3883845
-2.0961374
22.257728
0.60208874
-1.2160072
48.88512
3.746028
22.851396
7.2065648
-36.760008
8.8648664
-52.44664
9.1281759
-48.742609
6.3139198
-19.749432
2.8171532
6.2651997
3.6782562
-2.0971788
0.59910671
23.7558
-1.0178335
47.805775
4.2569478
17.576615
7.8786226
-40.381683
9.6391823
-54.2072
9.9794612
-49.082887
7.3168108
-17.086781
6.1056699
7.4763405
-0.20077861
-4.7537104
-14.910229
-1.6027966
21.266736
-8.6968104
-67.136035
71.079135
-6.508107
-68.266731
66.078028
1.8083103
-39.826073
31.509656
11.635474
-6.3933512
-3.4338126
14.86504
6.992892
-10.222459
11.530976
-15.677963
19.012027
2.0645455
-53.282917
62.749347
-83.629951
85.694496
-3.7437863
-7.611029
-3.5554144
-8.0719104
-62.807911
-7.0250128
-69.313629
-0.96096916
-45.890116
8.8657956
-16.220116
14.148499
1.7101888
13.352838
-14.882302
5.2327587
-45.162838
-78.397192
-3.4625188
0.15651531
-4.3050256
-7.9873902
-58.28304
-7.3642955
-69.936724
-3.0687423
-50.185669
5.5146149
-24.803473
12.266884
-5.0420807
12.255116
-14.870534
5.3456405
-38.253362
-73.051552
-2.6662962
7.1391643
-4.3163528
-7.4192107
-53.530125
-7.7848329
-69.571102
-4.9307256
-53.039777
2.5041234
-32.238322
9.7906175
-12.328575
12.132258
-17.212175
7.0391257
-33.160229
-66.012426
-2.3084655
13.599182
-4.1515522
-7.139681
-48.69891
-7.6958314
-69.014951
-5.3037948
-55.431813
0.49299531
-38.035112
6.7363968
-18.571976
9.247898
-19.723676
6.0582813
-29.970613
-59.954145
-1.6296295
18.981513
-3.7527022
-6.6047111
-43.723828
-7.8305108
-67.789152
-5.7442195
-57.518105
-0.83066828
-42.948664
4.826534
-24.229178
8.3946478
-23.29179
6.8451266
-28.421092
-53.109018
-1.3600353
22.59162
-2.2500727
-6.0170978
-39.066766
-7.7273888
-66.078861
-6.4463796
-58.799114
-2.7303575
-46.664686
2.0470482
-29.006584
5.5870449
-26.831787
5.2382392
-28.072286
-47.870779
-1.0527153
24.237123
-0.59278788
-5.3168554
-34.802626
-7.3539839
-64.041732
-6.6537266
-59.499371
-4.016601
-49.301811
0.15679393
-33.179979
4.1739446
-30.848937
5.2722144
-29.170556
-42.598565
-0.74780655
23.810042
1.1748867
-4.4864694
-31.063963
-6.7367853
-61.791416
-6.4973642
-59.738792
-4.5882971
-51.210879
-1.2063811
-36.561895
1.8117801
-33.867099
3.0588762
-30.417652
-39.539689
-0.32692516
32.168633
-31.841708
-0.13031704
33.031586
-33.228194
-0.21023578
36.325189
-36.24527
-0.31681575
38.638957
-38.532377
-1.128745
46.902405
-46.090475
-2.2533953
52.002541
-50.877891
-3.2366757
55.643598
-54.660318
-1.927527
42.382976
-43.692125
-7.5838466
5.0376816
0.61863789
-0.38759018
32.556223
-0.18683275
32.830829
-0.22339693
36.361753
-0.24743013
38.66299
-0.9876487
47.642623
-2.0566552
53.071547
-3.0028397
56.589782
-1.6279201
41.008057
-9.9262414
0.71447473
-0.53744003
33.093663
-0.24581198
32.539201
-0.1936888
36.30963
-0.15507707
38.624379
-0.87496303
48.362509
-1.9445626
54.141147
-2.8257823
57.471002
-1.457609
39.639883
-12.126979
0.74312851
-0.62535752
33.719021
-0.34851465
32.262358
-0.21710672
36.178222
-0.091027523
38.4983
-0.73911644
49.010598
-1.7502169
55.152247
-2.5847475
58.305533
-1.3268383
38.381974
-14.231013
0.77719547
-0.82914447
34.548165
-0.46024279
31.893456
-0.23357486
35.951554
-0.035618007
38.300343
-0.61984659
49.594827
-1.6316674
56.164068
-2.4168673
59.090732
-1.1086106
37.073717
-16.330104
0.99048086
-0.92043612
35.468601
-0.60101697
31.574037
-0.27111386
35.621651
0.019639788
38.009589
-0.50804966
50.122516
-1.4450275
57.101046
-2.1797631
59.825468
-0.80471643
35.69867
-18.385415
1.2505937
-1.1879212
36.656522
-0.77190277
31.158018
-0.31342239
35.16317
0.064242204
37.631924
-0.37681671
50.563575
-1.3176414
58.041871
-2.019192
60.527019
-0.52218529
34.201663
-20.352474
1.4448733
-1.273351
37.929873
-0.94279403
30.827461
-0.38284334
34.60322
0.099334073
37.149747
-0.27650394
50.939413
-1.1316876
58.897054
-1.7937573
61.189088
-0.28219202
32.690098
-22.27437
1.639703
-1.6098153
-1.2000058
-0.46388477
0.12396726
-0.1474986
-0.98923633
-1.5915646
0.034569747
1.5702425
4.3015525
0.7584254
-0.022296314
7.0866733
-46.477246
5.5931495
-53.166794
3.6754402
-48.960181
2.1304644
-44.5455
1.5039901
-37.905903
0.88002179
-35.621302
0.61229673
-32.960469
-31.229411
5.8955954
-4.5711876
-0.56598243
7.6681732
-48.249824
5.8100531
-51.308674
3.8137352
-46.963863
2.2485967
-42.980361
1.526745
-37.184051
0.87828944
-34.972846
0.59000143
-32.672181
-30.63941
8.198574
-11.900062
-0.86969961
7.9460911
-47.997341
5.9369577
-49.29954
3.9362784
-44.963184
2.4002813
-41.444364
1.6400696
-36.42384
0.91431213
-34.247089
0.51794434
-32.275813
-30.121465
8.849028
-20.284391
-0.46469881
8.0998208
-47.248134
6.0750536
-47.274773
4.083334
-42.971465
2.5210251
-39.882055
1.6779428
-35.580757
0.95770138
-33.526847
0.51881318
-31.836925
-29.602652
9.4500419
-29.516321
-0.21811231
8.1858541
-45.983946
6.1280075
-45.216926
4.1681255
-41.011583
2.6592193
-38.373149
1.7913529
-34.712891
1.0106744
-32.746169
0.48193277
-31.308184
-29.120719
9.9664448
-38.904114
-0.57865146
8.4257611
-44.443262
6.1998066
-42.990972
4.2896418
-39.101418
2.7845933
-36.8681
1.8417827
-33.77008
1.0589308
-31.963317
0.48712715
-30.73638
-28.633592
10.379002
-43.721102
-5.5620141
8.4762107
-42.540471
6.1850689
-40.69983
4.3312499
-37.247599
2.9033983
-35.440249
1.9509306
-32.817613
1.1237044
-31.136091
0.47642945
-30.089105
-28.157163
10.681027
-43.046961
-11.355168
8.3133702
-40.172814
6.1743273
-38.560787
4.4055455
-35.478817
3.0149397
-34.049643
1.9920357
-31.794709
1.1713807
-30.315436
0.49575439
-29.413479
-27.661408
10.627524
-40.815471
-12.859013
8.1569321
-37.702222
6.1476935
-36.551549
4.4641369
-33.79526
3.1299924
-32.715499
2.0871964
-30.751912
1.2276029
-29.455843
0.50032877
-28.686205
-27.16108
0.63099969
33.598875
-34.229874
1.1603111
34.019231
-34.548543
1.6336773
34.654406
-35.127772
2.0277069
35.448646
-35.842675
2.276162
36.398289
-36.646745
2.3665719
37.100398
-37.190808
2.0118546
37.437598
-37.08288
1.3809286
34.972187
-34.341261
28.802941
-28.019726
0.59771345
0.6892251
32.909649
1.2393457
33.469111
1.7480974
34.145654
2.1703977
35.026345
2.4457007
36.122986
2.5975144
36.948584
2.2448004
37.790312
1.5139584
35.703029
29.719033
0.59786689
0.71779103
32.191858
1.3229389
32.863963
1.8842922
33.584301
2.3669789
34.543659
2.720253
35.769712
2.9460744
36.722763
2.7141576
38.022228
1.951636
36.465551
30.993775
0.67689382
0.7773044
31.414554
1.3934551
32.247812
1.9831784
32.994578
2.4928985
34.033939
2.8710643
35.391546
3.1781902
36.415637
3.0310838
38.169335
2.3194472
37.177187
32.62187
0.69135217
0.79697395
30.61758
1.4651182
31.579668
2.1122161
32.34748
2.6810908
33.465064
3.1271918
34.945445
3.5204208
36.022408
3.5565198
38.133236
2.9452582
37.788449
34.546887
1.0202418
0.83855083
29.779029
1.5206741
30.897544
2.1881422
31.680012
2.7907547
32.862452
3.2686582
34.467542
3.7428011
35.548265
3.8932446
37.982792
3.4649548
38.216739
36.582143
1.4296988
0.85271325
28.926316
1.5707921
30.179465
2.2931627
30.957641
2.9519017
32.203713
3.4897612
33.929682
4.0301728
35.007854
4.3952404
37.617725
4.1691205
38.442859
38.298654
2.4526093
0.88329639
28.04302
1.6103554
29.452406
2.3364281
30.231568
3.0332244
31.506916
3.6054477
33.357459
4.1875311
34.42577
4.5843311
37.220924
4.7474278
38.279762
39.818654
3.2274273
0.88193989
1.6481418
2.4238675
3.1788713
3.8208317
4.4513415
5.1207173
5.6982574
4.7014402
-0.65654379
-27.760637
0.39745491
-1.0344379
-33.963367
-1.3958365
-36.721482
-1.4243252
-37.162319
-1.3473383
-36.723731
-1.1267878
-36.063226
-0.8297508
-35.424809
-0.4665021
-34.911791
-34.696376
-0.65317816
-27.497662
0.39020307
-0.95916051
-33.657385
-1.2759833
-36.404659
-1.3163991
-37.121903
-1.2438616
-36.796269
-1.0335091