/*--------------------------------*- C++ -*----------------------------------*\
  =========                 |
  \\      /  F ield         | OpenFOAM: The Open Source CFD Toolbox
   \\    /   O peration     | Website:  https://openfoam.org
    \\  /    A nd           | Version:  11
     \\/     M anipulation  |
\*---------------------------------------------------------------------------*/
FoamFile
{
    format      ascii;
    class       volScalarField;
    location    "15.8";
    object      p;
}
// * * * * * * * * * * * * * * * * * * * * * * * * * * * * * * * * * * * * * //

dimensions      [0 2 -2 0 0 0 0];

internalField   nonuniform List<scalar> 
5472
(
106.94867
105.14015
103.3465
101.55061
99.788943
98.071291
96.434334
94.842682
93.360966
91.972736
90.695766
89.564151
88.517187
87.607665
86.866207
86.270682
85.880221
85.604773
85.381943
107.41412
105.77552
104.09388
102.42504
100.76652
99.133721
97.558204
95.995929
94.550785
93.194614
91.90932
90.78334
89.742423
88.830414
88.066893
87.441556
86.964006
86.602055
86.447309
107.84095
106.33398
104.78529
103.23266
101.69845
100.15088
98.631243
97.130585
95.72633
94.376405
93.128725
91.98038
90.935023
90.037434
89.221281
88.580596
88.073817
87.757129
87.528071
108.19022
106.80615
105.4082
103.99305
102.5525
101.09194
99.637673
98.206321
96.82413
95.51268
94.307169
93.145431
92.107309
91.199726
90.380781
89.702407
89.178575
88.84413
88.574956
108.45214
107.20313
105.9537
104.67674
103.33976
101.96346
100.57656
99.202585
97.881076
96.609111
95.402865
94.270119
93.238577
92.309291
91.482143
90.807464
90.263302
89.838589
89.616398
108.63355
107.53334
106.43275
105.25809
104.02557
102.75872
101.45212
100.16149
98.880609
97.629577
96.473673
95.358223
94.327584
93.386668
92.56617
91.884002
91.327381
90.918604
90.632595
108.80935
107.81933
106.80162
105.74004
104.62438
103.45016
102.24732
101.0129
99.780623
98.606937
97.471475
96.379969
95.36197
94.424441
93.612448
92.91087
92.354225
91.915789
91.61651
108.93376
108.05232
107.13496
106.17248
105.15927
104.08875
102.95384
101.79227
100.64943
99.517469
98.403556
97.356028
96.355519
95.436509
94.620678
93.92014
93.35325
92.896468
92.594969
109.01505
108.22229
107.3831
106.5196
105.60927
104.63307
103.589
102.50236
101.40658
100.3329
99.286604
98.269329
97.284334
96.38499
95.578147
94.889397
94.310126
93.855515
93.520567
109.04725
108.33458
107.60483
106.83268
105.9979
105.1001
104.14337
103.15078
102.14081
101.12171
100.11043
99.123414
98.168511
97.28709
96.484423
95.801801
95.224486
94.76844
94.421631
109.04211
108.40486
107.77427
107.08609
106.32919
105.50327
104.62138
103.70706
102.76949
101.8215
100.86976
99.919424
99.00152
98.139856
97.36156
96.682906
96.098301
95.636525
95.279591
109.02413
108.47466
107.90854
107.28785
106.62591
105.88281
105.07996
104.21991
103.33919
102.45226
101.54487
100.6379
99.760356
98.929559
98.175839
97.511629
96.948439
96.472678
96.116606
108.99576
108.50613
107.99152
107.43277
106.82846
106.16101
105.44935
104.68179
103.87563
103.0402
102.18932
101.32079
100.47259
99.665242
98.929771
98.281564
97.716054
97.247862
96.893068
108.94768
108.52882
108.08187
107.59737
107.0431
106.42054
105.75382
105.04886
104.30692
103.5399
102.75009
101.93474
101.13904
100.36611
99.650612
99.0158
98.454807
97.990272
97.635059
108.85863
108.48855
108.10216
107.68416
107.20241
106.66064
106.05968
105.4134
104.72177
104.00455
103.25437
102.48477
101.72994
100.99342
100.3086
99.696464
99.149887
98.688152
98.3327
108.83768
108.50382
108.15051
107.75609
107.31393
106.8174
106.27185
105.7009
105.08262
104.42365
103.71617
102.9929
102.27823
101.5788
100.91712
100.31126
99.741076
99.328467
98.978411
108.74405
108.46321
108.18327
107.8492
107.44923
106.98832
106.48296
105.94877
105.38396
104.77458
104.11667
103.44211
102.76744
102.11082
101.48767
100.92764
100.42083
99.953866
99.595513
108.67821
108.43418
108.17442
107.87473
107.52653
107.12404
106.67538
106.18831
105.66808
105.09628
104.48291
103.84172
103.2038
102.57999
101.98127
101.4255
100.92791
100.49574
100.14262
108.64843
108.43872
108.20362
107.92832
107.60164
107.22655
106.81621
106.37722
105.90028
105.37701
104.81063
104.21294
103.61302
103.01578
102.45027
101.92653
101.43183
101.00797
100.6594
108.58874
108.41389
108.2163
107.9798
107.68692
107.34175
106.96473
106.55385
106.10474
105.61465
105.07984
104.52661
103.96174
103.39121
102.82835
102.30764
101.84891
101.44563
101.10258
108.58677
108.42073
108.23186
108.0105
107.74255
107.43295
107.09633
106.72448
106.31204
105.85288
105.34434
104.81621
104.28284
103.76146
103.25453
102.73136
102.26728
101.8688
101.53609
108.5822
108.44395
108.27805
108.07332
107.82181
107.52666
107.20352
106.85434
106.47587
106.05168
105.57983
105.06446
104.51813
103.98074
103.47887
103.0106
102.57559
102.18571
101.85309
108.57203
108.45093
108.31013
108.13269
107.90817
107.64234
107.34284
107.00849
106.64042
106.23781
105.81027
105.36404
104.88756
104.38147
103.86624
103.37532
102.9298
102.53378
102.19947
108.59328
108.48426
108.35468
108.19272
107.99111
107.74846
107.47156
107.15548
106.79846
106.38759
105.92764
105.44234
104.96227
104.48848
104.01171
103.55397
103.1253
102.7447
102.42798
108.61261
108.52435
108.41351
108.27366
108.09576
107.87756
107.62416
107.34327
107.03317
106.68472
106.29529
105.85171
105.3529
104.84839
104.34264
103.85935
103.4074
103.006
102.6642
108.63793
108.56578
108.46911
108.34512
108.18189
107.97499
107.71976
107.42086
107.07838
106.69539
106.27646
105.82953
105.36685
104.88156
104.40047
103.93259
103.49852
103.11801
102.78661
108.67113
108.64307
108.58423
108.49622
108.38047
108.22803
108.03195
107.78848
107.49439
107.15248
106.76076
106.3133
105.80049
105.24964
104.69291
104.1621
103.68922
103.2653
102.90584
85.389247
85.513266
85.797649
86.149072
86.66148
87.200186
87.833218
88.48495
89.150018
89.847943
90.529542
91.170416
91.810892
92.380792
92.8844
93.280584
93.527629
93.614673
93.48629
86.439365
86.557302
86.811386
87.199412
87.693529
88.243192
88.916084
89.589428
90.279523
90.99858
91.642592
92.258262
92.849129
93.328754
93.749519
94.010681
94.148627
94.104234
93.865203
87.464748
87.562836
87.813766
88.21926
88.691565
89.293355
89.978097
90.677385
91.392223
92.105512
92.746414
93.355088
93.887214
94.311411
94.656894
94.832976
94.902535
94.834969
94.600578
88.484803
88.54889
88.810003
89.200198
89.708604
90.318967
91.01773
91.722133
92.429762
93.109196
93.742637
94.319234
94.79984
95.198973
95.492879
95.661556
95.757733
95.722639
95.572626
89.482754
89.540244
89.779373
90.167305
90.697578
91.307345
92.014706
92.700255
93.397059
94.059043
94.672406
95.204379
95.65219
96.03528
96.338385
96.547959
96.712426
96.813097
96.811354
90.457712
90.51306
90.72413
91.131395
91.648507
92.27824
92.967112
93.645851
94.338864
94.974476
95.55191
96.065898
96.514228
96.905184
97.258248
97.551685
97.80836
98.058847
98.258989
91.4308
91.444184
91.65396
92.06701
92.57105
93.210578
93.866024
94.558217
95.234308
95.840042
96.42242
96.939192
97.41033
97.852103
98.259105
98.652042
99.034496
99.41353
99.814171
92.363006
92.376499
92.569787
92.954846
93.463529
94.098301
94.751876
95.457428
96.092552
96.705546
97.29215
97.82817
98.340794
98.830409
99.32147
99.806693
100.31031
100.83493
101.34499
93.275669
93.264522
93.428654
93.820393
94.32957
94.955562
95.611069
96.292193
96.922439
97.55627
98.144766
98.726087
99.271688
99.834147
100.38729
100.96005
101.56747
102.14028
102.69355
94.170584
94.106789
94.283976
94.659431
95.163746
95.783386
96.433785
97.108013
97.752735
98.393298
99.007446
99.618286
100.21227
100.82661
101.42733
102.07681
102.68223
103.28311
103.83966
95.014387
94.910616
95.110257
95.453909
95.97179
96.574731
97.227694
97.897861
98.552327
99.207704
99.846771
100.48563
101.11803
101.76762
102.40512
103.04559
103.63767
104.22529
104.72094
95.817188
95.721312
95.898441
96.215933
96.746576
97.325953
97.994186
98.660157
99.32714
99.997842
100.65679
101.31873
101.97568
102.62579
103.25342
103.8659
104.42011
104.92683
105.30024
96.573295
96.486175
96.6298
96.961054
97.472339
98.044993
98.728174
99.380159
100.0696
100.75195
101.41909
102.08091
102.73428
103.37121
103.96585
104.51308
104.98039
105.36285
105.62133
97.30462
97.205656
97.319936
97.666664
98.150905
98.749785
99.419232
100.07673
100.77803
101.43966
102.10703
102.75887
103.39589
103.98942
104.51597
104.97534
105.33533
105.61294
105.79066
97.996382
97.879814
97.983577
98.329183
98.792004
99.40311
100.05293
100.72499
101.41105
102.06831
102.73476
103.34939
103.94344
104.46715
104.91467
105.27491
105.55534
105.77659
105.91696
98.639762
98.500416
98.60402
98.937113
99.401147
100.02032
100.64996
101.32115
101.98237
102.62882
103.25228
103.82583
104.37049
104.80728
105.17443
105.44478
105.66423
105.83624
105.95266
99.251932
99.102901
99.192447
99.505914
99.979503
100.57764
101.19225
101.86254
102.49871
103.11554
103.69183
104.22489
104.68439
105.03592
105.33347
105.5191
105.67336
105.76689
105.77853
99.801706
99.633103
99.727947
100.03251
100.51082
101.0772
101.68255
102.3229
102.92081
103.5036
104.03395
104.4997
104.8627
105.1457
105.34869
105.4499
105.5031
105.42496
105.28354
100.31782
100.14343
100.22449
100.5124
100.98108
101.53087
102.14407
102.74442
103.30408
103.83797
104.30182
104.68524
104.9569
105.15508
105.23828
105.23202
105.13603
104.92852
104.6711
100.76116
100.58651
100.65477
100.93945
101.39603
101.92061
102.49639
103.05143
103.58303
104.06561
104.45343
104.74529
104.92838
105.02701
105.00006
104.89285
104.70004
104.46883
104.21808
101.19751
100.99512
101.04925
101.33542
101.77626
102.3072
102.86021
103.36392
103.8441
104.23479
104.54666
104.74722
104.84076
104.83829
104.73161
104.56603
104.36639
104.18701
104.03414
101.48997
101.32567
101.38553
101.65352
102.0692
102.56137
103.06405
103.55522
103.98626
104.31333
104.55495
104.67187
104.69049
104.61916
104.48988
104.3266
104.17573
104.05559
103.93003
101.85615
101.64686
101.69285
101.96304
102.39907
102.89735
103.37088
103.79056
104.116
104.37633
104.53193
104.57653
104.5346
104.4171
104.27999
104.14479
104.01802
103.8981
103.75835
102.06789
101.87112
101.90661
102.16293
102.55462
103.00233
103.45641
103.8474
104.16516
104.37553
104.47134
104.47402
104.40089
104.29288
104.1755
104.03918
103.88903
103.7305
103.50047
102.2991
102.07906
102.13145
102.42786
102.86664
103.33126
103.72142
104.02536
104.25717
104.38977
104.41163
104.33027
104.19459
104.04473
103.88695
103.70244
103.50011
103.24361
102.89671
102.41825
102.18477
102.21896
102.49657
102.89971
103.31504
103.68563
104.0276
104.25653
104.36256
104.3604
104.28697
104.18364
104.06053
103.84807
103.56321
103.18822
102.70075
102.15523
102.49574
102.25748
102.36219
102.74437
103.21367
103.64373
103.99838
104.22772
104.34046
104.32647
104.20109
104.00424
103.75153
103.43171
103.05021
102.59014
102.08727
101.57238
101.08867
93.094863
92.466928
91.532547
90.191094
88.442801
86.060113
83.107472
79.379408
74.848395
69.594549
63.328428
56.441473
49.012469
41.325608
33.905063
28.045957
25.053211
26.115582
31.692537
93.41427
92.789617
91.85536
90.689269
89.132024
87.205364
84.838749
81.983564
78.726534
74.77768
70.359556
65.507532
60.218755
54.845485
49.918991
46.126771
44.244479
45.044626
49.052006
94.176419
93.596005
92.807682
91.798468
90.547911
89.039639
87.217062
85.206148
82.784375
80.035534
77.111294
73.68686
70.268537
66.949572
64.054773
61.886585
60.961762
61.682003
64.484314
95.360388
94.977763
94.331209
93.5795
92.670267
91.449546
90.150795
88.70293
86.971903
85.115405
83.019484
80.924896
78.806533
76.630806
74.82133
73.635427
73.212832
73.867013
75.782381
96.781413
96.613758
96.199078
95.719413
95.014147
94.126579
93.303235
92.296117
91.115567
89.891358
88.565705
87.159835
85.54754
84.12115
82.947304
81.967877
81.542725
82.054054
83.349689
98.443106
98.427483
98.219513
97.910386
97.409576
96.881901
96.349494
95.722399
94.988964
94.092372
93.020836
91.925492
90.710816
89.396649
88.176716
87.182014
86.589363
86.47134
86.999155
100.17371
100.29607
100.2321
100.016
99.696868
99.358943
99.055779
98.594944
97.994355
97.248071
96.352776
95.292511
93.880509
92.495423
91.25033
89.774376
88.181948
86.807799
86.102706
101.79246
101.9986
101.99477
101.84399
101.65186
101.47254
101.26537
100.90167
100.43468
99.693813
98.751393
97.546832
96.117209
94.635861
92.637482
90.230454
87.873616
85.879677
84.149448
103.16897
103.42575
103.43898
103.3769
103.29946
103.23725
103.12658
102.86655
102.36939
101.67485
100.76785
99.44077
97.791734
95.585454
92.538114
89.055427
85.632042
82.186977
78.503619
104.29347
104.55129
104.60406
104.62039
104.61557
104.64941
104.57999
104.33998
103.929
103.28391
102.13247
100.47254
98.23987
94.900096
90.39543
85.052572
79.005953
72.139676
65.082181
105.12867
105.34009
105.4149
105.45004
105.49723
105.51856
105.41885
105.21108
104.78719
103.90896
102.53907
100.66665
97.951828
93.855514
88.354198
81.854881
73.922336
64.251779
53.222523
105.60932
105.76821
105.834
105.84707
105.855
105.8093
105.66111
105.38443
104.85385
104.00979
102.75739
101.05801
98.763524
95.402542
89.676992
83.945121
76.692609
67.875629
57.863493
105.84587
105.97654
106.02948
106.0157
106.00093
105.9105
105.71348
105.40778
104.95102
104.3874
103.31911
101.94775
100.36676
97.564564
93.727571
88.990833
83.280951
76.768536
69.821329
106.0085
106.1602
106.21304
106.23704
106.26411
106.20645
106.10559
105.99155
105.68732
104.99607
104.20383
102.9257
101.23248
98.907635
95.955118
92.508158
88.614343
84.576553
80.750326
106.1488
106.28289
106.33501
106.39989
106.41569
106.33926
106.16586
105.62281
105.40621
105.14199
104.02237
102.18927
100.02314
97.601929
95.112665
92.644205
90.34088
88.347115
86.868712
106.1184
106.20544
106.28742
106.37783
106.35469
106.20578
105.7437
105.21043
103.84087
102.17531
100.34119
98.056261
95.501435
92.892197
90.732538
89.089818
87.995401
87.322415
87.225421
105.78912
105.84046
105.96756
106.02697
105.96537
105.77304
105.14719
104.30093
101.81793
98.292585
94.587119
90.8086
87.227189
84.256107
82.493631
82.016924
82.544925
83.811849
85.441042
105.07918
105.09736
105.19056
105.19457
105.09822
104.89942
104.49796
103.8112
102.14803
98.729611
92.849364
86.144054
78.667227
71.236124
65.090501
61.913857
62.470992
66.394373
72.310359
104.304
104.25387
104.18608
104.00671
103.64559
103.12841
102.31079
101.02865
98.766884
94.812696
89.172573
82.329242
75.020125
68.623085
64.02496
61.457286
61.48085
64.366458
69.778903
103.95134
103.87018
103.77679
103.5823
103.23896
102.7799
102.13254
101.20551
99.807063
97.752264
94.799319
91.119557
86.979531
82.72005
78.841415
76.000963
74.835583
75.733999
78.540015
103.94153
103.92734
103.91558
103.81148
103.67847
103.51124
103.26993
102.91755
102.3755
101.61295
100.4903
98.926706
96.904
94.471286
91.943767
89.795068
88.199229
87.29885
87.456192
103.94608
104.01385
104.0542
104.06966
104.1326
104.18439
104.1849
104.13767
104.01296
103.78704
103.36688
102.69791
101.78195
100.58636
99.246761
97.789356
95.993334
94.266799
92.849536
103.78741
103.86445
103.91648
104.0192
104.13146
104.21656
104.33054
104.35548
104.40985
104.21039
103.64278
102.93447
102.05778
100.85748
99.114457
96.594533
93.730926
91.066739
88.696282
103.38542
103.42863
103.56886
103.68643
103.80396
103.91539
104.05605
104.09755
104.07495
104.15001
103.74589
102.97498
102.62878
101.75488
100.51658
98.660791
96.339528
93.653319
90.739933
102.55308
102.62652
102.81059
102.92876
103.05096
103.15551
103.21504
103.34224
103.20058
103.10981
102.07121
100.67922
100.45049
100.22644
99.734563
98.790438
97.591587
96.380661
95.301042
101.64316
101.64227
101.72542
101.78213
101.83604
101.88246
101.95371
102.07845
102.16447
102.65951
103.35015
103.52131
102.32962
100.64148
98.976856
97.680468
97.035269
97.181878
97.800312
100.64496
100.63769
100.61679
100.56695
100.50309
100.42488
100.33738
100.17682
99.950856
99.246112
98.094987
97.176092
96.374567
95.865917
95.753307
96.191566
96.848077
97.442895
98.198149
41.428475
54.289722
68.462054
81.946595
92.195715
99.167988
104.09906
107.21767
108.20887
107.45801
105.9513
103.80711
101.46876
99.104266
96.622324
94.341823
92.02508
89.86481
87.748392
55.994526
65.301199
75.734432
85.496882
94.022953
101.05987
106.34874
110.33989
112.3836
112.3511
111.11919
109.11561
106.56034
104.18331
101.64157
99.272379
97.001885
94.765245
92.629696
69.282293
75.802977
83.393892
91.121664
98.383383
104.38162
108.91638
112.53931
114.64247
115.04905
114.05596
112.55483
110.43149
108.15207
105.83886
103.50149
101.36367
99.198233
97.046674
79.200252
83.823594
89.325108
95.124442
100.81897
105.95285
110.11883
113.38833
115.17881
115.4128
114.73397
113.5636
112.0727
110.25587
108.3542
106.34902
104.41959
102.52802
100.50005
85.642475
88.826088
92.646136
97.010886
101.69687
106.24111
109.99961
112.81694
114.23098
114.31606
113.80925
112.88902
111.89645
110.56877
109.12009
107.55351
105.97704
104.44573
102.76541
88.144914
89.958316
92.713219
96.289349
100.2206
104.0644
107.50046
110.25304
111.90425
112.41884
112.32342
111.63057
110.95743
110.036
109.01067
107.83044
106.60396
105.39872
104.06398
86.316913
87.559804
89.879748
92.583959
95.498143
99.025131
102.68183
105.94391
108.37053
109.78225
110.5037
110.50012
110.04459
109.34097
108.59047
107.72752
106.75383
105.83769
104.78758
82.904447
82.371712
82.504329
83.788545
86.392444
90.156241
94.454766
98.87139
102.65553
105.51579
107.217
107.93196
107.75711
108.11252
107.83186
107.32737
106.61253
105.90851
105.1439
75.090879
72.370367
70.723287
70.897584
72.75931
76.433493
81.869098
87.861992
93.371991
97.995449
101.48185
103.99692
105.65706
106.64474
106.99781
106.78329
106.3112
105.71526
105.16345
58.546393
53.319253
49.863519
49.302155
52.163807
58.020783
65.504222
73.735527
82.058449
89.758608
96.272965
100.61982
103.48286
105.15547
105.81786
105.9121
105.64327
105.19898
104.77465
41.557421
30.372999
22.066939
20.185929
25.305412
35.762015
48.313502
61.698074
74.464064
85.228017
94.287216
99.349714
101.83079
103.27284
104.08855
104.42804
104.40129
104.16809
103.93151
47.303102
36.769255
28.521639
25.505152
28.077955
35.61714
46.574068
58.63372
70.358208
80.627148
88.697451
94.067743
97.702006
100.05251
101.52759
102.37459
102.74954
102.81962
102.87743
62.970687
57.009718
53.227156
52.610893
55.056674
59.902541
66.495401
73.511591
80.34302
86.383842
91.16131
94.700993
97.345244
99.196772
100.50067
101.35713
101.80551
101.99104
102.15448
77.217016
74.734956
73.937647
75.04979
77.394217
80.189169
83.658386
87.339335
90.635313
93.599505
95.983536
97.790193
99.185092
100.22008
100.9734
101.56488
101.86523
101.99677
102.07147
86.277234
86.006354
85.637147
85.945636
87.463387
89.688258
91.842934
94.084266
96.048051
97.660107
99.035625
100.06418
100.82404
101.42264
101.81056
102.15201
102.35877
102.41902
102.39525
87.777061
88.814302
90.06853
91.515674
93.224874
94.970458
96.431197
97.80913
99.085059
100.07424
100.9144
101.55336
102.00542
102.35178
102.58102
102.74475
102.86338
102.89784
102.81596
87.324348
89.362274
91.3854
93.390098
95.415131
97.328925
98.761813
99.843602
100.85029
101.65951
102.27556
102.72561
103.01844
103.20626
103.30743
103.36912
103.39304
103.359
103.22889
78.789892
84.674733
89.364226
92.853008
95.656697
98.285611
100.39869
101.57254
102.28469
102.96937
103.47404
103.80254
103.9814
104.04976
104.03531
103.96203
103.93497
103.83313
103.63177
79.483942
84.94522
90.106692
94.353833
97.55007
99.735338
100.92384
101.58822
102.58463
103.80155
104.63967
104.78893
104.75925
104.7174
104.58884
104.42122
104.2867
104.16738
103.96155
82.611086
86.897799
91.036484
94.671365
97.607123
100.06555
102.0783
103.38611
103.46839
103.79215
104.34701
104.74386
104.86862
104.88002
104.75442
104.59152
104.38941
104.23719
104.06046
88.513514
90.089791
91.987367
94.017158
95.935685
97.738132
99.381311
100.67019
101.77601
103.22311
104.50323
104.566
104.76102
104.67876
104.56678
104.39193
104.1726
103.98241
103.8342
91.815531
91.289639
91.383265
91.979849
92.846375
93.971304
95.216523
96.725668
99.575801
102.22192
103.4014
103.57153
103.87206
103.85698
103.82137
103.71758
103.57721
103.39453
103.27591
86.861639
85.806903
85.866097
87.146644
89.339722
92.138876
95.460119
97.960787
99.814935
101.21281
102.21425
102.64567
102.78111
102.83032
102.85466
102.82745
102.76063
102.67822
102.63989
88.030949
85.958474
85.067975
85.4973
87.113948
89.628777
92.504241
95.446743
98.00566
99.805159
100.84748
101.38541
101.71185
101.92897
102.04766
102.12866
102.12989
102.12333
102.16534
94.584309
94.426419
95.030688
96.471122
98.466853
100.01819
100.70565
100.9976
101.28908
101.43273
101.47288
101.50881
101.5642
101.63752
101.69997
101.78554
101.83332
101.84965
101.88432
98.575111
99.044641
99.02178
98.653939
98.083138
97.739521
98.301166
99.562104
100.7268
101.21308
101.51816
101.70791
101.74732
101.73365
101.69951
101.65256
101.57421
101.44985
101.38251
99.185027
100.50097
101.81601
102.83422
103.58861
103.96917
104.04125
103.73994
103.05374
102.4595
102.12511
101.88552
101.66689
101.49636
101.36573
101.28161
101.19842
101.08339
100.96059
85.68109
83.718675
81.773791
80.014758
78.258475
76.640325
75.14469
73.751045
72.561696
71.431894
70.500567
69.658848
68.935285
68.357273
67.885034
67.608505
67.457306
67.504628
67.770566
90.375782
88.237097
86.09448
84.079667
82.150835
80.261714
78.568139
76.898487
75.447763
74.071168
72.867401
71.830597
70.904344
70.176651
69.588668
69.217824
69.004315
69.02053
69.222855
94.714884
92.394266
90.138685
87.901441
85.816079
83.715571
81.816789
79.970489
78.273257
76.714305
75.260158
74.041547
72.93204
72.045877
71.331285
70.852924
70.574273
70.548485
70.729091
98.25788
95.923063
93.637851
91.324108
89.111596
86.926936
84.844858
82.877987
80.991675
79.275207
77.638603
76.227193
74.97194
73.924961
73.083863
72.491455
72.139871
72.064255
72.235844
100.81028
98.682853
96.480683
94.252121
92.009778
89.814875
87.647437
85.577192
83.585794
81.717569
79.964162
78.377308
76.981157
75.798438
74.829715
74.129343
73.703352
73.576039
73.726732
102.47511
100.68616
98.718296
96.673862
94.53329
92.380099
90.22025
88.088381
86.034374
84.061122
82.19929
80.494459
78.956203
77.653012
76.575086
75.766204
75.258164
75.086012
75.214357
103.52191
102.06057
100.38076
98.576826
96.633652
94.596592
92.504748
90.395174
88.304438
86.278619
84.328782
82.522259
80.883934
79.457544
78.286822
77.389359
76.802706
76.571555
76.683616
104.13876
102.97389
101.5937
100.03736
98.317997
96.460634
94.487009
92.454123
90.396276
88.348962
86.366455
84.475327
82.760175
81.225192
79.956294
78.97705
78.321776
78.042987
78.130514
104.4168
103.51324
102.40931
101.11286
99.623051
97.967505
96.174313
94.242866
92.267483
90.245278
88.259747
86.31879
84.534941
82.932471
81.583055
80.543582
79.815671
79.470185
79.547329
104.34742
103.72845
102.8857
101.82965
100.59419
99.141728
97.556021
95.783756
93.913616
91.961889
90.008541
88.071139
86.237912
84.579186
83.150601
82.043786
81.281907
80.873848
80.930391
103.84062
103.54361
103.03434
102.23184
101.25683
100.03237
98.64482
97.064183
95.333929
93.485574
91.584113
89.680881
87.831818
86.135035
84.657916
83.482274
82.692668
82.256839
82.257794
103.07088
103.05649
102.85077
102.34169
101.63211
100.66028
99.478676
98.092733
96.529195
94.82141
93.00311
91.153909
89.322487
87.612346
86.104279
84.875616
84.02427
83.591735
83.559159
102.44736
102.53721
102.48822
102.23111
101.76026
101.03956
100.08155
98.900722
97.5118
95.955931
94.249644
92.485883
90.701106
88.990825
87.459974
86.210195
85.296969
84.852185
84.805545
102.21331
102.22401
102.18563
102.05823
101.74938
101.23026
100.48983
99.512615
98.302615
96.908241
95.334672
93.664487
91.946622
90.27282
88.739148
87.476036
86.528308
86.044934
86.005996
102.33094
102.19511
102.09035
101.96588
101.7172
101.32707
100.75425
99.964677
98.939637
97.702478
96.271783
94.709416
93.072736
91.44367
89.92518
88.660902
87.705095
87.168899
87.134283
102.63801
102.40663
102.20617
102.01397
101.75211
101.41902
100.94288
100.29285
99.438705
98.358563
97.06939
95.618169
94.066034
92.502707
91.018746
89.753169
88.823279
88.260012
88.196371
102.98394
102.72887
102.46238
102.20242
101.89521
101.55754
101.11355
100.56481
99.843807
98.912039
97.760384
96.425138
94.960194
93.463007
92.033051
90.762454
89.837568
89.289248
89.186753
103.29609
103.05014
102.769
102.47365
102.12359
101.76101
101.31969
100.81029
100.17338
99.351513
98.328969
97.11995
95.745197
94.309568
92.941253
91.705393
90.758941
90.234456
90.122349
103.59163
103.35256
103.0715
102.77206
102.4153
102.02958
101.58592
101.09072
100.51058
99.735441
98.831914
97.733571
96.467222
95.093281
93.759439
92.579019
91.634522
91.093003
90.991543
103.78962
103.59712
103.32566
103.02774
102.6937
102.31377
101.88551
101.37853
100.81114
100.09303
99.26213
98.234815
97.057638
95.770785
94.48184
93.324264
92.414804
91.872354
91.778664
103.74085
103.66993
103.48919
103.23443
102.94362
102.58772
102.1869
101.69415
101.14013
100.48818
99.680549
98.73979
97.608548
96.409003
95.188556
94.050122
93.161985
92.61169
92.511159
103.42724
103.50401
103.48047
103.3395
103.12843
102.82069
102.44202
101.99494
101.45214
100.82273
100.04726
99.157529
98.075766
96.908871
95.730616
94.616889
93.740867
93.21751
93.117193
102.86825
103.0678
103.22337
103.23485
103.1399
102.95477
102.6543
102.26381
101.76611
101.17354
100.45613
99.606938
98.616708
97.493962
96.34444
95.274539
94.382434
93.832593
93.71963
102.40673
102.64828
102.88799
103.06846
103.10987
103.03381
102.83179
102.50258
102.05692
101.47779
100.77972
99.943621
98.95326
97.843776
96.678428
95.604865
94.754215
94.227479
94.122343
102.03677
102.28027
102.48414
102.6798
102.83012
102.88382
102.82177
102.62486
102.29086
101.81373
101.18511
100.45399
99.552748
98.491842
97.325678
96.23156
95.316079
94.71857
94.571262
101.61831
101.96511
102.29282
102.56291
102.77029
102.90121
102.91815
102.799
102.51727
102.04855
101.41181
100.60394
99.660854
98.584052
97.450604
96.346295
95.464057
94.901978
94.759138
101.18928
101.40218
101.67739
101.97272
102.26169
102.51353
102.70507
102.78446
102.70478
102.4656
102.02938
101.37878
100.5287
99.450956
98.213088
96.959472
95.909289
95.187517
94.977987
68.218977
68.745406
69.473791
70.353509
71.439743
72.681233
74.073664
75.61604
77.284836
79.085428
80.971232
82.972289
85.066289
87.206552
89.405551
91.676082
93.972986
96.272731
98.576632
69.616381
70.219148
70.995813
71.894707
72.994295
74.2304
75.613603
77.153298
78.810421
80.585109
82.449118
84.408568
86.437755
88.497811
90.609649
92.77278
94.931069
97.082474
99.202621
71.124879
71.705039
72.492672
73.420932
74.510749
75.762644
77.142423
78.667831
80.319998
82.070245
83.909293
85.813958
87.765251
89.756353
91.780978
93.816589
95.831231
97.842324
99.802291
72.64319
73.220239
73.990891
74.935464
76.02101
77.269921
78.65161
80.163516
81.802197
83.526317
85.3261
87.180832
89.057057
90.966042
92.886194
94.811138
96.697736
98.543537
100.34906
74.141575
74.719841
75.479889
76.417851
77.508758
78.746359
80.121363
81.610539
83.219746
84.925161
86.679507
88.478944
90.281142
92.099096
93.901432
95.700694
97.464494
99.173558
100.84075
75.627423
76.196269
76.957668
77.888739
78.971645
80.195879
81.552617
83.03903
84.610936
86.274998
87.989162
89.719828
91.438402
93.146493
94.830466
96.514908
98.172638
99.740993
101.24428
77.092744
77.637246
78.407827
79.330619
80.388418
81.611095
82.947188
84.40113
85.936427
87.554324
89.203971
90.856202
92.505242
94.121548
95.712816
97.262916
98.776897
100.22779
101.62371
78.5413
79.119605
79.825518
80.740822
81.782816
82.98018
84.294596
85.710558
87.207969
88.771974
90.365216
91.942213
93.515542
95.02813
96.501689
97.933336
99.337736
100.67295
101.92058
79.937918
80.488875
81.198492
82.100998
83.139625
84.305908
85.591274
86.974859
88.432525
89.926466
91.459457
92.957222
94.419276
95.828682
97.214342
98.547387
99.824167
101.04302
102.19025
81.308511
81.837628
82.541611
83.420081
84.443545
85.582541
86.83652
88.162712
89.568403
91.00315
92.461684
93.88574
95.272221
96.593516
97.859071
99.091065
100.27294
101.3922
102.41859
82.640098
83.146934
83.848612
84.696602
85.694439
86.799232
88.016576
89.3034
90.654059
92.027704
93.411982
94.763562
96.040943
97.262602
98.433807
99.581295
100.66429
101.67366
102.62021
83.931702
84.416092
85.093177
85.911132
86.881842
87.969275
89.142725
90.387634
91.672161
92.974994
94.266186
95.537742
96.738061
97.89082
98.97661
100.01053
100.99974
101.92625
102.77891
85.160447
85.629529
86.269804
87.082939
88.029909
89.083262
90.204878
91.389316
92.602872
93.843064
95.067381
96.265785
97.389494
98.454044
99.456835
100.40814
101.30733
102.14617
102.93091
86.347833
86.804521
87.441945
88.212481
89.105338
90.114791
91.184258
92.315528
93.47711
94.656678
95.821626
96.931948
97.973316
98.954511
99.881527
100.74863
101.57103
102.3333
103.03466
87.461075
87.893427
88.486018
89.236797
90.11052
91.090732
92.128489
93.210289
94.311718
95.409231
96.490886
97.513844
98.488149
99.403532
100.26365
101.06348
101.81653
102.51374
103.14355
88.517798
88.9394
89.517559
90.236516
91.079862
92.009397
93.000069
94.013855
95.048066
96.069658
97.08521
98.05668
98.973422
99.828692
100.61435
101.33942
102.02399
102.66103
103.22912
89.500118
89.903735
90.463431
91.145926
91.955721
92.843332
93.786448
94.754486
95.734945
96.70264
97.65753
98.570943
99.420157
100.20052
100.91375
101.58035
102.20757
102.78999
103.30742
90.430859
90.817651
91.356115
92.019273
92.781477
93.626333
94.527087
95.452929
96.377939
97.280523
98.163932
99.01057
99.79423
100.51925
101.18773
101.81027
102.39066
102.92147
103.39177
91.285247
91.655379
92.168031
92.799213
93.528186
94.334595
95.194813
96.068485
96.937823
97.786922
98.612304
99.412578
100.15364
100.83533
101.45841
102.02647
102.5502
103.03629
103.47168
92.059975
92.418977
92.910209
93.513912
94.219432
94.993917
95.812157
96.639188
97.458941
98.265185
99.04529
99.793838
100.48681
101.11856
101.69311
102.21727
102.70126
103.14856
103.54784
92.77367
93.117404
93.591398
94.178619
94.861417
95.588467
96.357334
97.148813
97.926791
98.690519
99.430499
100.13222
100.78205
101.37182
101.90701
102.4034
102.86634
103.27679
103.63304
93.374644
93.705962