/*--------------------------------*- C++ -*----------------------------------*\
  =========                 |
  \\      /  F ield         | OpenFOAM: The Open Source CFD Toolbox
   \\    /   O peration     | Website:  https://openfoam.org
    \\  /    A nd           | Version:  11
     \\/     M anipulation  |
\*---------------------------------------------------------------------------*/
FoamFile
{
    format      ascii;
    class       volVectorField;
    location    "15.8";
    object      U;
}
// * * * * * * * * * * * * * * * * * * * * * * * * * * * * * * * * * * * * * //

dimensions      [0 1 -1 0 0 0 0];

internalField   nonuniform List<vector> 
5472
(
(10.384845 2.6495597 1.6994869e-18)
(10.591599 2.6514957 -1.7696559e-18)
(10.787054 2.6275393 -1.7897717e-18)
(10.992258 2.5866625 -1.82365e-18)
(11.156698 2.5367657 5.66123e-18)
(11.371912 2.4714849 -3.2989181e-20)
(11.542259 2.3927228 -2.9954132e-18)
(11.743909 2.2769915 1.0443834e-18)
(11.900849 2.1973886 0)
(12.053847 2.0410274 0)
(12.240705 1.9403617 0)
(12.324918 1.7652008 -3.2873224e-18)
(12.511828 1.6415967 1.6893726e-18)
(12.587597 1.4420241 -2.139062e-20)
(12.701717 1.3040654 1.1456036e-18)
(12.813843 1.0790883 -5.8915214e-19)
(12.835567 0.92995259 -8.8479172e-19)
(12.96644 0.708465 3.0328988e-19)
(12.946728 0.54804454 0)
(10.365296 2.4444168 -1.5544069e-18)
(10.542639 2.4416691 3.2094569e-18)
(10.733762 2.4099611 -1.6571706e-18)
(10.87887 2.4005996 -1.6703794e-18)
(11.08858 2.3410049 2.2795321e-20)
(11.272126 2.2905884 0)
(11.456027 2.2114284 1.7974179e-18)
(11.639854 2.124905 -3.6731348e-18)
(11.76993 2.0410614 4.7397675e-18)
(11.989581 1.9014552 9.7063606e-19)
(12.076416 1.812479 0)
(12.254935 1.6423871 2.0213626e-18)
(12.36239 1.5286219 0)
(12.473953 1.3595861 5.134505e-19)
(12.593964 1.1934298 -5.2947713e-19)
(12.67586 1.0396159 0)
(12.749589 0.85674678 0)
(12.836382 0.69824528 -2.6753408e-19)
(12.844674 0.51815762 0)
(10.342554 2.2548737 0)
(10.53261 2.2662524 1.4612537e-18)
(10.658061 2.2742555 1.4983042e-18)
(10.885867 2.252584 0)
(11.039206 2.2253612 -1.8335129e-20)
(11.233894 2.1834014 -2.4582543e-20)
(11.382281 2.1239161 -1.6545689e-18)
(11.53102 2.0611927 0)
(11.723768 1.9558504 -1.7049761e-18)
(11.850213 1.8677881 -4.3655009e-18)
(11.978954 1.7638523 1.1477004e-20)
(12.155674 1.609915 -8.9038854e-19)
(12.233879 1.5142631 -9.1786074e-19)
(12.403169 1.3239988 1.8830702e-18)
(12.4748 1.2136903 1.4219828e-18)
(12.585711 1.0145005 4.8054918e-19)
(12.657819 0.88048163 2.4073164e-19)
(12.728247 0.69433044 -3.6393466e-19)
(12.781808 0.52407996 1.2141783e-19)
(10.338604 2.0774854 0)
(10.490794 2.1073066 -1.3189002e-18)
(10.654029 2.0934858 -1.3508911e-18)
(10.822813 2.0917896 2.7580606e-18)
(10.968187 2.0499277 -1.4484665e-18)
(11.113817 2.0202342 0)
(11.254471 1.9730656 -1.4952233e-18)
(11.452511 1.893924 1.5091009e-18)
(11.582977 1.8362787 -1.5644583e-18)
(11.724156 1.7411589 -1.8508956e-20)
(11.896067 1.6384059 -1.6230835e-18)
(12.015408 1.5171933 0)
(12.158032 1.3998394 0)
(12.276961 1.2493515 -8.3892658e-19)
(12.370267 1.121708 -8.4744585e-19)
(12.495058 0.94821395 0)
(12.549218 0.80799992 -2.1641525e-19)
(12.641487 0.61469376 1.0949832e-19)
(12.675208 0.48014159 2.1847358e-19)
(10.323267 1.9160773 0)
(10.492683 1.9576483 0)
(10.612016 1.9672454 0)
(10.772278 1.9473794 -2.4981865e-18)
(10.875996 1.9475785 1.3000358e-18)
(11.060493 1.9191493 -3.9394014e-18)
(11.223603 1.8654486 5.3900961e-18)
(11.370632 1.8376771 -2.7512716e-18)
(11.511537 1.7601687 2.5541575e-21)
(11.682663 1.6685825 1.4218804e-18)
(11.816846 1.5890528 1.4469554e-18)
(11.943324 1.4721075 -2.9576676e-18)
(12.084052 1.3660369 2.2550859e-18)
(12.182461 1.2235186 -7.6327278e-19)
(12.315631 1.104978 0)
(12.378473 0.95073339 7.7776875e-19)
(12.471495 0.80142007 -3.9136271e-19)
(12.527369 0.64063305 1.9499482e-19)
(12.577596 0.48462452 -1.9422807e-19)
(10.336362 1.7781605 0)
(10.457199 1.7847747 -4.3114116e-18)
(10.555464 1.7952615 2.226858e-18)
(10.698131 1.8082845 2.2757037e-18)
(10.82632 1.7848715 1.1586644e-18)
(11.00085 1.7729758 -1.1791246e-18)
(11.095437 1.753351 2.4467331e-18)
(11.280316 1.6966284 1.2330361e-18)
(11.408877 1.6324624 2.5133017e-18)
(11.568167 1.5797047 -2.5771561e-18)
(11.674862 1.486987 1.5420082e-20)
(11.827226 1.3819826 2.6599167e-18)
(11.937645 1.2728432 0)
(12.062476 1.1454816 -6.8532745e-19)
(12.157796 1.0310995 6.857363e-19)
(12.246467 0.8711221 -1.7303998e-18)
(12.333618 0.74274191 6.9616159e-19)
(12.385229 0.56928394 -1.7458804e-19)
(12.45777 0.42302491 3.3510872e-22)
(10.305092 1.6274225 3.8136582e-18)
(10.422016 1.6456375 3.892878e-18)
(10.544951 1.6669955 0)
(10.68648 1.6661133 -6.0066744e-21)
(10.789364 1.6811926 -4.1889869e-18)
(10.937375 1.6596691 4.3037578e-18)
(11.056447 1.6313976 0)
(11.240383 1.5974895 -1.1208705e-18)
(11.335766 1.5650585 -4.5371949e-18)
(11.514178 1.4905981 2.3297897e-18)
(11.609183 1.41063 1.1698166e-18)
(11.76579 1.3338676 -1.200202e-18)
(11.853807 1.2178031 0)
(11.990407 1.1169174 6.0715476e-19)
(12.070205 0.98732863 0)
(12.178956 0.86682562 -6.1845622e-19)
(12.243738 0.71821811 9.3613261e-19)
(12.325817 0.57089685 8.4556058e-22)
(12.376331 0.42653959 -8.3464769e-22)
(10.312505 1.4871134 1.7084694e-18)
(10.414231 1.4951912 -3.5020582e-18)
(10.505829 1.5344203 -3.5746725e-18)
(10.606637 1.5401152 3.6841005e-18)
(10.72182 1.5479045 -1.8923179e-18)
(10.854562 1.5375226 -1.9196891e-18)
(10.974835 1.5202147 0)
(11.119269 1.4904102 2.9926487e-18)
(11.222968 1.4466137 -1.2456444e-20)
(11.37811 1.3899193 -3.1082279e-18)
(11.463348 1.3406709 3.1789509e-18)
(11.624811 1.2441602 0)
(11.705261 1.1548144 0)
(11.861013 1.040358 1.0874128e-18)
(11.922857 0.93037679 -5.5724228e-19)
(12.059802 0.8010313 -1.1081609e-18)
(12.102264 0.65721774 2.804929e-19)
(12.20164 0.52167128 2.8228307e-19)
(12.223495 0.36148755 6.9103035e-20)
(10.294378 1.3511442 -1.5332083e-18)
(10.382892 1.381008 4.7035697e-18)
(10.49489 1.4028222 -4.8479345e-18)
(10.606445 1.4079972 3.3004614e-18)
(10.709462 1.4241287 0)
(10.827888 1.4128196 1.7181429e-18)
(10.941403 1.4144959 -1.7713162e-18)
(11.070778 1.3802166 0)
(11.17999 1.3616842 9.0762648e-19)
(11.314026 1.3060321 -1.8757029e-18)
(11.417661 1.2499936 -9.3855612e-19)
(11.567317 1.1704397 -8.7699199e-21)
(11.65928 1.0870976 -2.9014019e-18)
(11.801548 0.98634274 4.9805382e-19)
(11.855246 0.88260088 -4.8539664e-19)
(11.985287 0.76628902 9.9081524e-19)
(12.008603 0.64338071 -4.9423277e-19)
(12.122379 0.50197639 2.5226736e-19)
(12.129506 0.35833222 2.477762e-19)
(10.303585 1.2193144 -2.7585487e-18)
(10.387356 1.2641102 0)
(10.466038 1.2869086 1.4419751e-18)
(10.544083 1.3030115 -4.4204629e-18)
(10.632605 1.3130923 1.5216145e-18)
(10.727463 1.3141701 -1.5477164e-18)
(10.831539 1.3159091 1.5685985e-18)
(10.944903 1.297108 -1.6131089e-18)
(11.060735 1.2698708 0)
(11.192644 1.2185748 8.2643137e-19)
(11.300628 1.1760657 0)
(11.433491 1.0922432 8.4786849e-19)
(11.528378 1.0289939 -1.7567393e-22)
(11.65521 0.92170226 -4.314971e-19)
(11.730636 0.83755566 4.3463771e-19)
(11.8516 0.70860435 4.3768003e-19)
(11.895108 0.59612082 -2.388288e-21)
(11.999134 0.45005197 -6.6151255e-19)
(12.006291 0.32099886 0)
(10.279757 1.100118 0)
(10.352902 1.1528941 1.2604706e-18)
(10.430552 1.1573122 0)
(10.514408 1.1872524 1.3104769e-18)
(10.611717 1.1963245 -4.0532606e-18)
(10.715814 1.1988364 4.1456664e-18)
(10.831091 1.1971089 -1.3911567e-18)
(10.93677 1.1764927 4.3128238e-18)
(11.051072 1.1669977 0)
(11.148081 1.1308517 7.4149609e-19)
(11.257275 1.0905801 0)
(11.364065 1.027233 -1.5087774e-18)
(11.470304 0.95893796 3.0612102e-18)
(11.580138 0.86662534 -7.2947211e-21)
(11.667491 0.78064325 -3.8954367e-19)
(11.773649 0.66705956 0)
(11.829145 0.569534 0)
(11.924507 0.42495336 0)
(11.939928 0.31387927 -4.8913681e-20)
(10.26722 1.0163294 4.3851281e-18)
(10.337506 1.0427614 -5.6376098e-18)
(10.398295 1.0591175 2.2973317e-18)
(10.473446 1.0893767 -7.1749667e-21)
(10.543839 1.0921643 0)
(10.631556 1.1141651 -2.4490995e-18)
(10.726809 1.1130539 1.2652475e-18)
(10.828284 1.1085921 -1.271676e-18)
(10.946347 1.087967 0)
(11.040475 1.054768 -6.5515475e-19)
(11.158281 1.0166774 1.3253519e-18)
(11.257578 0.9541896 -1.1928673e-20)
(11.36383 0.89386126 -1.3640283e-18)
(11.452699 0.80794519 -2.7302769e-18)
(11.552342 0.72318964 2.4091481e-18)
(11.62628 0.6198886 -1.3817377e-18)
(11.708832 0.51486584 8.6817701e-19)
(11.776071 0.39244008 1.7387363e-19)
(11.817665 0.27848218 4.2930837e-20)
(10.249975 0.90951828 -6.8488864e-18)
(10.333629 0.92822255 4.0216241e-18)
(10.391272 0.95918266 0)
(10.470885 0.98210688 -5.2324249e-18)
(10.539011 0.99200824 4.2975985e-18)
(10.625923 1.001134 1.0941757e-18)
(10.704089 0.9966946 3.3338191e-18)
(10.794273 0.99557371 -2.2736593e-18)
(10.891837 0.98369008 -2.8679603e-18)
(10.98125 0.97377297 1.7578372e-18)
(11.097159 0.93855737 2.3514328e-18)
(11.193831 0.89786299 -3.5836815e-18)
(11.305272 0.83329963 2.4060637e-18)
(11.397494 0.75431404 -6.1273938e-19)
(11.498856 0.66943705 3.0126635e-19)
(11.561493 0.57209316 -3.7702983e-21)
(11.648737 0.4694474 -7.662397e-19)
(11.693077 0.36066778 -1.5244387e-19)
(11.747694 0.2426044 -3.8250601e-20)
(10.229335 0.8250128 2.6208599e-18)
(10.298822 0.8355756 3.5640059e-18)
(10.334728 0.87344847 -3.6588355e-18)
(10.405342 0.88532277 9.3291148e-19)
(10.473898 0.91487942 -2.8435789e-18)
(10.563769 0.92845129 2.9228426e-18)
(10.647485 0.93381029 9.8242749e-19)
(10.740529 0.92204248 -5.0210738e-18)
(10.829724 0.90512766 3.5635148e-18)
(10.925739 0.88587661 -1.5581643e-18)
(11.022273 0.85064509 0)
(11.115606 0.82410826 -5.2890123e-19)
(11.212788 0.76891426 -1.5927885e-18)
(11.298108 0.70363691 5.446478e-19)
(11.391971 0.62669578 1.6165457e-18)
(11.453332 0.53997585 5.3782259e-19)
(11.538141 0.43715998 -1.0807025e-18)
(11.580744 0.34184684 2.7192418e-19)
(11.639559 0.22343619 3.0298832e-19)
(10.246209 0.7253609 -3.8723062e-18)
(10.304012 0.7588543 3.1775626e-18)
(10.343258 0.78225277 0)
(10.410758 0.78346822 -8.2695298e-19)
(10.457777 0.80530217 3.3680805e-18)
(10.530019 0.81424491 -6.8766906e-18)
(10.597607 0.83738305 8.9605526e-19)
(10.685107 0.8345552 3.5706494e-18)
(10.767764 0.82989819 2.7081603e-18)
(10.855194 0.81229178 -4.5733236e-19)
(10.93837 0.7858393 0)
(11.032526 0.75464051 2.3204101e-18)
(11.123507 0.70293948 -9.4563804e-19)
(11.215911 0.64130668 9.435634e-19)
(11.297942 0.56973365 -1.4250832e-18)
(11.36645 0.48644606 -2.3838073e-19)
(11.436815 0.39170506 0)
(11.480889 0.30180796 0)
(11.531808 0.18369992 -2.9711939e-20)
(10.210649 0.62971293 6.7126885e-19)
(10.250054 0.67519342 -6.3420247e-18)
(10.305803 0.70481242 2.8683172e-18)
(10.370976 0.72797496 -3.6697434e-18)
(10.423083 0.74140198 -7.4641916e-19)
(10.499596 0.74337123 0)
(10.562274 0.75413546 -3.8552919e-18)
(10.64083 0.75252572 2.3640764e-18)
(10.709001 0.75377112 -7.9683643e-19)
(10.794021 0.7381183 -1.4910133e-21)
(10.880299 0.71854499 0)
(10.970094 0.68955169 0)
(11.056648 0.64848021 -4.1218813e-19)
(11.145048 0.59197724 -4.1432845e-19)
(11.224904 0.53070739 2.079355e-19)
(11.30067 0.4520249 1.2521443e-18)
(11.363824 0.36759043 -8.3936527e-19)
(11.418418 0.28079791 1.0495099e-19)
(11.45815 0.16943898 2.5957334e-20)
(10.222514 0.54121329 4.2624875e-18)
(10.248152 0.583753 -4.3689794e-18)
(10.301084 0.59331336 0)
(10.330138 0.63257729 6.4798902e-19)
(10.395667 0.65029111 0)
(10.448849 0.67423302 6.718025e-19)
(10.519647 0.67889555 6.8261759e-19)
(10.588782 0.67819357 0)
(10.657604 0.67467424 3.4967569e-18)
(10.738031 0.65912399 -2.4915502e-18)
(10.811207 0.64764867 1.7867216e-18)
(10.891228 0.61990333 -1.4490451e-18)
(10.97137 0.58399594 1.4492174e-18)
(11.048519 0.53069737 -9.1547142e-21)
(11.124433 0.47390558 -1.4710037e-18)
(11.191278 0.40171055 -1.8315608e-19)
(11.250102 0.32575418 -1.843594e-19)
(11.305701 0.24310342 -9.1597379e-20)
(11.339734 0.14579015 0)
(10.174906 0.48204907 4.864586e-18)
(10.213002 0.51295976 0)
(10.264102 0.52965626 0)
(10.29701 0.55875133 5.7246898e-19)
(10.362189 0.57206013 0)
(10.403517 0.60182709 -5.9156091e-19)
(10.482802 0.60479857 -6.003808e-19)
(10.533298 0.62237836 -2.4312672e-18)
(10.616091 0.60772947 2.4739675e-18)
(10.67896 0.61048945 0)
(10.762738 0.58879485 -2.8243825e-18)
(10.841086 0.56807346 2.2272071e-18)
(10.923606 0.53314973 1.2724309e-18)
(10.998175 0.48359729 -2.564626e-18)
(11.074118 0.43119992 2.5730015e-18)
(11.139615 0.36439851 -1.9351416e-18)
(11.197429 0.29502689 6.4559899e-19)
(11.246729 0.21555166 0)
(11.283606 0.12680552 0)
(10.149306 0.3904318 7.6412582e-18)
(10.192205 0.42083188 -3.8996807e-18)
(10.222014 0.44611029 3.9627216e-18)
(10.269416 0.47426507 -4.5474748e-18)
(10.322686 0.48872939 -4.0976439e-18)
(10.378907 0.51099207 4.1757189e-18)
(10.441774 0.52112352 2.1098925e-18)
(10.49683 0.53231384 -9.2233705e-21)
(10.570573 0.53118466 -2.1726478e-18)
(10.624732 0.53304495 0)
(10.708408 0.51751694 0)
(10.768575 0.50701983 2.7761743e-19)
(10.848189 0.47156071 0)
(10.912362 0.43531762 1.1204918e-18)
(10.981468 0.38012159 -1.1299967e-18)
(11.03962 0.32749363 -5.6304167e-19)
(11.094016 0.26165333 7.0674567e-19)
(11.139894 0.18983833 -3.5227538e-19)
(11.172781 0.10928609 2.8134827e-19)
(10.136017 0.33406265 0)
(10.174737 0.35947392 0)
(10.198612 0.38207983 3.4930958e-18)
(10.244185 0.405441 -3.5597611e-18)
(10.276867 0.42888557 4.0578175e-18)
(10.335466 0.45462475 -4.1290952e-18)
(10.383311 0.46596657 0)
(10.4529 0.47391052 4.7047724e-19)
(10.515348 0.47287116 1.8969767e-18)
(10.582946 0.47283128 -1.9242239e-18)
(10.659249 0.46047895 1.9302286e-18)
(10.72436 0.45030166 -1.0419002e-20)
(10.803148 0.42076552 -3.9169106e-18)
(10.866752 0.38842266 1.9713276e-18)
(10.936546 0.33815569 0)
(10.991048 0.28776232 -9.8435228e-19)
(11.048345 0.22387266 1.5433577e-18)
(11.086483 0.16181788 -6.7867471e-19)
(11.123186 0.086995028 2.458869e-19)
(10.108504 0.24800896 1.1527551e-17)
(10.141821 0.27896959 -6.059633e-18)
(10.177738 0.30348831 0)
(10.216794 0.32938395 -3.9095827e-19)
(10.259585 0.34854527 -3.9656877e-19)
(10.311544 0.37138009 4.0200226e-19)
(10.355101 0.38629058 0)
(10.415107 0.39695333 -4.1180851e-19)
(10.46294 0.40502715 3.3244766e-18)
(10.532266 0.4029249 -3.3689789e-18)
(10.590442 0.40014645 0)
(10.66272 0.38749192 0)
(10.723093 0.36896528 2.1421605e-19)
(10.791329 0.34108875 1.0748763e-19)
(10.84546 0.30091083 -1.0774668e-19)
(10.904171 0.25630223 0)
(10.954532 0.20174666 -4.8376012e-19)
(10.992857 0.14412484 4.3130359e-19)
(11.029821 0.083343561 0)
(10.085749 0.18929522 -1.0478213e-17)
(10.106697 0.21309563 1.098932e-17)
(10.135847 0.24066931 -9.2662904e-21)
(10.168685 0.26538209 -5.1555271e-18)
(10.213395 0.2895315 0)
(10.260136 0.31199153 2.8169981e-18)
(10.315846 0.32499789 -5.8882464e-18)
(10.372254 0.33632772 2.890974e-18)
(10.429239 0.33896995 0)
(10.492345 0.34451289 -2.9325171e-18)
(10.555529 0.34196215 2.9660611e-18)
(10.624109 0.33284746 1.4838866e-18)
(10.690994 0.31551261 -1.4970234e-18)
(10.75795 0.28874289 1.3069621e-18)
(10.809999 0.25330666 -1.4106726e-18)
(10.86889 0.2059453 0)
(10.904296 0.15910407 -4.7011874e-20)
(10.946754 0.10102532 -1.4027538e-19)
(10.965985 0.047405305 1.987497e-19)
(10.066358 0.12699575 2.8801265e-19)
(10.090075 0.14824803 -5.8532388e-19)
(10.112028 0.17123487 4.7485463e-18)
(10.143774 0.19389523 2.9235503e-19)
(10.179424 0.2161133 -3.1641828e-19)
(10.222623 0.24016114 -4.9489513e-18)
(10.269624 0.255535 1.5608634e-19)
(10.322479 0.2694213 2.6778473e-18)
(10.378493 0.27662733 -2.5513169e-18)
(10.437407 0.27777278 -1.605214e-19)
(10.502802 0.28027699 0)
(10.560612 0.27648807 2.7536442e-18)
(10.630054 0.26874476 -2.7759937e-18)
(10.688134 0.25605866 -1.2222649e-18)
(10.751232 0.22956318 8.8184394e-20)
(10.805395 0.198909 1.9652621e-18)
(10.847068 0.15530138 -6.1478086e-19)
(10.886626 0.11040695 -6.119597e-20)
(10.905666 0.061919943 -1.0147114e-20)
(10.033565 0.077599993 0)
(10.05687 0.097888326 2.5685255e-19)
(10.079713 0.11627938 4.1650138e-18)
(10.115173 0.1367675 -4.6226422e-18)
(10.149476 0.15610965 4.4045389e-18)
(10.195054 0.17554615 -4.329547e-18)
(10.240338 0.19160168 1.3664796e-19)
(10.29265 0.20509447 -1.3773107e-19)
(10.346875 0.21303043 2.0798914e-18)
(10.407298 0.21502468 -2.1029164e-18)
(10.468679 0.21305399 2.104498e-18)
(10.533185 0.20492883 -2.3356981e-18)
(10.595971 0.19256781 0)
(10.65387 0.17642918 1.1337002e-18)
(10.712843 0.15374762 -1.2824622e-18)
(10.759411 0.12662255 5.6774081e-19)
(10.804379 0.092880534 -5.3414048e-19)
(10.832907 0.055481845 -2.4795778e-19)
(10.852283 0.015499921 2.8760125e-19)
(10.03044 0.037712431 -5.1996815e-21)
(10.043879 0.047600673 -7.2108379e-18)
(10.058077 0.065558959 1.1414553e-19)
(10.080866 0.080309874 -8.1552161e-23)
(10.108904 0.099234368 1.1683243e-19)
(10.146269 0.1168955 0)
(10.191366 0.13104805 3.8123396e-18)
(10.239874 0.14794221 -3.9760201e-18)
(10.292986 0.15634077 1.2112376e-19)
(10.352669 0.16823191 -1.8883823e-18)
(10.409244 0.1723883 3.9874987e-18)
(10.476109 0.17497937 -3.9417225e-18)
(10.538293 0.17243006 1.9807443e-18)
(10.602927 0.16573611 0)
(10.663642 0.15444918 -9.5674929e-19)
(10.714988 0.1353264 9.9176137e-19)
(10.762708 0.11143944 -1.5391577e-20)
(10.795058 0.082218109 2.8485063e-23)
(10.818858 0.048730763 -3.8328503e-21)
(10.010883 0.017644125 6.2804401e-18)
(10.020475 0.024559941 -6.3097111e-18)
(10.036931 0.030504052 6.2941361e-18)
(10.056608 0.037626323 1.0099759e-19)
(10.083407 0.046935665 0)
(10.119511 0.054699789 0)
(10.16277 0.061886364 -5.1901426e-20)
(10.213324 0.067282921 -3.2974455e-18)
(10.270667 0.070081469 3.4355429e-18)
(10.330797 0.072613274 3.3626446e-18)
(10.395319 0.071449901 -1.6355825e-18)
(10.46063 0.068128121 -1.794685e-18)
(10.523062 0.062649991 0)
(10.587052 0.054622867 2.6865102e-20)
(10.643173 0.046125902 2.6818079e-20)
(10.693742 0.03521867 8.4268439e-19)
(10.735398 0.023214341 -8.7199162e-19)
(10.763702 0.0067523672 1.9344762e-19)
(10.782474 -0.0099760343 -2.1329711e-19)
(10.006506 0.0039444507 -4.2288515e-20)
(10.011996 0.0069704778 5.4610753e-18)
(10.022311 0.011503621 -3.7390568e-21)
(10.038174 0.017067249 -5.2491428e-21)
(10.060564 0.023146244 -5.6498169e-18)
(10.090412 0.029670673 0)
(10.128029 0.036240156 2.8261132e-18)
(10.173231 0.04267409 -2.8535e-18)
(10.225265 0.048513941 -4.5429921e-20)
(10.28324 0.05330079 -2.2825371e-20)
(10.346317 0.057020582 -2.2910183e-20)
(10.411392 0.059951667 2.2981705e-20)
(10.475744 0.062762597 0)
(10.539259 0.065152834 1.4560035e-18)
(10.599754 0.064987387 -1.4902449e-18)
(10.654636 0.06613994 -7.3033266e-19)
(10.709121 0.05819285 7.4456335e-19)
(10.740882 0.051395938 3.7580931e-19)
(10.777543 0.040377084 -3.6968722e-19)
(13.048382 0.355556 -1.4550576e-19)
(13.039063 0.19136465 -5.8312753e-19)
(13.077565 0.016842404 5.6734351e-19)
(13.092558 -0.12146506 0)
(13.061704 -0.30152739 -1.0679911e-18)
(13.061548 -0.43358186 -2.0618388e-18)
(13.037987 -0.56443841 0)
(13.013342 -0.71413924 -1.7578515e-20)
(12.993289 -0.82790692 3.5142763e-18)
(12.991561 -0.95441484 1.6706831e-18)
(12.918023 -1.0823889 -1.5623335e-18)
(12.935562 -1.2047665 2.9551683e-18)
(12.854443 -1.3241591 -2.7588208e-18)
(12.873947 -1.4556245 0)
(12.858533 -1.5547317 1.2291724e-18)
(12.857216 -1.7044413 -1.1472413e-18)
(12.895009 -1.8085461 -2.1608263e-18)
(12.906537 -1.9710955 2.0278442e-18)
(12.956778 -2.1109199 -9.5191623e-19)
(12.939108 0.33011327 -1.2584448e-19)
(12.904248 0.15918426 7.5287422e-19)
(12.979747 -0.038429944 -4.9318703e-19)
(12.93127 -0.1843419 0)
(12.964736 -0.37721944 -9.3634129e-19)
(12.91765 -0.50068371 2.6915889e-18)
(12.926609 -0.6725035 0)
(12.871316 -0.78889874 0)
(12.868027 -0.94621797 0)
(12.835574 -1.0447445 0)
(12.820766 -1.1926376 2.7728516e-18)
(12.794129 -1.29131 -3.9376758e-18)
(12.736732 -1.4301204 -3.72609e-18)
(12.726967 -1.550937 2.3275163e-18)
(12.687529 -1.6629102 -2.197718e-18)
(12.685624 -1.8066606 2.0766005e-18)
(12.684935 -1.9265488 -7.8979939e-21)
(12.680397 -2.0817661 -1.8300533e-18)
(12.682743 -2.2669898 1.7263554e-18)
(12.826172 0.34249985 0)
(12.849036 0.16611024 -4.3725898e-19)
(12.870416 -0.015078067 -8.5859501e-19)
(12.849697 -0.18731324 -4.1601011e-21)
(12.856231 -0.35690736 -6.6167808e-21)
(12.815925 -0.52278318 1.5867733e-18)
(12.799392 -0.66252478 -3.0216306e-18)
(12.742028 -0.82460894 1.4376585e-18)
(12.724721 -0.95572866 1.2922084e-20)
(12.657575 -1.0932872 0)
(12.664222 -1.2209791 3.7260789e-18)
(12.596464 -1.3378869 6.3601518e-21)
(12.564871 -1.5087739 2.2201626e-18)
(12.527342 -1.5979555 2.1060742e-18)
(12.495908 -1.7748429 2.9638496e-18)
(12.470699 -1.8795584 -3.7179873e-18)
(12.463455 -2.072805 1.510925e-21)
(12.438853 -2.1901662 3.307039e-18)
(12.374764 -2.4394779 1.5565043e-18)
(12.737031 0.26550892 3.7917711e-19)
(12.74487 0.11482078 -7.561968e-19)
(12.764474 -0.10230754 1.11489e-18)
(12.749414 -0.23766272 0)
(12.73159 -0.44070221 2.1269391e-18)
(12.701435 -0.57900348 -3.4303725e-18)
(12.653853 -0.74545436 2.6496667e-18)
(12.622212 -0.88409814 -2.6459186e-21)
(12.554924 -1.0345135 1.3218614e-20)
(12.53392 -1.1570739 -1.1659941e-18)
(12.467665 -1.296449 0)
(12.445369 -1.4236682 -1.0418532e-18)
(12.36387 -1.579143 1.005897e-18)
(12.344984 -1.6877009 -1.8691419e-18)
(12.250451 -1.8635964 0)
(12.238388 -1.9856627 0)
(12.160575 -2.1740415 -1.5779245e-18)
(12.131429 -2.3158541 0)
(12.015701 -2.5675657 1.4027692e-18)
(12.622593 0.2903335 3.2793932e-19)
(12.640376 0.13793507 -3.2592099e-19)
(12.66165 -0.087056314 3.4330249e-21)
(12.640198 -0.22310573 -6.3230636e-19)
(12.637396 -0.44165396 6.1036218e-19)
(12.597197 -0.56452597 -1.4651216e-21)
(12.555891 -0.75681479 -1.1557679e-18)
(12.512218 -0.87797619 0)
(12.436524 -1.0433499 -2.1440442e-18)
(12.395554 -1.1588385 1.0203351e-18)
(12.308519 -1.3161816 0)
(12.27346 -1.4305187 0)
(12.166521 -1.5988374 -1.7612619e-18)
(12.144167 -1.7099621 -1.6846971e-18)
(12.020249 -1.8873485 1.5978396e-18)
(11.984873 -2.0137559 3.0198921e-18)
(11.852244 -2.2047455 1.4416038e-18)
(11.80717 -2.3543984 -1.3458763e-18)
(11.62672 -2.5588203 -1.7767261e-20)
(12.493378 0.2426388 0)
(12.528732 0.057670238 2.8354756e-19)
(12.525169 -0.13416877 -1.3949617e-18)
(12.532141 -0.30177348 5.4902789e-19)
(12.487641 -0.49815851 1.6109927e-18)
(12.46989 -0.63688336 -1.0531997e-18)
(12.387893 -0.81703511 -2.0369598e-18)
(12.371392 -0.93274343 1.9533319e-18)
(12.253731 -1.0954459 -9.548905e-19)
(12.232846 -1.2256501 1.8044821e-18)
(12.11772 -1.3589218 0)
(12.082951 -1.4975567 0)
(11.951177 -1.6382047 -1.5823568e-18)
(11.897058 -1.7675155 4.4963955e-18)
(11.755943 -1.929139 -5.6898076e-18)
(11.667724 -2.0440526 2.7080317e-18)
(11.505748 -2.2371991 -5.1617385e-18)
(11.409817 -2.3329417 1.2298409e-18)
(11.187403 -2.5498726 2.3319334e-18)
(12.423761 0.24034488 6.159291e-20)
(12.452823 0.071429124 2.4591684e-19)
(12.450545 -0.13090236 -4.823603e-19)
(12.44106 -0.30973492 0)
(12.399193 -0.4848023 -9.3739166e-19)
(12.375305 -0.65068262 2.7361378e-18)
(12.290943 -0.80312554 -1.7665985e-18)
(12.267528 -0.94956488 8.6273132e-19)
(12.132307 -1.1004848 -1.663498e-18)
(12.114509 -1.2356101 4.7875185e-18)
(11.960374 -1.3676163 -3.0507416e-18)
(11.919478 -1.5103901 0)
(11.753555 -1.6375604 1.3942455e-18)
(11.692868 -1.7798216 2.6811165e-18)
(11.494266 -1.8983343 -3.817807e-18)
(11.409671 -2.0407712 3.6659743e-18)
(11.171155 -2.152714 -3.4952872e-18)
(11.056821 -2.2774127 -2.2336338e-18)
(10.786337 -2.4141995 -1.0684991e-18)
(12.305129 0.21374289 1.5927415e-19)
(12.288301 0.012836639 2.1158444e-19)
(12.326378 -0.1741029 -4.1768839e-19)
(12.283641 -0.36090754 0)
(12.273823 -0.53298862 1.6205479e-18)
(12.197417 -0.70107491 -7.969622e-19)
(12.154199 -0.8414982 0)
(12.056489 -1.0001327 -1.5028532e-18)
(11.975712 -1.1266474 7.3047934e-19)
(11.890159 -1.2771205 0)
(11.757535 -1.390189 -1.3569277e-18)
(11.680034 -1.5371128 1.3034413e-18)
(11.487697 -1.644804 1.2501523e-18)
(11.410068 -1.7718121 -2.3894636e-18)
(11.183845 -1.87063 2.2768626e-18)
(11.075379 -1.979918 -1.0862113e-18)
(10.814177 -2.05545 -1.0529805e-18)
(10.674195 -2.1608875 -1.0096532e-18)
(10.377908 -2.2060938 -9.6807867e-19)
(12.232264 0.20028361 3.6643177e-19)
(12.208062 -0.00058785362 -1.8182153e-19)
(12.268499 -0.17480356 0)
(12.188301 -0.3771203 0)
(12.195531 -0.53078409 -1.4067541e-18)
(12.074421 -0.71359418 1.3800676e-18)
(12.049581 -0.84324468 0)
(11.913496 -1.0092789 6.5398895e-19)
(11.864077 -1.1259327 -6.3463997e-19)
(11.711741 -1.2810082 0)
(11.626814 -1.3757494 1.1856804e-18)
(11.456704 -1.5250793 1.0405497e-20)
(11.321726 -1.5890662 1.0402702e-20)
(11.129683 -1.7315267 0)
(10.933882 -1.7666255 -4.0893504e-18)
(10.773207 -1.8726043 3.9060237e-18)
(10.467886 -1.890358 4.7099578e-18)
(10.306048 -1.9593494 -6.3311477e-18)
(9.9718034 -1.9355102 4.326799e-18)
(12.101877 0.15538069 0)
(12.069509 -0.025701071 1.3816761e-21)
(12.138897 -0.20964781 0)
(12.053824 -0.40617747 0)
(12.069375 -0.55755086 6.0756397e-19)
(11.941251 -0.73789328 5.0764103e-21)
(11.908991 -0.86204145 -5.8978183e-19)
(11.756249 -1.0329108 -1.7259517e-18)
(11.689052 -1.1327126 2.2248534e-18)
(11.515042 -1.2905379 0)
(11.415618 -1.3569857 -1.0527669e-18)
(11.216995 -1.4967277 -6.0915337e-18)
(11.089892 -1.5277378 2.9262566e-18)
(10.862605 -1.6531668 0)
(10.702238 -1.6300869 -3.6462899e-18)
(10.453421 -1.7255724 4.3710157e-18)
(10.246263 -1.6557963 -3.3833273e-18)
(10.030849 -1.7037115 4.056058e-18)
(9.7051244 -1.5937082 0)
(12.020997 0.1281835 -2.7345181e-19)
(11.998779 -0.033247503 1.3706394e-19)
(12.047871 -0.24936244 0)
(11.953699 -0.40884667 -1.0746347e-18)
(11.961898 -0.58205176 1.5867664e-18)
(11.813994 -0.73773064 -5.1877658e-19)
(11.777704 -0.874808 -1.5432887e-18)
(11.60674 -1.0226732 3.5043007e-18)
(11.531192 -1.1262934 -1.9452696e-18)
(11.325734 -1.2518504 0)
(11.212624 -1.3093816 9.177982e-19)
(10.977767 -1.4266997 5.3716023e-18)
(10.839961 -1.432423 -3.4485756e-18)
(10.583265 -1.5202906 0)
(10.41869 -1.4535891 0)
(10.138094 -1.5207004 -1.5604197e-18)
(9.9524724 -1.3817318 7.5618138e-19)
(9.7217101 -1.4034567 -2.1828767e-18)
(9.4927961 -1.1939846 0)
(11.880204 0.11104982 -2.3614405e-19)
(11.884687 -0.04977302 7.0710298e-19)
(11.908181 -0.27007521 -7.0228032e-19)
(11.834304 -0.40892029 0)
(11.818583 -0.60570441 1.3830198e-18)
(11.680696 -0.72264708 -1.8030504e-18)
(11.624471 -0.88614755 0)
(11.443262 -0.99822914 8.7506525e-19)
(11.362217 -1.1038574 8.5559645e-19)
(11.147947 -1.1915291 0)
(11.032087 -1.2548906 0)
(10.779947 -1.3165038 -7.8344125e-19)
(10.646837 -1.3112398 -2.2979203e-18)
(10.381629 -1.3349733 -1.8436039e-20)
(10.245214 -1.255422 2.1386752e-18)
(9.9501307 -1.2437022 1.386278e-18)
(9.7995299 -1.080134 -6.6836481e-19)
(9.5270056 -1.0435112 1.2921495e-18)
(9.3971842 -0.76646084 0)
(11.779506 0.087931108 0)
(11.810223 -0.091789451 -8.1408016e-19)
(11.786446 -0.28137581 1.616049e-18)
(11.736912 -0.42792181 -1.2028066e-18)
(11.680707 -0.61516024 0)
(11.565177 -0.71626612 0)
(11.473176 -0.89074404 0)
(11.284249 -0.96081122 -7.5622881e-19)
(11.18398 -1.0775342 -7.4118532e-19)
(10.949397 -1.1221029 0)
(10.822048 -1.1714093 -7.121341e-19)
(10.553688 -1.1873387 -6.9369676e-19)
(10.417795 -1.1666837 -6.7019752e-19)
(10.141004 -1.1308756 2.6220875e-18)
(10.032961 -1.0263908 -2.5336737e-18)
(9.7735241 -0.94934459 -6.1285991e-19)
(9.6843419 -0.76896967 3.5791411e-18)
(9.4462958 -0.66879303 -5.7503023e-18)
(9.4049492 -0.38752291 3.3410118e-18)
(11.670448 0.081108354 -4.4143202e-20)
(11.708341 -0.10257767 8.8051677e-20)
(11.664196 -0.27270777 8.7303458e-19)
(11.638574 -0.4416763 -2.0839556e-18)
(11.541028 -0.59810342 1.0260353e-18)
(11.451205 -0.70897978 0)
(11.313763 -0.85343761 0)
(11.152058 -0.90617588 6.6229953e-19)
(11.008743 -1.0175558 -2.6028557e-18)
(10.807306 -1.0083614 -6.5402351e-19)
(10.670459 -1.0632994 6.0302835e-19)
(10.416624 -1.0157066 3.0228986e-18)
(10.278562 -0.97873407 5.9291676e-19)
(10.002808 -0.88549568 0)
(9.9066098 -0.77644092 1.6792719e-18)
(9.671383 -0.64796859 0)
(9.639411 -0.45728419 -3.1667675e-18)
(9.4701214 -0.32315297 9.1675543e-18)
(9.4850523 -0.03101355 -7.8873283e-18)
(11.564957 0.052018842 7.5880312e-20)
(11.590923 -0.13010734 -7.5438177e-20)
(11.549842 -0.28428213 0)
(11.514672 -0.4561357 -9.0202526e-19)
(11.398682 -0.58289612 2.8955795e-19)
(11.316701 -0.70609097 1.1734513e-18)
(11.143717 -0.81089961 0)
(11.002518 -0.87087959 -2.8743262e-18)
(10.81181 -0.94296648 1.6844846e-18)
(10.637636 -0.91981318 -3.2377386e-21)
(10.470571 -0.94510292 0)
(10.268258 -0.82961254 0)
(10.137184 -0.79176107 -5.1736965e-19)
(9.9174294 -0.64529918 0)
(9.846662 -0.53524106 3.1199864e-21)
(9.658283 -0.34931342 9.5747953e-19)
(9.672133 -0.18428453 -2.7901435e-18)
(9.5355041 0.011185427 7.1999439e-18)
(9.6544129 0.27395196 -3.4870249e-18)
(11.496412 0.04082317 2.289887e-19)
(11.505281 -0.13188045 -1.9583816e-19)
(11.470816 -0.27873891 0)
(11.417153 -0.44576091 0)
(11.309024 -0.55126033 0)
(11.211297 -0.67637614 0)
(11.038681 -0.73860765 -2.0231207e-18)
(10.908085 -0.80125321 1.9852359e-18)
(10.691269 -0.82420559 2.4587435e-18)
(10.533943 -0.79902233 -9.5964405e-19)
(10.329468 -0.76489409 0)
(10.17311 -0.64816206 3.7237553e-18)
(10.019695 -0.59460998 -6.8093187e-18)
(9.8829665 -0.40239315 3.5388388e-18)
(9.8308931 -0.2946651 -4.32238e-18)
(9.718756 -0.068286057 2.5180819e-18)
(9.7828816 0.070099123 -8.1692156e-19)
(9.7202415 0.29886818 -7.9300879e-19)
(9.9255306 0.51009034 7.697947e-19)
(11.378539 0.018588724 2.2548716e-19)
(11.375726 -0.14081092 -7.3179109e-19)
(11.357044 -0.2857642 4.4800531e-19)
(11.276581 -0.43792171 -8.9422145e-19)
(11.169925 -0.53824637 8.8488292e-19)
(11.043534 -0.65046256 0)
(10.891316 -0.68450292 -4.3744232e-19)
(10.749131 -0.73510202 1.7325339e-18)
(10.55074 -0.70509369 -1.6994766e-18)
(10.418045 -0.67374412 -4.1879638e-19)
(10.230327 -0.59225151 -3.3103126e-18)
(10.122136 -0.48842565 3.2316859e-18)
(9.9706475 -0.37732096 -3.9602075e-19)
(9.9129729 -0.1858931 2.3298756e-18)
(9.85387 -0.07036626 -2.2654992e-18)
(9.8516794 0.16600939 0)
(9.9329036 0.26524686 -5.7426301e-18)
(9.9780648 0.50001189 6.2731006e-18)
(10.260029 0.60521214 0)
(11.316686 0.0058400747 -3.8846546e-19)
(11.312419 -0.1444691 3.8816722e-19)
(11.293239 -0.28049181 -7.7381365e-19)
(11.201071 -0.40513306 7.6822614e-19)