/*--------------------------------*- C++ -*----------------------------------*\
  =========                 |
  \\      /  F ield         | OpenFOAM: The Open Source CFD Toolbox
   \\    /   O peration     | Website:  https://openfoam.org
    \\  /    A nd           | Version:  11
     \\/     M anipulation  |
\*---------------------------------------------------------------------------*/
FoamFile
{
    format      ascii;
    class       volVectorField;
    location    "14.7";
    object      U;
}
// * * * * * * * * * * * * * * * * * * * * * * * * * * * * * * * * * * * * * //

dimensions      [0 1 -1 0 0 0 0];

internalField   nonuniform List<vector> 
4455
(
(9.9983785 0.002767314 0)
(9.9889875 0.002853623 -1.4719076e-19)
(9.9693856 0.0092905142 5.0523996e-19)
(9.9423833 0.0056547797 1.0112943e-21)
(9.8941554 0.017498909 4.7398015e-19)
(9.8450654 0.011561486 -1.7814765e-18)
(9.7526844 0.036521883 7.9134193e-19)
(9.6608134 0.012743819 0)
(9.511204 0.066888334 -4.7545665e-18)
(10.000563 0.0065908656 -9.6221693e-19)
(9.9904438 0.012617591 9.3740738e-19)
(9.9683181 0.022962811 -1.1522518e-18)
(9.9405487 0.022013234 1.9176774e-18)
(9.8901454 0.033442055 -3.6716208e-18)
(9.8370212 0.024077803 3.9968781e-18)
(9.7341804 0.036732891 -3.7903864e-19)
(9.6455144 0.0095625636 5.5319142e-19)
(9.4675993 -0.0099243858 2.0627364e-17)
(10.001395 0.010303188 -1.0073675e-18)
(9.9920967 0.0219445 1.2722365e-18)
(9.9684955 0.037902046 1.1276505e-18)
(9.9401044 0.040029576 -1.1210264e-18)
(9.888231 0.056691924 4.898902e-18)
(9.8337987 0.050343439 -2.7540807e-18)
(9.7327614 0.070750314 3.5586776e-19)
(9.6244752 0.014796995 -7.7860358e-18)
(9.4501412 0.054573003 -1.4580787e-17)
(10.00202 0.013816394 2.3587705e-21)
(9.9935726 0.029742118 -1.4099435e-19)
(9.9696025 0.052991919 2.6772654e-18)
(9.9400114 0.05690498 3.6522433e-19)
(9.8912078 0.082294322 1.1890696e-22)
(9.8295609 0.073589431 -5.2992888e-19)
(9.7241493 0.11546621 5.8447902e-18)
(9.605933 0.04206546 1.5565673e-17)
(9.4105697 0.10388419 1.2095771e-17)
(10.004406 0.018130367 1.948489e-18)
(9.9943271 0.035551198 -2.1784897e-18)
(9.9721869 0.067309429 2.7720226e-18)
(9.940767 0.07328817 1.1224882e-21)
(9.8947262 0.10742175 -3.3601746e-18)
(9.8292496 0.096595047 -1.0265714e-18)
(9.7174069 0.1396092 -4.6064447e-18)
(9.5886477 0.06145922 -7.3232413e-18)
(9.3642655 0.13954476 -3.5679822e-17)
(10.005384 0.020292048 0)
(9.9965684 0.042254771 0)
(9.9750275 0.078811445 -4.8318791e-18)
(9.9437395 0.0897578 -5.5511946e-18)
(9.9001959 0.13064514 0)
(9.8321515 0.12811453 -7.4347598e-18)
(9.710604 0.18236083 -6.2844339e-19)
(9.5632949 0.096539537 -4.3552806e-19)
(9.3165679 0.19032358 4.4040964e-17)
(10.008475 0.022788017 0)
(9.9964513 0.046321699 -1.3110937e-19)
(9.9798192 0.090360375 1.475692e-19)
(9.9475776 0.10336929 5.4257412e-18)
(9.9052375 0.14952707 -3.9839862e-19)
(9.8356381 0.14787671 1.5834616e-17)
(9.7145644 0.20964078 0)
(9.5494459 0.1241888 0)
(9.2619695 0.24983113 2.0179961e-17)
(10.010186 0.02372669 3.690809e-18)
(9.9987939 0.050269665 0)
(9.9824025 0.098718532 0)
(9.9554186 0.12033631 0)
(9.9141821 0.17331447 0)
(9.840802 0.18047019 -7.9056706e-18)
(9.7093349 0.2525177 -8.4355691e-18)
(9.5305445 0.16562371 1.2085843e-17)
(9.2115289 0.31054532 1.1710443e-19)
(10.012269 0.024304877 -3.6343392e-18)
(10.000533 0.052228938 -1.2626933e-19)
(9.9865478 0.10386605 -1.4235911e-19)
(9.9592502 0.12780429 3.2285575e-19)
(9.9245865 0.18678802 1.2412556e-17)
(9.8513631 0.19772093 1.3953334e-17)
(9.7210742 0.28243044 2.6880723e-17)
(9.5149143 0.20329256 -1.1870793e-17)
(9.1527418 0.3828471 -3.4770242e-17)
(10.013064 0.02374134 0)
(10.014057 0.02282233 6.7611254e-18)
(10.013996 0.021327682 -6.7062491e-18)
(10.013371 0.018989805 6.4303634e-18)
(10.013134 0.016451778 -6.2853166e-18)
(10.011259 0.013073571 1.255866e-17)
(10.009979 0.010214275 -1.2191981e-17)
(10.007718 0.005867085 0)
(10.003589 0.0022759513 0)
(10.003565 0.054813649 0)
(10.005212 0.054268923 1.1695434e-19)
(10.008388 0.053406508 0)
(10.009863 0.051363158 3.3275869e-19)
(10.011977 0.048671398 6.7984995e-18)
(10.014691 0.044572003 -2.0312223e-17)
(10.014682 0.03988174 1.3151886e-17)
(10.01884 0.034847666 -2.0053588e-19)
(10.015503 0.023309932 1.2711685e-17)
(9.9917535 0.11136724 8.479128e-18)
(9.9971174 0.11592098 -1.6712682e-17)
(10.002574 0.11811952 1.5965487e-17)
(10.009596 0.11750577 -4.9811019e-19)
(10.013388 0.11516337 -7.5387655e-18)
(10.021969 0.11198094 -2.2921285e-19)
(10.02389 0.10456442 0)
(10.033738 0.099481522 4.3371098e-19)
(10.033144 0.081692414 -2.111243e-19)
(9.968264 0.14149064 8.8351859e-18)
(9.9769853 0.15201921 -1.7951607e-17)
(9.9852935 0.15941595 1.7088668e-17)
(9.997618 0.16501919 -8.2821332e-18)
(10.004866 0.1658397 -5.1834887e-19)
(10.019087 0.1685468 2.5052521e-19)
(10.025717 0.16376702 0)
(10.042484 0.16275636 -2.3608528e-19)
(10.044766 0.14666828 1.4229256e-17)
(9.9319987 0.20825021 -9.9681897e-18)
(9.9493126 0.22822688 0)
(9.956694 0.24285658 -9.2338565e-18)
(9.9766747 0.25760792 9.5217058e-18)
(9.9852444 0.26516684 -8.6059129e-18)
(10.006856 0.27527646 8.8932372e-18)
(10.016726 0.27605947 0)
(10.040311 0.28281968 0)
(10.047729 0.26839456 5.0332303e-19)
(9.8574231 0.22675995 -1.2172825e-17)
(9.8750119 0.25974698 -1.1647664e-17)
(9.8841655 0.28302344 1.1196749e-17)
(9.9052535 0.3136358 1.0738925e-17)
(9.9195109 0.32906006 -1.0353063e-17)
(9.94375 0.35713026 0)
(9.9628988 0.36268403 1.9184188e-17)
(9.9895035 0.38920462 -4.4521869e-20)
(10.007662 0.37911591 -3.5821903e-17)
(9.7186059 0.31980233 -1.4241768e-17)
(9.7382647 0.37872972 0)
(9.7475825 0.40519797 0)
(9.7742064 0.45880607 3.903561e-19)
(9.7958231 0.47805717 0)
(9.8279971 0.53160879 0)
(9.8576063 0.54297095 0)
(9.8929148 0.59287489 0)
(9.9208294 0.59106714 0)
(9.5028978 0.25075492 5.4508294e-19)
(9.4841081 0.34805368 0)
(9.4922376 0.40897728 4.8895396e-19)
(9.4923541 0.51352932 -9.1722515e-19)
(9.5297287 0.56291998 -1.3901235e-17)
(9.5531839 0.65635785 -1.3194236e-17)
(9.6056377 0.68880857 2.5327961e-17)
(9.6444671 0.77214213 2.4492603e-17)
(9.7005281 0.78083794 -2.3170366e-17)
(9.0833796 0.46170312 6.5158327e-17)
(9.0062793 0.67815541 -4.0388778e-17)
(9.0082962 0.80862991 3.7523107e-17)
(9.0451799 1.0304971 -3.5433762e-17)
(9.1240029 1.124321 -5.0424361e-17)
(9.2085294 1.3017582 9.4921678e-17)
(9.3044169 1.3548082 -5.9971164e-17)
(9.4018008 1.4955372 -2.8603418e-17)
(9.4906168 1.5059557 2.6890426e-17)
(10.005079 0.0027907068 -1.6758487e-20)
(10.008151 0.004001113 1.7209982e-17)
(10.012991 0.0059367581 -6.0446694e-21)
(10.019253 0.0081168342 -1.7336756e-17)
(10.026816 0.010378441 1.6968144e-20)
(10.035896 0.012702224 1.7442691e-17)
(10.046561 0.015149901 -1.7527819e-17)
(10.05899 0.017659422 -1.711913e-20)
(10.074362 0.021145489 -8.8168127e-18)
(10.022993 0.026453967 -1.8239956e-17)
(10.027624 0.036703574 1.8355169e-17)
(10.03962 0.037877417 -1.8360254e-17)
(10.047203 0.051110513 0)
(10.063098 0.051133986 1.8520004e-17)
(10.073813 0.0669272 1.5756216e-20)
(10.093361 0.065445169 3.157251e-20)
(10.10749 0.083566303 -1.8634691e-17)
(10.131336 0.08017552 9.3751189e-18)
(10.045645 0.088650177 1.9453052e-17)
(10.049344 0.10502121 -1.9512428e-17)
(10.065314 0.10982605 -1.9645596e-17)
(10.070426 0.1278333 1.9692146e-17)
(10.089073 0.13244627 -1.9857442e-17)
(10.09628 0.15332215 1.9790104e-17)
(10.118766 0.15769133 -1.9987216e-17)
(10.128594 0.18216969 -1.2116854e-20)
(10.155554 0.18568955 2.0021177e-17)
(10.064021 0.15895433 -2.0787742e-17)
(10.066821 0.18339528 -8.1783582e-20)
(10.087595 0.1931546 8.2265154e-20)
(10.090502 0.21819873 0)
(10.113791 0.22788346 -1.6533508e-22)
(10.119054 0.25646782 -2.1158699e-17)
(10.146753 0.2660217 2.1509365e-17)
(10.154981 0.29892134 8.3728249e-20)
(10.187726 0.30737206 8.3997478e-20)
(10.070426 0.28598558 -8.7775721e-20)
(10.071503 0.31612778 -2.2600522e-17)
(10.093164 0.33058547 -6.9508755e-20)
(10.092464 0.35934964 2.2806519e-17)
(10.116836 0.37352578 2.2965151e-17)
(10.118925 0.40644478 -2.3082147e-17)
(10.148446 0.42051782 -8.9957176e-20)
(10.153658 0.45813082 -9.028312e-20)
(10.188594 0.47083839 -9.0608887e-20)
(10.039256 0.40609449 2.4492819e-17)
(10.037985 0.44715768 0)
(10.06543 0.46855312 0)
(10.061548 0.50718403 2.4692343e-17)
(10.092219 0.5275727 -2.5022989e-17)
(10.092205 0.57054988 -2.509255e-17)
(10.128636 0.59025316 5.0225343e-17)
(10.132372 0.63747727 -4.4744251e-20)
(10.174103 0.65492543 -5.0613734e-17)
(9.9548319 0.6336341 -1.0580266e-19)
(9.9587013 0.67993894 0)
(9.9828202 0.70856005 1.0660145e-19)
(9.9857517 0.7474077 2.7385227e-17)
(10.014931 0.77427749 -2.7550768e-17)
(10.024613 0.81187909 2.7623314e-17)
(10.059491 0.83718699 -2.7683236e-17)
(10.07401 0.87190799 -1.0841841e-19)
(10.111497 0.89352376 2.7857907e-17)
(9.7453384 0.84780907 -2.9770118e-17)
(9.7878824 0.90266487 3.0183957e-17)
(9.8280862 0.94976358 -3.030506e-17)
(9.8734224 0.99416684 3.0149543e-17)
(9.9185367 1.033264 -3.0018932e-17)
(9.9686035 1.0703666 -5.7473765e-21)
(10.017094 1.1016966 3.0427942e-17)
(10.068117 1.1300719 2.3848484e-19)
(10.11359 1.1504566 1.519895e-17)
(9.5876749 1.6128996 0)
(9.641115 1.6422271 -3.3422047e-17)
(9.7355824 1.7225416 1.8888878e-19)
(9.7900259 1.7271549 3.1500778e-19)
(9.8886086 1.7774208 6.7108156e-17)
(9.9394233 1.7425477 -3.3583344e-17)
(10.047822 1.7439088 -3.3606331e-17)
(10.110675 1.6370348 3.3733008e-17)
(10.219368 1.5715924 1.6941963e-17)
(10.275564 1.3986684 -1.9803608e-17)
(10.307019 1.3101242 0)
(10.327519 1.1955164 1.9714027e-17)
(10.29995 1.1479694 -1.9708008e-17)
(10.257016 1.0387793 0)
(10.186968 1.0102152 0)
(10.112048 0.90385808 0)
(10.028984 0.89905093 -2.0211815e-17)
(9.9411932 0.80949637 2.0211867e-17)
(10.154301 1.165432 -1.7313632e-17)
(10.186625 1.1855344 0)
(10.216273 1.1872345 0)
(10.233973 1.1921953 0)
(10.249459 1.188482 0)
(10.252345 1.1930222 0)
(10.247475 1.1937524 0)
(10.237667 1.2034248 1.7142246e-17)
(10.213771 1.2023014 -3.4366291e-17)
(10.126284 0.92209195 -5.6710137e-20)
(10.159789 0.9492549 -3.0584254e-17)
(10.171615 0.97236365 0)
(10.203238 0.99792889 -1.5215105e-17)
(10.211036 1.0192028 1.52151e-17)
(10.238676 1.0420034 0)
(10.240494 1.0624107 0)
(10.263149 1.0856649 0)
(10.257142 1.1078647 0)
(10.177031 0.70162137 2.7213556e-17)
(10.220211 0.7263726 0)
(10.223525 0.77151851 1.3531295e-17)
(10.266885 0.795378 -2.7037286e-17)
(10.270129 0.84027513 1.3505709e-17)
(10.313557 0.8642898 0)
(10.315644 0.90969387 0)
(10.359219 0.93536632 0)
(10.358808 0.98214605 1.3380927e-17)
(10.194307 0.51167379 0)
(10.232528 0.52731852 2.4454541e-17)
(10.239184 0.57026769 -3.6659873e-17)
(10.280168 0.58595143 1.2205066e-17)
(10.287854 0.63087636 1.215727e-17)
(10.331687 0.64721155 -2.5315454e-20)
(10.339976 0.69463076 -2.4237365e-17)
(10.387021 0.71240962 2.4183843e-17)
(10.395289 0.76289353 -1.2078164e-17)
(10.19752 0.34412805 0)
(10.234659 0.35416732 1.1123826e-17)
(10.246587 0.39419059 -1.1123971e-17)
(10.287887 0.4038254 0)
(10.302007 0.44690231 -2.2105465e-17)
(10.347427 0.45638812 2.2105508e-17)
(10.363617 0.50282383 1.0997893e-17)
(10.413518 0.51250679 -2.1966111e-17)
(10.431594 0.56277071 1.0968135e-17)
(10.167321 0.21385591 0)
(10.198684 0.21808959 0)
(10.21303 0.24994872 0)
(10.249105 0.25365938 -1.0198393e-17)
(10.266312 0.28931058 2.0374534e-17)
(10.307366 0.29248764 -2.0328436e-17)
(10.327601 0.33222112 1.015223e-17)
(10.374158 0.33495023 -1.0099027e-17)
(10.397557 0.37927375 2.0168521e-17)
(10.148201 0.1009858 -1.9000999e-17)
(10.176786 0.097085363 1.7267384e-20)
(10.197134 0.12171688 9.4755154e-18)
(10.230066 0.11635093 -9.436729e-18)
(10.254238 0.14402705 9.4366904e-18)
(10.291816 0.13674057 0)
(10.320079 0.16752266 9.3660978e-18)
(10.363213 0.15831042 -1.8704888e-17)
(10.396001 0.19304429 9.3387928e-18)
(10.083839 0.026298936 1.2221538e-20)
(10.107108 0.02637689 8.8732405e-18)
(10.12223 0.038273632 8.8477519e-18)
(10.152462 0.037884668 -8.8477527e-18)
(10.169781 0.0490585 0)
(10.204913 0.048521455 0)
(10.225662 0.059925661 -8.7764095e-18)
(10.267833 0.060243933 1.7530241e-17)
(10.293947 0.072479044 -8.7540092e-18)
(10.34302 0.073747015 0)
(10.375863 0.086599176 -8.6725916e-18)
(10.431815 0.08899905 3.2075719e-20)
(10.471943 0.10242504 3.4821688e-20)
(10.535633 0.10582974 3.7759584e-20)
(10.583897 0.12003676 8.5679344e-18)
(10.656293 0.12490032 8.4825828e-18)
(10.714046 0.1398438 -8.4825834e-18)
(10.796484 0.14623282 0)
(10.445437 0.18192641 0)
(10.483071 0.22125067 0)
(10.53942 0.20824069 -9.2076331e-18)
(10.582202 0.25271674 3.8898537e-20)
(10.646207 0.23784003 4.1634587e-20)
(10.69456 0.28821443 9.1270477e-18)
(10.767259 0.27149884 9.0346865e-18)
(10.821785 0.32877336 -9.0346492e-18)
(10.904431 0.31019477 0)
(10.450215 0.38173486 -1.0069532e-17)
(10.476899 0.43127555 0)
(10.5363 0.43369462 0)
(10.566432 0.48919576 -9.9298535e-18)
(10.63335 0.49181359 1.9818655e-17)
(10.667229 0.55420403 -4.3803252e-20)
(10.742654 0.55722393 -4.6842484e-20)
(10.780805 0.62766482 -9.7980748e-18)
(10.865978 0.63115866 0)
(10.486398 0.57312508 -1.0903831e-17)
(10.506104 0.62781834 1.0903771e-17)
(10.566297 0.63944898 0)
(10.587407 0.69941995 0)
(10.653664 0.71299837 1.0753512e-17)
(10.676129 0.7794468 -1.0753442e-17)
(10.749438 0.79558992 1.0665388e-17)
(10.773517 0.87007563 -5.3566663e-18)
(10.855248 0.88921461 -5.3085993e-18)
(10.445791 0.78309456 -1.2020773e-17)
(10.453326 0.83740585 1.2020652e-17)
(10.50759 0.86115327 0)
(10.513769 0.92050825 0)
(10.572424 0.94892315 0)
(10.5769 1.0151037 0)
(10.641122 1.0491356 0)
(10.643945 1.1243492 0)
(10.71547 1.1646591 0)
(10.402504 1.0112449 -1.3380923e-17)
(10.398191 1.0603541 1.3334484e-17)
(10.442068 1.0950115 -1.3334118e-17)
(10.432811 1.1480105 1.3290464e-17)
(10.477545 1.1898885 -1.3289835e-17)
(10.462731 1.2493415 0)
(10.510151 1.2994945 0)
(10.489706 1.3684956 0)
(10.542522 1.4278406 0)
(10.274555 1.1358025 0)
(10.259308 1.161108 -1.5131292e-17)
(10.273443 1.197293 1.512807e-17)
(10.247794 1.2279471 0)
(10.260868 1.2752303 1.5139408e-17)
(10.223306 1.3149444 -1.5139939e-17)
(10.238614 1.3757566 0)
(10.188962 1.4280369 7.5837469e-18)
(10.209618 1.5035581 -1.5172298e-17)
(10.196009 1.2247986 1.7205935e-17)
(10.149876 1.2324608 1.728984e-17)
(10.12598 1.2656617 -1.729277e-17)
(10.060037 1.2868144 1.7400221e-17)
(10.03155 1.3301647 -3.4863789e-17)
(9.9484723 1.3677911 3.499174e-17)
(9.916719 1.4230141 -3.5128491e-17)
(9.8180572 1.4804531 1.7599093e-17)
(9.7847479 1.549588 0)
(9.8515832 0.82801834 -2.0473134e-17)
(9.752824 0.75337289 2.0473182e-17)
(9.6598871 0.79394604 0)
(9.5474447 0.73221315 0)
(9.4526205 0.79535086 0)
(9.3222907 0.74701618 0)
(9.2252948 0.83440392 0)
(9.0794462 0.80220786 -1.0754449e-17)
(8.9717753 0.91512313 1.0754379e-17)
(8.8139377 0.90702318 1.0919421e-17)
(9.672051 1.6305791 0)
(10.14891 1.5731759 7.5894531e-18)
(10.51699 1.509556 0)
(10.717155 1.2512977 0)
(10.881588 0.9735685 0)
(10.909204 0.71097827 4.8182103e-18)
(10.965959 0.37558593 4.4347947e-18)
(10.865066 0.16213258 4.1627805e-18)
(8.695464 1.053586 -1.0919325e-17)
(9.6396503 1.7157665 0)
(10.176745 1.6611328 0)
(10.578238 1.5786073 6.5615604e-18)
(10.798137 1.2981816 0)
(10.973478 0.99583873 -5.2262316e-18)
(11.005554 0.71480526 -9.6053553e-18)
(11.060053 0.35502408 -8.8379218e-18)
(10.959018 0.17050172 -8.2948274e-18)
(8.525743 1.0769426 0)
(9.5152888 1.8248822 0)
(10.109206 1.7577201 7.5965006e-18)
(10.548882 1.6762841 -6.5616387e-18)
(10.799722 1.3986661 0)
(11.003169 1.0920192 5.2262171e-18)
(11.054995 0.80539664 4.7871642e-18)
(11.129575 0.42985594 4.4031275e-18)
(11.040116 0.1874863 4.1320459e-18)
(8.394785 1.2702589 1.117323e-17)
(9.4875875 1.9283825 0)
(10.144444 1.8566118 -1.5191375e-17)
(10.621926 1.754952 0)
(10.892572 1.4519316 0)
(11.107238 1.1171668 -5.160384e-18)
(11.164087 0.80908395 -4.7177872e-18)
(11.236715 0.40706897 0)
(11.147308 0.19808812 -4.0624615e-18)
(8.215166 1.3355879 -1.1173184e-17)
(9.3556399 2.0713086 -9.0429855e-18)
(10.074022 1.9833375 7.5947717e-18)
(10.591063 1.8720494 0)
(10.895748 1.5686315 0)
(11.141837 1.2270876 5.1603785e-18)
(11.221224 0.91173207 4.7177816e-18)
(11.315469 0.4927669 0)
(11.242834 0.21614313 4.0624609e-18)
(8.0733185 1.5930226 0)
(9.3385905 2.1953502 9.0429621e-18)
(10.120292 2.0934623 -7.5801563e-18)
(10.677488 1.9571273 0)
(11.002929 1.6273078 0)
(11.26027 1.2543974 -5.0831101e-18)
(11.344717 0.91446149 -4.6370228e-18)
(11.438078 0.4672774 0)
(11.364951 0.22913604 -3.9805727e-18)
(7.8941305 1.7184248 0)
(9.2056015 2.3790978 0)
(10.052444 2.2541512 7.5801521e-18)
(10.65319 2.1003947 -3.2233855e-18)
(11.010394 1.7626025 -2.8330556e-18)
(11.301752 1.3796955 7.6028166e-18)
(11.41141 1.0303733 6.9327802e-18)
(11.524134 0.56245909 0)
(11.476552 0.2478389 5.9478704e-18)
(7.7548079 2.0801005 0)
(9.2091503 2.5238463 -4.5423173e-18)
(10.114815 2.3738907 0)
(10.752319 2.1889198 3.2228819e-18)
(11.133238 1.8239182 2.8325373e-18)
(11.436556 1.4079259 -2.378855e-20)
(11.551823 1.0309708 -4.5668823e-18)
(11.668942 0.53991832 0)
(11.614181 0.26290204 -1.967298e-18)
(7.6179309 2.2653578 -5.7287451e-18)
(9.0853288 2.7637084 4.5418806e-18)
(10.055931 2.5827632 0)
(10.740835 2.3696697 0)
(11.153246 1.9921385 0)
(11.490268 1.5582147 -4.9651928e-18)
(11.630368 1.1631171 2.6780121e-20)
(11.760162 0.63946882 0)
(11.740997 0.28131345 0)
(11.911428 0.29899137 0)
(11.926577 0.62255051 0)
(11.789529 1.1560937 -1.0990546e-19)
(11.636274 1.5685553 2.5913771e-18)
(11.292075 2.031159 0)
(10.860959 2.4412985 -3.9699067e-19)
(10.154472 2.6887947 -2.7355453e-20)
(9.1452138 2.9119455 -3.7694762e-18)
(7.5312661 2.7454729 1.0677146e-17)
(12.074058 0.31200862 -9.4094341e-19)
(12.029854 0.70744455 -1.2773138e-19)
(11.885222 1.2755768 1.1288273e-18)
(11.717141 1.7156228 -3.5812575e-21)
(11.351651 2.1991898 -1.188163e-18)
(10.889383 2.6291183 1.5436101e-18)
(10.155598 2.9209496 -4.7056418e-19)
(9.1232382 3.208993 4.9046109e-18)
(7.6432946 3.0539992 -5.4347672e-18)
(12.241604 0.32301811 1.8844994e-18)
(12.220265 0.68873895 0)
(12.076714 1.272869 2.2052476e-18)
(11.884875 1.7178304 -1.2042485e-18)
(11.524486 2.2266382 1.2020952e-18)
(11.058131 2.687576 -2.9259024e-18)
(10.34221 3.0104039 -2.2915391e-18)
(9.338483 3.3308769 1.1038062e-18)
(7.9359545 3.3874177 6.4803328e-20)
(12.42166 0.33403821 -9.4406469e-19)
(12.335507 0.7713026 -1.2647195e-19)
(12.185859 1.3905589 -9.7115595e-19)
(11.987916 1.8795553 1.374761e-18)
(11.611348 2.4113688 5.0961808e-19)
(11.118037 2.8913096 1.574232e-18)
(10.383699 3.2524842 1.851821e-18)
(9.3695172 3.616492 5.7543504e-19)
(7.9710785 3.6456592 -6.588057e-19)
(12.615163 0.34554147 2.2839468e-19)
(12.555606 0.75458244 -2.4660084e-19)
(12.405947 1.3896785 -1.3775344e-19)
(12.1779 1.869192 4.4842871e-19)
(11.810445 2.4245988 -5.139555e-19)
(11.316502 2.9354902 -5.8013699e-19)
(10.60066 3.3262454 -4.7742956e-19)
(9.6025255 3.7194386 5.3908478e-19)
(8.2338925 3.9235494 -7.2335327e-19)
(12.820681 0.35754971 -2.3100737e-19)
(12.683399 0.83888212 2.4956824e-19)
(12.528838 1.5028765 -1.3681431e-19)
(12.302189 2.0418786 -1.7487235e-21)
(11.918748 2.6191388 -1.6727722e-19)
(11.397848 3.1484893 3.9479609e-19)
(10.663817 3.5733367 -4.7898194e-19)
(9.6530723 4.000716 5.4216716e-19)
(8.303223 4.1312327 0)
(13.036799 0.36874534 -2.2155944e-19)
(12.932644 0.82539859 -1.2308565e-19)
(12.776237 1.5024471 -1.3179156e-19)
(12.510901 2.0181965 -1.5192344e-19)
(12.134412 2.6183104 -1.6866799e-19)
(11.612578 3.1778302 4.0303709e-19)
(10.891865 3.6292794 -9.3104311e-19)
(9.8981962 4.0791069 1.1297893e-18)
(8.5882687 4.367996 -6.7616985e-19)
(13.263712 0.37923523 6.5893881e-19)
(13.072542 0.90888565 4.7543611e-19)
(12.913477 1.6088342 6.5694282e-19)
(12.65693 2.1997852 7.310738e-19)
(12.265928 2.8198352 5.1286693e-19)
(11.71881 3.3978539 -1.9097675e-19)
(10.982288 3.8789853 -4.8072005e-19)
(9.9788948 4.3557098 -4.0594914e-20)
(8.6769657 4.5420361 -7.184015e-19)
(13.501538 0.3877292 -1.2906979e-18)
(13.348016 0.89661976 -4.8136415e-19)
(13.186543 1.607214 -1.6926316e-18)
(12.879424 2.1616471 -4.4898473e-19)
(12.497019 2.8019876 1.1493492e-18)
(11.951017 3.4090016 5.9118499e-19)
(11.225701 3.9140351 -2.7665002e-18)
(10.239184 4.4116896 5.4864873e-19)
(8.9588677 4.7517334 1.4375645e-18)
(9.0573036 4.9028617 -1.4394693e-18)
(10.345364 4.6845237 5.9223971e-19)
(11.344623 4.164242 4.1525158e-18)
(12.08447 3.6337236 -5.8814853e-19)
(12.655333 3.0081662 2.9701928e-19)
(13.053652 2.3486473 8.5188016e-19)
(13.342198 1.7038625 1.174907e-18)
(13.499446 0.97723885 -5.7685953e-20)
(13.750767 0.39519839 1.7439053e-18)
(9.3401188 5.0932327 5.7386492e-18)
(10.618073 4.720882 5.5023187e-19)
(11.602647 4.1771621 -5.9934824e-18)
(12.330365 3.6243046 -1.8735469e-19)
(12.901854 2.9694737 -1.1605824e-18)
(13.283631 2.2970333 -1.0191703e-18)
(13.637563 1.6986526 -2.111673e-18)
(13.799582 0.96511405 0)
(14.010876 0.4002236 -8.3950261e-19)
(9.4487664 5.2262693 -7.3675772e-18)
(10.747693 4.99153 5.6497111e-18)
(11.749564 4.4259624 3.2460569e-18)
(12.496048 3.8494405 -1.8545324e-19)
(13.088479 3.1767495 2.5503798e-18)
(13.489559 2.4843528 5.6327521e-21)
(13.814534 1.782504 3.2237634e-19)
(13.962375 1.0415296 1.6399726e-18)
(14.281636 0.40410677 1.5595606e-18)
(9.7359905 5.4018375 -1.4729886e-18)
(11.031495 5.0087717 1.0264171e-18)
(12.019038 4.4154476 -4.7545838e-19)
(12.749612 3.8217572 0)
(13.348312 3.1147943 -2.5866866e-18)
(13.72492 2.4198698 0)
(14.128134 1.7714734 1.8453995e-18)
(14.283844 1.0284657 -3.3702044e-18)
(14.561961 0.40498793 -7.6438297e-20)
(9.8554312 5.5193208 -7.1124531e-19)
(11.18613 5.2781282 -4.5649718e-18)
(12.194659 4.6601834 4.72452e-19)
(12.943012 4.0371511 0)
(13.562781 3.3193875 -2.6014497e-18)
(13.957132 2.5980172 2.1225067e-18)
(14.323537 1.8398913 1.2006236e-19)
(14.462419 1.0990136 3.3782253e-18)
(14.851381 0.40425758 -1.5205543e-18)
(10.15268 5.6835858 -6.7048003e-18)
(11.481413 5.2745892 -3.9220298e-18)
(12.472797 4.6241483 -3.5116962e-20)
(13.210813 4.0012751 -3.8018667e-19)
(13.831968 3.2331901 -4.9527332e-20)
(14.208949 2.5291982 -4.204492e-18)
(14.652196 1.820576 1.1660796e-19)
(14.799314 1.0837564 -1.6734716e-18)
(15.148512 0.39992968 0)
(10.286619 5.7858506 4.6156311e-18)
(11.6641 5.5420138 5.7296926e-18)
(12.677597 4.8611158 -3.6121413e-20)
(13.427084 4.1982414 -3.7417349e-19)
(14.072996 3.4311662 2.2904912e-18)
(14.459191 2.689894 2.2255166e-18)
(14.862686 1.8713344 1.0831245e-19)
(14.994208 1.1471777 -9.9247777e-20)
(15.452498 0.3936044 0)
(10.601942 5.9407081 0)
(11.971079 5.5142526 -5.3785812e-19)
(12.964832 4.7969334 4.5861012e-19)
(13.708516 4.1518223 -5.3444294e-18)
(14.348496 3.3197745 -1.5063254e-19)
(14.725779 2.6144704 3.7431868e-18)
(15.202733 1.8415832 -3.1471833e-18)
(15.342221 1.1285681 2.9248203e-18)
(15.760767 0.38330176 2.44269e-18)
(10.754278 6.0268063 1.1349106e-17)
(12.185868 5.7795228 9.8488775e-18)
(13.190992 5.0220867 -4.5207646e-19)
(13.947056 4.3271411 5.6317343e-18)
(14.616111 3.5108234 -1.3692919e-19)
(14.992408 2.7546219 -3.8055707e-18)
(15.423949 1.8730041 3.4050406e-18)
(15.550553 1.1836284 -3.0565392e-18)
(16.071465 0.37190917 -1.9108225e-19)
(16.404854 0.35646002 -2.2673735e-18)
(15.909167 1.1586764 2.5484483e-18)
(15.774132 1.8307556 0)
(15.278274 2.6677956 -2.2706358e-19)
(14.896052 3.3625291 4.2266138e-18)
(14.25216 4.2651139 4.8249091e-18)
(13.502764 4.9252181 0)
(12.517964 5.7130432 -3.7531199e-19)
(11.125424 6.1856683 -1.1089769e-17)
(16.721744 0.33429453 0)
(16.132526 1.1923845 -2.6357077e-18)
(16.007014 1.8319637 0)
(15.575566 2.7727425 -2.1728106e-19)
(15.200771 3.5328633 -7.6428108e-18)
(14.540309 4.4082721 -5.2706675e-18)
(13.786793 5.1309881 6.163034e-18)
(12.821533 5.9850495 -7.7369693e-18)
(11.36309 6.2590274 9.2978327e-18)
(17.029974 0.30308863 0)
(16.500204 1.150642 0)
(16.361786 1.7738741 -2.5252488e-18)
(15.880997 2.6652246 0)
(15.505601 3.357491 3.9031576e-18)
(14.875425 4.3213319 -4.4730105e-18)
(14.138466 4.9961418 -5.6048549e-18)
(13.204314 5.882265 -4.4073879e-19)
(11.831849 6.4001916 -1.1938706e-18)
(17.334203 0.263385 0)
(16.728794 1.1664901 0)
(16.59468 1.7535627 2.577665e-18)
(16.191951 2.7393797 2.6762657e-18)
(15.817328 3.4981084 3.408794e-18)
(15.184486 4.4289039 4.8634636e-18)
(14.435265 5.1621274 0)
(13.529605 6.1025789 6.981124e-18)
(12.135324 6.4428203 -1.0984098e-17)
(17.621572 0.21949034 2.6269969e-20)
(17.096456 1.1114655 -2.8633899e-20)
(16.943373 1.6788333 0)
(16.501729 2.6097939 -2.7572293e-19)
(16.128372 3.3016132 -6.9561805e-18)
(15.524614 4.3207136 2.5052236e-19)
(14.794986 4.9986445 5.2657029e-18)
(13.907864 5.9674307 -7.7285703e-18)
(12.655873 6.5460141 1.0725533e-17)
(17.897858 0.17176617 -2.3364306e-20)
(17.324656 1.113185 2.5508267e-20)
(17.171368 1.6373977 0)
(16.814731 2.6529515 -2.89512e-18)
(16.442974 3.4104035 3.6989638e-18)
(15.843019 4.3946875 -2.3582244e-19)
(15.092829 5.1312045 -5.4463467e-18)
(14.232065 6.1270704 0)
(13.054834 6.5321872 -1.0614741e-17)
(18.157524 0.12236161 2.0390256e-20)
(17.684765 1.0462456 1.4663109e-18)
(17.509912 1.5466994 -6.2643953e-20)
(17.117228 2.5009548 2.126907e-18)
(16.753386 3.1924843 2.9209342e-18)
(16.182915 4.265998 0)
(15.450935 4.9472634 0)
(14.578774 5.9537539 -6.4685856e-18)
(13.657611 6.5777907 0)
(18.417993 0.058701271 0)
(17.90075 1.0332452 -1.5193305e-18)
(17.7281 1.4866303 0)
(17.421439 2.5154117 -2.4091168e-18)
(17.065321 3.2668829 -2.6670505e-18)
(16.507188 4.3060881 3.2632145e-18)
(15.73565 5.0650869 0)
(14.856685 6.0469458 7.1701315e-18)
(14.183285 6.4747979 -8.3722202e-18)
(18.562127 0.016938278 0)
(18.239005 0.95281986 0)
(18.049027 1.3838657 -4.9035312e-20)
(17.706696 2.3413761 -7.1235686e-20)
(17.366673 3.0255279 1.4108365e-19)
(16.841992 4.1572117 -3.3697852e-18)
(16.140786 4.8557154 0)
(15.130149 5.8271867 0)
(14.862587 6.3936842 8.285826e-18)
(18.806658 -0.043892994 -2.1628172e-20)
(18.4243 0.94634635 -7.9223088e-21)
(18.251983 1.3081914 1.0628544e-18)
(17.994511 2.3362579 0)
(17.660894 3.0787688 0)
(17.161795 4.1754866 -1.7702821e-19)
(16.317726 5.0821151 -3.3172384e-18)
(15.259958 5.9324068 1.4602199e-19)
(15.202664 6.2958405 0)
(19.033216 -0.060597668 -1.5263831e-20)
(18.725604 0.93581502 -7.3733012e-21)
(18.549771 1.3429643 -9.6616303e-19)
(18.241506 2.389435 0)
(17.884374 3.1490371 0)
(17.360216 4.3939735 1.5033079e-19)
(16.489867 5.2321699 9.0499991e-18)
(15.155277 6.1114133 -1.3094035e-19)
(14.409525 6.149096 9.4314224e-18)
(19.18591 -0.086771776 0)
(18.879822 0.92443502 8.2381974e-19)
(18.717596 1.2636727 0)
(18.49015 2.3800486 6.4132283e-20)
(18.123936 3.2459004 -7.0019589e-20)
(17.57376 4.4770946 -1.3000242e-19)
(16.564295 5.5257589 -1.0754565e-17)
(14.768919 6.1456224 1.1865296e-19)
(12.610217 6.0939908 -8.8580326e-18)
(19.339595 -0.08740337 -1.1431712e-20)
(19.151562 0.87553519 -7.922485e-19)
(18.988843 1.2892278 6.9120752e-19)
(18.735633 2.4342976 1.0452377e-18)
(18.328315 3.3225267 -1.7331696e-18)
(17.726695 4.7474133 2.4640094e-18)
(16.537917 5.7032408 5.1674037e-18)
(14.380392 6.2284766 7.8405364e-18)
(10.198898 7.3099374 0)
(19.456781 -0.12892411 1.9390025e-19)
(19.28459 0.8469884 1.4309321e-19)
(19.124308 1.2107853 -6.6865319e-19)
(18.983852 2.3912679 -4.770448e-19)
(18.56631 3.4301449 1.651539e-18)
(17.959128 4.7992014 -6.2919612e-19)
(16.479679 5.9532816 0)
(13.564242 6.5062223 -7.5331826e-18)
(6.6345283 6.714783 0)
(19.567984 -0.13347174 -5.0665696e-19)
(19.528452 0.76360049 -1.4110151e-19)
(19.374018 1.2164644 2.8188868e-20)
(19.257063 2.4145243 -5.2050308e-19)
(18.792369 3.4752302 -3.3879228e-20)
(18.120323 5.0477086 -1.7118771e-18)
(16.174222 6.1781853 3.3816756e-18)
(12.026595 5.769238 6.6218954e-18)
(0.87716797 1.3214992 -8.2247141e-18)
(19.643288 -0.18462692 3.2211816e-19)
(19.642697 0.71733302 -8.3026012e-21)
(19.481436 1.1310697 -1.7650575e-20)
(19.509346 2.3219851 1.3110691e-21)
(19.029507 3.5815698 -1.4143552e-21)
(18.286116 5.0904702 -5.4587232e-19)
(15.641867 6.0948204 -6.3295112e-18)
(9.1906921 5.0411202 -6.2417198e-18)
(-0.35939496 2.1503957 7.7983739e-18)
(19.700067 -0.18561394 7.2675894e-21)
(19.863988 0.59887751 -7.7171447e-21)
(19.707011 1.1114043 -4.9258666e-19)
(19.792043 2.3168099 -8.7514162e-19)
(19.259762 3.5982654 4.5836405e-19)
(18.318232 5.2811022 4.6775574e-19)
(14.79155 6.294069 5.5652682e-18)
(6.6875323 3.9449949 5.4369551e-18)
(-0.41470192 2.8006286 -7.0524438e-18)
(19.72275 -0.23769837 -4.7023351e-19)
(19.949383 0.53225153 9.9937364e-21)
(19.788864 1.0168198 -2.332822e-19)
(20.026726 2.1836419 8.4836693e-19)
(19.473559 3.6899467 -4.2748388e-19)
(18.183869 5.3353587 6.5950935e-21)
(13.365686 5.927216 -2.5879921e-18)
(3.7040419 2.1369715 -5.1449346e-18)
(-1.0797226 3.0264855 6.7197598e-18)
(-1.229516 2.9750335 1.1047635e-17)
(1.9176678 1.5698211 6.3404211e-20)
(12.036011 5.8288727 -1.5736861e-20)
(18.089578 5.3698444 1.3339761e-20)
(19.644342 3.6727761 0)
(20.280158 2.1578694 2.0207753e-20)
(19.987278 0.97024514 1.6559522e-18)
(20.136581 0.38785158 1.0372787e-18)
(19.709562 -0.26990696 9.1055289e-19)
(-1.3762434 2.9997736 -1.0695511e-17)
(1.7339826 1.8591934 0)
(10.675314 5.3770895 0)
(17.938492 5.3803776 3.5955857e-18)
(19.855003 3.6196976 0)
(20.469848 1.9246488 -4.3516433e-18)
(20.03705 0.82492827 -3.1857518e-18)
(20.17902 0.29199759 -9.8793724e-19)
(19.674085 -0.30251546 3.5059947e-19)
(-1.4611715 3.0091619 -7.209346e-20)
(2.2064839 3.3381994 5.8069042e-20)
(9.8873669 5.1422673 0)
(17.754123 5.3130536 -3.5236103e-18)
(19.989457 3.5804582 0)
(20.686306 1.8740359 4.3010991e-18)
(20.205581 0.7557125 2.1625322e-18)
(20.315268 0.13550715 2.3883595e-20)
(19.614984 -0.33213735 -7.8986813e-19)
(-1.6173429 3.1249209 -1.9242486e-17)
(2.7286284 4.1768942 1.2009111e-17)
(8.8220205 4.9903692 -5.3179891e-20)
(17.49952 5.3354256 0)
(20.169306 3.4803236 -6.1553457e-18)
(20.839431 1.6172336 0)
(20.225893 0.60509355 -2.0926047e-20)
(20.311447 0.033456133 2.5182134e-20)
(19.531406 -0.35750939 -5.5701255e-21)
(-1.7013216 3.1972503 1.8501834e-17)
(2.5100186 4.6661725 -3.7778958e-19)
(8.1003771 4.6754087 -1.6473552e-18)
(17.166574 5.2361608 -1.5232711e-20)
(20.268872 3.4238806 -1.0310287e-18)
(21.028229 1.5378088 0)
(20.362489 0.51583707 -2.8604105e-18)
(20.39766 -0.1309968 0)
(19.425359 -0.37916391 0)
(-1.8125936 3.3442506 -5.9519023e-20)