/*--------------------------------*- C++ -*----------------------------------*\
  =========                 |
  \\      /  F ield         | OpenFOAM: The Open Source CFD Toolbox
   \\    /   O peration     | Website:  https://openfoam.org
    \\  /    A nd           | Version:  11
     \\/     M anipulation  |
\*---------------------------------------------------------------------------*/
FoamFile
{
    format      ascii;
    class       volScalarField;
    location    "1.125";
    object      p;
}
// * * * * * * * * * * * * * * * * * * * * * * * * * * * * * * * * * * * * * //

dimensions      [0 2 -2 0 0 0 0];

internalField   nonuniform List<scalar> 
4455
(
4069.548
4079.7015
4099.5466
4131.9501
4174.8944
4233.4934
4304.3492
4413.6292
4481.1333
4064.3876
4075.196
4096.8792
4130.443
4177.0858
4238.8387
4320.4425
4433.3616
4552.9769
4053.9568
4066.5806
4090.4791
4126.2354
4175.299
4240.5945
4326.1662
4449.3418
4578.7008
4038.5956
4054.1447
4080.6369
4118.8833
4169.9489
4239.1018
4329.1683
4463.3349
4608.7906
4019.4275
4038.228
4067.5902
4108.3483
4161.4996
4234.0407
4330.7529
4476.7032
4650.9595
3997.3057
4019.4343
4051.6928
4094.8158
4150.1916
4226.127
4329.6996
4490.1275
4691.211
3973.0189
3998.3731
4033.3948
4078.5188
4135.7506
4215.0575
4325.327
4502.6739
4732.9601
3947.5764
3975.6131
4013.1182
4059.92
4118.6736
4201.2167
4317.2009
4513.0657
4775.1306
3921.7347
3951.8742
3991.2568
4039.4526
4099.4122
4185.1826
4306.4976
4521.1812
4820.2172
3896.1382
3871.5296
3848.7236
3828.1107
3809.9193
3794.4552
3781.962
3772.6498
3766.766
3927.6019
3903.1846
3879.37
3856.6243
3835.3747
3816.0097
3798.8865
3784.3368
3772.4567
3967.9793
3943.4691
3918.6719
3894.0266
3869.8973
3846.5944
3824.3217
3803.1322
3782.6828
4016.8791
3991.9807
3965.9815
3939.3434
3912.3929
3885.5105
3859.0721
3833.4447
3808.2811
4077.6423
4052.7024
4026.2453
3998.6568
3970.0177
3940.7017
3911.1392
3881.9579
3852.5932
4166.6361
4143.9818
4118.9979
4091.9798
4062.5831
4031.3983
3998.9531
3966.3236
3933.5898
4293.7243
4276.9916
4257.9655
4235.7325
4207.7403
4174.5042
4136.887
4097.1647
4056.3488
4529.3881
4526.7914
4512.4046
4487.0353
4451.9953
4410.477
4364.932
4316.5556
4265.1118
4880.9788
4921.6766
4913.6554
4857.1609
4773.8545
4677.0806
4574.1284
4468.265
4362.3093
3765.3825
3763.4465
3759.5184
3754.322
3747.4952
3739.6095
3729.7338
3718.6345
3705.1955
3765.6171
3758.9237
3750.3192
3739.8382
3727.4677
3713.3333
3697.3573
3679.5289
3659.6671
3768.3804
3757.5539
3746.4295
3734.5037
3721.3669
3706.7457
3690.4717
3672.4758
3652.6809
3789.79
3776.9555
3764.7975
3752.2555
3738.508
3723.0825
3705.7277
3686.3693
3664.9583
3829.0579
3814.133
3801.4858
3789.0128
3775.1999
3759.3764
3741.2646
3720.8577
3698.2901
3906.6595
3889.7961
3875.7349
3861.6015
3845.6346
3827.2454
3806.292
3782.9692
3757.8047
4022.6258
4001.7034
3984.7821
3967.3447
3947.2393
3924.063
3898.0473
3869.7163
3840.0699
4215.9973
4171.218
4125.3295
4078.0578
4028.9935
3978.4388
3927.4724
3877.4181
3830.0711
4268.8377
4185.3407
4101.952
4020.0076
3940.0765
3862.8797
3789.2594
3720.9717
3662.7853
3627.6957
3597.0451
3584.2643
3600.7911
3646.4825
3715.3758
3796.7438
3884.8694
3976.7249
3789.9582
3755.7942
3727.0446
3705.2912
3691.2536
3685.1585
3687.9834
3699.9399
3719.0948
3811.4067
3784.649
3758.9547
3735.1162
3713.6767
3695.056
3679.4166
3666.9272
3657.6541
3732.0432
3706.7647
3681.1932
3655.4717
3629.695
3603.9776
3578.4079
3553.1266
3528.2247
3674.3745
3649.7502
3623.9037
3596.9358
3568.8955
3539.8595
3509.8606
3478.9803
3447.2077
3641.903
3617.445
3591.1767
3563.0891
3533.1458
3501.3187
3467.5491
3431.8261
3394.0779
3631.2773
3608.2914
3583.425
3556.6248
3527.8033
3496.8604
3463.6577
3428.0858
3389.9822
3637.8664
3613.967
3587.9219
3559.6906
3529.3078
3496.5447
3461.3163
3423.3361
3382.5123
3688.0708
3667.352
3645.2665
3621.7254
3596.57
3569.0553
3538.9856
3505.7656
3469.2902
3429.2263
3385.5568
3337.884
3286.213
3229.9991
3169.2574
3103.2534
3031.937
2954.469
3338.4995
3291.2966
3240.5958
3186.3764
3128.2537
3066.1508
2999.5408
2928.3803
2852.0021
3349.2438
3305.6838
3259.2208
3209.6134
3156.7481
3100.2801
3040.0738
2975.6616
2906.8535
3354.3094
3312.4071
3268.3712
3222.0001
3173.2575
3121.7948
3067.5158
3009.8864
2948.7356
3414.6131
3381.1011
3346.7148
3311.218
3274.6054
3236.4479
3196.6777
3154.649
3110.2323
3503.8592
3480.0705
3456.9729
3434.416
3412.4174
3390.4647
3368.4182
3345.3961
3321.1582
3651.7071
3648.9495
3649.3358
3652.2972
3657.6345
3664.5208
3672.7115
3681.2256
3689.6856
3744.7278
3776.2041
3813.0797
3854.8479
3900.9727
3950.8607
4003.8618
4059.259
4116.2398
4071.458
4168.333
4267.2647
4367.8963
4470.9683
4576.2114
4684.4629
4795.1916
4908.9727
5024.9621
4173.8603
3696.9974
3294.5479
3062.5639
2883.3168
2833.03
2770.2896
2870.7659
5143.148
4231.0331
3702.5446
3265.2408
3011.4554
2813.3771
2753.9538
2682.4256
2779.7321
5262.4032
4286.3881
3705.3077
3231.8272
2955.8308
2737.9565
2668.8773
2588.264
2681.4036
5381.9602
4338.4245
3704.3043
3193.7845
2895.4402
2656.7343
2577.5419
2486.803
2574.4677
5498.6665
4385.0678
3697.9956
3149.3551
2828.9941
2568.5584
2479.0676
2377.9306
2458.9277
5611.185
4424.2097
3684.9182
3097.7514
2756.1433
2473.0604
2373.1353
2260.3506
2333.6606
5709.5986
4452.7874
3662.9665
3037.5492
2675.3436
2368.9979
2258.7213
2133.7127
2198.7868
5789.939
4467.8345
3630.0098
2967.5723
2585.9384
2256.0931
2135.3655
1997.6893
2053.8252
5829.4783
4462.3307
3582.1024
2885.8087
2485.8104
2133.1658
2001.7465
1852.2774
1899.3515
1736.4815
1696.5722
1854.6694
1998.2631
2370.018
2787.4609
3511.5422
4424.6349
5818.297
1569.8561
1529.5949
1690.9872
1849.0091
2231.281
2663.1282
3396.4313
4311.3141
5593.6512
1381.2166
1349.8981
1512.1129
1684.8165
2070.7829
2512.2828
3239.8614
4135.5576
5325.4626
1167.3013
1155.8851
1318.1944
1505.085
1890.4584
2338.9274
3056.0454
3933.6597
5075.6906
925.62117
945.82336
1109.1675
1309.5426
1693.7196
2148.8436
2856.3516
3722.4205
4834.7356
669.13342
719.89256
884.96973
1099.0316
1482.3536
1944.7792
2645.0025
3503.4517
4593.9097
395.31661
477.74838
645.43032
873.27245
1257.1438
1726.9138
2421.3667
3273.331
4347.0815
107.74178
220.27791
390.26489
632.91214
1017.8669
1494.7594
2184.5893
3029.9126
4093.0264
-200.78423
-52.80364
118.79173
377.17771
764.01766
1247.267
1933.2652
2772.0932
3832.374
3565.8713
2500.1637
1667.2157
983.97633
494.9878
106.63376
-169.34679
-341.29803
-526.93045
3294.8517
2214.9817
1386.2652
704.9342
210.28565
-179.34374
-474.87308
-645.25912
-874.93956
3019.9371
1916.5271
1091.1069
410.62806
-90.452715
-480.06557
-797.13289
-964.13948
-1239.8982
2739.5262
1604.9138
781.87824
101.36233
-407.05992
-795.99893
-1137.155
-1298.5838
-1625.1217
2451.2761
1278.9014
459.50024
-222.45291
-739.16009
-1126.8537
-1492.5837
-1647.3284
-2025.8969
2152.716
938.22882
123.89328
-560.27292
-1085.9533
-1472.6713
-1864.1135
-2011.2157
-2445.3021
1841.8575
582.15212
-223.75923
-911.27751
-1446.7422
-1832.8788
-2248.3398
-2388.3724
-2877.7815
1516.949
211.20488
-583.13317
-1274.7835
-1820.6082
-2207.301
-2645.7283
-2779.5161
-3324.8423
1176.5168
-175.03978
-953.35242
-1650.362
-2207.2607
-2594.4832
-3051.9488
-3182.3021
-3776.1588
-4222.0949
-3600.3498
-3471.7561
-3002.8143
-2615.7792
-2052.2518
-1352.5825
-602.52345
782.16463
-4653.4046
-4033.92
-3900.0976
-3433.5557
-3048.9701
-2485.6328
-1785.6028
-1088.3198
302.45788
-5099.3223
-4478.3124
-4333.0101
-3877.154
-3492.835
-2932.8088
-2228.409
-1587.2507
-220.71359
-5556.0308
-4929.0293
-4767.9049
-4329.3096
-3946.804
-3390.4735
-2675.4268
-2086.6538
-785.65561
-6019.0499
-5383.1331
-5205.523
-4787.4574
-4408.1073
-3856.262
-3122.0406
-2572.8634
-1398.46
-6462.6241
-5834.5173
-5641.4212
-5245.6261
-4874.932
-4329.0558
-3562.2116
-3033.5738
-2074.0177
-6887.7063
-6279.1571
-6073.9743
-5701.5554
-5343.4736
-4809.3545
-3995.4562
-3445.4692
-2843.1767
-7279.9614
-6710.308
-6496.9367
-6148.8065
-5810.4097
-5297.463
-4423.9555
-3788.8024
-3697.3319
-7699.8516
-7121.2764
-6907.9467
-6584.0851
-6267.6632
-5791.4506
-4851.9315
-4031.035
-4555.6069
-8103.2148
-7508.2238
-7308.9495
-7007.4727
-6726.92
-6300.8874
-5321.5504
-4138.1879
-5211.7602
-8441.2583
-7863.6434
-7698.997
-7419.7688
-7173.7677
-6783.1708
-5764.26
-4135.1569
-5574.7964
-8706.8558
-8195.7942
-8069.7547
-7814.3634
-7593.4638
-7203.0707
-6131.4581
-4203.1375
-5420.6943
-8921.5394
-8505.2993
-8418.622
-8202.0466
-8003.2833
-7612.6408
-6434.9584
-4394.187
-4321.7684
-9096.0436
-8794.9695
-8746.3521
-8591.9285
-8426.1326
-8056.9296
-6709.3229
-4788.1241
-4159.7364
-9233.5504
-9062.6055
-9050.3404
-8992.3545
-8864.0566
-8552.9621
-7007.8284
-5140.0103
-4786.2307
-9330.0578
-9310.9593
-9328.253
-9405.25
-9315.7284
-9094.2181
-7304.8829
-5136.136
-4727.1506
-9383.8481
-9540.8106
-9576.9141
-9831.2292
-9776.2325
-9644.1472
-7558.1261
-5311.1008
-4925.4054
-9390.6044
-9751.3026
-9796.7964
-10263.515
-10246.048
-10217.797
-7770.1596
-5634.2734
-4995.5032
-5027.7028
-5737.0009
-7914.2081
-10711.15
-10687.795
-10666.902
-9979.8776
-9932.0119
-9362.3089
-5042.385
-5788.1278
-8151.2987
-11201.278
-11095.648
-11028.99
-10133.124
-10078.716
-9291.2704
-5068.0075
-5856.3885
-8474.6896
-11698.77
-11506.934
-11367.342
-10258.214
-10187.68
-9176.6314
-5116.2619
-6025.5588
-8827.6238
-12178.042
-11919.873
-11680.38
-10356.948
-10255.628
-9018.2924
-5188.9346
-6207.7317
-9200.5535
-12634.073
-12333.591
-11967.158
-10426.527
-10281.286
-8823.9667
-5268.5132
-6378.2101
-9599.3204
-13076.831
-12744.478
-12225.608
-10470.966
-10266.88
-8595.5626
-5352.7193
-6556.1541
-10000.612
-13512.624
-13149.303
-12449.812
-10488.323
-10211.844
-8340.1961
-5480.266
-6703.7035
-10398.104
-13920.465
-13540.286
-12632.407
-10480.422
-10114.851
-8059.9802
-5556.7906
-6796.8351
-10744.151
-14348.57
-13964.2
-12765.313
-10444.408
-9968.7661
-7729.8592
-5637.2894
-7144.5692
-11293.055
-14991.861
-14505.04
-12866.311
-10318.073
-9639.1394
-7134.073
-5822.117
-7913.8126
-12866.028
-16327.147
-15105.023
-12781.118
-9965.26
-9016.5952
-6273.8511
-5956.5325
-8756.898
-13870.502
-17457.287
-15435.762
-12463.895
-9440.0763
-8247.2079
-5391.1944
-6042.4501
-9669.1871
-15354.805
-18456.893
-15490.249
-11915.829
-8756.1186
-7354.8413
-4515.6734
-6340.6257
-10604.505
-16384.734
-19286.627
-15254.868
-11174.199
-7991.2313
-6407.9561
-3689.9344
-6796.2537
-11538.415
-17709.965
-19950.204
-14751.671
-10263.184
-7176.5346
-5440.0031
-2962.6208
-7325.3618
-12459.179
-18724.771
-20325.075
-13987.543
-9259.4048
-6368.6986
-4499.365
-2341.906
-7873.1342
-13377.656
-19762.762
-20412.588
-13000.318
-8210.7903
-5585.7042
-3601.7856
-1838.3783
-8334.9166
-14313.15
-20602.28
-20036.942
-11826.682
-7232.158
-4868.9373
-2791.7898
-1453.509
-7618.7864
-12669.167
-19916.743
-20067.557
-12196.929
-5918.2417
-3385.982
-1159.0814
769.35371
-7627.3337
-12693.709
-20006.08
-20128.503
-12301.821
-5944.0385
-3431.045
-1328.4516
650.37985
-7645.0165
-12720.76
-20192.56
-20217.159
-12466.086
-6008.5424
-3495.7375
-1502.9053
521.60359
-7678.4148
-12782.067
-20496.001
-20314.742
-12714.596
-6136.7604
-3579.8219
-1675.7183
379.7237
-7716.163
-12850.105
-20771.248
-20561.094
-12977.339
-6289.7603
-3716.2917
-1841.5303
249.95999
-7759.3347
-12928.398
-21013.871
-20958.897
-13258.365
-6457.3766
-3870.7266
-1994.653
127.84957
-7805.2599
-13019.632
-21284.785
-21296.727
-13602.987
-6617.1052
-4035.8566
-2146.9673
24.874861
-7849.3857
-13131.655
-21577.542
-21737.564
-13957.373
-6770.1419
-4196.6742
-2285.5169
-55.028621
-7881.663
-13257.133
-21804.724
-21927.234
-14128.252
-6899.8001
-4339.6108
-2332.9138
-180.90736
-8339.4302
-14341.5
-20652.995
-20052.583
-11789.879
-7219.8619
-4869.7985
-2789.5508
-1452.1736
-7875.8889
-13403.055
-19813.326
-20433.209
-12971.325
-8195.4702
-5584.444
-3599.5435
-1836.873
-7326.1652
-12480.211
-18771.616
-20350.582
-13966.71
-9243.047
-6365.0689
-4496.7467
-2340.164
-6795.9038
-11555.157
-17754.599
-19979.455
-14738.414
-10248.024
-7170.8811
-5436.6988
-2960.5577
-6339.9187
-10616.808
-16423.218
-19318.296
-15248.621
-11161.242
-7984.5298
-6403.9272
-3687.4688
-6042.4009
-9677.3345
-15391.222
-18488.789
-15490.455
-11905.91
-8749.3249
-7350.2441
-4512.7357
-5956.0219
-8761.2527
-13899.221
-17487.678
-15441.275
-12457.482
-9434.0229
-8242.4615
-5387.8511
-5820.5973
-7914.7341
-12892.43
-16355.195
-15114.389
-12777.966
-9960.4682
-9012.0773
-6270.2551
-5635.3457
-7142.8967
-11312.432
-15016.954
-14516.643
-12866.068
-10314.753
-9635.2649
-7130.4653
-9361.5312
-9933.065
-9982.3969
-10673.117
-10698.518
-10725.332
-7921.078
-5729.627
-5022.8301
-9290.0376
-10079.294
-10135.237
-11035.035
-11106.94
-11216.543
-8159.4159
-5780.3562
-5037.7804
-9174.9514
-10187.733
-10259.848
-11373.094
-11518.707
-11715.072
-8483.9708
-5850.2676
-5063.9962
-9016.1999
-10255.121
-10358.033
-11685.713
-11932.04
-12195.574
-8838.2579
-6020.7094
-5113.0076
-8821.5011
-10280.208
-10427.016
-11971.953
-12346.058
-12653.014
-9212.7522
-6203.0446
-5186.2666
-8592.7755
-10265.238
-10470.825
-12229.762
-12757.162
-13097.139
-9613.005
-6374.2028
-5266.3202
-8337.1347
-10209.659
-10487.53
-12453.222
-13162.095
-13534.222
-10015.474
-6552.5164
-5350.7003
-8056.6999
-10112.155
-10478.958
-12634.959
-13553.055
-13943.266
-10414.24
-6700.6546
-5478.4517
-7726.415
-9965.5982
-10442.26
-12766.881
-13976.862
-14372.397
-10761.481
-6793.3411
-5555.1629
-4990.5886
-5627.41
-7776.8867
-10230.963
-10256.102
-10269.813
-9799.6914
-9752.7889
-9390.2758
-4920.574
-5305.9388
-7564.5408
-9656.0858
-9785.5568
-9837.4993
-9580.1587
-9542.6811
-9383.9427
-4722.4329
-5130.4448
-7310.6555
-9105.0433
-9324.349
-9411.4102
-9331.8048
-9313.1664
-9330.6099
-4781.4629
-5135.0827
-7013.0381
-8562.6437
-8872.0081
-8998.3379
-9054.1316
-9065.1198
-9234.5617
-4156.3011
-4783.7789
-6714.0681
-8065.6039
-8433.4712
-8597.7024
-8750.3142
-8797.7544
-9097.4882
-4318.135
-4390.5075
-6439.5975
-7620.4737
-8010.0624
-8207.5822
-8422.6803
-8508.3139
-8923.374
-5416.7974
-4200.3681
-6136.0439
-7210.212
-7599.7493
-7819.6495
-8073.8417
-8198.9913
-8709.0322
-5571.3247
-4133.3293
-5768.537
-6789.699
-7179.581
-7424.7952
-7703.0739
-7866.977
-8443.7324
-5208.9041
-4137.1791
-5325.0774
-6306.6297
-6732.2722
-7012.2587
-7312.9977
-7511.6551
-8105.9495
-4224.7658
-3602.8969
-3474.2478
-3005.0826
-2617.607
-2053.2287
-1352.537
-602.03535
782.43206
-4656.2343
-4036.6441
-3902.8214
-3436.073
-3051.0774
-2486.8305
-1785.587
-1087.6993
302.84042
-5102.2664
-4481.1962
-4335.97
-3879.9096
-3495.2806
-2934.289
-2228.4783
-1586.4447
-220.10282
-5559.0683
-4932.0696
-4771.0872
-4332.3331
-3949.6348
-3392.3088
-2675.6533
-2085.7074
-784.80073
-6022.1596
-5386.3333
-5208.921
-4790.8092
-4411.3218
-3858.5409
-3122.4897
-2571.7773
-1397.3416
-6465.7696
-5837.8605
-5645.0138
-5249.3016
-4878.5248
-4331.8708
-3562.9614
-3032.4267
-2072.6282
-6890.8444
-6282.6036
-6077.7292
-5705.5416
-5347.4843
-4812.7831
-3996.6388
-3444.3019
-2841.4536
-7283.0373
-6713.8068
-6500.8259
-6153.0965
-5814.8758
-5301.588
-4425.7395
-3787.715
-3695.2664
-7702.7999
-7124.7682
-6911.938
-6588.6448
-6272.5875
-5796.3526
-4854.4848
-4030.1006
-4553.2609
1176.6545
-174.68699
-953.31518
-1651.1986
-2208.8646
-2596.5354
-3054.2343
-3184.681
-3778.6689
1517.0011
211.45398
-583.12183
-1275.5252
-1822.0277
-2209.1712
-2647.8253
-2781.7296
-3327.1886
1841.8143
582.29611
-223.7877
-911.9181
-1447.9999
-1834.5617
-2250.2592
-2390.4176
-2879.9641
2152.5976
938.28738
123.81649
-560.81521
-1087.0677
-1474.1908
-1865.877
-2013.1077
-2447.3278
2451.0801
1278.8712
459.37785
-222.95063
-740.16362
-1128.231
-1494.2006
-1649.0755
-2027.7709
2739.2775
1604.8172
781.71466
100.85187
-407.97898
-797.25086
-1138.6395
-1300.1914
-1626.8508
3019.6228
1916.3651
1090.9054
410.12619
-91.305328
-481.21329
-798.49862
-965.62367
-1241.4928
3294.4864
2214.7697
1386.0268
704.46236
209.49221
-180.39739
-476.13005
-646.63138
-876.41274
3565.4615
2499.9032
1666.9432
983.52954
494.24675
105.66006
-170.51279
-342.56652
-528.28813
1735.8446
1695.9303
1854.0794
1997.7635
2369.5731
2787.1396
3511.169
4424.2044
5817.6075
1569.1626
1528.9102
1690.3496
1848.4699
2230.8074
2662.7867
3396.0475
4310.8614
5592.9564
1380.4573
1349.163
1511.4268
1684.2359
2070.2804
2511.9229
3239.4743
4135.1126
5324.7902
1166.4757
1155.078
1317.4544
1504.461
1889.9265
2338.5512
3055.6612
3933.219
5075.0278
924.72176
944.94538
1108.3614
1308.8711
1693.1585
2148.4539
2855.9759
3722.0004
4834.0952
668.15567
718.95445
884.09893
1098.3072
1481.7622
1944.3772
2644.639
3503.0546
4593.3186
394.25399
476.73946
644.49967
872.49464
1256.5203
1726.5007
2421.0197
3272.9649
4346.5417
106.59161
219.18378
389.26055
632.07672
1017.2086
1494.3349
2184.2626
3029.5756
4092.5228
-202.03312
-53.982517
117.70486
376.27617
763.32106
1246.8314
1932.9635
2771.7955
3831.9221
1898.7685
2053.2924
2198.3018
2333.221
2458.5323
2574.1127
2681.0875
2779.4523
2870.5202
1851.6917
1997.1613
2133.224
2259.9013
2377.5244
2486.4318
2587.9274
2682.1232
2770.0205
2001.2007
2134.8596
2258.2522
2372.7046
2478.6742
2577.1846
2668.5546
2753.6642
2832.772
2132.7029
2255.6649
2368.6029
2472.6979
2568.2278
2656.4351
2737.688
2813.1385
2883.1073
2485.3935
2585.5505
2674.985
2755.8143
2828.6947
2895.1705
2955.5907
3011.2445
3062.3819
2885.5068
2967.2908
3037.2895
3097.5154
3149.1443
3193.6002
3231.6706
3265.1127
3294.4486
3581.7456
3629.6734
3662.6538
3684.632
3697.7382
3704.0773
3705.1126
3702.3821
3696.8687
4461.9226
4467.4545
4452.4377
4423.8928
4384.7876
4338.183
4286.1882
4230.8762
4173.7484
5828.7503
5789.2223
5708.9106
5610.5296
5498.0581
5381.401
5261.8995
5142.701
5024.5754
2954.2557
2851.7642
2906.6257
2948.5542
3110.0786
3321.0879
3689.5911
4116.1741
4908.6445
3031.7537
2928.1719
2975.4623
3009.7319
3154.523
3345.3546
3681.1662
4059.2413
4794.922
3103.0979
2999.3605
3039.9015
3067.387
3196.5785
3368.4052
3672.6868
4003.8927
4684.2493
3169.1279
3065.9968
3100.1332
3121.6904
3236.3745
3390.4795
3664.5306
3950.9406
4576.0557
3229.8934
3128.124
3156.6251
3173.1762
3274.5566
3412.4593
3657.6778
3901.1018
4470.8724
3286.1292
3186.2696
3209.5128
3221.9404
3311.1924
3434.484
3652.3737
3855.0264
4367.8605
3337.8202
3240.5102
3259.141
3268.3316
3346.711
3457.0661
3649.4448
3813.3074
4267.2924
3385.5117
3291.2306
3305.6235
3312.3863
3381.1175
3480.1873
3649.0906
3776.4803
4168.4227
3429.1984
3338.4517
3349.2015
3354.3058
3414.6483
3503.9974
3651.8787
3745.052
4071.6143
3688.1325
3637.9201
3631.3365
3641.9886
3674.5098
3732.2788
3811.7571
3790.5561
3628.4194
3667.4089
3614.0141
3608.3438
3617.5248
3649.8803
3706.9931
3784.9895
3756.3728
3597.7066
3645.3179
3587.9614
3583.4696
3591.25
3624.0276
3681.4144
3759.2832
3727.6078
3584.8761
3621.77
3559.7214
3556.6607
3563.1554
3597.0524
3655.6853
3735.4292
3705.8382
3601.3478
3596.6062
3529.329
3527.8294
3533.2041
3569.0035
3629.9002
3713.9712
3691.7781
3646.9814
3569.0818
3496.5549
3496.8757
3501.3678
3539.957
3604.1734
3695.3298
3685.6533
3715.8069
3539.0008
3461.3142
3463.6608
3467.5875
3509.9449
3578.5934
3679.6676
3688.4458
3797.1056
3505.7678
3423.3203
3428.0752
3431.8523
3479.0495
3553.2995
3667.1537
3700.3566
3885.1621
3469.2781
3382.4812
3389.9564
3394.09
3447.2605
3528.3819
3657.8545
3719.4664
3976.9463
3663.5657
3830.6957
3840.4296
3758.0479
3698.4298
3665.0493
3652.7461
3659.7266
3705.2615
3721.7976
3878.0707
3870.0828
3783.2186
3721.0006
3686.4647
3672.5464
3679.5934
3718.7045
3790.1186
3928.1485
3898.4171
3806.5458
3741.4095
3705.8265
3690.5467
3697.426
3729.8075
3863.7767
3979.1304
3924.4318
3827.5008
3759.5214
3723.1833
3706.8242
3713.4054
3739.686
3941.0036
4029.6942
3947.602
3845.888
3775.3435
3738.6098
3721.4478
3727.5425
3747.574
4020.9572
4078.761
3967.6973
3861.8492
3789.1537
3752.357
3734.5861
3739.9149
3754.4025
4102.9048
4126.0297
3985.1207
3875.9738
3801.6232
3764.8983
3746.5131
3750.3976
3759.6007
4186.2888
4171.9151
4002.0253
3890.0249
3814.2675
3777.0561
3757.6389
3759.0038
3763.5307
4269.7867
4216.696
4022.9342
3906.8797
3829.1923
3789.8922
3768.4675
3765.6996
3765.4685
4363.2658
4265.8146
4056.6586
3933.8079
3852.7345
3808.3892
3782.7742
3772.5427
3766.8524
4469.2583
4317.2565
4097.4818
3966.5423
3882.1041
3833.5575
3803.2283
3784.4267
3772.7372
4575.1676
4365.6275
4137.2108
3999.1756
3911.2926
3859.1902
3824.4229
3798.9797
3782.0506
4678.1977
4411.1597
4174.827
4031.6227
3940.8606
3885.6335
3846.7001
3816.1058
3794.5453
4775.056
4452.6576
4208.0517
4062.8068
3970.1797
3912.5197
3870.0065
3835.4729
3810.0111
4858.3812
4487.6669
4236.0247
4092.2003
3998.8198
3939.4723
3894.1376
3856.7241
3828.2051
4914.7747
4512.9836
4258.2336
4119.2115
4026.4067
3966.1104
3918.7829
3879.4716
3848.8214
4922.5199
4527.2973
4277.2393
4144.1857
4052.8598
3992.1077
3943.5789
3903.2888
3871.6304
4881.4583
4529.8087
4293.9576
4166.8275
4077.7928
4017.0021
3968.0877
3927.7073
3896.2399
4069.5588
4079.7093
4099.5521
4131.9582
4174.9052
4233.5026
4304.3599
4413.6355
4481.1394
4064.4153
4075.2232
4096.9051
4130.4703
4177.116
4238.8741
4320.4845
4433.4009
4552.9888
4053.999
4066.6251
4090.5247
4126.2817
4175.3484
4240.6512
4326.2447
4449.4076
4578.7053
4038.6532
4054.2047
4080.7006
4118.946
4170.0175
4239.1801
4329.2771
4463.4283
4608.8417
4019.499
4038.3012
4067.6683
4108.4258
4161.5853
4234.1423
4330.883
4476.8343
4651.0123
3997.3879
4019.5181
4051.7819
4094.9063
4150.2931
4226.2509
4329.8527
4490.3009
4691.3222
3973.1101
3998.4653
4033.4922
4078.6198
4135.8667
4215.2016
4325.5043
4502.8988
4733.1184
3947.674
3975.7112
4013.2212
4060.03
4118.8031
4201.3782
4317.4003
4513.3483
4775.3477
3921.8354
3951.977
3991.3629
4039.5697
4099.5532
4185.3596
4306.7155
4521.5251
4820.5113
4761.1892
4827.4908
4893.1868
4970.8347
5060.8529
5160.488
5268.4416
5381.6209
5490.3226
4827.4502
4888.1372
4956.6676
5037.3461
5129.8503
5230.7336
5338.2594
5449.3279
5554.9798
4893.1043
4956.6266
5029.1364
5112.5315
5206.2495
5307.1258
5413.795
5523.2975
5628.4193
4970.7171
5037.2616
5112.4845
5196.9809
5290.3632
5390.3707
5495.6899
5605.0988
5713.0811
5060.6749
5129.7078
5206.1381
5290.3
5381.8871
5480.4948
5585.1003
5695.3202
5809.4262
5160.2659
5230.5011
5306.9224
5390.1985
5480.3692
5578.0881
5683.2793
5797.1797
5919.0484
5268.0947
5337.8855
5413.4006
5495.3142
5584.747
5683.0424
5789.8866
5910.3213
6043.4643
5380.984
5448.658
5522.5869
5604.3684
5694.6068
5796.5226
5909.7896
6036.3275
6175.3587
5489.1939
5553.8252
5627.2126
5711.8131
5808.1267
5917.7259
6042.1045
6174.311
6354.5404
6739.4772
6422.051
6288.8676
6116.8954
5980.3196
5859.8068
5757.6817
5672.0048
5601.2686
5835.8128
5926.0272
5927.8103
5904.0502
5864.3176
5804.6948
5736.3012
5663.7604
5595.8695
5416.8246
5480.8023
5499.3646
5521.9915
5530.6528
5525.3881
5510.1627
5482.5337
5441.7872
5178.2048
5206.8564
5209.5992
5227.054
5235.1086
5240.1987
5240.6809
5236.8458
5219.8485
5000.4351
5017.6209
5015.8168
5021.7147
5021.8259
5021.3769
5021.9077
5023.2056
5016.6023
4848.4432
4860.5956
4855.456
4862.0486
4858.2909
4857.0215
4852.6173
4850.4799
4844.0402
4711.6084
4715.6472
4712.1486
4713.0978
4709.3382
4705.631
4701.4989
4697.607
4692.2852
4578.4451
4577.8883
4571.4468
4572.0079
4565.8498
4564.436
4558.9148
4555.9164
4551.0216
4447.0929
4440.6831
4433.8842
4428.7395
4422.3323
4416.7503
4411.4897
4406.5121
4400.4908
4256.927
4114.7718
3959.5764
3780.7489
3578.4814
3323.3971
3033.2937
2693.4072
2453.5749
4263.5169
4121.0829
3964.4499
3783.2691
3572.98
3316.3938
3011.8225
2676.6051
2381.7855
4267.4473
4124.4455
3964.5153
3780.7735
3562.8517
3301.5004
2983.7379
2637.8588
2288.7585
4274.6139
4128.8695
3969.1171
3780.7448
3560.0306
3289.0622
2959.902
2583.2048
2178.5699
4278.9078
4134.4048
3971.4222
3783.7508
3558.2939
3281.955
2938.3826
2528.1649
2063.3483
4287.9094
4141.0584
3978.7177
3788.5034
3561.9949
3278.8246
2924.1762
2475.4689
1948.5988
4292.3923
4148.3607
3984.0003
3797.3771
3567.0768
3286.1988
2917.3128
2443.3795
1852.2823
4301.3096
4154.5247
3991.9631
3801.4357
3575.8724
3286.2001
2919.5394
2411.54
1820.9114
4312.7799
4168.5051
4005.4852
3820.431
3594.1195
3315.9461
2941.2119
2441.3274
1718.3021
2489.3467
2695.0651
3011.773
3273.8615
3444.6089
3576.2762
3704.0127
3837.8657
3969.7041
2380.3564
2600.3377
2970.4427
3254.6935
3429.8718
3564.2023
3696.6633
3833.3303
3968.2309
2247.2117
2504.2265
2941.0667
3242.3801
3416.0586
3553.1551
3689.0487
3828.3613
3965.1691
2087.579
2401.7371
2908.7994
3225.6822
3403.5121
3546.9503
3689.9653
3831.1589
3969.7162
1889.6995
2301.9528
2870.666
3194.8394
3372.4133
3523.7905
3673.0426
3819.3842
3960.413
1603.308
2251.6216
2891.6177
3205.6452
3383.7633
3536.04
3686.3523
3830.9078
3970.7379
1185.5001
2063.6874
2823.7575
3147.5604
3338.6254
3505.3118
3665.0691
3815.4137
3958.2562
839.06202
2143.6331
2889.0228
3172.787
3360.9136
3524.9582
3680.5779
3827.7579
3968.3572
-315.85424
1954.5198
2850.0873
3130.3675
3335.3415
3508.8854
3670.0549
3818.9617
3961.5387
4098.34
4221.2725
4343.8845
4466.8689
4596.722
4731.4315
4876.3912
5027.6738
5191.3761
4098.4694
4223.5252
4346.9784
4471.6454
4601.8826
4738.2394
4883.1254
5036.5091
5200.8618
4096.9948
4223.6068
4348.3511
4474.7295
4605.7846
4743.7177
4889.3958
5044.7122
5210.1707
4101.0871
4228.8723
4353.3173
4480.9716
4611.9138
4751.1339
4897.0246
5054.0559
5220.3689
4094.3863
4224.0042
4350.5453
4479.8652
4612.2805
4752.5416
4899.8056
5058.2646
5226.3555
4102.9852
4232.4843
4358.2466
4487.6879
4619.1461
4759.8162
4906.8629
5066.1918
5234.5358
4093.1017
4224.5539
4352.4813
4483.1527
4616.5396
4758.0703
4906.7052
5066.8357
5236.789
4102.1112
4232.6216
4359.8946
4490.0341
4622.9169
4763.9955
4912.3139
5072.386
5242.3718
4096.3534
4228.103
4355.9906
4486.9664
4620.2135
4762.0857
4910.7006
5071.5568
5241.7939
5363.6721
5551.9374
5751.6099
5970.0475
6199.8165
6448.3053
6702.7239
6968.327
7159.9533
5376.3638
5566.2436
5770.8143
5993.5074
6232.507
6490.8017
6760.6646
7039.105
7247.0926
5388.4697
5580.4239
5789.5061
6016.6233
6264.3049
6532.5256
6816.8998
7105.4346
7333.8571
5401.0008
5594.7819
5807.7981
6038.4298
6293.4174
6568.9279
6866.139
7165.9828
7418.397
5409.2038
5605.0371
5821.1593
6055.3267
6315.9963
6598.9332
6908.4755
7222.0899
7501.2864
5418.7633
5615.6347
5834.2365
6070.7859
6336.3435
6624.942
6946.2673
7273.6361
7581.7997
5422.1717
5620.9799
5841.4955
6080.3551
6350.1709
6642.3989
6975.6921
7314.7272
7660.979
5428.0622
5627.3022
5848.7194
6088.814
6360.9368
6655.7
6998.4646
7347.7294
7750.2112
5428.3447
5627.8409
5850.3879
6090.8055
6364.5978
6660.998
7008.1862
7366.4175
7761.4299
7234.8097
6594.5866
6211.7011
5900.3762
5590.8459
5285.1199
4983.8532
4688.8888
4399.2015
7347.5715
6676.3351
6283.8229
5963.4573
5646.6948
5333.1004
5026.9376
4728.0505
4436.7964
7457.8594
6750.181
6352.4611
6022.3059
5701.1826
5381.0659
5070.8192
4769.1367
4476.664
7568.1941
6820.7865
6417.7637
6073.7729
5750.2053
5422.1725
5111.5062
4805.527
4514.2211
7680.9875
6898.4311
6489.1035
6135.1201
5805.1143
5474.1053
5158.0612
4852.0048
4556.9686
7796.2365
6963.1541
6545.0675
6177.9728
5848.2233
5507.1979
5193.1127
4878.7001
4586.7627
7914.6978
7060.5915
6618.7512
6244.2013
5906.7228
5567.0728
5247.8091
4934.6925
4639.3056
7996.4609
7094.9973
6651.6591
6265.127
5928.646
5581.2795
5264.2211
4945.6331
4652.4064
8209.5898
7244.8747
6752.7242
6351.0021
6007.2477
5656.8981
5335.9082
5014.8569
4719.227
4113.5946
3827.0424
3538.9873
3246.8505
2950.6167
2648.4371
2339.5608
2023.4795
1700.8532
4148.1382
3861.3756
3571.7688
3279.5486
2982.416
2680.3397
2371.3157
2055.2202
1731.2405
4186.89
3899.6943
3610.1729
3318.1541
3021.8522
2720.1944
2412.8487
2097.5232
1776.0905
4220.4605
3935.1607
3642.2959
3352.9893
3053.9494
2755.1513
2445.6682
2133.4129
1809.692
4264.631
3976.2066
3685.263
3394.0119
3096.7842
2797.122
2489.2762
2177.2607
1855.1066
4288.0973
4003.2589
3707.7208
3420.4746
3119.7216
2823.8794
2513.4308
2204.9702
1880.6101
4342.4077
4055.515
3761.5719
3473.1743
3173.8804
2877.8152
2568.17
2261.8743
1936.1364
4351.8082
4067.0347
3770.5497
3484.3637
3183.3699
2889.1767
2578.8067
2273.4911
1948.8695
4417.5234
4132.111
3835.3268
3549.6039
3248.8813
2955.6737
2645.8137
2344.305
2015.3495
1331.5578
908.18933
469.27504
14.369765
-453.87377
-909.93591
-1373.3406
-1908.9783
-2597.431
1364.5436
949.89749
521.74521
79.363581
-372.28529
-808.11531
-1242.0898
-1738.3584
-2378.9761
1412.6518
1008.3267
590.01931
159.40039
-281.89804
-713.81963
-1136.9812
-1622.7154
-2239.5995
1455.7849
1059.7743
654.89942
232.19769
-197.21208
-625.63003
-1022.3306
-1449.958
-2025.4217
1503.9309
1115.4629
722.80367
307.6055
-111.26393
-536.90333
-904.81081
-1286.5479
-1634.1317
1540.8378
1163.0874
780.57151
376.18875
-39.50248
-460.11888
-832.70571
-1096.0403
-1374.4115
1599.8388
1231.0546
867.42924
472.39994
71.556583
-355.17911
-728.19087
-1088.296
-238.06853
1621.2013
1261.3108
899.92597
517.31931
115.17027
-312.7066
-762.28827
-993.90196
-986.69881
1697.8609
1352.8574
1017.7249
651.47329
284.7458
-123.14572
-515.33172
-1454.3285
1804.927
-3920.2128
-5068.1327
-5130.8284
-5147.3926
-5309.0351
-5039.7296
-4882.7939
-4855.3129
-4927.0228
-3773.7438
-5084.9215
-5090.3625
-5068.6868
-5087.0479
-4986.6563
-4867.826
-4845.5163
-4913.7718
-3738.3746
-5179.5969
-5035.2811
-5097.1316
-5158.0318
-4974.2461
-4856.3183
-4839.3978
-4901.2769
-3883.7884
-5371.3989
-4968.7201
-5058.9696
-5042.0219
-4947.9242
-4846.7972
-4828.8647
-4890.52
-4192.388
-5572.5917
-4865.4976
-5090.0017
-5041.9547
-4924.5425
-4835.5111
-4819.5241
-4878.625
-4206.906
-5434.4989
-4811.7066
-5093.5243
-5007.9846
-4897.049
-4827.0095
-4808.3044
-4866.3523
-3586.2626
-4857.2716
-4896.4022
-5082.4996
-4979.7766
-4875.9559
-4817.9581
-4798.6594
-4856.8758
-4064.2391
-6073.8207
-4864.701
-5109.2836
-4963.9952
-4859.0474
-4813.1518
-4791.4619
-4849.4888
-10712.163
-4324.2716
-4938.1154
-5091.058
-4907.1101
-4841.3647
-4805.462
-4787.3806
-4847.1456
-5048.7858
-5179.8217
-5364.1212
-5613.0762
-5891.9588
-6214.6068
-6549.361
-7427.1283
-7136.7
-5022.1675
-5156.0657
-5351.6687
-5601.32
-5903.5791
-6266.0257
-6625.0254
-7472.2977
-7067.5615
-5010.3332
-5153.7968
-5357.1756
-5628.5912
-5944.889
-6345.4731
-6777.3038
-7408.5671
-7081.7526
-5002.2678
-5149.0247
-5366.3176
-5652.4034