/*--------------------------------*- C++ -*----------------------------------*\
  =========                 |
  \\      /  F ield         | OpenFOAM: The Open Source CFD Toolbox
   \\    /   O peration     | Website:  https://openfoam.org
    \\  /    A nd           | Version:  11
     \\/     M anipulation  |
\*---------------------------------------------------------------------------*/
FoamFile
{
    format      ascii;
    class       volScalarField;
    location    "0.8";
    object      p;
}
// * * * * * * * * * * * * * * * * * * * * * * * * * * * * * * * * * * * * * //

dimensions      [0 2 -2 0 0 0 0];

internalField   nonuniform List<scalar> 
5472
(
101.53516
99.560133
97.620842
95.680074
93.77808
91.92195
90.111777
88.36799
86.702476
85.111536
83.621451
82.232735
80.944954
79.791283
78.734674
77.771811
76.913033
76.145441
75.470725
101.85829
100.03763
98.224159
96.38201
94.57763
92.791812
91.036077
89.335568
87.694287
86.116988
84.631013
83.226148
81.917954
80.724622
79.605902
78.598868
77.686714
76.875477
76.153792
102.1453
100.48087
98.780451
97.050693
95.347033
93.630846
91.9366
90.278374
88.65998
87.103522
85.615206
84.190707
82.86197
81.622896
80.465065
79.424382
78.456548
77.600505
76.829549
102.38292
100.84872
99.264758
97.660684
96.052383
94.410964
92.793654
91.175916
89.58723
88.04939
86.557411
85.126357
83.78077
82.506552
81.326384
80.250662
79.232657
78.336877
77.510832
102.55527
101.13362
99.67213
98.192911
96.667611
95.12096
93.57623
92.006238
90.462303
88.936023
87.45758
86.02741
84.669911
83.372782
82.171463
81.060585
80.00976
79.073809
78.19136
102.66487
101.35493
100.0219
98.647143
97.217861
95.772952
94.296798
92.790793
91.288231
89.787897
88.334236
86.908536
85.546719
84.232727
83.01578
81.860252
80.793605
79.806647
78.887374
102.73221
101.54018
100.30658
99.023661
97.704777
96.349073
94.942149
93.510445
92.050759
90.591358
89.152511
87.742162
86.380343
85.066228
83.83448
82.651409
81.570232
80.535064
79.59535
102.75822
101.67102
100.52931
99.353537
98.130548
96.84934
95.531151
94.172716
92.76798
91.356264
89.935689
88.547132
87.187033
85.875306
84.622242
83.436872
82.323615
81.266793
80.298055
102.73473
101.74087
100.70137
99.624957
98.481108
97.292066
96.055659
94.760311
93.423947
92.063475
90.677092
89.313235
87.965754
86.660081
85.401188
84.205072
83.06929
81.999716
80.998327
102.69069
101.77306
100.82655
99.836769
98.78957
97.695284
96.526241
95.2933
94.019164
92.709988
91.368405
90.033254
88.704005
87.410882
86.154374
84.950817
83.804587
82.721013
81.699315
102.62802
101.79614
100.92159
100.00215
99.040713
98.026643
96.937125
95.778706
94.566036
93.30968
92.015775
90.71383
89.408982
88.128158
86.880196
85.678438
84.526252
83.429029
82.392305
102.52607
101.78285
100.9937
100.1536
99.26616
98.317972
97.30067
96.211501
95.05814
93.851718
92.610442
91.351533
90.07843
88.817145
87.582231
86.382827
85.228919
84.130156
83.086285
102.40807
101.73278
101.02766
100.26858
99.4524
98.570612
97.623227
96.603884
95.510709
94.35817
93.17076
91.946866
90.710982
89.470924
88.252019
87.062901
85.917014
84.813744
83.763963
102.30054
101.68913
101.05151
100.35851
99.600851
98.77733
97.897005
96.939495
95.908816
94.815898
93.678148
92.494751
91.304747
90.09299
88.895645
87.72177
86.586857
85.484244
84.441992
102.19507
101.63556
101.06235
100.43164
99.733932
98.971736
98.144014
97.243238
96.278725
95.243685
94.151438
93.014729
91.852521
90.674251
89.506274
88.350616
87.22875
86.138639
85.110455
102.11019
101.59926
101.06843
100.48885
99.846341
99.137264
98.355916
97.50801
96.597522
95.617878
94.585061
93.505206
92.384241
91.235598
90.092193
88.958536
87.852225
86.782002
85.763655
102.01808
101.56469
101.07922
100.54288
99.947869
99.28842
98.561817
97.767686
96.897926
95.964228
94.978689
93.929046
92.84855
91.749567
90.637709
89.531321
88.447831
87.404311
86.402848
101.96594
101.55344
101.10352
100.59584
100.03242
99.414038
98.734788
97.989602
97.171617
96.296049
95.360151
94.361013
93.317252
92.244581
91.160429
90.07691
89.015675
87.992116
87.012627
101.91365
101.54138
101.1353
100.67453
100.14588
99.555742
98.912022
98.199983
97.419569
96.581243
95.677505
94.724763
93.72821
92.694863
91.647818
90.594796
89.55936
88.559922
87.603569
101.89006
101.54166
101.15904
100.7303
100.23804
99.684304
99.079346
98.4131
97.675116
96.87323
96.008958
95.088466
94.117785
93.117669
92.097585
91.070015
90.06128
89.087737
88.154885
101.90256
101.59032
101.23458
100.83229
100.36674
99.828788
99.246284
98.607481
97.898482
97.13279
96.309133
95.431884
94.495856
93.521832
92.530562
91.526218
90.539222
89.590061
88.684579
101.90683
101.61977
101.28571
100.92084
100.49406
99.994863
99.447809
98.831801
98.14729
97.395184
96.574769
95.71604
94.806861
93.868919
92.906399
91.919329
90.952966
90.023731
89.141197
101.9758
101.72122
101.40083
101.04056
100.63104
100.15643
99.62973
99.054682
98.422372
97.706147
96.937785
96.101609
95.189678
94.267722
93.315344
92.339998
91.389737
90.476234
89.609098
101.99963
101.78543
101.52505
101.19918
100.82166
100.37678
99.846194
99.264317
98.61636
97.886961
97.11178
96.297922
95.41431
94.509038
93.568297
92.607589
91.669221
90.771269
89.922284
102.07723
101.88735
101.64821
101.35049
101.00672
100.61718
100.16224
99.649288
99.054515
98.385391
97.653918
96.810232
95.914391
94.976755
94.00643
93.027522
92.068025
91.162135
90.306099
102.14856
102.01346
101.80958
101.53734
101.19025
100.78249
100.3042
99.762678
99.148628
98.453712
97.711423
96.895445
96.015106
95.0943
94.130186
93.151127
92.198211
91.293372
90.448779
102.17353
102.12591
102.01899
101.84386
101.60187
101.28961
100.90178
100.4273
99.877437
99.234913
98.503603
97.658574
96.699298
95.700111
94.648119
93.588958
92.574984
91.602552
90.685539
74.865674
74.30234
73.777762
73.282436
72.792308
72.280855
71.695577
71.001486
70.144028
69.124249
67.89873
66.456668
64.721219
62.643009
60.178278
57.244756
53.787307
49.693505
44.923929
75.487938
74.854189
74.268465
73.700121
73.138939
72.536097
71.846116
71.030281
70.030926
68.857274
67.476242
65.867688
63.985567
61.779788
59.242325
56.276809
52.885995
48.966444
44.530807
76.093605
75.3786
74.703006
74.05446
73.398551
72.681159
71.862236
70.912769
69.788712
68.479532
66.958944
65.19085
63.183222
60.882893
58.308493
55.412032
52.201213
48.645894
44.755577
76.704998
75.901777
75.144129
74.413366
73.667063
72.835029
71.916172
70.847676
69.633137
68.216811
66.615122
64.784553
62.762481
60.517003
58.095698
55.487375
52.728645
49.842441
46.879402
77.332454
76.432694
75.61115
74.79257
73.959689
73.030261
72.033304
70.884382
69.607067
68.152854
66.546696
64.768517
62.873356
60.861621
58.813574
56.753964
54.769828
52.912736
51.276407
77.962785
76.980964
76.099864
75.19026
74.274954
73.286475
72.229764
71.046422
69.753565
68.325842
66.807734
65.200401
63.586161
62.002859
60.541002
59.266362
58.267608
57.604019
57.346015
78.587807
77.556771
76.590781
75.598389
74.626491
73.604609
72.509346
71.337626
70.092316
68.759936
67.426156
66.118743
64.918605
63.900303
63.156051
62.743255
62.740784
63.16637
64.046906
79.236898
78.143805
77.077383
76.047506
75.040111
74.00184
72.908844
71.78604
70.644819
69.494238
68.431972
67.517061
66.832261
66.446639
66.444198
66.852932
67.713275
69.010634
70.724293
79.897507
78.718838
77.591256
76.541876
75.506927
74.474409
73.439023
72.407586
71.428058
70.539984
69.831884
69.371089
69.23904
69.483053
70.152446
71.250035
72.780605
74.704807
76.940485
80.551074
79.314251
78.157414
77.077925
76.039356
75.050166
74.111788
73.227525
72.466986
71.891113
71.578237
71.592149
71.992014
72.797013
74.021564
75.652428
77.640712
79.921144
82.337299
81.203434
79.925417
78.746148
77.663546
76.660919
75.743267
74.92852
74.236661
73.73548
73.50267
73.599028
74.069168
74.934574
76.204207
77.85202
79.838268
82.066825
84.440945
86.757518
81.868411
80.558829
79.369066
78.306025
77.362945
76.54914
75.885825
75.418008
75.204501
75.321062
75.800463
76.669214
77.924202
79.552808
81.478978
83.632663
85.874622
88.103645
90.164629
82.524972
81.211096
80.042928
79.011853
78.138577
77.449872
76.957931
76.734178
76.818137
77.265498
78.090287
79.297308
80.854077
82.718364
84.7671
86.918939
89.015618
90.995573
92.751777
83.187225
81.882737
80.733441
79.75848
78.984216
78.438327
78.139501
78.161805
78.532365
79.279153
80.395754
81.872696
83.623907
85.576733
87.587547
89.587215
91.445234
93.137456
94.588755
83.855843
82.568539
81.442409
80.542711
79.881101
79.487073
79.391992
79.655571
80.289781
81.302557
82.654123
84.315854
86.155905
88.085088
89.971135
91.749115
93.347687
94.758473
95.938874
84.519422
83.244197
82.167305
81.361957
80.818519
80.584943
80.689111
81.183352
82.047575
83.269094
84.779477
86.520229
88.332415
90.138482
91.832522
93.376351
94.7431
95.911965
96.842446
85.178904
83.915608
82.909339
82.194598
81.778554
81.707083
82.012507
82.725242
83.780473
85.166254
86.781091
88.517368
90.239853
91.880675
93.380456
94.709564
95.846461
96.779944
97.504057
85.81416
84.58274
83.656799
83.027665
82.744297
82.829056
83.313781
84.191341
85.401853
86.871577
88.48282
90.141993
91.744329
93.235031
94.55527
95.684489
96.609886
97.354633
97.925343
86.426215
85.243513
84.38168
83.859339
83.720955
83.957084
84.618423
85.638038
86.951486
88.468548
90.095832
91.684302
93.142862
94.437607
95.542159
96.464983
97.223119
97.810057
98.242205
87.005586
85.870584
85.080184
84.654113
84.60632
84.988912
85.806212
86.921863
88.307249
89.834402
91.372436
92.798184
94.093086
95.252154
96.244852
97.051159
97.659062
98.108372
98.459279
87.564731
86.481321
85.775858
85.468234
85.559557
86.070645
86.985588
88.22058
89.656701
91.151368
92.601061
93.926268
95.11994
96.133127
96.931586
97.522736
97.981728
98.354086
98.654406
88.04085
87.003753
86.354433
86.089584
86.288371
86.955375
87.975905
89.246794
90.667133
92.11758
93.487221
94.721979
95.797057
96.660081
97.316479
97.847253
98.300134
98.639128
98.882442
88.536757
87.545451
86.973154
86.852391
87.186806
87.949999
89.068811
90.421852
91.872915
93.280131
94.545762
95.628814
96.502012
97.195564
97.764779
98.250288
98.606198
98.854755
98.96386
88.860688
87.904395
87.373331
87.297771
87.718585
88.566184
89.736275
91.127421
92.583046
93.920334
95.078922
96.079939
96.932105
97.629686
98.145036
98.545034
98.834946
99.031475
99.202399
89.236759
88.300254
87.863777
87.940627
88.535382
89.575978
90.918651
92.385375
93.776777
95.003243
96.0711
96.950374
97.626757
98.170333
98.586488
98.815667
98.981543
99.139526
99.255805
89.387114
88.49233
88.065124
88.151484
88.77799
89.853096
91.210185
92.676894
94.112946
95.380215
96.397494
97.203798
97.885657
98.40032
98.720916
98.930684
99.150356
99.376125
99.533344
89.546366
88.594495
88.282778
88.634009
89.620913
91.029636
92.62767
94.207548
95.576131
96.602022
97.425771
98.14686
98.58806
98.883478
99.118212
99.298314
99.461041
99.547168
99.572448
39.351765
32.841848
25.340329
16.8336
7.860633
-1.3738507
-10.457164
-18.572554
-25.797003
-31.609861
-35.411135
-37.352362
-36.393165
-32.322727
-27.973455
-22.552114
-17.456075
-13.527597
-11.000853
39.475088
33.54268
26.779866
19.14868
11.044012
2.6135452
-5.7469564
-13.099427
-19.517505
-24.81584
-27.777283
-28.273163
-26.405797
-22.023859
-17.194657
-11.929071
-6.9945031
-3.1968513
-0.97424634
40.451042
35.464456
29.803435
23.377231
16.423698
9.2840713
2.16928
-4.0832434
-8.9310045
-12.092545
-13.371598
-12.203752
-9.9982096
-6.4114375
-1.9030208
2.6622395
7.4708109
11.302815
13.754505
43.641973
39.835922
35.490827
30.575412
25.263936
19.782629
14.488226
9.8261579
6.2655457
4.2614583
3.6299003
4.4279598
6.8096886
10.471808
15.370645
20.469063
25.845943
30.230082
32.965683
49.448682
46.955503
44.026957
40.781391
37.382468
33.961456
30.553696
27.601946
25.164384
23.744467
23.611093
24.696858
27.517021
31.796813
37.38233
43.256403
49.04263
53.323815
55.760441
56.952656
55.684401
53.953126
52.174159
50.430457
48.887929
47.509422
46.43112
45.815064
45.814732
46.972193
49.393595
53.093033
57.841301
62.996908
68.175863
72.883682
76.36516
78.032108
64.879154
64.58907
63.760335
63.063696
62.607115
62.491519
62.677929
63.204962
64.166928
65.734555
67.934898
70.930659
74.86097
79.37662
84.206759
89.1556
93.625089
96.967592
98.494558
72.391419
72.787297
72.629049
72.727646
73.192869
74.057615
75.247674
76.798015
78.710311
81.117621
84.147197
87.593224
91.532992
96.040361
100.86096
105.53519
109.22061
111.66924
112.67747
79.037884
79.815453
80.132982
80.740684
81.719617
83.102407
84.780252
86.763342
89.104154
91.785522
94.909081
98.504132
102.38135
106.52725
110.67106
114.50793
117.80532
120.27015
121.56747
84.505618
85.451407
86.011822
86.872036
88.049522
89.591767
91.38568
93.387368
95.712839
98.333659
101.23513
104.53997
108.09692
111.85551
115.6776
119.23734
122.22697
124.26434
125.15799
88.757388
89.744582
90.415634
91.367452
92.568633
94.064659
95.783332
97.622794
99.721671
102.02357
104.49428
107.24408
110.12366
113.12044
116.10712
118.81748
121.03515
122.53872
123.21125
91.905083
92.852915
93.558533
94.485986
95.606723
96.960836
98.491857
100.09713
101.88813
103.79562
105.82223
108.0079
110.24844
112.56677
114.84261
116.94878
118.71179
119.96029
120.5084
94.201077
95.066759
95.747856
96.590693
97.585104
98.745823
100.031
101.36615
102.82422
104.35588
105.96454
107.65205
109.36158
111.10036
112.77062
114.31169
115.59412
116.48766
116.84528
95.773163
96.532099
97.138279
97.88228
98.741825
99.711654
100.77454
101.86835
103.03826
104.24258
105.48145
106.75514
108.02986
109.28615
110.46594
111.53656
112.42849
113.04913
113.32746
96.876434
97.51328
98.032162
98.662732
99.3651
100.15445
101.00895
101.87705
102.7934
103.7214
104.67199
105.63138
106.57786
107.48448
108.32223
109.08084
109.71838
110.18845
110.42317
97.570754
98.09905
98.553541
99.080952
99.654035
100.3002
100.97856
101.66591
102.38717
103.10238
103.82731
104.54416
105.24874
105.92219
106.54416
107.11548
107.591
107.95548
108.12525
98.056212
98.473733
98.845173
99.269706
99.740842
100.25918
100.79198
101.33827
101.89642
102.44512
102.99645
103.54294
104.07859
104.58666
105.05281
105.46555
105.80473
106.06077
106.16111
98.350551
98.693308
99.006187
99.348319
99.718822
100.12677
100.55062
100.98166
101.41163
101.83309
102.25943
102.68591
103.08832
103.46871
103.8137
104.10499
104.34703
104.52101
104.58926
98.554314
98.812813
99.070282
99.360764
99.666001
99.990531
100.32413
100.65945
100.99502
101.33206
101.66781
101.98866
102.29527
102.58276
102.83929
103.05944
103.24147
103.37732
103.43722
98.720475
98.930963
99.132269
99.350162
99.588081
99.850513
100.11917
100.38647
100.6578
100.9236
101.18007
101.42275
101.65783
101.8752
102.06693
102.23585
102.36971
102.47359
102.52243
98.859765
99.020677
99.160568
99.327261
99.528009
99.738722
99.948876
100.16208
100.3737
100.57389
100.77174
100.96103
101.13949
101.30518
101.45032
101.57572
101.66868
101.73821
101.77193
99.116498
99.182197
99.251732
99.369599
99.518559
99.682701
99.848877
100.01289
100.16898
100.32101
100.4726
100.61526
100.74715
100.872
100.98303
101.07382
101.14084
101.19223
101.21706
99.079534
99.236171
99.385839
99.501884
99.595228
99.696515
99.806528
99.917916
100.03105
100.14583
100.25816
100.36397
100.46259
100.5556
100.63646
100.7041
100.7577
100.80074
100.81901
99.359493
99.432177
99.498274
99.559558
99.628744
99.707171
99.785902
99.867648
99.952913
100.03707
100.11871
100.19595
100.26691
100.33313
100.39162
100.44357
100.48257
100.50959
100.52073
99.319465
99.42944
99.503345
99.573124
99.651
99.721505
99.784146
99.845816
99.905676
99.963397
100.02187
100.07895
100.1304
100.17665
100.21791
100.25102
100.27946
100.30411
100.30256
99.642039
99.687994
99.693435
99.707415
99.740224
99.778993
99.820414
99.862378
99.902264
99.941149
99.979609
100.01591
100.05057
100.08338
100.11288
100.13821
100.15865
100.1753
100.18559
99.594252
99.685706
99.758366
99.802352
99.832415
99.859903
99.884882
99.908955
99.932934
99.956087
99.976202
99.992514
100.0064
100.02021
100.03275
100.05026
100.0699
100.0915
100.11811
-11.280601
-14.148822
-18.621066
-23.824675
-29.547113
-34.088581
-38.105181
-39.050749
-36.869809
-32.921313
-26.853327
-19.378277
-11.049478
-1.7676518
7.6014358
16.684922
25.27869
32.839634
39.396528
-1.167619
-3.7858775
-8.1350883
-13.279122
-18.868936
-23.789687
-28.249047
-30.04397
-29.394228
-26.305495
-20.789271
-14.144435
-6.5721081
1.9918298
10.578314
18.813076
26.562082
33.419525
39.416442
13.534494
10.719268
6.4745704
1.3847021
-3.449688
-8.0595957
-11.881771
-14.005921
-15.031356
-13.635861
-10.228286
-5.2125314
1.23924
8.5397098
15.822907
22.909426
29.470265
35.229617
40.291324
32.859741
29.802035
25.075814
19.381518
14.023302
9.0010342
5.2736376
2.940278
2.1570437
2.9523246
5.0863137
8.7378294
13.592411
19.009157
24.6221
30.062704
35.084386
39.525885
43.403463
55.721036
52.947681
48.374934
42.263164
36.192576
30.465298
26.147951
23.369876
22.329472
22.602432
24.098632
26.67361
29.746885
33.242332
36.789446
40.273591
43.605377
46.613115
49.173039
77.954662
75.968208
72.104169
67.097304
61.79273
56.51442
51.771783
48.12727
45.786293
44.746389
44.847275
45.604216
46.782497
48.263649
49.890339
51.703729
53.561748
55.344651
56.669412
98.039008
95.831551
92.21739
87.5403
82.629125
77.870874
73.500773
69.726018
66.884192
64.830552
63.349534
62.498066
62.04705
61.945846
62.126716
62.640154
63.405799
64.274142
64.607119
112.39877
110.94451
108.21991
104.30488
99.585275
94.786331
90.396412
86.585033
83.273064
80.353926
78.047583
76.21541
74.731717
73.600862
72.782895
72.364011
72.311376
72.515637
72.149188
121.39934
119.94076
117.32863
113.91764
110.0216
105.83342
101.71688
97.837298
94.26424
91.202975
88.585029
86.298975
84.367016
82.733906
81.384351
80.442443
79.866428
79.588633
78.834706
125.11924
124.11885
121.9245
118.86781
115.26338
111.43261
107.69705
104.13713
100.84694
97.973264
95.366592
93.059753
91.082497
89.319681
87.795124
86.639926
85.805236
85.265255
84.331735
123.21142
122.46288
120.87603
118.60548
115.85895
112.8606
109.87128
106.98833
104.24895
101.80144
99.503458
97.407909
95.583088
93.883023
92.388163
91.199118
90.265363
89.598044
88.61493
120.49202
119.89031
118.59499
116.80602
114.68831
112.40983
110.09466
107.85
105.66464
103.65305
101.7476
99.955233
98.359595
96.835958
95.481958
94.369294
93.453368
92.74568
91.79646
116.83715
116.43963
115.52067
114.22242
112.67842
111.00911
109.27248
107.56103
105.87008
104.2675
102.73727
101.27543
99.944541
98.663637
97.502377
96.512131
95.674759
94.993291
94.126605
113.33005
113.03642
112.40266
111.50111
110.42706
109.24621
107.98764
106.70996
105.43163
104.1916
102.98779
101.81397
100.7197
99.656558
98.686829
97.830723
97.086521
96.477226
95.723394
110.43098
110.20057
109.723
109.07947
108.31676
107.47659
106.56568
105.6144
104.65014
103.69554
102.76588
101.84636
100.97907
100.124
99.331998
98.630143
97.99864
97.471575
96.830433
108.1305
107.96888
107.59956
107.12228
106.54756
105.92378
105.24738
104.53947
103.81888
103.09039
102.37303
101.64953
100.96046
100.28159
99.633629
99.059188
98.528799
98.069035
97.541903
106.16257
106.06156
105.80643
105.46889
105.05422
104.58814
104.07812
103.5403
102.99231
102.43848
101.88761
101.32737
100.7802
100.24661
99.727238
99.257307
98.827871
98.444333
98.032576
104.59001
104.51506
104.34455
104.10449
103.8127
103.46838
103.08723
102.68283
102.25667
101.8294
101.40609
100.97426
100.54248
100.1203
99.712454
99.339373
98.994064
98.675136
98.32666
103.44057
103.37519
103.24205
103.05973
102.83961
102.58293
102.29478
101.98695
101.66539
101.32915
100.99189
100.6548
100.31743
99.984885
99.663445
99.358161
99.064677
98.801957
98.534353
102.52697
102.47596
102.37363
102.23844
102.06815
101.87548
101.65843
101.42289
101.1794
100.92131
100.65561
100.38442
100.11561
99.846113
99.585053
99.349843
99.13072
98.920454
98.703136
101.77176
101.73794
101.6692
101.57679
101.45137
101.30565
101.13944
100.96054
100.77189
100.57296
100.37104
100.15981
99.946611
99.735564
99.524748
99.325645
99.160181
99.01848
98.852914
101.21049
101.19032
101.137
101.07062
100.98032
100.86975
100.7447
100.61227
100.4701
100.31854
100.16484
100.00775
99.843169
99.676575
99.512382
99.362906
99.24482
99.176243
99.112891
100.81237
100.79802
100.75545
100.70293
100.63451
100.55296
100.45988
100.36068
100.25466
100.14249
100.02751
99.91369
99.801381
99.691073
99.589026
99.494071
99.376992
99.226161
99.070469
100.5152
100.50542
100.47941
100.44219
100.38971
100.33127
100.26495
100.19387
100.11623
100.03399
99.949312
99.863794
99.7813
99.702005
99.623533
99.553885
99.491991
99.425569
99.352516
100.30043
100.30228
100.27071
100.24336
100.21337
100.17322
100.12731
100.07574
100.01767
99.957874
99.899197
99.839256
99.777885
99.715068
99.64413
99.565853
99.495872
99.421299
99.311145
100.18064
100.17469
100.16203
100.13904
100.11135
100.0808
100.04662
100.01093
99.974494
99.936444
99.897983
99.857981
99.815691
99.773577
99.734921
99.70262
99.688334
99.68258
99.635495
100.1186
100.09243
100.06932
100.04987
100.03167
100.01914
100.00568
99.992138
99.975953
99.955848
99.932785
99.908222
99.883626
99.858115
99.830468
99.800339
99.756289
99.683532
99.591405
44.999741
49.792808
53.91103
57.383354
60.319555
62.783815
64.855929
66.585619
68.021531
69.237241
70.252747
71.106692
71.793642
72.379655
72.89318
73.379794
73.879142
74.396866
74.943181
44.519247
48.995489
52.94727
56.361527
59.33844
61.881926
64.088536
65.971724
67.584742
68.96854
70.1452
71.138208
71.949267
72.643636
73.250086
73.808812
74.374653
74.953888
75.573051
44.659067
48.600776
52.195029
55.441328
58.360503
60.95158
63.26234
65.277046
67.053585
68.582881
69.898854
71.021
71.965982
72.787969
73.507028
74.164287
74.808272
75.473955
76.177753
46.711381
49.73405
52.66355
55.459164
58.104633
60.550485
62.813997
64.851955
66.692371
68.305022
69.727527
70.945541
72.014573
72.935439
73.766246
74.516429
75.243885
75.98986
76.787223
51.068525
52.752679
54.652369
56.679147
58.779986
60.858424
62.894356
64.810861
66.605625
68.224856
69.686601
70.96809
72.123861
73.121588
74.049979
74.886527
75.705846
76.513047
77.409236
57.109039
57.409141
58.116348
59.156847
60.467927
61.963977
63.57876
65.216399
66.84643
68.378097
69.816561
71.115965
72.309391
73.370739
74.359405
75.272342
76.18717
77.060638
78.031734
63.807846
62.960038
62.574388
62.612091
63.057125
63.836404
64.884212
66.110033
67.443151
68.792884
70.139673
71.397986
72.577693
73.679621
74.706463
75.675864
76.667968
77.637242
78.653028
70.50289
68.815044
67.545014
66.712344
66.332586
66.365183
66.777199
67.487445
68.428966
69.511119
70.676906
71.833112
72.966752
74.068563
75.113656
76.124088
77.145924
78.214425
79.30205
76.746477
74.525358
72.618016
71.108153
70.034341
69.389538
69.169996
69.325464
69.810376
70.539858
71.445979
72.442191
73.487799
74.531967
75.569031
76.61124
77.659695
78.783999
79.960195
82.169588
79.763155
77.492645
75.517611
73.90436
72.69931
71.915193
71.536369
71.543771
71.87714
72.47142
73.248833
74.14759
75.098275
76.095867
77.141286
78.222242
79.375497
80.608474
86.618225
84.306347
81.935386
79.715101
77.739967
76.106217
74.852969
74.005556
73.554235
73.47697
73.728141
74.247218
74.954318
75.782463
76.710393
77.719615
78.802857
79.982795
81.25906
90.055499
87.996299
85.764061
83.525226
81.377198
79.461307
77.844888
76.604916
75.751505
75.287493
75.187199
75.417995
75.900549
76.577121
77.403964
78.357456
79.423878
80.611977
81.918641
92.668801
90.913463
88.928355
86.829666
84.677926
82.633305
80.77757
79.233734
78.038054
77.226788
76.793002
76.725996
76.965217
77.470276
78.171041
79.057467
80.091625
81.261832
82.570164
94.537303
93.077849
91.376839
89.516554
87.512881
85.503711
83.553638
81.811016
80.343357
79.239462
78.503114
78.149269
78.139889
78.453929
79.007311
79.795225
80.774362
81.930094
83.229808
95.903248
94.71954
93.299381
91.695744
89.911668
88.02415
86.093978
84.260496
82.604731
81.262026
80.258791
79.636873
79.386674
79.496953
79.89919
80.57407
81.478151
82.608135
83.899744
96.810776
95.882209
94.710295
93.338602
91.789047
90.091117
88.28163
86.466019
84.733519
83.228385
82.017511
81.160495
80.679539
80.59125
80.832416
81.384683
82.19874
83.276323
84.561736
97.483113
96.757472
95.818613
94.681857
93.347405
91.844095
90.204267
88.476962
86.742118
85.128795
83.751932
82.702262
82.001945
81.707841
81.790927
82.212376
82.938207
83.948156
85.217069
97.892757
97.33504
96.59921
95.665006
94.532037
93.202896
91.708184
90.105696
88.447576
86.839354
85.37639
84.168422
83.301485
82.825503
82.753972
83.042924
83.677734
84.612023
85.846412
98.214455
97.790873
97.205874
96.450829
95.527118
94.419207
93.117782
91.655275
90.064842
88.437553
86.927205
85.615344
84.602709
83.954584
83.725894
83.874378
84.40038
85.270801
86.458218
98.443293
98.094519
97.642416
97.036302
96.23053
95.239925
94.084984
92.782267
91.351856
89.809231
88.284491
86.905829
85.790418
84.985171
84.609791
84.664081
85.097339
85.894311
87.034042
98.636376
98.337331
97.967303
97.508028
96.915704
96.116139
95.100199
93.909109
92.582903
91.132736
89.634677
88.202997
86.971048
86.062139
85.562352
85.474755
85.789521
86.5035
87.592767
98.875507
98.625095
98.286175
97.836353
97.304614
96.647835
95.784234
94.706402
93.470792
92.101839
90.651892
89.232225
87.962861
86.94797
86.29082
86.098892
86.366238
87.02337
88.065762
98.955412
98.843142
98.593906
98.237507
97.751284
97.185392
96.493661
95.618658
94.533203
93.264512
91.858578
90.407779
89.056522
87.94061
87.185961
86.857426
86.983139
87.562112
88.559794
99.194037
99.020932
98.822916
98.53138
98.130345
97.615684
96.929975
96.070333
95.067443
93.908023
92.570211
91.115472
89.725169
88.558496
87.717813
87.30462
87.3837
87.919891
88.881723
99.247534
99.129006
98.969051
98.801016
98.568817
98.148931
97.596312
96.934951
96.058591
94.990667
93.764663
92.373526
90.907334
89.566472
88.531329
87.943989
87.872851
88.315022
89.256149
99.526782
99.368121
99.14093
98.918995
98.706281
98.383391
97.865459
97.182828
96.379725
95.364928
94.100033
92.665682
91.199858
89.844737
88.774133
88.153983
88.07354
88.506065
89.405292
99.568279
99.541913
99.454709
99.290949
99.109037
98.872595
98.574071
98.129588
97.409036
96.585218
95.560766
94.194254
92.616685
91.020371
89.61539
88.634653
88.286125
88.608334
89.563501
75.536663
76.203319
76.965089
77.822371
78.780616
79.83716
80.987189
82.270472
83.656097
85.1399
86.726985
88.390441
90.13152
91.936903
93.790164
95.688924
97.625072
99.558216
101.52438
76.226173
76.937741
77.741387
78.652629
79.653238
80.770714
81.960315
83.263311
84.66534
86.146999
87.720617
89.361011
91.059006
92.81008
94.593984
96.396828
98.233875
100.03976
101.85094
76.901894
77.664876
78.511662
79.477842
80.512738
81.66657
82.903171
84.225982
85.64736
87.134959
88.688496
90.304651
91.960211
93.650506
95.365196
97.067165
98.791105
100.48387
102.14108
77.580866
78.402847
79.289031
80.303078
81.376561
82.550862
83.821875
85.16074
86.586837
88.079421
89.617646
91.2013
92.818198
94.433846
96.071427
97.677927
99.276478
100.85567
102.38549
78.259273
79.137301
80.068064
81.111066
82.22433
83.41911
84.713249
86.064374
87.490561
88.966572
90.491639
92.034062
93.601135
95.145994
96.689108
98.2099
99.684814
101.14514
102.56402
78.953185
79.864458
80.851074
81.909714
83.064285
84.277317
85.58698
86.946162
88.369425
89.820594
91.316844
92.818857
94.32425
95.798406
97.239855
98.667155
100.04024
101.37212
102.68133
79.659851
80.592562
81.624384
82.702491
83.880401
85.110882
86.420471
87.779182
89.188247
90.624538
92.081052
93.539386
94.97092
96.378077
97.73155
99.047717
100.32895
101.56231
102.7539
80.35806
81.323625
82.37519
83.486771
84.667569
85.919186
87.228077
88.58493
89.971355
91.389097
92.797765
94.200318
95.559839
96.878889
98.157887
99.379349
100.55358
101.69495
102.78347
81.05484
82.054325
83.120036
84.253472
85.445146
86.702008
88.005332
89.350798
90.710752
92.095424
93.455434
94.789605
96.084026
97.321406
98.50949
99.653336
100.73022
101.77112
102.76799
81.752897
82.771974
83.853039
84.997627
86.194931
87.449961
88.743805
90.069834
91.4035
92.744622
94.052516
95.323574
96.553511
97.723572
98.820767
99.870928
100.86183
101.80898
102.72793
82.443362
83.477414
84.571493
85.723749
86.923154
88.169772
89.449784
90.750521
92.050283
93.345354
94.601678
95.810362
96.96476
98.057375
99.076173
100.04064
100.96056
101.8338
102.66664
83.13467
84.177682
85.273224
86.425372
87.624813
88.855019
90.113846
91.386181
92.645324
93.887499
95.094562
96.244672
97.32881
98.346834
99.298997
100.1887
101.03018
101.81985
102.5677
83.81064
84.859088
85.958038
87.102015
88.294392
89.50944
90.747545
91.984893
93.209478
94.392111
95.544971
96.636778
97.653085
98.600637
99.485246
100.30187
101.06586
101.77671
102.45568
84.486259
85.527433
86.62878
87.763057
88.937352
90.129993
91.338275
92.527996
93.714114
94.848401
95.940799
96.974896
97.931167
98.81184
99.635776
100.39161
101.08672
101.73089
102.34241
85.152721
86.179581
87.267568
88.389652
89.543497
90.709734
91.884392
93.045403
94.189276
95.281825
96.311209
97.277353
98.179277
99.002376
99.76496
100.46356
101.09149
101.66864
102.22937
85.803804
86.822352
87.890466
88.997979
90.129033
91.271819
92.421632
93.541239
94.620361
95.655452
96.62946
97.535336
98.387708
99.16887
99.87518
100.52195
101.10538
101.6364
102.142
86.441285
87.442025
88.484167
89.567933
90.673754
91.78402
92.880273
93.96213
95.010527
95.99922
96.933916
97.799062
98.594549
99.324371
99.97871
100.57084
101.10644
101.58969
102.04145
87.047752
88.028378
89.051442
90.111315
91.195487
92.280282
93.349629
94.396055
95.395122
96.328058
97.204988
98.018709
98.759943
99.441855
100.05849
100.61859
101.12583
101.57445
101.9848
87.636055
88.593685
89.594869
90.627391
91.679596
92.730021
93.760477
94.755914
95.712249
96.61159
97.449034
98.231255
98.938375
99.584587
100.1752
100.69637
101.1544
101.55763
101.92656
88.184419
89.117444
90.093638
91.102495
92.128435
93.150308
94.149639
95.119229
96.042187
96.904281
97.70162
98.442147
99.106935
99.709312
100.26233
100.74721
101.17287
101.55614
101.9016
88.714155
89.619992
90.570933
91.558565
92.561451
93.554376
94.529307
95.461679
96.339802
97.163253
97.923548
98.632296
99.273081
99.850842
100.38641