/*--------------------------------*- C++ -*----------------------------------*\
  =========                 |
  \\      /  F ield         | OpenFOAM: The Open Source CFD Toolbox
   \\    /   O peration     | Website:  https://openfoam.org
    \\  /    A nd           | Version:  11
     \\/     M anipulation  |
\*---------------------------------------------------------------------------*/
FoamFile
{
    format      ascii;
    class       volVectorField;
    location    "0.8";
    object      U;
}
// * * * * * * * * * * * * * * * * * * * * * * * * * * * * * * * * * * * * * //

dimensions      [0 1 -1 0 0 0 0];

internalField   nonuniform List<vector> 
5472
(
(10.055175 2.7100018 1.611662e-18)
(10.252612 2.7672732 -1.6782795e-18)
(10.440919 2.748736 -1.6920325e-18)
(10.619002 2.7638021 -1.7165588e-18)
(10.802854 2.7387869 5.3200915e-18)
(10.970878 2.7062506 -3.6051405e-20)
(11.146016 2.6614997 -2.7970875e-18)
(11.31014 2.6009965 9.714482e-19)
(11.465875 2.5365802 0)
(11.623782 2.4535444 0)
(11.761926 2.3758089 0)
(11.904369 2.2717811 -3.0186249e-18)
(12.025488 2.1805956 1.5470873e-18)
(12.148737 2.0642248 -1.9740853e-20)
(12.246259 1.9627439 1.0392102e-18)
(12.354145 1.8466122 -5.3347327e-19)
(12.427579 1.7442303 -7.9357996e-19)
(12.521624 1.6420359 2.698236e-19)
(12.575967 1.5517482 0)
(10.063557 2.5012644 -1.4719707e-18)
(10.2506 2.547933 3.0355018e-18)
(10.407106 2.5243087 -1.5653979e-18)
(10.584545 2.5599081 -1.5696849e-18)
(10.743495 2.5227375 2.2438138e-20)
(10.918508 2.5144409 0)
(11.082926 2.4732751 1.6771069e-18)
(11.24654 2.4336172 -3.4130861e-18)
(11.4049 2.37533 4.398266e-18)
(11.560138 2.3108597 8.9331728e-19)
(11.705093 2.2372428 0)
(11.844903 2.1481882 1.849945e-18)
(11.971433 2.0701927 0)
(12.089005 1.961494 4.6875007e-19)
(12.192786 1.8811629 -4.7647232e-19)
(12.293097 1.7712562 0)
(12.375107 1.6845623 0)
(12.458102 1.5790841 -2.3765836e-19)
(12.52547 1.4925864 0)
(10.094569 2.344632 0)
(10.233804 2.3864168 1.380232e-18)
(10.388918 2.3920727 1.4116611e-18)
(10.54477 2.4365687 0)
(10.705975 2.4089321 -1.8548151e-20)
(10.873579 2.4211102 -2.7331526e-20)
(11.02393 2.3874681 -1.5450948e-18)
(11.193923 2.3592738 0)
(11.336201 2.3100476 -1.5800767e-18)
(11.499375 2.2554948 -4.032072e-18)
(11.631349 2.1874983 1.3948057e-20)
(11.770593 2.1133089 -8.1471711e-19)
(11.893155 2.0401019 -8.3455971e-19)
(12.001051 1.9422557 1.7090703e-18)
(12.116333 1.8729274 1.2846223e-18)
(12.204132 1.7615933 4.3201979e-19)
(12.305901 1.6859391 2.1354168e-19)
(12.377974 1.5768414 -3.2211637e-19)
(12.46211 1.5016845 1.0679322e-19)
(10.076029 2.1553551 0)
(10.218432 2.1979511 -1.2457806e-18)
(10.364961 2.2135555 -1.2727793e-18)
(10.516197 2.2588128 2.5865126e-18)
(10.674713 2.2312958 -1.3594499e-18)
(10.818071 2.2655746 0)
(10.973065 2.2193507 -1.3923035e-18)
(11.124685 2.2123505 1.4001816e-18)
(11.268576 2.1611871 -1.4498368e-18)
(11.424371 2.1187986 -1.5216109e-20)
(11.536669 2.0605519 -1.4882251e-18)
(11.692125 1.999222 0)
(11.786476 1.9290551 0)
(11.931928 1.8491655 -7.5953702e-19)
(12.021305 1.7750376 -7.6391092e-19)
(12.14082 1.6750465 0)
(12.225778 1.5997522 -1.9145652e-19)
(12.325486 1.4954238 9.7617387e-20)
(12.391583 1.4206087 1.9112814e-19)
(10.088479 2.0053287 0)
(10.236423 2.0449161 0)
(10.361414 2.0850061 0)
(10.507867 2.1154464 -2.3400397e-18)
(10.637132 2.1176792 1.2199694e-18)
(10.772728 2.1530909 -3.6709603e-18)
(10.922936 2.1150527 5.016613e-18)
(11.05476 2.1326458 -2.5512709e-18)
(11.210537 2.076618 5.3251613e-21)
(11.335109 2.0661748 1.3097494e-18)
(11.479423 2.0026289 1.3271195e-18)
(11.612742 1.9602739 -2.6950105e-18)
(11.733534 1.8867417 2.0490567e-18)
(11.87146 1.8202885 -6.912068e-19)
(11.966966 1.7445977 0)
(12.092038 1.6564596 6.9372847e-19)
(12.173556 1.5835112 -3.4645197e-19)
(12.276181 1.482015 1.707844e-19)
(12.344752 1.4118624 -1.7032703e-19)
(10.11386 1.8491841 0)
(10.235681 1.8828415 -4.0597599e-18)
(10.34 1.9303972 2.0957321e-18)
(10.476432 1.9564668 2.1319037e-18)
(10.575976 1.9817397 1.0833128e-18)
(10.73674 1.9994347 -1.0953454e-18)
(10.845542 1.982511 2.2771312e-18)
(11.005052 1.9972593 1.1402379e-18)
(11.131016 1.9514619 2.3160999e-18)
(11.278973 1.9497759 -2.3696151e-18)
(11.416811 1.8845277 1.9546738e-20)
(11.544766 1.8591025 2.4279211e-18)
(11.681178 1.7812389 0)
(11.795537 1.7324722 -6.177552e-19)
(11.916958 1.6492713 6.1285271e-19)
(12.016927 1.5741159 -1.5434238e-18)
(12.121893 1.5010406 6.1707274e-19)
(12.206096 1.4018644 -1.5252837e-19)
(12.300232 1.3436405 9.0922494e-22)
(10.133793 1.7167739 3.6008766e-18)
(10.208893 1.73598 3.6660889e-18)
(10.344773 1.7991563 0)
(10.440138 1.8226475 -9.0514321e-21)
(10.575713 1.8590461 -3.9119033e-18)
(10.698985 1.8685394 4.009887e-18)
(10.818307 1.8823907 0)
(10.967924 1.8824633 -1.0372364e-18)
(11.083687 1.8615502 -4.1810137e-18)
(11.242314 1.8550425 2.1446604e-18)
(11.347998 1.8077597 1.067683e-18)
(11.494669 1.7881022 -1.0952627e-18)
(11.595843 1.7178122 0)
(11.727392 1.6817402 5.4731996e-19)
(11.824792 1.5965954 0)
(11.941396 1.5455584 -5.4810807e-19)
(12.029965 1.4508504 8.2755457e-19)
(12.133227 1.3842935 -5.7025471e-22)
(12.209866 1.294738 -5.9991829e-22)
(10.134242 1.5734418 1.6081574e-18)
(10.21745 1.5814746 -3.2944956e-18)
(10.344581 1.6645896 -3.3488212e-18)
(10.41968 1.6729702 3.4487947e-18)
(10.562582 1.7248511 -1.7675174e-18)
(10.63717 1.7323595 -1.786172e-18)
(10.790568 1.7610626 0)
(10.882217 1.7494419 2.7653296e-18)
(11.036402 1.7564938 -1.4781244e-20)
(11.14318 1.7344424 -2.8487241e-18)
(11.28474 1.7172646 2.9098505e-18)
(11.403698 1.6829363 0)
(11.534289 1.6380171 0)
(11.656641 1.5857195 9.754842e-19)
(11.773512 1.5236879 -5.0298905e-19)
(11.887351 1.4582102 -9.8416956e-19)
(11.988168 1.3856608 2.5010868e-19)
(12.088719 1.3104202 2.4753506e-19)
(12.170701 1.2339255 5.9972528e-20)
(10.148727 1.4315637 -1.443126e-18)
(10.223908 1.4474163 4.4188081e-18)
(10.325082 1.5373594 -4.5493322e-18)
(10.405644 1.5370987 3.0854749e-18)
(10.524701 1.6127413 0)
(10.602104 1.6060962 1.5948627e-18)
(10.745031 1.6480955 -1.6443099e-18)
(10.826184 1.6325846 0)
(10.983703 1.6583107 8.3271613e-19)
(11.065587 1.6285409 -1.723771e-18)
(11.230321 1.634034 -8.5735913e-19)
(11.320647 1.5877142 -9.9179294e-21)
(11.473077 1.5693079 -2.6227349e-18)
(11.566624 1.5065143 4.5281469e-19)
(11.702434 1.4676931 -4.2777685e-19)
(11.793039 1.3878939 8.8216389e-19)
(11.910562 1.3386532 -4.3349799e-19)
(11.993629 1.2455224 2.2283508e-19)
(12.093615 1.189854 2.1550208e-19)
(10.154902 1.2985898 -2.5952329e-18)
(10.218763 1.3206337 0)
(10.31854 1.4001016 1.3516897e-18)
(10.390599 1.4087273 -4.1265231e-18)
(10.497706 1.4856769 1.4218623e-18)
(10.577912 1.4760972 -1.4378819e-18)
(10.708344 1.5347288 1.4510627e-18)
(10.797856 1.5125727 -1.4931467e-18)
(10.945404 1.5506313 0)
(11.032702 1.517128 7.5797129e-19)
(11.188305 1.5375314 0)
(11.274644 1.4891362 7.703061e-19)
(11.427617 1.486336 2.3049832e-21)
(11.517544 1.4187195 -3.8536098e-19)
(11.660361 1.3969273 3.8819313e-19)
(11.745599 1.313134 3.8660284e-19)
(11.872424 1.2796042 -5.1536352e-21)
(11.948708 1.1816923 -5.7901664e-19)
(12.057102 1.1396593 0)
(10.167054 1.1733493 0)
(10.221829 1.2023172 1.1831426e-18)
(10.321789 1.2755624 0)
(10.384936 1.2909116 1.2208216e-18)
(10.486457 1.3598424 -3.7750546e-18)
(10.557963 1.3591308 3.8535069e-18)
(10.67331 1.4209602 -1.2845115e-18)
(10.753327 1.4013081 3.9869613e-18)
(10.8829 1.4498055 0)
(10.965753 1.4176567 6.7935204e-19)
(11.10525 1.4476215 0)
(11.192756 1.3966446 -1.3660905e-18)
(11.337074 1.4036813 2.7641396e-18)
(11.427704 1.3307398 -1.0395311e-20)
(11.565736 1.3213055 -3.4752626e-19)
(11.650917 1.2319672 0)
(11.777481 1.2077699 0)
(11.856113 1.1065977 0)
(11.96957 1.0679566 -4.2283979e-20)
(10.182578 1.0472577 4.1108638e-18)
(10.222871 1.0894786 -5.294895e-18)
(10.31541 1.1554498 2.1473042e-18)
(10.367197 1.181452 -9.4381244e-21)
(10.468142 1.2413614 0)
(10.531708 1.2516932 -2.270114e-18)
(10.648255 1.3054346 1.1739932e-18)
(10.724645 1.2958815 -1.1737857e-18)
(10.860265 1.3412566 0)
(10.941159 1.3185786 -6.0008256e-19)
(11.087901 1.3528895 1.2054874e-18)
(11.166807 1.3093555 -1.6924014e-20)
(11.317957 1.3214937 -1.2347504e-18)
(11.398183 1.2569081 -2.4473048e-18)
(11.541896 1.2504585 2.1508427e-18)
(11.618013 1.1694495 -1.2238053e-18)
(11.750073 1.1492108 7.6550078e-19)
(11.815807 1.0545313 1.5161749e-19)
(11.935041 1.0166396 3.71118e-20)
(10.180041 0.93047847 -6.438556e-18)
(10.220123 0.98310616 3.7745222e-18)
(10.304694 1.0305797 0)
(10.347226 1.067296 -4.8785873e-18)
(10.441043 1.1150307 4.0058598e-18)
(10.491284 1.1418655 1.0156925e-18)
(10.598472 1.1848633 3.0828031e-18)
(10.661322 1.1916851 -2.1008282e-18)
(10.786537 1.2260823 -2.6317843e-18)
(10.856983 1.2195315 1.6135048e-18)
(10.997148 1.2438086 2.1380894e-18)
(11.071839 1.213798 -3.2531827e-18)
(11.222331 1.2233323 2.1712523e-18)
(11.294119 1.1651732 -5.5304685e-19)
(11.446216 1.159047 2.6680524e-19)
(11.508946 1.0846321 -7.252635e-21)
(11.657677 1.0618192 -6.7557424e-19)
(11.712854 0.97327555 -1.3293267e-19)
(11.857551 0.93493331 -3.3069649e-20)
(10.187202 0.81836612 2.4682916e-18)
(10.2362 0.88191466 3.3357537e-18)
(10.299213 0.92051564 -3.4245099e-18)
(10.352319 0.96641329 8.7018291e-19)
(10.43468 1.0035652 -2.641543e-18)
(10.495713 1.0436578 2.7171708e-18)
(10.59384 1.0772104 9.0652134e-19)
(10.663822 1.0991215 -4.632631e-18)
(10.780271 1.1239357 3.2760223e-18)
(10.854329 1.1292225 -1.4305152e-18)
(10.983397 1.1442261 0)
(11.05993 1.1366587 -4.7993849e-19)
(11.198301 1.1355555 -1.4351645e-18)
(11.270451 1.1031602 4.946376e-19)
(11.410055 1.0834192 1.4450185e-18)
(11.476778 1.0306311 4.7470196e-19)
(11.609202 0.99244489 -9.5020361e-19)
(11.671508 0.9235523 2.4012903e-19)
(11.795246 0.86704854 2.6301403e-19)
(10.176334 0.72496832 -3.6340062e-18)
(10.228797 0.78265305 2.9799253e-18)
(10.273443 0.81114518 0)
(10.323723 0.86187708 -7.7134277e-19)
(10.385715 0.89009976 3.1292921e-18)
(10.442179 0.93479118 -6.3806657e-18)
(10.523934 0.95988964 8.3870238e-19)
(10.591627 0.99872827 3.3017433e-18)
(10.689467 1.0160267 2.4925462e-18)
(10.76861 1.0354451 -4.1872684e-19)
(10.882762 1.0411716 0)
(10.97189 1.0436243 2.1014646e-18)
(11.094857 1.0319679 -8.5815789e-19)
(11.188111 1.0174538 8.4464305e-19)
(11.310902 0.98497192 -1.2741866e-18)
(11.402415 0.95239437 -2.1131009e-19)
(11.516482 0.90264312 0)
(11.602485 0.85409995 0)
(11.701951 0.78346918 -2.5726734e-20)
(10.178145 0.63771955 6.2141376e-19)
(10.233136 0.69363779 -5.9435711e-18)
(10.277425 0.71879461 2.6776657e-18)
(10.333983 0.77424244 -3.4249907e-18)
(10.39246 0.79724202 -6.9443813e-19)
(10.459029 0.84412475 0)
(10.532287 0.86259723 -3.5630931e-18)
(10.610235 0.90423266 2.1854774e-18)
(10.694708 0.91378375 -7.3254979e-19)
(10.780924 0.94697558 -1.3918773e-21)
(10.872339 0.94689194 0)
(10.96493 0.96336701 0)
(11.062484 0.94823696 -3.7222396e-19)
(11.164401 0.94463587 -3.720472e-19)
(11.264616 0.90809567 1.855761e-19)
(11.366645 0.8866093 1.1078268e-18)
(11.46676 0.8309257 -7.4180144e-19)
(11.564651 0.79310892 9.172621e-20)
(11.656951 0.71646721 2.247585e-20)
(10.171118 0.54888542 4.0000621e-18)
(10.211375 0.5957096 -4.0954618e-18)
(10.245562 0.61600581 0)
(10.294854 0.66578154 6.0419122e-19)
(10.337139 0.69202663 0)
(10.396748 0.74246058 6.2344336e-19)
(10.456514 0.76274097 6.3177645e-19)
(10.529342 0.80709259 0)
(10.60784 0.8190368 3.210004e-18)
(10.697052 0.85303789 -2.2871042e-18)
(10.787972 0.84972073 1.6269517e-18)
(10.8894 0.86941085 -1.3187894e-18)
(10.987316 0.85465169 1.305716e-18)
(11.087996 0.85547273 -1.5815647e-20)
(11.184581 0.81988564 -1.3176898e-18)
(11.281127 0.80081404 -1.6244305e-19)
(11.37604 0.74856731 -1.6247585e-19)
(11.464398 0.71283655 -8.0056052e-20)
(11.555477 0.64323199 0)
(10.160576 0.48221041 4.5711496e-18)
(10.204102 0.52986813 0)
(10.249635 0.54682124 0)
(10.305123 0.59055555 5.3391274e-19)
(10.351784 0.61175648 0)
(10.413747 0.65497533 -5.4898285e-19)
(10.468604 0.67434207 -5.5570162e-19)
(10.537275 0.71300516 -2.2396377e-18)
(10.606118 0.72885668 2.2789668e-18)
(10.686475 0.76103652 0)
(10.766441 0.76186456 -2.5726535e-18)
(10.856025 0.78773074 2.0288531e-18)
(10.950005 0.77441466 1.1473555e-18)
(11.047255 0.78318325 -2.3059287e-18)
(11.14592 0.75227373 2.2996599e-18)
(11.245081 0.73568975 -1.7203195e-18)
(11.339185 0.68477371 5.7118531e-19)
(11.429682 0.64834584 0)
(11.516094 0.58073831 0)
(10.155412 0.38183029 7.167276e-18)
(10.187673 0.42495536 -3.6547016e-18)
(10.215363 0.45066258 3.700112e-18)
(10.249603 0.49545076 -4.2455646e-18)
(10.295586 0.52165897 -3.8090922e-18)
(10.350073 0.56440172 3.8816637e-18)
(10.404983 0.58743299 1.95072e-18)
(10.477644 0.62153607 -1.5028919e-20)
(10.549827 0.63726006 -2.002124e-18)
(10.630932 0.66340227 0)
(10.713098 0.67123832 0)
(10.799524 0.68616626 2.5230014e-19)
(10.887013 0.67989869 0)
(10.981703 0.68533867 1.0052662e-18)
(11.072722 0.66051553 -1.0137905e-18)
(11.166411 0.64884348 -4.9877724e-19)
(11.257022 0.60618468 6.2559142e-19)
(11.340423 0.57368826 -3.0798784e-19)
(11.424443 0.51217144 2.4574017e-19)
(10.138069 0.32842603 0)
(10.171492 0.36941238 0)
(10.213125 0.38872795 3.2619273e-18)
(10.25884 0.41795066 -3.3241781e-18)
(10.302408 0.44245775 3.7733682e-18)
(10.348623 0.48178496 -3.8386159e-18)
(10.403585 0.50159262 0)
(10.457604 0.53731735 4.3460751e-19)
(10.523138 0.55601434 1.7431052e-18)
(10.59702 0.58421972 -1.7681382e-18)
(10.672414 0.59672459 1.7597528e-18)
(10.758668 0.61594727 -1.762337e-20)
(10.845331 0.60952392 -3.5457185e-18)
(10.936252 0.61523811 1.7800229e-18)
(11.027511 0.5939092 0)
(11.12159 0.57843941 -8.7330789e-19)
(11.210283 0.54189562 1.3661484e-18)
(11.296894 0.50758047 -5.9676227e-19)
(11.381387 0.45061458 2.1514448e-19)
(10.122327 0.24543001 1.0811581e-17)
(10.136833 0.27788901 -5.6822402e-18)
(10.175446 0.30687038 0)
(10.203864 0.34246361 -3.650271e-19)
(10.245699 0.36664073 -3.6927213e-19)
(10.30991 0.40006382 3.734306e-19)
(10.36161 0.42312229 0)
(10.417226 0.44893194 -3.8041227e-19)
(10.487814 0.46385034 3.0559745e-18)
(10.556737 0.48645007 -3.0968764e-18)
(10.629763 0.50060406 0)
(10.710669 0.51581608 0)
(10.796283 0.52179442 1.9420473e-19)
(10.883179 0.52489341 9.6952286e-20)
(10.969622 0.51193357 -9.6641142e-20)
(11.054229 0.50206598 0)
(11.142648 0.46994466 -4.2698512e-19)
(11.224189 0.43783769 3.8057033e-19)
(11.298374 0.39059306 0)
(10.097299 0.20938607 -9.830416e-18)
(10.13802 0.21910406 1.0297375e-17)
(10.176341 0.23997911 -1.7471137e-20)
(10.196475 0.27063644 -4.8187733e-18)
(10.241764 0.28399866 0)
(10.28602 0.32210742 2.6164331e-18)
(10.319826 0.35119906 -5.4616737e-18)
(10.385965 0.38264371 2.6778613e-18)
(10.446738 0.39450522 0)
(10.511035 0.41664308 -2.6877603e-18)
(10.594881 0.42820362 2.7185006e-18)
(10.665932 0.43574228 1.348924e-18)
(10.75541 0.43969664 -1.3607327e-18)
(10.837433 0.44590706 1.1762296e-18)
(10.920144 0.43451929 -1.2703155e-18)
(11.018186 0.41995321 0)
(11.104701 0.3898046 -4.1710957e-20)
(11.186085 0.36531095 -1.2300443e-19)
(11.255315 0.32013141 1.7447974e-19)
(10.076797 0.1365811 2.7030411e-19)
(10.095861 0.15912084 -5.4891081e-19)
(10.116816 0.18549104 4.441355e-18)
(10.164168 0.2066048 2.6453091e-19)
(10.198741 0.22497488 -3.0489199e-19)
(10.242936 0.24644115 -4.6099821e-18)
(10.304836 0.26373189 1.4483053e-19)
(10.351971 0.29149821 2.475406e-18)
(10.407953 0.31591586 -2.3581848e-18)
(10.487145 0.32748945 -1.4766078e-19)
(10.544209 0.35010746 0)
(10.617861 0.35961689 2.5057588e-18)
(10.706709 0.36914477 -2.5252225e-18)
(10.781932 0.37620422 -1.1007888e-18)
(10.862653 0.36629947 8.5720503e-20)
(10.958348 0.35801276 1.7570944e-18)
(11.037804 0.34148301 -5.4763307e-19)
(11.106164 0.32486145 -5.3978614e-20)
(11.184369 0.28479513 -8.8877774e-21)
(10.068314 0.092512781 0)
(10.080607 0.11078302 2.4095135e-19)
(10.109458 0.12089016 3.8991324e-18)
(10.14141 0.13908739 -4.3271425e-18)
(10.16344 0.172986 4.1053085e-18)
(10.214422 0.17520989 -4.0354448e-18)
(10.264928 0.20453532 1.2705776e-19)
(10.307727 0.2235486 -1.2753859e-19)
(10.386122 0.22351589 1.9167562e-18)
(10.447577 0.25682215 -1.938602e-18)
(10.511288 0.26322742 1.9252887e-18)
(10.597592 0.26037396 -2.1369618e-18)
(10.677166 0.26547533 0)
(10.754186 0.27369434 1.022643e-18)
(10.835761 0.26324398 -1.1564842e-18)
(10.926558 0.24401624 5.0619674e-19)
(11.007408 0.24203181 -4.7631266e-19)
(11.077062 0.21898258 -2.1827091e-19)
(11.153811 0.18070686 2.5325953e-19)
(10.025761 0.058081792 -1.0735609e-20)
(10.043903 0.07118185 -6.7733448e-18)
(10.079072 0.073722972 1.0707724e-19)
(10.097194 0.093227565 -1.7951177e-22)
(10.138053 0.10559569 1.0912115e-19)
(10.17894 0.11865867 0)
(10.210171 0.13735588 3.5436614e-18)
(10.2667 0.15764565 -3.6955242e-18)
(10.318542 0.16752704 1.1196333e-19)
(10.378906 0.19080492 -1.7380471e-18)
(10.454177 0.20257712 3.6626244e-18)
(10.531655 0.21550209 -3.6049388e-18)
(10.609498 0.22701431 1.8074071e-18)
(10.691307 0.23869429 0)
(10.78263 0.23372195 -8.594296e-19)
(10.87054 0.22150643 8.9090787e-19)
(10.950626 0.22544473 -1.3676745e-20)
(11.027496 0.21663758 4.0025093e-23)
(11.098984 0.18422171 -3.3676087e-21)
(10.019089 0.019915488 5.8841711e-18)
(10.03224 0.028946241 -5.9227795e-18)
(10.051851 0.038877271 5.9110804e-18)
(10.071707 0.045576689 9.456576e-20)
(10.114635 0.053569679 0)
(10.145324 0.060058013 0)
(10.190999 0.066825372 -4.8230984e-20)
(10.251298 0.068374335 -3.0578e-18)
(10.29799 0.076882441 3.1858728e-18)
(10.375753 0.078317358 3.0972842e-18)
(10.435851 0.082667688 -1.5127324e-18)
(10.516167 0.083783679 -1.6464748e-18)
(10.597868 0.078391948 0)
(10.674459 0.088728386 2.4390798e-20)
(10.771413 0.078793425 2.4169436e-20)
(10.84707 0.070911198 7.5289874e-19)
(10.926494 0.076190545 -7.7908061e-19)
(11.004215 0.063390164 1.7067571e-19)
(11.076364 0.04313411 -1.8824089e-19)
(10.006532 0.0077264861 -3.9842668e-20)
(10.014285 0.01022064 5.1321491e-18)
(10.028476 0.015053808 -7.1820947e-21)
(10.049088 0.021422745 -1.0746084e-20)
(10.076022 0.028087688 -5.2998049e-18)
(10.109928 0.035235694 0)
(10.151341 0.042612779 2.6362795e-18)
(10.200037 0.049973452 -2.6619231e-18)
(10.256562 0.056211173 -4.2133046e-20)
(10.321401 0.061609874 -2.1097689e-20)
(10.39323 0.067269216 -2.1105526e-20)
(10.467379 0.073578817 2.1106986e-20)
(10.545492 0.079778648 0)
(10.627314 0.090394359 1.3238578e-18)
(10.714668 0.090277204 -1.3541256e-18)
(10.805749 0.098213058 -6.5482258e-19)
(10.886116 0.093413263 6.670201e-19)
(10.981882 0.099704939 3.3227711e-19)
(11.054829 0.076954838 -3.26837e-19)
(12.657301 1.4641122 -1.2719883e-19)
(12.695464 1.3790391 -5.0457459e-19)
(12.763709 1.2965593 4.9416693e-19)
(12.796332 1.2227669 0)
(12.855823 1.1577829 -9.0010169e-19)
(12.900185 1.1035568 -1.7040981e-18)
(12.961669 1.0622774 0)
(13.048911 1.0294453 5.9295825e-21)
(13.096535 0.99374473 2.7803179e-18)
(13.206332 0.95175432 1.2709937e-18)
(13.277319 0.93114378 -1.1942343e-18)
(13.384224 0.90436825 2.1102715e-18)
(13.522083 0.90678693 -1.9796852e-18)
(13.644347 0.87596896 0)
(13.904329 0.88250144 7.8684442e-19)
(14.036853 0.84767451 -7.0587862e-19)
(14.335558 0.83320049 -1.1949599e-18)
(14.634074 0.8015138 1.1227009e-18)
(14.863126 0.69378019 -4.5724156e-19)
(12.593768 1.3896095 -1.100815e-19)
(12.660102 1.3105501 6.4899087e-19)
(12.71228 1.21392 -4.2402602e-19)
(12.781675 1.1549988 0)
(12.815759 1.072464 -7.7499452e-19)
(12.895045 1.030573 2.2166516e-18)
(12.928338 0.9717444 0)
(13.027378 0.94182252 0)
(13.108961 0.90835633 0)
(13.200409 0.86226432 0)
(13.340955 0.82712862 2.0350779e-18)
(13.420729 0.76604088 -2.834186e-18)
(13.596591 0.72281779 -2.5277354e-18)
(13.704748 0.66720137 1.5725834e-18)
(13.927692 0.57337472 -1.3887839e-18)
(14.152306 0.54189558 1.2284261e-18)
(14.346259 0.35656925 -3.3052723e-20)
(14.694663 0.30969478 -9.9042717e-19)
(14.976637 0.056851408 8.1764099e-19)
(12.518651 1.3899636 0)
(12.59928 1.316655 -3.7480511e-19)
(12.647345 1.2056512 -7.2359608e-19)
(12.720859 1.1435697 6.1788384e-21)
(12.778203 1.0583398 1.8653331e-21)
(12.842429 0.99636643 1.2729352e-18)
(12.932619 0.93864098 -2.408236e-18)
(12.987576 0.87442667 1.1294176e-18)
(13.126226 0.83145098 -9.7241483e-21)
(13.205812 0.77368621 0)
(13.364678 0.70726212 2.6692423e-18)
(13.493962 0.6542246 -2.0624396e-20)
(13.655446 0.53713846 1.497022e-18)
(13.804569 0.47856356 1.3491628e-18)
(13.990107 0.31043012 1.8024137e-18)
(14.180885 0.21097632 -2.2155234e-18)
(14.417531 -0.0089084587 7.6019202e-20)
(14.614292 -0.20057246 1.7605014e-18)
(14.952823 -0.48475978 6.6961118e-19)
(12.490926 1.3216756 3.2659376e-19)
(12.543306 1.2392733 -6.4389364e-19)
(12.642204 1.1527933 9.4424352e-19)
(12.676718 1.0753492 0)
(12.766795 1.0001371 1.7353636e-18)
(12.814771 0.93950426 -2.766908e-18)
(12.911206 0.86564328 2.0895474e-18)
(12.99265 0.82124098 -7.0366472e-21)
(13.093122 0.72247811 -1.2363732e-21)
(13.216917 0.68305017 -8.4944183e-19)
(13.347351 0.54885072 0)
(13.495315 0.49635679 -7.2156951e-19)
(13.680445 0.3242602 6.5559652e-19)
(13.812159 0.2334551 -1.1973961e-18)
(14.028302 0.013841874 0)
(14.168791 -0.12664802 0)
(14.357589 -0.43573027 -8.681278e-19)
(14.535949 -0.64147915 0)
(14.669933 -1.0732263 6.1565108e-19)
(12.432149 1.3035417 2.8159048e-19)
(12.507681 1.2268421 -2.7960822e-19)
(12.581112 1.1110985 1.710003e-21)
(12.663616 1.048998 -5.1596828e-19)
(12.71837 0.93052724 5.0769101e-19)
(12.817656 0.88866461 -8.0644718e-21)
(12.883968 0.76715412 -9.1432576e-19)
(12.992385 0.7290328 0)
(13.09893 0.59714801 -1.5987905e-18)
(13.202493 0.5442812 7.4334087e-19)
(13.354313 0.38606421 0)
(13.456929 0.29362278 0)
(13.648551 0.08390316 -1.1611731e-18)
(13.760854 -0.041057024 -1.0730813e-18)
(13.924234 -0.33030271 9.8508251e-19)
(14.076418 -0.49334123 1.7421626e-18)
(14.161187 -0.87270548 7.7723867e-19)
(14.300888 -1.1000198 -7.3397407e-19)
(14.317083 -1.644476 -6.8802367e-20)
(12.372096 1.2224434 0)
(12.476175 1.1653649 2.4058578e-19)
(12.538024 1.0309602 -1.1625524e-18)
(12.629574 0.97566123 4.5848624e-19)
(12.708154 0.86253028 1.2978375e-18)
(12.781509 0.80047789 -8.392986e-19)
(12.885239 0.68189543 -1.5635829e-18)
(12.951827 0.61319742 1.4986097e-18)
(13.08391 0.46755096 -6.8385706e-19)
(13.163901 0.38286921 1.3150685e-18)
(13.306126 0.19016309 0)
(13.408463 0.079774962 0)
(13.532731 -0.18406216 -1.0476116e-18)
(13.666754 -0.33058351 2.8447365e-18)
(13.727341 -0.66553115 -3.520937e-18)
(13.856059 -0.86146487 1.6644251e-18)
(13.852576 -1.2624047 -3.0661684e-18)
(13.904702 -1.4992199 7.5731439e-19)
(13.81803 -2.0681943 1.359333e-18)
(12.313426 1.2061714 5.2879842e-20)
(12.392711 1.10987 2.052068e-19)
(12.495914 0.9889371 -4.0597856e-19)
(12.56491 0.9109497 0)
(12.676019 0.78613855 -7.5397129e-19)
(12.741586 0.71281857 2.1464274e-18)
(12.851334 0.56735094 -1.3794832e-18)
(12.944643 0.49832924 6.4960883e-19)
(13.027522 0.31452397 -1.2085734e-18)
(13.15878 0.21950782 3.4218301e-18)
(13.213812 -0.015278849 -2.1618907e-18)
(13.346437 -0.15160231 0)
(13.36683 -0.44520388 9.2312093e-19)
(13.483971 -0.62419294 1.7360731e-18)
(13.45949 -0.97190971 -2.4522298e-18)
(13.513657 -1.1807931 2.3468375e-18)
(13.437854 -1.5765407 -2.2406256e-18)
(13.389048 -1.7882445 -1.4304591e-18)
(13.217412 -2.3097776 -6.7769947e-19)
(12.272625 1.1398264 1.3529695e-19)
(12.362244 1.0447228 1.7490093e-19)
(12.463419 0.92207712 -3.5046944e-19)
(12.551641 0.85064779 0)
(12.625489 0.69896508 1.301165e-18)
(12.72378 0.63328565 -6.2568154e-19)
(12.781885 0.4571178 0)
(12.904405 0.37404053 -1.130396e-18)
(12.948845 0.16354004 5.373407e-19)
(13.077174 0.050135214 0)
(13.122742 -0.21428852 -9.593037e-19)
(13.208 -0.36608063 9.068314e-19)
(13.223593 -0.68374996 8.5981972e-19)
(13.241873 -0.86319456 -1.6021639e-18)
(13.202311 -1.2235575 1.5267113e-18)
(13.134802 -1.4035272 -7.0819904e-19)
(13.026674 -1.7860082 -7.3155602e-19)
(12.869477 -1.9353224 -7.1202357e-19)
(12.657014 -2.3777278 -6.978165e-19)
(12.181083 1.0682277 3.1151939e-19)
(12.302338 0.99561545 -1.5582676e-19)
(12.386232 0.84092884 0)
(12.500145 0.77288751 0)
(12.565136 0.60415441 -1.1261645e-18)
(12.681317 0.53310758 1.0823914e-18)
(12.737104 0.33910035 0)
(12.842612 0.24008802 4.9158421e-19)
(12.892447 0.0064027775 -4.6693009e-19)
(12.962019 -0.12713812 0)
(12.990411 -0.41175617 8.3812987e-19)
(13.009617 -0.5725576 2.3567626e-20)
(12.989461 -0.90018652 2.8580878e-20)
(12.945548 -1.0681644 0)
(12.849632 -1.4139423 -2.8702035e-18)
(12.731407 -1.5572872 2.7414876e-18)
(12.552464 -1.8903012 3.3809097e-18)
(12.36898 -1.9794737 -4.6507784e-18)
(12.076253 -2.3213077 3.1716835e-18)
(12.141958 1.0090888 0)
(12.272338 0.95147469 1.0106431e-21)
(12.346083 0.77593742 0)
(12.460742 0.70688861 0)
(12.520181 0.52136799 4.8580678e-19)
(12.621341 0.43472169 3.9532485e-21)
(12.667801 0.2253312 -4.5373301e-19)
(12.757103 0.11108427 -1.2854318e-18)
(12.790824 -0.1385161 1.6632213e-18)
(12.84546 -0.28458499 0)
(12.831864 -0.57646783 -7.6804645e-19)
(12.831517 -0.74223915 -4.3767442e-18)
(12.742696 -1.0551126 2.1132597e-18)
(12.673704 -1.2101169 0)
(12.504888 -1.511267 -2.6805305e-18)
(12.368492 -1.6208657 3.2324376e-18)
(12.125787 -1.8799923 -2.5869557e-18)
(11.943865 -1.9212724 3.1181976e-18)
(11.610229 -2.1532989 0)
(12.055154 0.93028759 -2.3195358e-19)
(12.201435 0.87104878 1.1706292e-19)
(12.275054 0.69378365 0)
(12.404 0.62061129 -8.6621275e-19)
(12.453024 0.4280915 1.2752957e-18)
(12.562552 0.3264328 -4.0652936e-19)
(12.581718 0.10531061 -1.1769115e-18)
(12.664705 -0.027517129 2.6597683e-18)
(12.651796 -0.28597057 -1.465253e-18)
(12.695356 -0.44560596 0)
(12.623363 -0.72753567 6.6979848e-19)
(12.60228 -0.89195518 3.966444e-18)
(12.453615 -1.1699539 -2.5485593e-18)
(12.362186 -1.3048699 0)
(12.138429 -1.5478517 0)
(11.991494 -1.6210644 -1.206423e-18)
(11.71043 -1.8021496 6.0968775e-19)
(11.541108 -1.7996573 -1.7732156e-18)
(11.213697 -1.9341748 0)
(12.00182 0.8811987 -2.0022144e-19)
(12.15977 0.81510627 5.9322448e-19)
(12.212362 0.62891886 -5.8448048e-19)
(12.350419 0.53738116 0)
(12.375101 0.34124772 1.0938987e-18)
(12.491988 0.22457939 -1.4297062e-18)
(12.483797 0.0019664425 0)
(12.56534 -0.14768735 6.7195556e-19)
(12.510286 -0.39942465 6.5206317e-19)
(12.536778 -0.56828339 0)
(12.416905 -0.82501101 0)
(12.374947 -0.98359208 -5.8481597e-19)
(12.183905 -1.2162171 -1.7642293e-18)
(12.074615 -1.3282372 -5.1230382e-20)
(11.819009 -1.509513 1.6590603e-18)
(11.670799 -1.5489347 1.1144869e-18)
(11.383305 -1.6591031 -5.3895089e-19)
(11.237203 -1.6301123 1.0646328e-18)
(10.945872 -1.6870243 0)
(11.91129 0.80670775 0)
(12.1023 0.73340111 -6.7967866e-19)
(12.129931 0.5555641 1.3382093e-18)
(12.281152 0.44829662 -9.8572627e-19)
(12.278666 0.25187767 0)
(12.398646 0.11365888 0)
(12.36026 -0.10720013 0)
(12.432191 -0.2722668 -5.807508e-19)
(12.339096 -0.50883557 -5.6480962e-19)
(12.341288 -0.67985174 0)
(12.180248 -0.90335544 -5.5433649e-19)
(12.114611 -1.0510613 -5.4559254e-19)
(11.89055 -1.2308963 -5.1947919e-19)
(11.764982 -1.3180754 2.1180554e-18)
(11.500082 -1.4289434 -2.0622432e-18)
(11.349461 -1.4374668 -5.0126658e-19)
(11.079841 -1.481344 3.0605694e-18)
(10.955599 -1.4291 -4.9417228e-18)
(10.70364 -1.4315553 2.9435765e-18)
(11.863274 0.75666582 -3.7749889e-20)
(12.026179 0.65301322 7.4212932e-20)
(12.082974 0.49392052 7.1952348e-19)
(12.206529 0.36434778 -1.6985502e-18)
(12.223354 0.18171021 8.3311157e-19)
(12.303335 0.017970627 0)
(12.273275 -0.18121719 0)
(12.297348 -0.36710631 5.2031239e-19)
(12.196342 -0.56858845 -2.0310882e-18)
(12.157305 -0.74617555 -5.2597086e-19)
(11.984346 -0.92986838 4.5046119e-19)
(11.879252 -1.0613044 2.3916827e-18)
(11.658147 -1.189387 4.8529499e-19)
(11.504638 -1.2552562 0)
(11.269893 -1.3057427 1.4111245e-18)
(11.10606 -1.3032413 0)
(10.88719 -1.2883651 -2.789114e-18)
(10.768669 -1.2365452 8.0791243e-18)
(10.57427 -1.1987336 -7.0522983e-18)
(11.796633 0.69930358 6.4927644e-20)
(11.913301 0.56290992 -6.3583063e-20)
(11.995144 0.42967987 0)
(12.084875 0.26821982 -7.3284981e-19)
(12.114858 0.10129908 2.4507455e-19)
(12.156099 -0.081685133 9.4349894e-19)
(12.133622 -0.26623491 0)
(12.109984 -0.45351781 -2.2710218e-18)
(12.01411 -0.63187759 1.3290983e-18)
(11.921574 -0.80176598 -1.0839978e-20)
(11.761502 -0.93755617 0)
(11.609174 -1.0527114 0)
(11.400497 -1.1242534 -4.2345158e-19)
(11.236551 -1.1561716 0)
(11.019336 -1.158673 2.0035249e-20)
(10.866506 -1.1334284 8.410683e-19)
(10.691837 -1.0837642 -2.4833234e-18)
(10.57316 -1.0356505 6.4529483e-18)
(10.419047 -0.97265053 -3.1522776e-18)
(11.764325 0.64416947 1.9466401e-19)
(11.874005 0.49407606 -1.6697551e-19)
(11.951386 0.37231072 0)
(12.026895 0.19535256 0)
(12.04901 0.045375013 0)
(12.061129 -0.15375953 0)
(12.036173 -0.31236951 -1.6213525e-18)
(11.968817 -0.50593674 1.5910148e-18)
(11.869839 -0.6548567 1.9814817e-18)
(11.74304 -0.80948341 -7.7238111e-19)
(11.588133 -0.9139239 0)
(11.411228 -1.0006672 3.1272394e-18)
(11.216622 -1.0279337 -5.7607987e-18)
(11.050399 -1.0464786 3.0192659e-18)
(10.874564 -1.0111539 -3.7896433e-18)
(10.734346 -0.99103124 2.2158577e-18)
(10.587171 -0.91848377 -7.2730151e-19)
(10.479013 -0.86990592 -7.2271345e-19)
(10.384702 -0.78782936 7.0089805e-19)
(11.656892 0.57318355 1.921973e-19)
(11.7726 0.42522687 -6.183899e-19)
(11.845124 0.30304769 3.7688005e-19)
(11.900987 0.11882033 -7.3499129e-19)
(11.926646 -0.021361465 7.2731604e-19)
(11.912578 -0.22470722 0)
(11.872447 -0.36555354 -3.563642e-19)
(11.779968 -0.54694413 1.4115324e-18)
(11.677929 -0.66882294 -1.3846196e-18)
(11.522127 -0.80749896 -3.427005e-19)
(11.356013 -0.85646105 -2.7908847e-18)
(11.186979 -0.91497009 2.7246354e-18)
(10.999851 -0.90592219 -3.3813542e-19)
(10.843721 -0.91199301 2.0519169e-18)
(10.677607 -0.85389351 -1.9868297e-18)
(10.565327 -0.81927832 0)
(10.44163 -0.72212248 -5.2329815e-18)
(10.349823 -0.68905849 5.7207471e-18)
(10.275389 -0.60045793 0)
(11.618045 0.51000179 -3.3187267e-19)
(11.723589 0.36928914 3.3163032e-19)
(11.796253 0.24394405 -6.4565481e-19)
(11.838287 0.069500033 6.4099299e-19)
(11.851457 -0.074985674 1.4197941e-18)
(11.825352 -0.25887068 4.2766443e-21)
(11.763449 -0.39393444 -1.2385094e-18)
(11.658762 -0.56641135 3.1018971e-19)
(11.534573 -0.65933384 0)
(11.381423 -0.75450854 3.0864394e-19)