/*--------------------------------*- C++ -*----------------------------------*\
  =========                 |
  \\      /  F ield         | OpenFOAM: The Open Source CFD Toolbox
   \\    /   O peration     | Website:  https://openfoam.org
    \\  /    A nd           | Version:  11
     \\/     M anipulation  |
\*---------------------------------------------------------------------------*/
FoamFile
{
    format      ascii;
    class       volScalarField;
    location    "0.289";
    object      p;
}
// * * * * * * * * * * * * * * * * * * * * * * * * * * * * * * * * * * * * * //

dimensions      [0 2 -2 0 0 0 0];

internalField   nonuniform List<scalar> 
880
(
80
80.0000000022581
80.00000168651245
80.00352480883062
80.00000000000001
79.99999999330529
80.00000593405125
80.00896348664409
80.00000000000007
79.99999999941562
79.99999815538284
80.04981398968593
79.99999999999383
79.99999968235643
80.00019369638963
80.4592164364651
79.99999999995789
80.00000000024731
79.99999982217342
80.00001359273352
80.00000087067303
80.00000044847677
80.00001111854911
80.00029534795489
79.9993355037694
80.00130830911898
80.05790985039945
79.90650013409127
83.40778392958057
88.11598129743722
91.13575611023947
92.57368793011625
79.99977756173033
80.00025146096553
80.00230509535594
80.00179574774771
79.99604521855221
80.00473689524205
80.01211892265111
80.0184862267038
80.37460632127052
80.70027652092868
81.0932001759987
81.5034923922148
94.34345784924372
96.58275610106928
98.35873579601562
101.4404740376459
99.16744613686859
95.0777163840898
91.32111713132159
88.6102549409442
82.82952937465518
84.62198819789388
85.45125968084203
85.80409997205275
80.06340654895243
80.20372539118509
80.42165606597531
80.6759433268288
80.00585466396197
80.01964179346301
80.05191985585496
80.10832000229395
80.18594097348277
80.25266766010265
80.28257424258794
80.28024776702713
80.91788769547682
81.0869684641834
81.22595593326038
81.33803988120201
85.86609686449721
85.7724589583118
85.65455300458328
85.42891215737436
86.78564212675175
85.94332395555543
85.60110732436962
85.06856737095592
84.69488325136875
85.01014192981911
81.31688352780102
80.24620794138696
84.23489101131742
84.57711994136716
81.20369397645118
80.19470078613936
85.33579429743264
83.99788284872479
81.01019856130583
80.13682008786341
94.16198112505081
83.91267534877345
80.76252772018289
80.07967925461826
80.01945841299563
80.50463133252366
84.41290409805111
132.9438651392004
79.99951661246065
80.32067659433905
87.47517535460365
173.3760587638868
80.00556202780552
80.30943651601378
92.84979304535025
187.4534637595983
80.03348777267399
80.57173614357427
100.2723972022545
195.8223457022484
200.4814721633521
109.6877475541929
81.27647270549221
80.09946344642854
202.0961852020747
121.8065704235892
82.72776305592029
80.25139894607412
202.4718242650262
135.3032437981373
85.49515585797147
80.55254250865133
198.7928869111059
150.0878109327381
90.23989165442421
81.16248244140161
82.19828536287963
97.02414744376117
158.0020466725006
192.0795816656412
83.86007999401799
102.4872203604382
152.2694723688875
173.0180559341582
85.00035495950452
101.128930444068
136.0177383790132
150.718640983467
84.77726377157863
96.46381749317108
119.1751222023635
124.1248033581233
85.10528028003138
94.5933693547546
102.6561333771533
92.76355959971036
84.51122957661232
88.73048804890246
87.82146905457324
59.10185133064966
83.12229353418878
84.06894208987461
77.85306364097109
36.67876169305417
81.86434346735101
82.07500674991208
70.55586687709685
21.1769272489406
20.28881043941324
70.23502350350132
81.0601622004944
81.01775649573116
23.94087680799332
69.86062119330987
80.41982023822814
80.45168519278283
28.00386792289296
69.40387301198024
80.05267193114072
80.14042937934492
27.41455727215575
68.22835614013785
79.29829544668434
80.04859266981762
33.73332283544072
70.66847307767185
79.00835727232257
79.96769378225753
39.29163324135217
71.59671328928435
78.90147163266158
79.94518639931162
43.0922589717571
72.14998848009068
79.10288506312858
79.97043478525183
46.40700296818282
73.14970270567257
79.50739076090561
79.9889241279496
39.42771780580948
70.35238420182603
78.77654829500315
79.93246670665353
42.06190807734371
69.86072460290596
78.68920816017967
79.93415299603534
45.40868949593068
69.33854995223147
78.5731062039157
79.93624370864126
48.13557795068238
68.80294170997682
78.49417758168003
79.93956277611908
46.40700296778162
73.14970270560309
79.50739076097803
79.98892412585815
43.0922589716064
72.14998848002267
79.10288506073132
79.97043478517583
39.29163324104318
71.59671328891795
78.90147163084484
79.94518639985442
33.73332283533906
70.66847307856268
79.00835727295787
79.96769378122205
81.01775649899079
81.06016220146263
70.23502350234018
20.28881043876903
80.45168519397679
80.41982024010004
69.86062119334521
23.9408768075764
80.14042937857987
80.05267193353605
69.40387301148334
28.00386792296314
80.04859267039662
79.29829544804305
68.2283561421075
27.41455727230388
21.17692724877507
70.55586687611319
82.0750067480116
81.86434346735025
36.67876169332043
77.8530636401087
84.06894208932921
83.12229353322216
59.10185133086077
87.82146905344361
88.73048805045234
84.51122957588827
92.76355959922066
102.6561333765794
94.59336935401596
85.10528026893341
82.19828536397988
97.02414744483272
158.0020466735331
192.0795816654759
83.86007999452129
102.4872203620228
152.2694723666965
173.0180559333441
85.000354969348
101.1289304450853
136.0177383770795
150.7186409827859
84.77726377028412
96.46381749201771
119.1751222020671
124.1248033574588
198.7928869129977
150.0878109332539
90.23989165559276
81.16248244323147
202.4718242680567
135.3032438020606
85.49515585974838
80.55254250954188
202.096185201554
121.8065704256643
82.72776305833916
80.25139894584471
200.4814721616685
109.6877475513033
81.27647270310609
80.09946344531802
80.0194584125403
80.50463133221345
84.41290409774518
132.943865139631
79.9995166115188
80.32067659370885
87.47517535316608
173.3760587618244
80.0055620265052
80.30943651553275
92.84979304805955
187.4534637620932
80.03348777094477
80.5717361475061
100.272397203659
195.8223457047199
80.07967925704324
80.13682008827769
80.19470078598576
80.246207940185
80.76252771939771
81.01019856265924
81.20369397599939
81.316883527092
83.91267534789959
83.99788284859633
84.57711994138556
85.01014193071627
94.16198112469183
85.33579429777149
84.23489101179403
84.69488325184403
80.28024776621858
81.33803988152168
85.42891215797752
85.0685673712352
80.28257424258935
81.22595593511012
85.65455300515234
85.60110732380764
80.25266766027042
81.08696846707413
85.77245895816692
85.94332395423369
80.18594097212697
80.91788769808127
85.86609686406217
86.78564212501004
80.00585467026087
80.06340654688066
82.82952937445039
99.1674461367315
80.01964179325498
80.20372538593696
84.62198819650878
95.07771638237764
80.051919852667
80.42165606221707
85.45125967972247
91.32111712914769
80.1083199995844
80.6759433275203
85.80409997114573
88.61025493862422
101.4404740396311
81.50349239344811
80.01848622883753
80.00179575086882
98.35873579849677
81.09320017743917
80.01211892088558
80.00230506012528
96.5827561035623
80.7002765219369
80.00473689641822
80.00025149231313
94.34345784857
80.37460631841191
79.99604521716772
79.99977756241188
92.57368793160607
79.90650013343038
80.00029534901331
80.00001359331073
91.13575611053066
80.05790984884337
80.00001111846406
79.99999982213257
88.11598129713956
80.00130830878314
80.00000044853738
80.0000000002341
83.40778393016578
79.99933550380247
80.00000087069165
79.99999999996906
80.00000000000001
80.00000000235011
80.00000168668696
80.00352480879958
80
79.99999999316306
80.00000593401167
80.00896348612534
80
79.99999999934013
79.99999815513461
80.04981399178583
79.99999999998396
79.99999968223543
80.00019369571073
80.45921643173234
80.00834616850439
80.03156098984513
80.17182672378898
81.15187927250162
80.03156098969171
80.07292577237415
80.26448187331546
82.67409293692131
80.17182672205949
80.26448187235708
81.12588875983094
90.28547770438409
81.15187927836222
82.67409294569957
90.28547771499611
111.0049755459464
140.1504258066414
119.9036446106228
108.0921506035768
95.37763987879295
136.3595061300954
131.3134946305402
129.6875114842789
120.402464449929
135.7048331466462
134.1203275260629
133.4545855051738
129.877931451229
135.6827296149829
135.184207336456
134.9463452966258
133.1187561986863
131.3073146436667
129.8760673691499
128.3401883238337
128.9965328585393
132.5224667098672
130.4883799422005
128.6679051666008
129.1456926181004
132.9306822227308
130.799920309379
128.90212357363
129.4071299562723
133.0529914773952
130.8349105951014
128.8870699246319
124.7653074757154
104.8788504562368
81.96749609354768
74.67600578112999
72.87120089594028
95.69131366094331
75.78826305667664
72.74223611309053
72.16960033820777
86.69681452796254
73.9477898405715
73.58664272393713
73.03486477140081
70.37968952072796
69.9549150208768
72.49854245031358
72.32433902829652
72.72754268447557
73.2142970033177
74.28854105611015
75.55271090669238
72.09049190373572
72.65290360850402
73.85276402308199
75.24519452681861
72.67792285619444
72.98449757966563
74.06461031753864
75.08107981703483
71.95849456495645
72.4113677767228
73.6413114851117
75.07518314794081
76.74484142789113
77.83832566104356
92.68048932826247
144.8478169752897
76.50277279118067
77.92648443516164
100.6902450264761
156.9706757782026
76.41717267985797
77.97754756327268
109.1736764273919
160.9797178303686
76.50275130039172
77.93385732459248
115.1361771177003
164.4120148139579
248.4627364311779
262.9561734073644
256.8281811246665
247.5348518847773
254.1073967443669
263.571956932391
259.4061059253664
249.6730125381612
249.1937883449501
263.4523256176299
260.8359158783377
251.5775129108692
242.5992290737161
264.0989268108036
262.3367029223048
253.6444502120617
243.6506419180806
245.6396752928241
239.5065725396214
224.9315446391696
244.7045742243762
246.5129212897891
242.4420314329711
227.1291517050182
244.1939638920041
246.4310926756648
243.3253839763273
229.8112580344451
245.4323602003457
248.3512480335605
245.5768043078997
233.7233139994918
210.3665509718446
187.1584551573274
164.6733273678373
136.2500934296637
212.1866741516739
189.7673284051273
165.8732170519035
145.4502396546498
214.5928774801687
193.1318783647648
168.7703628402241
151.2915739050037
218.285428031853
198.4613029216306
174.2967892622829
169.3742064497944
75.91351093175268
15.21938810779736
2.187969517474793
1.503794055563809
60.45901713351874
9.113323545502823
2.032469846430775
1.595534173481231
42.73634195047849
4.620913623484658
1.742988891857301
1.658660781825721
23.2188595734121
1.590319968553884
1.872445076284674
2.023097067407286
2.128542524501105
3.440504207855516
6.074967031796584
10.16910696292851
2.655290031718815
4.361911294820494
7.135559726473806
11.07537449182423
2.926300323712813
4.717387011461429
7.869268847585253
11.38754840364392
3.26509403358001
5.402648054269229
8.999175861720621
11.81648398818882
11.05808788391815
17.44163514800585
22.71958720631518
27.83449357206953
11.20577771714725
16.4690181370211
21.53586159568621
28.01515910374185
10.96356378831704
15.57489834919376
19.63921567873727
26.79838316593934
10.2980444338784
13.93161119666778
17.07364630198448
27.99170340584357
22.79911578617273
17.15819923973296
18.90718652639768
22.38655369447854
19.83365201177667
11.85354826312573
14.01144865959744
16.41389669890769
16.98169659802435
10.01325010027529
13.64679725337533
16.09345235676648
13.05654392503732
9.382753345640248
12.5216447282737
14.23973969815837
16.01670435554455
17.10470672766228
17.95706776421969
18.40048450585912
17.41703524467364
18.1215097256027
18.39540766001134
18.94423289667593
17.69067240748747
18.2709535302649
19.02052294454953
19.73114931359688
23.64399691333741
22.68734799955399
21.95796284024902
21.85070384298653
18.40048450586978
18.9442328966406
19.73114931357617
21.85070384297434
17.95706776424641
18.39540765999569
19.0205229445377
21.95796284024528
17.10470672771291
18.12150972560536
18.27095353027396
22.68734799936056
16.01670435558991
17.41703524471862
17.69067240753841
23.64399691319054
22.38655369455259
18.90718652664097
17.15819923983014
22.79911578604059
16.41389669896467
14.01144865972523
11.85354826320349
19.83365201166657
16.09345235685772
13.64679725353399
10.01325010039953
16.98169659793774
14.23973969821389
12.52164472836072
9.382753345800964
13.05654392503188
27.99170340584635
17.07364630180982
13.93161119638514
10.29804443363803
26.79838316581642
19.63921567861065
15.57489834889126
10.96356378796519
28.01515910350228
21.53586159559774
16.46901813678124
11.20577771671811
27.83449357185111
22.71958720625705
17.44163514781933
11.05808788343454
10.16910696273041
6.07496703183678
3.440504207812184
2.128542524477233
11.07537449159749
7.135559726486836
4.36191129484002
2.655290031710402
11.38754840341475
7.869268847592005
4.7173870114711
2.926300323693312
11.81648398793659
8.999175861658124
5.402648054259964
3.265094033570417
1.503794055529473
2.187969517426672
15.21938810771331
75.91351093232039
1.595534173438282
2.032469846426962
9.113323545452037
60.45901713366138
1.658660781823527
1.742988891820632
4.620913623474902
42.73634195040638
2.023097067379064
1.872445076270656
1.590319968566466
23.2188595733403
136.2500934299908
164.6733273660849
187.1584551556561
210.3665509703143
145.4502396551061
165.8732170498972
189.7673284028988
212.1866741495617
151.2915739047755
168.7703628383183
193.1318783620856
214.5928774779979
169.37420644906
174.2967892602005
198.461302919102
218.2854280296294
224.9315446393202
239.5065725389279
245.6396752935324
243.6506419221378
227.1291517047167
242.4420314331753
246.5129212905426
244.7045742280276
229.8112580331913
243.3253839768095
246.4310926769839
244.1939638951584
233.7233139971584
245.5768043085814
248.3512480345148
245.4323602037464
247.5348518863181
256.8281811262069
262.9561734076499
248.4627364326427
249.6730125397497
259.4061059268768
263.5719569325411
254.1073967463788
251.5775129126754
260.835915879767
263.4523256177149
249.1937883470373
253.6444502137568
262.3367029235142
264.0989268108721
242.5992290764549
144.8478169752739
92.68048932777037
77.83832566182332
76.74484142862619
156.9706757788437
100.6902450255437
77.92648443602967
76.50277279187053
160.9797178315756
109.1736764267864
77.97754756421588
76.41717268063485
164.4120148153164
115.1361771169359
77.9338573255763
76.50275130123812
75.55271090692199
74.28854105555303
73.21429700216797
72.72754268293504
75.24519452689078
73.85276402251372
72.65290360736149
72.09049190190831
75.08107981724378
74.06461031689024
72.98449757830927
72.6779228542896
75.07518314815864
73.64131148450539
72.41136777550197
71.9584945631984
72.87120089382422
74.67600577964815
81.96749609288115
104.878850458011
72.16960033633892
72.74223611190369
75.78826305662714
95.69131366252979
73.03486476944245
73.58664272278322
73.94778984091954
86.69681452965932
72.32433902643024
72.49854244935575
69.95491502157816
70.37968952288382
128.9965328607274
128.3401883259642
129.8760673715987
131.3073146450214
129.1456926204841
128.6679051687101
130.4883799446261
132.5224667116498
129.4071299587772
128.9021235757502
130.7999203108727
132.9306822227713
124.7653074780351
128.8870699259075
130.8349105953193
133.052991476223
133.1187562033683
129.8779314529596
120.4024644516017
95.37763988072562
134.9463452974041
133.4545855044595
129.6875114863519
108.0921506071046
135.1842073399875
134.1203275210476
131.3134946336353
119.9036446149117
135.6827296190437
135.7048331383097
136.3595061271787
140.150425809405
49.4230424395008
72.61997743753156
79.29043542678647
79.98116405152425
47.95995639678822
71.32896847577655
78.9875404999065
79.96588596683327
48.87165040551138
70.34728030114472
78.73124714598218
79.95236813113242
49.32395224141081
69.44076468318029
78.56121404551634
79.94460587269776
79.93246670246862
78.77654829425238
70.35238420356936
39.42771780624079
79.9341529931533
78.68920816047697
69.86072460482451
42.06190807774799
79.93624370681682
78.57310620521618
69.33854995333488
45.4086894957826
79.93956277337814
78.49417758323152
68.8029417096145
48.1355779505966
79.94460586841443
79.95236812834534
79.96588596505089
79.98116404814502
78.56121404742247
78.73124714716496
78.98754050007905
79.29043542750291
69.4407646824376
70.3472802997295
71.32896847423982
72.61997743682599
49.32395224183164
48.87165040576073
47.9599563966848
49.42304243903567
)
;

boundaryField
{
    back
    {
        type            empty;
    }
    inlet
    {
        type            zeroGradient;
    }
    front
    {
        type            empty;
    }
    top
    {
        type            zeroGradient;
    }
    outlet
    {
        type            fixedValue;
        value           uniform 80;
    }
    bottom
    {
        type            zeroGradient;
    }
    wall
    {
        type            zeroGradient;
    }
}


// ************************************************************************* //
