/*--------------------------------*- C++ -*----------------------------------*\
  =========                 |
  \\      /  F ield         | OpenFOAM: The Open Source CFD Toolbox
   \\    /   O peration     | Website:  https://openfoam.org
    \\  /    A nd           | Version:  11
     \\/     M anipulation  |
\*---------------------------------------------------------------------------*/
FoamFile
{
    format      ascii;
    class       volScalarField;
    location    "9";
    object      p;
}
// * * * * * * * * * * * * * * * * * * * * * * * * * * * * * * * * * * * * * //

dimensions      [0 2 -2 0 0 0 0];

internalField   nonuniform List<scalar> 
5472
(
109.39636
107.61162
105.85624
104.15095
102.45409
100.78624
99.170408
97.648124
96.19701
94.817644
93.57144
92.433339
91.416365
90.524127
89.794977
89.214652
88.746419
88.415651
88.237341
109.71428
108.12296
106.49861
104.87656
103.29473
101.72427
100.17289
98.687813
97.271378
95.918668
94.676814
93.546358
92.538557
91.641548
90.883454
90.25408
89.728207
89.418992
89.223402
110.01578
108.5538
107.11004
105.59826
104.09017
102.61629
101.1439
99.710222
98.317443
97.001761
95.769426
94.647119
93.630843
92.720906
91.943621
91.284817
90.76471
90.41983
90.195021
110.27809
108.9723
107.60721
106.22264
104.84988
103.45725
102.05254
100.66832
99.325969
98.040143
96.826652
95.718903
94.688336
93.777155
92.984302
92.3151
91.786882
91.402958
91.162072
110.4808
109.27405
108.03245
106.79035
105.52651
104.22253
102.91467
101.56807
100.26909
99.020382
97.828301
96.729091
95.70865
94.801935
93.991638
93.321885
92.773332
92.373486
92.118101
110.60393
109.52532
108.3966
107.2664
106.13294
104.93809
103.67917
102.40288
101.17082
99.9568
98.797995
97.707957
96.710814
95.801064
94.991199
94.3135
93.739968
93.332396
93.056188
110.6871
109.70393
108.70084
107.69929
106.64736
105.52906
104.38116
103.18383
101.99488
100.82462
99.705521
98.648551
97.660233
96.750178
95.949786
95.24463
94.689018
94.263993
93.969157
110.749
109.86041
108.95949
108.04108
107.07596
106.08397
105.01856
103.89437
102.76402
101.64492
100.57041
99.531224
98.569127
97.682198
96.8778
96.18953
95.624456
95.171909
94.874931
110.72389
109.96837
109.16673
108.32671
107.46926
106.54567
105.55855
104.54217
103.46467
102.39896
101.36635
100.37037
99.438023
98.555082
97.751993
97.044992
96.492793
96.049756
95.741992
110.72591
110.01451
109.29847
108.56413
107.7832
106.95361
106.05583
105.0899
104.09082
103.10547
102.11387
101.16019
100.24145
99.398863
98.628713
97.937666
97.374439
96.907519
96.58573
110.67713
110.06391
109.4191
108.75357
108.05752
107.30349
106.48118
105.59949
104.67777
103.74278
102.79692
101.8835
100.99707
100.17299
99.389584
98.727271
98.164438
97.713472
97.394894
110.59034
110.04748
109.49821
108.92516
108.29755
107.60435
106.85266
106.03865
105.1836
104.31377
103.44035
102.56663
101.7203
100.92026
100.16601
99.514768
98.935926
98.497106
98.164729
110.50127
110.03106
109.55733
109.03933
108.47809
107.85754
107.17529
106.43139
105.63819
104.8267
104.00261
103.16677
102.36271
101.58547
100.86698
100.23536
99.679634
99.2363
98.896978
110.4154
109.99738
109.56585
109.11309
108.62004
108.06459
107.45223
106.77329
106.05004
105.30578
104.53747
103.74952
102.9797
102.21992
101.52416
100.90091
100.36393
99.91498
99.573111
110.31631
109.96675
109.58913
109.18742
108.74171
108.23695
107.6715
107.05136
106.38926
105.70247
104.99287
104.26118
103.53296
102.8157
102.15141
101.54352
101.01398
100.56766
100.22806
110.18405
109.88037
109.56575
109.22958
108.84372
108.39663
107.88445
107.32212
106.71272
106.0769
105.40884
104.7166
104.02023
103.33705
102.70241
102.12168
101.6069
101.16974
100.82847
110.11848
109.85039
109.56001
109.24214
108.89363
108.49603
108.03281
107.5268
106.97952
106.40741
105.79137
105.14257
104.47881
103.82817
103.21768
102.66051
102.15878
101.73033
101.38694
110.02052
109.79096
109.55408
109.28827
108.97646
108.60368
108.17748
107.70908
107.20728
106.67983
106.11071
105.5114
104.89079
104.2773
103.68864
103.14852
102.66028
102.24091
101.89683
109.92067
109.72471
109.52033
109.28732
109.01167
108.68745
108.30824
107.88051
107.42235
106.9269
106.39497
105.82991
105.25129
104.67578
104.11555
103.5969
103.12009
102.70867
102.368
109.88977
109.70883
109.51862
109.30337
109.05089
108.75297
108.40151
108.01901
107.6072
107.15493
106.65933
106.11687
105.56346
105.01792
104.48437
103.98777
103.5279
103.1208
102.78434
109.83598
109.68692
109.52367
109.33397
109.10502
108.82769
108.50267
108.14542
107.75954
107.34327
106.89271
106.40373
105.8848
105.35619
104.83742
104.35084
103.90122
103.50262
103.16965
109.81637
109.6735
109.52245
109.35128
109.1471
108.89752
108.60566
108.27797
107.9126
107.51097
107.06825
106.59309
106.10651
105.61122
105.11994
104.64943
104.2071
103.81458
103.47878
109.80981
109.68738
109.55065
109.3902
109.19944
108.96714
108.69658
108.39817
108.06778
107.70468
107.30128
106.85777
106.38816
105.89996
105.41624
104.95129
104.51748
104.1278
103.79091
109.8169
109.70981
109.58699
109.44286
109.2687
109.0529
108.79603
108.50503
108.17934
107.81949
107.41796
106.98332
106.52587
106.0613
105.59497
105.13851
104.71337
104.32695
103.99086
109.83874
109.7489
109.63455
109.50316
109.34989
109.1623
108.93575
108.67131
108.37923
108.05414
107.69037
107.28401
106.83389
106.35572
105.87041
105.4013
104.9638
104.56641
104.21864
109.86583
109.79936
109.70172
109.57873
109.42798
109.24356
109.01992
108.75419
108.44839
108.10534
107.7305
107.32183
106.88391
106.4229
105.94679
105.48427
105.04864
104.66395
104.31824
109.88596
109.85687
109.80055
109.71559
109.60153
109.45772
109.27748
109.05561
108.79015
108.47849
108.12559
107.73334
107.27841
106.7591
106.21745
105.69135
105.22775
104.81547
104.4369
88.184574
88.326057
88.567737
88.923895
89.412159
89.957563
90.61891
91.366725
92.203253
93.150786
94.191923
95.301038
96.489049
97.762945
99.185136
100.69657
102.31509
103.99798
105.77793
89.147389
89.296309
89.516051
89.898886
90.412749
91.019801
91.769765
92.595795
93.520821
94.541032
95.617068
96.754919
97.973706
99.265704
100.62107
102.01248
103.45429
104.92827
106.44831
90.115237
90.228479
90.449566
90.880614
91.403376
92.094728
92.910422
93.80929
94.828842
95.893552
97.000722
98.175235
99.395167
100.66468
101.91891
103.15598
104.37697
105.56917
106.67517
91.064943
91.138824
91.394166
91.834446
92.396615
93.154123
93.993971
94.967262
96.015778
97.091888
98.21391
99.373427
100.52936
101.6781
102.76839
103.78816
104.70573
105.49459
106.10957
91.99323
92.054278
92.328553
92.763997
93.382196
94.157134
95.033967
96.036541
97.065828
98.127581
99.21775
100.2895
101.33525
102.31255
103.1892
103.91099
104.46888
104.77798
104.80752
92.912467
92.96134
93.242401
93.687398
94.343302
95.113218
96.028392
97.015688
98.014669
99.043044
100.07203
101.03033
101.92402
102.67451
103.30539
103.69915
103.89415
103.76431
103.31734
93.807804
93.847345
94.120163
94.586728
95.251607
96.035599
96.960894
97.906617
98.875505
99.839356
100.77599
101.60309
102.32771
102.86651
103.23825
103.36192
103.25412
102.91737
102.32253
94.687007
94.722505
94.989239
95.467391
96.11489
96.905854
97.805175
98.715567
99.650433
100.52855
101.34744
102.02843
102.58176
102.93524
103.08573
103.05295
102.81015
102.47967
102.05626
95.52912
95.565157
95.808375
96.292395
96.930628
97.723359
98.582638
99.448664
100.3236
101.10546
101.81121
102.35205
102.74745
102.95748
102.9797
102.88773
102.70608
102.49725
102.27156
96.355899
96.370944
96.593743
97.078276
97.700664
98.484319
99.290196
100.11285
100.90076
101.59504
102.17994
102.61026
102.88022
103.00706
103.00717
102.96435
102.89598
102.83273
102.80496
97.156387
97.130606
97.347377
97.824565
98.433398
99.179187
99.939197
100.71068
101.39639
102.01785
102.48503
102.83694
103.03037
103.15197
103.19524
103.23047
103.27717
103.3571
103.44043
97.912963
97.841139
98.07213
98.521999
99.115112
99.824822
100.53478
101.23493
101.84522
102.37719
102.76459
103.06561
103.2415
103.39908
103.49652
103.61245
103.7578
103.91443
104.05699
98.633299
98.521526
98.773125
99.173185
99.749203
100.4049
101.06791
101.70127
102.24358
102.70104
103.04254
103.31533
103.50718
103.7019
103.86223
104.05358
104.24111
104.45157
104.63106
99.288519
99.201584
99.421306
99.773712
100.34599
100.9345
101.55182
102.11865
102.60323
103.01322
103.32812
103.59935
103.82267
104.04301
104.24667
104.47776
104.69506
104.92118
105.0818
99.911717
99.838225
99.992785
100.34179
100.87007
101.40965
102.00451
102.49014
102.94275
103.31512
103.62138
103.89915
104.14115
104.38806
104.62433
104.86828
105.08386
105.25878
105.35837
100.50366
100.41689
100.52676
100.8792
101.33297
101.85185
102.39589
102.84016
103.26837
103.5987
103.91221
104.20091
104.45912
104.71047
104.95315
105.17922
105.35458
105.50067
105.58918
101.05674
100.9369
101.03251
101.36371
101.76423
102.26892
102.73823
103.17322
103.55878
103.8871
104.2174
104.48002
104.74923
104.99936
105.21428
105.39919
105.55288
105.69702
105.80309
101.56343
101.41134
101.49722
101.78143
102.15707
102.63079
103.04995
103.46541
103.8187
104.15898
104.46346
104.72405
104.99536
105.20425
105.39329
105.53977
105.67517
105.80001
105.87006
102.02724
101.85441
101.92833
102.17044
102.53501
102.95909
103.36461
103.77101
104.11721
104.43258
104.69871
104.9535
105.17908
105.34884
105.51066
105.60762
105.69177
105.72757
105.6923
102.43443
102.2416
102.29268
102.50449
102.84504
103.21772
103.60814
103.96642
104.28108
104.59198
104.85389
105.09413
105.26582
105.40365
105.49937
105.52743
105.50838
105.37477
105.19336
102.81701
102.61634
102.63127
102.82024
103.14545
103.49854
103.88454
104.21652
104.52836
104.80006
105.00232
105.18463
105.29802
105.37198
105.36432
105.28526
105.11588
104.85542
104.5712
103.11774
102.89998
102.89979
103.06431
103.34726
103.68626
104.02316
104.32298
104.61739
104.84489
105.0426
105.17844
105.23895
105.22152
105.11784
104.93885
104.67244
104.39571
104.13382
103.42036
103.18253
103.15627
103.30106
103.5816
103.91846
104.24626
104.54511
104.77241
104.94655
105.07657
105.12149
105.08582
104.96493
104.77154
104.52344
104.2679
104.03678
103.80198
103.61958
103.38025
103.32079
103.45384
103.71266
104.01765
104.31746
104.58045
104.7959
104.95392
105.032
105.02281
104.93087
104.75344
104.52779
104.28282
104.03617
103.76769
103.49477
103.8212
103.55553
103.49299
103.61738
103.89491
104.22051
104.51434
104.72975
104.87653
104.93908
104.90887
104.78691
104.58923
104.34233
104.08918
103.84265
103.59169
103.34385
103.06007
103.92427
103.67545
103.5685
103.68216
103.95515
104.26284
104.53495
104.74077
104.86829
104.91029
104.85708
104.7281
104.54157
104.3134
104.04645
103.76463
103.43579
103.02886
102.55123
104.00935
103.70647
103.62399
103.79921
104.13031
104.47223
104.71418
104.82748
104.84075
104.76252
104.58487
104.32405
104.01539
103.66335
103.27218
102.854
102.41282
101.95214
101.50998
107.67621
109.72315
111.94541
114.33743
116.88909
119.59047
122.13984
124.37197
122.20639
116.93502
108.90487
98.899882
88.27892
77.810917
69.07062
62.800831
59.303118
58.061373
58.725112
107.97606
109.61023
111.30398
113.15441
114.90596
116.69796
117.52679
116.52342
112.80619
105.73559
95.546193
84.20491
72.539293
61.91514
54.61259
50.198206
48.353872
49.301796
52.73831
107.75092
108.81324
109.80777
110.66406
111.09022
110.78483
109.10348
105.18906
99.257295
88.840527
75.697155
63.187562
50.731716
39.093413
30.781163
26.815817
27.610428
32.692066
40.83208
106.55282
106.80372
106.86001
106.44399
105.32642
103.03105
99.137619
92.623583
83.869832
73.851966
61.064681
43.808205
26.77725
11.680374
2.1663874
-0.11220271
4.5619362
14.677336
27.467855
104.50177
104.05382
103.32402
102.02707
99.91319
96.724622
92.063604
85.27201
76.031306
64.384787
50.29273
34.578322
19.850249
8.211537
1.7017906
1.4666315
6.9678811
17.051982
29.695749
102.57283
101.79437
100.79242
99.339076
97.201556
94.317182
90.311131
85.100246
78.327916
69.960707
60.44767
50.24261
40.597463
32.665197
27.769621
26.638819
29.364536
35.481968
43.930492
101.56852
100.84341
99.970014
98.714735
97.009423
94.735207
91.851623
88.413448
84.156959
79.248378
73.676614
67.799569
62.051326
57.038133
53.298674
51.346103
51.86498
54.838442
59.610234
101.50498
100.97586
100.30215
99.324618
98.04215
96.382236
94.526757
92.263255
89.694297
86.783498
83.369989
79.789102
76.077457
72.876687
70.497821
69.320927
69.169272
70.160133
72.411644
101.97813
101.67702
101.1526
100.42317
99.462505
98.333733
97.057355
95.570008
93.955887
91.974038
89.757702
87.456412
85.225072
83.191539
81.374793
80.226656
80.157646
80.816827
82.031917
102.74682
102.54292
102.1386
101.58698
100.87445
100.12414
99.253394
98.290259
97.163848
95.84151
94.38679
92.877054
91.30366
89.702016
88.294591
87.245558
86.629396
86.262427
86.350354
103.48206
103.36895
103.10313
102.68831
102.20599
101.7166
101.14159
100.49342
99.718012
98.756686
97.62494
96.434006
95.067334
93.627149
92.22546
90.874833
89.339705
87.970211
87.201186
104.17057
104.15685
103.96815
103.6767
103.36023
103.03776
102.65977
102.17538
101.5531
100.76216
99.907656
98.911055
97.572942
96.008164
94.40504
92.436207
90.191465
88.194187
86.491792
104.79456
104.80443
104.64162
104.43751
104.20571
103.95755
103.6378
103.20262
102.66042
101.99898
101.17686
100.05048
98.456704
96.659448
94.573227
91.766354
88.546848
85.20558
81.872098
105.20328
105.19701
105.08858
104.93441
104.72727
104.48877
104.1766
103.72644
103.13382
102.3715
101.40628
100.03226
98.06377
95.785512
92.660896
88.170667
82.389891
75.531893
67.709722
105.50226
105.53954
105.48458
105.35555
105.19186
105.00589
104.6996
104.24392
103.66225
103.01518
102.18529
100.46445
98.279822
96.052237
92.667382
87.643812
80.857066
72.315538
62.280623
105.80031
105.89251
105.88286
105.82877
105.79996
105.7122
105.51193
105.2363
104.94739
104.33036
103.10452
101.97698
100.67155
98.458832
95.400214
91.143179
85.660468
79.169192
71.993816
106.02062
106.12378
106.14288
106.1792
106.20057
106.13957
106.01257
105.61339
104.70911
104.37365
104.55709
103.31683
101.4289
99.085795
96.302071
92.965213
89.183044
85.224803
81.426597
106.01343
106.083
106.13935
106.23016
106.26082
106.21315
105.84003
105.54164
104.81273
103.4043
101.88381
100.26673
98.396131
96.257076
94.01413
91.827083
89.721026
87.889614
86.558712
105.66763
105.71382
105.84854
105.94902
105.97015
105.87525
105.51082
104.95283
103.68252
100.6244
97.585535
95.133495
93.279079
91.734566
90.279586
89.070138
88.274888
87.940533
88.319001
104.94516
104.98307
105.07495
105.13576
105.09661
104.98666
104.79458
104.4113
103.43931
101.37306
98.048229
92.714053
86.507305
81.118689
77.646167
76.372252
77.119952
79.320899
82.301471
104.23907
104.20075
104.17766
104.07996
103.84087
103.49287
102.96596
102.16709
100.70642
98.001138
93.910157
89.024554
84.405721
80.605782
77.351122
75.032958
74.368048
75.344057
78.146302
103.91253
103.85836
103.82327
103.72129
103.5289
103.2871
102.91776
102.37953
101.49775
100.18773
98.159011
95.431863
92.258674
88.676255
85.212456
82.615542
81.361351
81.505518
83.105743
103.68765
103.7114
103.77776
103.8022
103.79336
103.80886
103.75898
103.70669
103.5567
103.28172
102.73971
101.80906
100.45721
98.816649
97.132923
95.299768
93.315975
91.767234
91.274361
103.44128
103.48743
103.54746
103.62277
103.70464
103.78472
103.89584
104.01675
104.07966
104.07003
104.03336
103.72827
102.97879
102.07689
100.9567
99.523566
97.917765
96.226328
94.581945
102.90493
102.95142
103.08996
103.20302
103.30998
103.43251
103.60794
103.72013
103.8061
103.72706
103.21613
102.51882
102.21558
101.63651
100.51424
98.991076
97.399148
95.725894
93.825434
102.08046
102.1434
102.30872
102.41094
102.51232
102.62995
102.67978
102.80248
102.8202
102.80842
102.6696
101.56125
101.41988
101.33611
100.89178
100.0721
98.991306
97.738048
96.404898
101.01259
101.06781
101.12803
101.11858
101.13161
101.19373
101.3029
101.55813
101.86231
102.32584
102.98978
103.87757
104.36243
102.38682
101.89869
101.3243
100.72312
100.12576
99.57592
60.939978
64.018654
67.541514
71.089492
74.228978
77.37499
80.224589
82.106667
83.409529
84.646286
85.408246
85.593444
85.616586
85.471667
84.978351
84.423638
83.725495
82.840517
81.869003
57.634292
63.026971
68.193075
73.267194
77.837213
81.562922
84.508948
86.779534
88.441219
89.474709
90.132888
90.306155
90.129088
89.819056
89.261156
88.671483
87.917303
87.016655
86.011981
50.196272
59.127102
67.071995
73.854311
79.664636
84.60665
88.51599
91.050227
92.814239
94.069752
94.720715
94.792661
94.559558
94.148452
93.497888
92.82733
92.081648
91.090842
90.003644
40.502254
52.881031
64.144878
73.468329
80.869816
86.783705
91.488628
94.770404
96.790455
98.08448
98.747789
98.916139
98.633468
98.052815
97.356424
96.578127
95.816136
94.848276
93.638661
43.088609
55.385996
66.202071
75.303704
82.573376
88.58564
93.809513
97.800714
100.25591
101.60693
102.21599
102.29102
101.99791
101.36843
100.55195
99.760367
98.940253
98.046595
96.825207
53.297108
62.494074
71.02175
78.577839
85.209843
90.788567
95.723845
100.11883
103.01914
104.43548
105.03805
105.06293
104.64251
103.99297
103.13867
102.28126
101.46336
100.60875
99.482292
65.337016
71.476098
77.710064
83.579647
88.898017
93.710618
97.984106
101.91957
104.65757
106.11638
106.71085
106.79718
106.4409
105.77998
104.97007
104.09713
103.29914
102.49063
101.50208
75.777664
79.887164
84.348794
88.75615
93.072411
97.155286
100.68491
103.6345
105.58768
106.57459
107.08468
107.21269
107.00042
106.49832
105.84952
105.09586
104.40205
103.68805
102.847
83.822376
86.209261
89.061163
92.386252
95.922507
99.206796
102.0883
104.38024
105.82552
106.54461
106.70935
106.77602
106.67214
106.35404
105.92815
105.36721
104.82697
104.26491
103.59191
87.111081
88.561125
90.60916
93.181302
95.847458
98.550654
101.27529
103.53255
105.18932
106.07219
106.38649
106.23606
106.13595
105.9601
105.69223
105.30807
104.88233
104.46122
103.92477
87.175058
87.835228
89.000904
90.5129
92.567461
95.260913
98.164498
100.87513
103.14891
104.67478
105.35231
105.41483
105.67075
105.64507
105.47025
105.1991
104.85217
104.51862
104.10034
84.893817
83.70654
83.364585
83.954855
85.575181
88.145252
91.395065
94.998943
98.31442
100.91683
102.80284
103.97061
104.3803
104.86989
105.04993
104.98777
104.75588
104.48726
104.17365
78.520641
75.602707
73.560535
72.778879
73.796385
76.465563
80.412126
85.251169
90.286683
94.670757
98.699115
101.81533
103.41154
104.41011
104.70557
104.74772
104.57542
104.31153
104.07303
59.40837
52.086382
47.802927
47.696097
51.561572
57.494805
64.857143
73.605765
82.942679
91.345126
97.454215
101.23879
102.62769
103.53829
103.94006
104.05154
103.97467
103.74518
103.60509
51.820172
40.830543
34.7364
35.290547
40.921785
49.296437
60.013528
71.211784
80.787157
88.554869
94.655168
98.428217
100.4264
101.68093
102.42993
102.79851
102.92283
102.86364
102.82351
64.734148
58.394406
54.920667
55.175141
58.548594
64.146869
71.360268
78.669029
85.320936
90.761911
94.810592
97.519483
99.303219
100.51719
101.34355
101.86616
102.13668
102.21043
102.25953
78.106815
75.660282
74.885899
76.181309
78.945261
82.441406
86.249313
89.970249
93.268073
95.982807
97.951651
99.332981
100.34937
101.05531
101.56352
101.89476
102.10603
102.19597
102.20669
85.681337
85.506655
86.109804
87.425408
89.182025
91.466098
93.917654
96.131237
97.938689
99.347546
100.38377
101.11578
101.66109
102.00337
102.24005
102.41489
102.48116
102.53455
102.49428
89.370184
90.648643
91.911868
93.445271
95.229633
96.874862
98.414365
99.76231
100.79169
101.58535
102.14022
102.50981
102.77318
102.87853
102.9353
102.95958
102.95729
102.92648
102.83366
85.724052
89.246097
92.463059
95.17432
97.432634
99.13102
100.49664
101.94639
102.86033
103.19027
103.476
103.66067
103.73442
103.67175
103.56124
103.44356
103.36993
103.27993
103.11707
81.958087
86.378013
90.793502
94.494763
97.412553
99.596628
100.77422
101.10134
101.73719
103.07433
103.95871
104.11736
104.09245
104.02649
103.84799
103.68515
103.50673
103.38686
103.22237
85.845766
89.1099
92.323481
95.16269
97.459564
99.266589
100.54814
101.26568
101.91293
104.24534
104.22107
104.11659
104.1495
103.94806
103.77939
103.58858
103.38171
103.21611
103.07042
91.68782
92.693278
94.029299
95.476549
96.857115
98.143417
99.302442
99.953082
100.93646
102.5854
103.07584
103.2662
103.37891
103.25696
103.16124
103.00959
102.85981
102.66018
102.53847
92.952504
91.613968
90.86192
90.841782
91.621753
93.362822
96.299953
99.529167
100.89752
101.96632
102.14564
102.29227
102.32553
102.2662
102.22469
102.12709
102.02157
101.90608
101.85678
92.233081
90.910952
90.529485
91.06597
92.512112
94.200242
95.39085
96.587981
98.115117
99.529499
100.33488
100.68588
100.90891
101.02774
101.12479
101.1945
101.1949
101.18293
101.21856
95.218863
94.369571
94.056962
94.411668
95.384185
96.702266
97.821477
98.395192
98.852381
99.398199
99.661834
99.812513
100.00931
100.20782
100.38433
100.51599
100.58576
100.61319
100.69967
99.086253
98.608056
98.135026
97.6826
97.277533
96.935936
97.059702
97.952644
98.761745
99.182609
99.527849
99.782666
99.962652
100.0589
100.12411
100.19769
100.26457
100.29643
100.28751
80.811729
79.646458
78.461749
77.225237
75.969849
74.714452
73.552378
72.404833
71.343125
70.312236
69.393445
68.565307
67.794913
67.216726
66.662419
66.270542
66.137184
66.12043
66.397191
84.87055
83.598513
82.246479
80.875857
79.455344
78.040092
76.670328
75.348013
74.074059
72.880863
71.741748
70.758204
69.852576
69.090813
68.499259
68.013479
67.778835
67.73202
67.844037
88.694495
87.317382
85.812601
84.303501
82.767019
81.218115
79.705317
78.223754
76.776461
75.409965
74.110853
72.949351
71.933814
71.009902
70.302916
69.774958
69.432284
69.376361
69.506312
92.212493
90.680109
89.089815
87.454299
85.823966
84.171703
82.540522
80.949676
79.374849
77.871748
76.446454
75.127019
73.979824
72.949548
72.11553
71.504871
71.090889
70.977198
71.127999
95.333204
93.726136
92.053577
90.353131
88.643979
86.926802
85.207989
83.531641
81.871921
80.249502
78.71258
77.268874
75.988805
74.850864
73.912939
73.215207
72.734729
72.574054
72.682642
98.005216
96.418828
94.736306
93.011683
91.265496
89.50308
87.725477
85.970165
84.240931
82.54861
80.916639
79.384979
77.965757
76.73116
75.685966
74.912928
74.377934
74.175318
74.318092
100.15156
98.663001
97.045227
95.361246
93.630307
91.861191
90.065858
88.271295
86.475506
84.731882
83.013167
81.412275
79.899154
78.570286
77.441562
76.568444
75.977492
75.720549
75.796979
101.71308
100.42074
98.957732
97.377964
95.71801
93.997069
92.21296
90.418594
88.592838
86.802902
85.035947
83.361638
81.781328
80.365665
79.150528
78.206107
77.567999
77.281286
77.38182
102.71721
101.64855
100.40331
99.0071
97.468488
95.843898
94.124428
92.360228
90.548149
88.740534
86.939211
85.210276
83.579697
82.091275
80.813143
79.78103
79.106913
78.748352
78.822947
103.27142
102.45608
101.4316
100.25699
98.902523
97.414857
95.801847
94.111606
92.340532
90.544285
88.750747
86.96814
85.307152
83.752258
82.44828
81.339201
80.602681
80.238204
80.273235
103.55301
102.93794
102.13617
101.16182
100.00218
98.686806
97.21231
95.62049
93.942625
92.172157
90.410541
88.620718
86.922015
85.335437
83.970113
82.845894
82.044601
81.648178
81.66435
103.73204
103.23272
102.58993
101.79931
100.83194
99.688201
98.380801
96.909052
95.345791
93.654791
91.933471
90.175473
88.465528
86.850868
85.423783
84.274337
83.441051
83.00689
82.999879
103.76451
103.38959
102.87232
102.21924
101.43494
100.4593
99.322892
97.99179
96.540325
94.953099
93.29116
91.5851
89.884611
88.276296
86.809801
85.628047
84.777535
84.323957
84.28529
103.51734
103.30515
102.97087
102.45815
101.84043
101.02156
100.0454
98.875589
97.552326
96.082129
94.503982
92.868776
91.194101
89.602865
88.126246
86.907509
86.029272
85.567158
85.510372
102.99914
102.97761
102.84328
102.50761
102.05554
101.41343
100.58838
99.57999
98.39676
97.050057
95.563632
94.008436
92.385452
90.8175
89.355999
88.120852
87.217131
86.737789
86.672732
102.49942
102.58048
102.55936
102.38917
102.0877
101.62168
100.95431
100.10318
99.062732
97.855994
96.480263
95.013149
93.462221
91.925768
90.49088
89.258153
88.338634
87.834415
87.77482
102.2977
102.30595
102.30372
102.22359
102.02593
101.70245
101.19205
100.49525
99.594271
98.526939
97.271356
95.893547
94.433404
92.944127
91.528863
90.303135
89.394632
88.863554
88.796065
102.39428
102.27311
102.20127
102.11815
101.95424
101.70496
101.31775
100.75601
99.985816
99.050171
97.922967
96.638601
95.26765
93.853799
92.472885
91.254019
90.360981
89.828641
89.74208
102.60561
102.4351
102.28615
102.14609
101.96236
101.73218
101.41539
100.95604
100.30838
99.489693
98.490686
97.307454
96.016148
94.685286
93.348582
92.142789
91.234943
90.720864
90.624809
102.81063
102.64081
102.45197
102.26717
102.04096
101.80328
101.51584
101.11519
100.55665
99.826573
98.931614
97.855862
96.635534
95.309047
94.071788
92.920434
92.021307
91.504656
91.417941
102.96126
102.83168
102.64152
102.44473
102.20234
101.94489
101.66079
101.28682
100.80254
100.1491
99.334657
98.359813
97.239357
96.026329
94.776317
93.653164
92.770421
92.251406
92.154657
102.96457
102.93648
102.79729
102.61057
102.39068
102.12589
101.83297
101.45839
101.01345
100.43093
99.678501
98.75519
97.685654
96.514195
95.346814
94.235163
93.373653
92.85963
92.764056
102.66276
102.7582
102.75566
102.66915
102.52726
102.30449
102.02829
101.68227
101.25272
100.73093
100.04882
99.199118
98.200644
97.095111
95.939248
94.85954
93.983338
93.473343
93.346542
102.13409
102.3969
102.58573
102.63199
102.59138
102.46645
102.23405
101.92274
101.50321
100.97421
100.31134
99.502673
98.528874
97.434092
96.314671
95.247776
94.389507
93.881739
93.780969
101.51772
101.81186
102.10025
102.31414
102.39972
102.39429
102.29233
102.08516
101.76339
101.32481
100.74259
99.98573
99.072959
98.034151
96.904368
95.812948
94.894534
94.337064
94.206754
101.0167
101.39733
101.76021
102.08568
102.32125
102.42836
102.4016
102.2464
101.96506
101.54067
100.96431
100.22131
99.284741
98.191504
97.062348
95.980288
95.091919
94.541332
94.416774
100.48142
100.75636
101.08566
101.42633
101.75689
102.02965
102.20936
102.2683
102.1606
101.91203
101.50212
100.88655
100.04736
99.010352
97.807203
96.578798
95.508309
94.802638
94.607158
66.731931
67.211569
67.939756
68.792339
69.876653
71.126083
72.534741
74.096945
75.775017
77.590931
79.511344
81.53834
83.671214
85.865343
88.141563
90.45998
92.797016
95.154044
97.526034
68.280749
68.813292
69.574451
70.458172
71.537897
72.800702
74.200623
75.763581
77.434087
79.231506
81.120545
83.095269
85.166869
87.287876
89.466988
91.678808
93.877233
96.076961
98.275598
69.893198
70.443468
71.189366
72.112271
73.189853
74.449399
75.857831
77.397109
79.064431
80.821785
82.684411
84.624172
86.620601
88.670857
90.75548
92.846224
94.917577
96.964112
98.979393
71.495983
72.057982
72.800911
73.718911
74.806767
76.057126
77.473284
79.002316
80.656696
82.400766
84.220453
86.102292
88.039545
89.994007
91.975652
93.957351
95.895772
97.787922
99.607773
73.085128
73.654782
74.396712
75.318837
76.397523
77.647081
79.047509
80.564309
82.206403
83.918796
85.690915
87.500165
89.350156
91.222922
93.10072
94.966013
96.76703
98.518501
100.18571
74.691511
75.245664
75.970585
76.886505
77.963184
79.197346
80.583587
82.079867
83.686582
85.355033
87.081762
88.838359
90.600551
92.37959
94.150936
95.892992
97.553624
99.165048
100.70693
76.205019
76.767301
77.50044
78.411733
79.48118
80.704211
82.068227
83.537084
85.102334
86.734306
88.406493
90.099886
91.770666
93.443406
95.099078
96.723375
98.270433
99.742251
101.15261
77.750387
78.293882
79.013893
79.911138
80.962957
82.158463
83.4921
84.933211
86.460953
88.056703
89.658944
91.260941
92.844468
94.425681
95.972842
97.468123
98.890589
100.23458
101.53618
79.218695
79.75491
80.461783
81.336668
82.379877
83.556775
84.861047
86.280625
87.758591
89.28823
90.816368
92.336347
93.84113
95.322019
96.758695
98.134684
99.464386
100.70735
101.88026
80.651659
81.171774
81.874549
82.742614
83.766729
84.92512
86.178944
87.544973
88.971265
90.432662
91.904707
93.353469
94.769227
96.135337
97.476551
98.758185
99.97927
101.10292
102.14397
82.036059
82.545745
83.235778
84.088759
85.075085
86.196147
87.421257
88.733014
90.119463
91.521011
92.926182
94.283371
95.599007
96.870926
98.116866
99.292747
100.40569
101.45381
102.4094
83.362467
83.861294
84.537649
85.363822
86.336644
87.419851
88.606347
89.874976
91.199637
92.521178
93.846134
95.134542
96.370832
97.55089
98.692499
99.801541
100.83246
101.77926
102.63738
84.641632
85.120646
85.780752
86.579102
87.526901
88.574954
89.721671
90.940219
92.194449
93.459868
94.70974
95.921312
97.070282
98.174253
99.226659
100.23332
101.16801
102.02428
102.81342
85.855242
86.314013
86.954692
87.7382
88.653457
89.671502
90.766555
91.926432
93.113706
94.3074
95.484179
96.62449
97.694086
98.719734
99.6949
100.62239
101.48983
102.28061
102.9917
87.007881
87.461323
88.07737
88.835218
89.712786
90.68954
91.73165
92.836393
93.966523
95.106032
96.220257
97.284328
98.278383
99.220985
100.1289
100.98718
101.76849
102.46103
103.10861
88.098804
88.531961
89.112069
89.842667
90.689273
91.628515
92.634704
93.685169
94.758235
95.831719
96.875959
97.862644
98.790318
99.663989
100.50775
101.28995
102.01159
102.66501
103.25952
89.105528
89.52314
90.091278
90.796909
91.617036
92.519427
93.483113
94.472106
95.484776
96.48664
97.466906
98.393416
99.271339
100.08569
100.85512
101.57541
102.23878
102.83705
103.36187
90.058025
90.465183
91.011785
91.679035
92.466287
93.326975
94.244293
95.182808
96.137331
97.086054
98.008857
98.88218
99.701062
100.45702
101.16214
101.82842
102.44292
102.9945
103.47774
90.935582
91.319665
91.834696
92.480327
93.239251
94.06946
94.94309
95.837795
96.742655
97.639354
98.511145
99.331147
100.09327
100.79684
101.45158
102.07337
102.64623
103.15258
103.58628
91.716437
92.081155
92.597462
93.236693
93.96251
94.749805
95.58404
96.436851
97.298829
98.145194
98.961291
99.730919
100.43996
101.10005
101.71857
102.29568
102.82142
103.28699
103.68754
92.469761
92.845209
93.332855
93.915705
94.59447
95.34903
96.153146
96.968383
97.792211
98.600004
99.367851
100.09885
100.76976
101.39847
101.98669
102.52569
103.00901
103.43521
103.803