/*--------------------------------*- C++ -*----------------------------------*\
  =========                 |
  \\      /  F ield         | OpenFOAM: The Open Source CFD Toolbox
   \\    /   O peration     | Website:  https://openfoam.org
    \\  /    A nd           | Version:  11
     \\/     M anipulation  |
\*---------------------------------------------------------------------------*/
FoamFile
{
    format      ascii;
    class       surfaceScalarField;
    location    "9";
    object      phi;
}
// * * * * * * * * * * * * * * * * * * * * * * * * * * * * * * * * * * * * * //

dimensions      [0 3 -1 0 0 0 0];

internalField   nonuniform List<scalar> 
10792
(
0.067747243
-0.041632974
-0.068131743
0.042017475
0.067168676
-0.039485167
0.040063734
0.06655685
-0.03719376
0.037805586
0.0658914
-0.035046268
0.035711718
0.065182957
-0.032474909
0.033183352
0.064405705
-0.030192956
0.030970208
0.06357521
-0.027526363
0.028356859
0.062893291
-0.025255939
0.025937858
0.062038162
-0.022485441
0.02334057
0.061281409
-0.019943503
0.020700255
0.060566748
-0.017242296
0.017956957
0.059856837
-0.014552977
0.015262888
0.059279401
-0.011809109
0.012386545
0.058667684
-0.009014722
0.0096264398
0.058144197
-0.0061756445
0.0066991319
0.057677549
-0.0033085116
0.0037751595
0.057403282
-0.00050099907
0.00077526662
0.057210755
0.0024978317
-0.0023053037
0.0054075551
0.057017598
-0.005214398
0.071943611
-0.041118828
-0.072457758
0.071342748
-0.038884304
0.070790387
-0.036641398
0.070050416
-0.034306297
0.06927308
-0.031697573
0.068495709
-0.029415585
0.067807515
-0.026838169
0.067028824
-0.024477248
0.066161967
-0.021618584
0.065464007
-0.019245542
0.064713178
-0.016491466
0.064069806
-0.013909605
0.063462934
-0.011202236
0.062859312
-0.0084111001
0.062414011
-0.0057303433
0.061996411
-0.0028909113
0.061605156
-0.00010974289
0.061354825
0.0027481625
0.0056468114
0.06111557
0.076502723
-0.040587932
-0.077033619
0.075958822
-0.038340403
0.0753244
-0.036006976
0.074541759
-0.033523657
0.073875336
-0.03103115
0.07319513
-0.028735379
0.072402841
-0.026045881
0.071556841
-0.023631248
0.070790647
-0.02085239
0.070066415
-0.018521311
0.069318965
-0.015744015
0.068679337
-0.013269977
0.068008077
-0.010530976
0.067462304
-0.0078653267
0.066932652
-0.005200691
0.066467327
-0.0024255863
0.066099222
0.00025836245
0.065809565
0.0030378204
0.0058485727
0.065607804
0.081277214
-0.039959812
-0.081905333
0.080784863
-0.037848052
0.080106831
-0.035328944
0.079365371
-0.032782197
0.078743872
-0.030409651
0.077893688
-0.027885195
0.077095208
-0.025247401
0.076315676
-0.022851716
0.075556804
-0.020093517
0.074815974
-0.017780481
0.074053344
-0.014981386
0.073339229
-0.012555862
0.072624888
-0.0098166358
0.072077873
-0.0073183114
0.071522168
-0.0046449854
0.071123545
-0.0020269628
0.07074622
0.00063568718
0.07050866
0.0032753816
0.0060216321
0.0703356
0.086542277
-0.039528681
-0.086973408
0.085923796
-0.037229571
0.085110592
-0.034515741
0.084496312
-0.032167917
0.083710705
-0.029624044
0.082887543
-0.027062033
0.082226164
-0.024586022
0.081432902
-0.022058455
0.080741201
-0.019401816
0.079919254
-0.016958534
0.079181667
-0.014243799
0.078478053
-0.011852248
0.077845311
-0.0091838938
0.077312291
-0.0067852915
0.07677793
-0.0041106234
0.076397429
-0.0016464615
0.075966085
0.0010670313
0.075764841
0.0034766252
0.0062204724
0.075566001
0.092052093
-0.038852317
-0.092728458
0.091399
-0.036576478
0.090776166
-0.033892906
0.090096954
-0.031488705
0.089255585
-0.028782675
0.08862219
-0.026428639
0.087858305
-0.023822136
0.087019419
-0.02121957
0.086238987
-0.018621383
0.085387679
-0.016107227
0.084730669
-0.013586789
0.084012629
-0.011134207
0.083433961
-0.0086052261
0.082788792
-0.0061401223
0.082280396
-0.003602227
0.081790075
-0.0011561403
0.08147295
0.0013841567
0.081219502
0.0037300738
0.0063643322
0.081075642
0.097946731
-0.038287071
-0.098511977
0.097278537
-0.035908284
0.096515686
-0.033130055
0.095825162
-0.03079818
0.095117322
-0.028074835
0.094362913
-0.02567423
0.093471993
-0.022931217
0.092737276
-0.020484853
0.092018534
-0.017902641
0.091299182
-0.015387875
0.090613571
-0.012901178
0.089878961
-0.010399597
0.089281161
-0.008007426
0.088658434
-0.0055173949
0.088239536
-0.0031833292
0.087746643
-0.00066324622
0.087488123
0.0016426763
0.087198976
0.0040192207
0.006405561
0.087157748
0.1046599
-0.03763483
-0.10531214
0.10394244
-0.035190824
0.10321502
-0.032402641
0.10244716
-0.030030314
0.10160506
-0.027232736
0.10080915
-0.02487832
0.10001889
-0.02214096
0.099303852
-0.019769813
0.098508758
-0.017107547
0.097749793
-0.01462891
0.096958023
-0.012109407
0.096239087
-0.0096806617
0.095561547
-0.0073298852
0.094946244
-0.0049020918
0.094444977
-0.0026820621
0.094017666
-0.0002359345
0.093719908
0.0019404339
0.093439454
0.0042996753
0.0064798108
0.093365204
0.11110762
-0.036812413
-0.11193004
0.1102792
-0.034362407
0.10959034
-0.031713781
0.10884208
-0.029282046
0.10812363
-0.026514285
0.10739473
-0.024149422
0.10656407
-0.021310302
0.10579609
-0.019001832
0.10497644
-0.016287896
0.10432504
-0.013977508
0.10361715
-0.011401519
0.10300135
-0.0090648693
0.10237409
-0.0067026234
0.10184911
-0.0043771059
0.10137236
-0.0022053183
0.10091044
0.00022599218
0.1006495
0.002201374
0.10038416
0.0045650087
0.0065610626
0.10030291
0.11919395
-0.036134399
-0.11987196
0.11834448
-0.033512943
0.11752938
-0.030898681
0.11665245
-0.028405116
0.11587952
-0.025741349
0.11500281
-0.023272718
0.11420028
-0.020507765
0.11336409
-0.018165643
0.11248292
-0.015406723
0.11170094
-0.013195537
0.11086095
-0.010561526
0.11019145
-0.0083953647
0.1094266
-0.0059377781
0.10887851
-0.0038290092
0.10826293
-0.0015897406
0.10793682
0.00055209741
0.10759299
0.0025452107
0.10745634
0.0047016582
0.0066531264
0.10736427
0.12664571
-0.035209592
-0.12757052
0.12571113
-0.032578357
0.1249273
-0.030114855
0.12398685
-0.027464662
0.12315773
-0.024912235
0.12228931
-0.022404293
0.1215388
-0.019757258
0.12067365
-0.017300494
0.11993446
-0.014667531
0.11918669
-0.012447769
0.11848888
-0.0098637111
0.11785434
-0.0077608303
0.11723109
-0.0053145277
0.11681299
-0.0034108998
0.11632706
-0.0011038153
0.1161532
0.00072596082
0.11579373
0.002904678
0.11574085
0.0047545373
0.0068191008
0.11557488
0.1357802
-0.034169951
-0.13681984
0.13481753
-0.031615689
0.13390653
-0.029203855
0.13300466
-0.026562798
0.13215042
-0.024057987
0.13116682
-0.021420695
0.13031099
-0.018901425
0.12939885
-0.016388356
0.12867171
-0.013940394
0.12775817
-0.011534225
0.12702155
-0.0091270959
0.12622129
-0.0069605733
0.12555388
-0.0046471081
0.1249203
-0.0027773238
0.12441643
-0.00059994766
0.12408027
0.0010621266
0.12380341
0.0031815367
0.12377092
0.0047870226
0.0069045704
0.12368545
0.14445518
-0.033114646
-0.14551049
0.14344435
-0.030604854
0.14241688
-0.028176384
0.1414669
-0.025612826
0.14061149
-0.023202575
0.13976098
-0.020570177
0.13889982
-0.018040267
0.13802668
-0.015515216
0.13728848
-0.013202192
0.13652396
-0.010769712
0.13596298
-0.0085661103
0.13528102
-0.006278617
0.13476348
-0.004129565
0.13411074
-0.0021245803
0.13373656
-0.00022577017
0.13328384
0.0015148418
0.13309444
0.0033709448
0.13297161
0.0049098455
0.0068438246
0.13303236
0.15500263
-0.032016809
-0.15610047
0.15392016
-0.029522387
0.15272325
-0.02697947
0.15169212
-0.024581695
0.15068028
-0.022190738
0.14978482
-0.019674714
0.14886228
-0.017117727
0.14787846
-0.014531402
0.14688756
-0.012211289
0.14597146
-0.0098536058
0.14525794
-0.0078525947
0.14459532
-0.0056159924
0.14411183
-0.0036460796
0.14361242
-0.0016251739
0.14326465
0.00012200255
0.14287814
0.0019013527
0.14279127
0.0034578123
0.14261238
0.005088735
0.006649963
0.14280625
0.16476144
-0.030869726
-0.16590852
0.16370231
-0.028463255
0.16266852
-0.02594568
0.16166121
-0.023574391
0.1606386
-0.021168119
0.1598047
-0.018840819
0.15903265
-0.016345679
0.15835446
-0.013853213
0.15753676
-0.011393582
0.15671763
-0.0090344754
0.15586826
-0.0070032312
0.15509538
-0.0048431054
0.15449352
-0.0030442238
0.15399668
-0.0011283338
0.15362454
0.00049414485
0.15329203
0.0022338611
0.15315526
0.003594587
0.15300657
0.0052374231
0.0064547902
0.15320174
0.17697826
-0.029647275
-0.17820071
0.17572819
-0.027213184
0.1745569
-0.024774387
0.17333532
-0.022352812
0.17209144
-0.019924238
0.17090085
-0.017650232
0.16987428
-0.015319113
0.16905916
-0.013038088
0.16830647
-0.01064089
0.16765572
-0.0083837265
0.16692743
-0.0062749441
0.1662725
-0.0041881755
0.16562384
-0.0023955602
0.16513737
-0.00064186739
0.16470856
0.00092295523
0.16445676
0.0024856563
0.16430376
0.0037475902
0.16429909
0.0052420985
0.0062470717
0.16450681
0.18840824
-0.028371579
-0.18968394
0.18709065
-0.025895592
0.18609133
-0.023775064
0.18507492
-0.021336401
0.18416827
-0.019017587
0.18311555
-0.016597512
0.18206663
-0.01427019
0.18103945
-0.012010915
0.18016269
-0.0097641302
0.17940716
-0.0076281928
0.1786973
-0.0055650842
0.17809776
-0.003588634
0.1775015
-0.0017993042
0.17705659
-0.00019695597
0.17665847
0.0013210795
0.17643001
0.0027141141
0.17624639
0.0039312118
0.17627877
0.0052097118
0.0061060699
0.17641978
0.20223936
-0.026745366
-0.20386558
0.20069158
-0.024347809
0.1992186
-0.022302089
0.19783604
-0.01995384
0.19672379
-0.017905332
0.19566166
-0.015535386
0.19471623
-0.013324754
0.19372319
-0.011017876
0.19287211
-0.0089130565
0.19205324
-0.0068093209
0.19138107
-0.0048929093
0.19079715
-0.0030047222
0.19030268
-0.0013048305
0.18988478
0.00022094467
0.18957583
0.0016300332
0.18939654
0.0028933994
0.18930794
0.0040198082
0.18945268
0.0050649798
0.0058602637
0.18969848
0.21592183
-0.025105828
-0.21756137
0.21452012
-0.022946093
0.21308367
-0.020865638
0.21179356
-0.018663732
0.21047944
-0.016591219
0.20926711
-0.01432305
0.20824133
-0.01229898
0.2072942
-0.010070738
0.20648526
-0.0081041168
0.20571692
-0.0060409837
0.20506795
-0.0042439416
0.20446877
-0.002405536
0.2040028
-0.00083886354
0.20364219
0.00058155052
0.20337579
0.0018964344
0.20321566
0.0030535272
0.20317867
0.0040568032
0.2032845
0.0049591517
0.0055978556
0.20354691
0.2312614
-0.023218493
-0.23314873
0.22962821
-0.021312905
0.22813816
-0.019375591
0.22684305
-0.017368621
0.22554501
-0.015293181
0.22440035
-0.013178388
0.22322652
-0.011125146
0.22221845
-0.0090626696
0.22126302
-0.0071486922
0.2204642
-0.0052421588
0.21977819
-0.0035579344
0.21922341
-0.0018507526
0.21879016
-0.00040561565
0.21845925
0.00091246039
0.21828043
0.0020752492
0.21823839
0.0030955707
0.2183333
0.0039618976
0.21856962
0.0047228242
0.0052268629
0.21894062
0.2477881
-0.021060832
-0.24994576
0.24578006
-0.019304869
0.24397557
-0.017571105
0.24240583
-0.01579888
0.24107622
-0.01396357
0.23993717
-0.012039333
0.23887524
-0.010063214
0.23796204
-0.0081494786
0.23707449
-0.0062611405
0.2363349
-0.0045025623
0.23560641
-0.0028294455
0.23509368
-0.0013380206
0.23467045
1.7610409e-05
0.23437512
0.0012077858
0.23419053
0.0022598446
0.23414567
0.0031404328
0.23422845
0.0038791173
0.23446921
0.0044820595
0.0048542624
0.23484181
0.26573395
-0.018712517
-0.26808227
0.26362949
-0.017200403
0.26174676
-0.015688382
0.2599508
-0.014002919
0.25833057
-0.012343337
0.25689224
-0.010601
0.25567269
-0.008843666
0.25465863
-0.0071354172
0.25384587
-0.0054483814
0.2531591
-0.0038157911
0.25261922
-0.0022895716
0.25219661
-0.00091540925
0.25183781
0.0003764156
0.25166992
0.0013756687
0.2516385
0.0022912724
0.25176942
0.0030095141
0.25198435
0.0036641784
0.25238601
0.0040803999
0.0043942718
0.252846
0.28539034
-0.015766714
-0.28833614
0.28282126
-0.014631322
0.28057126
-0.013438382
0.27863268
-0.012064339
0.2768873
-0.010597955
0.27537451
-0.0090882103
0.27403919
-0.0075083516
0.2728853
-0.0059815198
0.27195848
-0.0045215621
0.27117484
-0.0030321536
0.27060945
-0.0017241795
0.27019909
-0.00050505413
0.2700206
0.00055491112
0.26993647
0.0014597968
0.27001116
0.0022165771
0.27022418
0.002796493
0.27057785
0.0033105094
0.27108248
0.0035757729
0.0038069605
0.27166979
0.306763
-0.012471858
-0.31005786
0.30372955
-0.011597873
0.30096936
-0.010678187
0.29856844
-0.0096634197
0.29660128
-0.008630798
0.29492072
-0.0074076469
0.29359517
-0.006182801
0.29251147
-0.0048978215
0.29165428
-0.0036643728
0.29105399
-0.0024318645
0.29059766
-0.0012678528
0.29027763
-0.00018502451
0.29012231
0.00071023959
0.29014693
0.0014351745
0.29031802
0.0020454857
0.29061262
0.0025018926
0.29106892
0.0028542112
0.29165193
0.0029927656
0.0030777568
0.29238113
0.33049832
-0.0087770206
-0.33419316
0.32707849
-0.0081780424
0.32393086
-0.0075305575
0.32107481
-0.006807368
0.31856816
-0.0061241535
0.31640845
-0.0052479368
0.3146232
-0.0043975457
0.31319837
-0.0034729915
0.31211428
-0.0025802899
0.31139713
-0.0017147105
0.31101435
-0.00088507642
0.31099522
-0.00016588945
0.3111757
0.00052975847
0.3115035
0.0011073753
0.31195326
0.0015957293
0.31250075
0.0019543977
0.31311639
0.0022385759
0.31384286
0.0022662894
0.0022863608
0.31463426
0.35578812
-0.0046122189
-0.35995292
0.35194391
-0.0043338362
0.34840329
-0.0039899304
0.34522699
-0.0036310713
0.34235111
-0.0032482692
0.33991413
-0.002810957
0.33787462
-0.002358035
0.33628528
-0.0018836591
0.33510967
-0.0014046729
0.33434872
-0.00095376173
0.33396365
-0.00050000586
0.33388803
-9.0267106e-05
0.33418761
0.00023017626
0.33474005
0.00055493495
0.3354873
0.00084847712
0.33632611
0.0011155835
0.33719149
0.0013732037
0.33821633
0.0012414425
0.0013893864
0.33911331
0.38386193
-0.38847415
0.37952809
0.37553816
0.37190709
0.36865882
0.36584786
0.36348983
0.36160617
0.3602015
0.35924774
0.35874773
0.35865746
0.35888764
0.35944257
0.36029105
0.36140663
0.36277984
0.36402128
0.36541067
0.056722594
0.0086936034
-0.0083985992
0.056570741
0.011699258
-0.011547404
0.056471418
0.014700171
-0.014600849
0.05656152
0.017715306
-0.017805407
0.056855033
0.020716584
-0.021010097
0.057279086
0.023932913
-0.024356965
0.057846313
0.027012214
-0.02757944
0.058478952
0.030261236
-0.030893874
0.059183227
0.033375554
-0.034079829
0.059927373
0.036620397
-0.037364543
0.060662896
0.039818511
-0.040554033
0.061450406
0.043042027
-0.043829537
0.062254825
0.046271336
-0.047075755
0.062978909
0.049669488
-0.050393572
0.06359499
0.053138775
-0.053754857
0.063958573
0.056506255
-0.056869837
0.064101094
0.059986012
-0.060128533
0.063913229
0.063394494
-0.063206628
0.067041758
0.063222058
-0.066350587
0.060780389
0.0090287843
0.060672299
0.011807349
0.060720607
0.014651863
0.060994246
0.017441666
0.061363065
0.020347767
0.061941178
0.0233548
0.062562278
0.026391115
0.063276576
0.029546939
0.064027459
0.032624672
0.064804481
0.035843375
0.065562747
0.039060245
0.066314617
0.042290157
0.066998434
0.045587519
0.067638421
0.049029501
0.068221644
0.052555553
0.06863608
0.056091818
0.068840951
0.059781142
0.068716727
0.063518718
0.067758892
0.067999594
0.065245498
0.0093910902
0.065097225
0.011955622
0.065128642
0.014620447
0.065387252
0.017183055
0.065743572
0.019991447
0.066359809
0.022738563
0.067013262
0.025737662
0.067858157
0.028702044
0.06870117
0.03178166
0.069664097
0.034880447
0.070584372
0.038139971
0.071472379
0.04140215
0.072265654
0.044794243
0.073069955
0.0482252
0.073808122
0.051817386
0.074392083
0.055507856
0.07490019
0.059273036
0.075160585
0.063258323
0.067603201
0.075316276
0.070040501
0.0096861894
0.069912467
0.012083656
0.070029639
0.014503275
0.070271162
0.016941532
0.070709275
0.019553335
0.07131669
0.022131148
0.072018483
0.025035869
0.072877001
0.027843527
0.073833996
0.030824664
0.074799521
0.033914922
0.075898438
0.037041053
0.076973506
0.040327082
0.078119192
0.043648556
0.079174148
0.047170244
0.080367608
0.050623926
0.081532489
0.054342975
0.082944045
0.057861481
0.084298814
0.061903553
0.065510008
0.086392008
0.075295642
0.0099565488
0.075140233
0.012239065
0.075330226
0.014313281
0.075574985
0.016696772
0.076127995
0.019000324
0.076677331
0.021581812
0.077490783
0.024222417
0.078359698
0.026974612
0.079408973
0.029775389
0.080426289
0.032897606
0.081732413
0.035734928
0.083000001
0.039059494
0.084536039
0.042112519
0.086039745
0.045666538
0.088034469
0.048629203
0.090051912
0.052325532
0.092901297
0.055012097
0.096107763
0.058697087
0.060740131
0.10087764
0.080794715
0.010237476
0.080671869
0.012361911
0.080888788
0.014096362
0.081205099
0.016380461
0.081860337
0.018345085
0.082493122
0.020949027
0.083465607
0.023249933
0.084420627
0.026019592
0.085634548
0.028561468
0.086882127
0.031650028
0.088423797
0.034193258
0.089994817
0.037488475
0.091944103
0.040163232
0.094104954
0.043505687
0.096928725
0.045805432
0.10025132
0.049002933
0.10467329
0.050590127
0.10995959
0.053410792
0.053636685
0.11706304
0.086797638
0.010597585
0.086853689
0.012305859
0.087023321
0.013926731
0.087485044
0.015918738
0.088075706
0.017754423
0.088836827
0.020187905
0.089865107
0.022221654
0.09101337
0.024871329
0.092414809
0.027160029
0.093988414
0.030076422
0.095801784
0.032379888
0.097886402
0.035403856
0.10046939
0.037580245
0.10356208
0.040413001
0.10736447
0.04200304
0.1120673
0.044300103
0.11768492
0.044972504
0.12459963
0.046496084
0.045486655
0.13274966
0.092985607
0.010977183
0.09314656
0.012144906
0.093241029
0.013832262
0.093899239
0.015260528
0.094491226
0.017162436
0.095605824
0.019073307
0.09675314
0.021074338
0.098181553
0.023442916
0.09977087
0.025570711
0.10171232
0.028134975
0.10395132
0.030140887
0.10669959
0.032655583
0.10998977
0.034290062
0.11402006
0.036382716
0.11878571
0.037237384
0.12451767
0.038568143
0.1310499
0.038440274
0.1385399
0.03900609
0.037281133
0.14674542
0.10002267
0.011257422
0.1002475
0.011920079
0.10044677
0.013632997
0.10116279
0.014544498
0.101816
0.016509233
0.10311535
0.017773959
0.104303
0.019886679
0.10607601
0.021669912
0.10789529
0.023751429
0.11029585
0.025734412
0.11292109
0.027515642
0.11635329
0.029223386
0.12021904
0.030424313
0.1250657
0.03153605
0.13041263
0.03189046
0.13677083
0.032209945
0.1434583
0.031752807
0.15079101
0.031673374
0.029988723
0.15808342
0.1072404
0.011381292
0.1073943
0.011766179
0.10779404
0.013233256
0.10859119
0.013747353
0.10948052
0.015619905
0.11087631
0.016378168
0.11226901
0.018493971
0.11436104
0.019577881
0.11648555
0.02162692
0.11946855
0.022751415
0.12256498
0.024419205
0.12668743
0.02510094
0.13098938
0.026122359
0.13640815
0.026117282
0.14193343
0.026365182
0.14834596
0.025797413
0.15451187
0.025586903
0.16114425
0.02504099
0.024334171
0.1667988
0.11558799
0.011368182
0.11555684
0.011797321
0.1161804
0.012609701
0.11697028
0.012957467
0.11816645
0.014423739
0.1196098
0.014934815
0.1213744
0.016729376
0.12365762
0.017294655
0.1262269
0.019057642
0.12951785
0.019460462
0.13304279
0.020894263
0.13752407
0.020619663
0.14204201
0.021604415
0.14763418
0.020525117
0.15277504
0.021224323
0.15861202
0.019960432
0.16366808
0.020530842
0.16878343
0.019925634
0.020340985
0.17277662
0.12385321
0.011200429
0.12382983
0.011820696
0.12468661
0.01175292
0.12545669
0.012187394
0.12693564
0.012944787
0.1284923
0.013378147
0.13070709
0.014514593
0.13321646
0.014785277
0.13624098
0.016033121
0.13970841
0.015993032
0.14361979
0.016982889
0.14811921
0.016120243
0.15277648
0.016947143
0.15795577
0.015345822
0.16244723
0.016732868
0.16731318
0.015094475
0.17082766
0.017016362
0.17446898
0.016284322
0.018419678
0.17639028
0.13314107
0.011091722
0.1333881
0.011573658
0.13437603
0.010764992
0.13519898
0.011364446
0.13700592
0.011137842
0.13860517
0.011778896
0.14110951
0.012010258
0.14368783
0.012206949
0.14697568
0.012745278
0.15052186
0.012446843
0.15463799
0.012866758
0.15891884
0.011839393
0.16325794
0.012608049
0.16735032
0.011253434
0.17095349
0.013129706
0.17407024
0.011977725
0.1758669
0.015219702
0.17741749
0.014733727
0.019113377
0.17672379
0.14278334
0.01111463
0.14339849
0.010958505
0.14422935
0.0099341307
0.14536077
0.01023303
0.14724223
0.0092563772
0.14899142
0.010029711
0.15184129
0.0091603834
0.15442894
0.009619298
0.1580161
0.0091581208
0.16147905
0.0089838882
0.16544609
0.0088997143
0.16903974
0.0082457416
0.17275208
0.0088957144
0.17576158
0.0082439268
0.17817776
0.010713533
0.17936822
0.010787263
0.17940572
0.015182195
0.17845176
0.015687692
0.022053028
0.17551211
0.15325819
0.011058187
0.15414053
0.010076159
0.15480894
0.0092657223
0.15641185
0.0086301179
0.15808774
0.0075804932
0.16030742
0.0078100246
0.16309633
0.0063714771
0.16580091
0.0069147111
0.16949908
0.0054599571
0.17246167
0.0060212979
0.17607717
0.0052842107
0.17889661
0.0054262994
0.18169811
0.0060942163
0.18301716
0.0069248728
0.18388581
0.0098448836
0.18313256
0.01154051
0.18158926
0.016725501
0.17856527
0.018711682
0.026495322
0.17412297
0.16482026
0.01074473
0.16573077
0.0091656519
0.16662611
0.0083703782
0.16847836
0.0067778708
0.17002937
0.0060294778
0.17263607
0.0052033278
0.17501782
0.0039897268
0.17805363
0.0038789035
0.18115526
0.0023583224
0.18386959
0.0033069677
0.18703176
0.0021220384
0.18862382
0.0038342382
0.19005458
0.0046634566
0.18961107
0.0073683891
0.18879819
0.010657755
0.18615774
0.014180966
0.18326178
0.019621461
0.17848309
0.023490371
0.032478341
0.17250007
0.17688445
0.010280061
0.17765691
0.008393185
0.17876659
0.0072607039
0.18051862
0.0050258402
0.18231526
0.004232838
0.18505504
0.0024635492
0.18719338
0.0018513801
0.19022011
0.00085217872
0.19242211
0.00015631938
0.19504518
0.00068389399
0.1967562
0.00041101631
0.19728141
0.0033090325
0.19748299
0.0044618748
0.19565908
0.0091922978
0.19364504
0.0126718
0.18947538
0.018350627
0.18498804
0.024108799
0.17832593
0.03015248
0.0399073
0.17089697
0.19038718
0.0095913605
0.19119089
0.0075894788
0.19257716
0.0058744283
0.19423973
0.0033632726
0.19631575
0.0021568234
0.19872164
5.7652268e-05
0.20076429
-0.00019127054
0.20333803
-0.001721559
0.20480493
-0.0013105814
0.20660115
-0.0011123232
0.20649519
0.00051697876
0.20639165
0.0034125692
0.20483632
0.006017202
0.20205643
0.01197219
0.19874492
0.015983311
0.19334022
0.023755324
0.18816231
0.029286706
0.18088785
0.037426942
0.045679793
0.17511536
0.20416226
0.0089760045
0.20499706
0.0067546759
0.20649508
0.0043764084
0.20796497
0.0018933841
0.2099957
0.00012609803
0.21186794
-0.0018145887
0.21394205
-0.0022653771
0.21577764
-0.0035571517
0.21667003
-0.0022029775
0.21737754
-0.001819825
0.21655732
0.0013371938
0.21570523
0.0042646553
0.21249902
0.0092234154
0.20917298
0.015298225
0.20442246
0.020733838
0.19929613
0.028881655
0.19489729
0.033685542
0.19033553
0.041988701
0.045450317
0.19056501
0.21972593
0.0081906876
0.22086144
0.0056191736
0.2222446
0.0029932493
0.22365363
0.00048434667
0.22549906
-0.001719333
0.22695954
-0.0032750629
0.22880721
-0.0041130463
0.2296509
-0.0044008413
0.23007257
-0.0026246536
0.22966309
-0.0014103429
0.22815798
0.0028423033
0.22593675
0.006485887
0.22210971
0.013050457
0.21894371
0.018464226
0.2145752
0.025102349
0.21233073
0.031126123
0.21100377
0.035012498
0.21317282
0.039819656
0.038009866
0.22061327
0.23563953
0.0073929662
0.23675307
0.0045056387
0.2381038
0.001642515
0.23960463
-0.0010164821
0.2409759
-0.0030906046
0.24209612
-0.0043952762
0.24305375
-0.0050706797
0.24283078
-0.0041778696
0.24287437
-0.0026682398
0.24137705
8.6972643e-05
0.23937418
0.0048451722
0.23633299
0.0095270799
0.23320649
0.016176952
0.23101793
0.020652791
0.22962921
0.02649107
0.23149127
0.02926406
0.23501882
0.031484945
0.24389975
0.030938731
0.027432097
0.25447752
0.25381797
0.0064210023
0.25490461
0.0034189978
0.25611137
0.00043575117
0.25728345
-0.0021885623
0.2582781
-0.004085249
0.25909619
-0.0052133674
0.25921021
-0.0051846991
0.259004
-0.0039716636
0.25832409
-0.0019883287
0.25622403
0.0021870367
0.25427907
0.0067901325
0.25161369
0.01219246
0.25044664
0.017344003
0.25044878
0.020650647
0.25285326
0.024086588
0.25778403
0.024333295
0.26516387
0.024105105
0.27549158
0.020611017
0.019526358
0.28339732
0.27271618
0.0053746141
0.27379165
0.0023435294
0.2747461
-0.00051869919
0.275322
-0.0027644622
0.27575013
-0.0045133813
0.27567358
-0.0051368195
0.27497159
-0.0044827105
0.27407552
-0.0030755907
0.27234617
-0.00025897494
0.2706315
0.0039017053
0.26910399
0.0083176433
0.2685518
0.012744652
0.27021851
0.015677287
0.27313165
0.017737516
0.27857157
0.018646662
0.28550768
0.017397182
0.29358599
0.016026797
0.30026631
0.013930702
0.016270778
0.30352188
0.29352256
0.0042331813
0.29449341
0.0013726848
0.29518637
-0.0012116672
0.29554825
-0.0031263354
0.29563583
-0.0046009585
0.29540467
-0.0049056631
0.29492412
-0.0040021628
0.29387295
-0.0020244229
0.2923977
0.0012162788
0.29139807
0.0049013405
0.29103775
0.0086779553
0.2923595
0.011422901
0.29508504
0.012951754
0.2991573
0.013665256
0.30504392
0.012760042
0.31105414
0.011386954
0.3161562
0.010924743
0.31852563
0.011561271
0.016330796
0.31846561
0.31593845
0.0029289893
0.3167971
0.00051403783
0.3167995
-0.001214066
0.31630766
-0.002634494
0.31528553
-0.0035788323
0.31387671
-0.0034968431
0.31234145
-0.0024669061
0.31099568
-0.00067865167
0.31025658
0.0019553851
0.31064508
0.0045128312
0.31270292
0.0066201204
0.31641699
0.0077088356
0.32122538
0.0081433635
0.32689903
0.0079916018
0.332416
0.0072430703
0.33617844
0.0076245177
0.33823046
0.0088727185
0.33830046
0.011491268
0.016123402
0.33850786
0.34059819
0.0014441104
0.34120963
-9.7407547e-05
0.34090003
-0.00090446044
0.33992965
-0.0016641159
0.33874841
-0.0023975972
0.33773448
-0.0024829044
0.33693848
-0.0016709114
0.33660343
-0.00034359849
0.33723946
0.0013193519
0.33894918
0.0028031146
0.34149846
0.0040708415
0.34481768
0.0043896104
0.34807214
0.0048889037
0.3513483
0.0047154396
0.35321012
0.0053812598
0.3548828
0.0059518342
0.35657845
0.0071770668
0.35966922
0.008400495
0.0093414209
0.3664512
0.36685478
0.36675737
0.36585291
0.36418879
0.3617912
0.35930829
0.35763738
0.35729378
0.35861313
0.36141625
0.36548709
0.3698767
0.37476561
0.37948104
0.38486231
0.39081414
0.39799121
0.4063917
0.41573312
0.057382458
0.075234047
-0.069394446
0.051018015
0.078531542
-0.072167098
0.043676242
0.082423537
-0.075081764
0.03587334
0.085987302
-0.078184398
0.02593264
0.089727265
-0.079786565
0.014006764
0.093803646
-0.08187777
-0.0019041407
0.095150214
-0.079239309
-0.020748281
0.084075288
-0.065231148
-0.040511445
0.072088312
-0.052325147
-0.060794336
0.07368382
-0.053400929
-0.080990162
0.073394159
-0.053198333
-0.09875911
0.073394252
-0.055625305
-0.1136561
0.070879542
-0.05598255
-0.12493928
0.06230446
-0.051021276
-0.13196809
0.051581012
-0.044552208
-0.13592959
0.043781566
-0.039820067
-0.13700954
0.037766929
-0.036686974
-0.13561859
0.032560683
-0.033951629
0.029712935
-0.13228281
-0.03304872
0.062103603
0.081130038
0.055372309
0.085262836
0.047671311
0.090124536
0.038916207
0.094742406
0.028247506
0.10039597
0.015323776
0.10672738
-0.0023724837
0.11284647
-0.027469525
0.10917233
-0.054573441
0.099192228
-0.076541694
0.095652074
-0.096333068
0.093185533
-0.1131425
0.090203688
-0.12785167
0.085588711
-0.14030027
0.074753063
-0.15000714
0.061287879
-0.15567198
0.049446405
-0.15670907
0.038804022
-0.15341286
0.029264473
0.02261806
-0.14631798
0.069853174
0.08659314
0.063441
0.09167501
0.0569458
0.096619736
0.049156787
0.10253142
0.040691302
0.10886145
0.03118922
0.11622946
0.019120759
0.12491494
-0.0020342
0.13032729
-0.031249967
0.12840799
-0.059373111
0.12377522
-0.083992845
0.11780527
-0.10373275
0.1099436
-0.11964181
0.10149776
-0.13353967
0.088650933
-0.14479347
0.072541674
-0.15166065
0.056313588
-0.15381482
0.040958195
-0.15216237
0.027612014
0.018125119
-0.14766942
0.081615871
0.091369277
0.076899694
0.096391187
0.072255195
0.10126424
0.067748353
0.10703826
0.063512299
0.11309751
0.059757435
0.11998432
0.056833944
0.12783843
0.051112268
0.13604897
0.039481786
0.14003848
0.022643373
0.14061363
0.0025898662
0.13785877
-0.017560503
0.13009396
-0.034432074
0.11836934
-0.048884669
0.10310353
-0.061265988
0.084922993
-0.071384531
0.066432132
-0.079462968
0.049036632
-0.086635842
0.034784889
0.024602812
-0.093113534
0.097500237
0.094746681
0.095017811
0.098873613
0.092541257
0.10374079
0.091190272
0.10838925
0.090485541
0.11380224
0.09132829
0.11914157
0.094005008
0.12516171
0.098596072
0.1314579
0.10200753
0.13662702
0.10332173
0.13929943
0.10272504
0.13845547
0.098405233
0.13441377
0.091256285
0.12551829
0.081213964
0.11314585
0.06864994
0.097487017
0.054288538
0.080793534
0.038358754
0.064966417
0.021483799
0.051659843
0.041457466
0.0046291461
0.11492179
0.096887926
0.11348236
0.10031305
0.11299109
0.10423206
0.11331611
0.10806423
0.1146864
0.11243195
0.11762598
0.11620199
0.12214378
0.12064391
0.12934057
0.12426111
0.13772976
0.12823783
0.14607294
0.13095625
0.15379472
0.13073369
0.15905704
0.12915145
0.16111573
0.12345959
0.158566
0.11569558
0.15160613
0.10444689
0.1402522
0.092147465
0.12467009
0.080548524
0.10644506
0.069884869
0.061090748
0.086811784
0.13127974
0.098357847
0.13016151
0.10143127
0.13040358
0.10399
0.13112522
0.10734258
0.13306845
0.11048873
0.1361787
0.11309174
0.14087145
0.11595116
0.14684021
0.11829235
0.1541283
0.12094974
0.16279707
0.12228749
0.17131191
0.12221884
0.17946512
0.12099824
0.18441546
0.11850925
0.18645301
0.11365803
0.18404679
0.10685312
0.17757647
0.098617783
0.16722421
0.090900787
0.15338299
0.083726083
0.077522569
0.13695117
0.14520699
0.099896278
0.14444922
0.10218904
0.14437192
0.1040673
0.1448513
0.1068632
0.1462329
0.10910712
0.14855983
0.11076481
0.15232349
0.1121875
0.15639213
0.11422371
0.16196579
0.11537608
0.16872318
0.1155301
0.17572662
0.1152154
0.1825391
0.11418576
0.1882164
0.11283196
0.19292299
0.10895144
0.19354605
0.10623007
0.18992963
0.1022342
0.18336552
0.09746489
0.17462253
0.092469073
0.088400028
0.16374508
0.15613048
0.10184922
0.15499351
0.10332602
0.15396946
0.10509134
0.15425944
0.10657323
0.15487563
0.10849093
0.15637342
0.10926702
0.15853877
0.11002215
0.1614746
0.11128788
0.16536533
0.11148535
0.17021796
0.11067747
0.1750503
0.11038306
0.17949318
0.10974288
0.18359656
0.10872858
0.18613033
0.10641767
0.18828599
0.1040744
0.18881929
0.10170091
0.18682594
0.099458248
0.18162995
0.097665057
0.096126736
0.17390324
0.16462487
0.10402315
0.1625864
0.10536449
0.16093363
0.10674412
0.16006938
0.10743749
0.15988507
0.10867524
0.16044688
0.10870521
0.16115027
0.10931876
0.16304728
0.10939087
0.16549216
0.10904047
0.16843118
0.10773844
0.17061553