/*--------------------------------*- C++ -*----------------------------------*\
  =========                 |
  \\      /  F ield         | OpenFOAM: The Open Source CFD Toolbox
   \\    /   O peration     | Website:  https://openfoam.org
    \\  /    A nd           | Version:  11
     \\/     M anipulation  |
\*---------------------------------------------------------------------------*/
FoamFile
{
    format      ascii;
    class       surfaceScalarField;
    location    "0.3592361";
    object      phi;
}
// * * * * * * * * * * * * * * * * * * * * * * * * * * * * * * * * * * * * * //

dimensions      [0 3 -1 0 0 0 0];

internalField   nonuniform List<scalar> 
1652
(
1.706212168242977
0.5337381654478366
-1.763034163104749e-13
1.172474003768355
0.533738158421365
9.350298313393068e-13
0.6387445851017256
0.533557156006617
6.226130722097878e-13
0.5291695193861059
-8.919975869048358e-12
0.1057111324230616
1.706212168247671
1.067476330876201
1.172474005829463
1.067476302840645
0.6387502466344993
1.06710551097718
1.053469950944264
0.1085008262930369
1.706212168244341
1.601214496297511
1.172474013702292
1.601214386896946
0.6388068709921328
1.600473905091911
1.57503810889998
0.1089061404074756
1.706212168319533
2.134952661525116
1.172474043756221
2.134952228737071
0.6388942755411781
2.133493287717079
2.097351290664391
0.1052259193580668
2.651191214816981
1.723711780177984
3.167429763782311
1.723711779125776
3.683668090055692
1.723711851207332
1.723712858918284
4.199906971670458
2.651189460797253
1.207473399361531
3.167421594018907
1.207473287068709
3.683647048636173
1.207475968313407
1.207511807831185
4.199820706006416
2.649581373507161
0.6899954962034839
3.166040568010212
0.6888415125091712
3.682702441343409
0.6872903462447029
0.6887247639892928
4.194525756768881
2.65087443499606
0.1168379204392102
3.273931949919969
0.04172463936588761
3.91295497811036
0.01811965986934844
4.554446301789508
0.01129149061185175
4.164891486988566
0.03501639672719292
4.129861134347035
0.03500481592196902
4.094845355574888
0.03485880936520658
0.03478328225858851
4.059708002053672
4.164989934302376
0.06971402223021722
4.130355905926034
0.06893656664415188
4.096344154707872
0.06750054233723179
0.06567962920194331
4.062546333273647
4.174765244621137
0.082422535940959
4.160204142523473
0.07410496927771543
4.152940585601517
0.06155655424087469
0.05298185235611946
4.147974664572596
4.603056041547664
0.006229212406453577
4.647547180911129
0.005264144013354122
4.680683700914168
0.006631564787659139
4.712916798706014
0.007741205509697979
4.670365332957265
0.1044174763232346
-0.06872496606229467
4.585724726846611
0.1015335312679674
-0.01838187947659214
4.503680605397243
0.09666909710501365
-0.008941766222889391
0.08785841967670954
4.431572833901097
-0.006796810609020931
4.220096165976131
0.01360739428327984
4.275162867773497
0.02651437504838494
4.314339681477032
0.03726908097821613
0.04540983794897763
4.338142373299338
4.068844745243274
0.001073225817254442
4.081319711302601
0.002963602616009364
4.09885466960491
0.005655607618727965
0.009950116097407369
4.118433244888583
4.059561400930268
4.059934644455517
4.061254172696596
4.064432371652744
4.069795814514451
-0.01554490071922598
4.077679465186948
-0.02162143680153461
4.087623407571348
-0.02801778147403311
-0.03210792209922875
4.096916883019529
4.138847320858539
-0.05369585417966222
4.15881716896877
-0.06003526698787909
4.176997232661885
-0.06321985028821686
-0.06156510221886108
4.190974512110797
4.347633597782643
-0.07864936239004211
4.345713644058881
-0.06822781220981095
4.333663777915126
-0.05402389286164683
-0.04809058603497679
4.319208364478518
4.365060007311003
-0.007518753409522211
4.316425877540683
-0.005960754485329844
4.273216547536451
-0.003535263194355237
4.244285135801046
-0.002871884203418162
0.04263136490761393
4.228675618012761
-0.01747926798703037
0.05775041395951397
4.308730716241372
0.03447584474062848
4.199831834306663
4.101808458225126
0.04041903779486516
4.249425082823905
-0.1456623767888155
0.0476071978622426
4.30161585904578
0.03368332680665342
4.206143977653142
4.102832247087164
0.07818141828336111
3.985008550204038
-0.1400061080955067
0.04627130660848255
4.308885600823407
0.02810058145496763
4.211433935864704
4.098033602544727
0.1746601422181645
3.682277764264729
-0.04233680568736292
0.06565772513943263
4.316411339587713
0.02803756801173352
4.226444994246971
4.100476635721312
0.07033239404199865
3.979813612070735
0.1235568801682694
4.13243431087849
0.08027974114212555
4.217519514392908
3.560895151098373
0.1473567438998897
0.06627783593295433
3.876832584573513
0.08925434226024337
4.042791288639211
0.008555793170801573
4.094877987125324
3.434669470440178
0.1118000103683213
0.05279861606224368
3.7849378259318
0.01845416537575917
3.955718438922957
-0.07013682068470928
3.93467065062901
3.33293891952683
0.05847369640877487
0.02149066557210688
3.705442014137987
-0.08849133526225839
3.861472967591604
-0.1185518663279475
3.745430849237822
3.239258028966875
0.0271603885212518
0.1401542554874089
3.15519295078751
0.002272935215986482
0.1880845746601352
3.584087746883473
0.03402560081823447
3.734483197504488
3.642164531348754
0.148518198456168
3.077803786677531
-0.006619705133404263
0.2559940892574479
3.472523942673365
0.1028835462524572
3.584916117315148
3.592147540925873
0.1404622723149278
2.995520918210486
0.002474954392717388
0.2945971830680966
3.346350717792709
0.1909897704403495
3.45009063190909
3.557357414232254
0.109986465598374
2.890870582256625
0.01568641886818267
0.2666317451777362
3.221600479972796
0.2510960171563729
3.304258681615294
3.51547000078609
-0.2198606947475101
3.464403159114585
-0.1874177777660559
3.230011801196161
-0.04683154963202807
3.10724381658748
2.789609603896538
0.04415747339041498
-0.1620751076511191
3.402431084105662
-0.127106399771056
3.139807735119206
0.001551571615468483
3.004997981954747
2.707306335992919
0.06647361914926297
-0.1025100467981622
3.328922831408023
-0.05274343121052361
3.057280515702963
0.06928485036489757
2.911615757393275
2.641311670251037
0.1219615969281851
-0.03597171367396934
3.224301474963224
0.03387149688297908
2.967052425338045
0.155689211809771
2.81984260726492
2.569307916320717
0.2296406237314323
-0.3468346625510561
3.454810634274025
-0.5764961770080628
3.185792329127406
-0.7153241822645551
3.000044964985555
2.633114171107429
-0.769070728098683
-0.300209339862988
3.659648199058158
-0.5257819060238156
3.407275600401552
-0.6286983448494795
3.176612051417032
2.281263166811956
-0.2632236941493301
-0.273658981271588
3.844641688173735
-0.4821409618145919
3.621428558547679
-0.5140376670258306
3.331026361347738
1.803005222630608
-0.02966575851802637
-0.2402606474045896
4.01116551668866
-0.4394779593486176
3.827812068710542
-0.3630676504664875
3.4389075741038
1.41773524966792
-0.01228128995082983
0.1576824636756008
1.459281185922624
-0.01047801561462645
0.2075844506270304
3.529872334052322
0.1042120877545728
3.938192835663306
4.062973631693801
0.1656295567188695
1.439678552234347
-0.007978839706779216
0.1877444406669368
3.625678053714197
0.09472387933609144
4.05090865878269
4.108046364868103
0.1503822865967522
1.343317775044801
-0.003393844734486083
0.168629932240211
3.723214633102567
0.08924791865476178
4.160212118655393
4.149921563892937
0.1199112692537685
1.254281079043383
0.002202973329413098
0.1500457862390893
3.816531970517493
0.08903438512925094
4.257714534296418
4.196623053259382
-0.2359532535484841
1.570204757937663
-0.01567247286002459
-0.1845875339417519
3.985442184632458
-0.04698184372380498
4.197995109253479
4.09771658424222
-0.2649899101972426
1.927852907997165
0.005974190597268239
-0.1781047803796056
4.0690026573892
-0.03211404898560555
4.113302303413457
4.060050682677161
-0.2623648995225252
2.245160906158575
0.03358758664551614
-0.1344448363914026
4.102205958067299
-0.02063062146322459
4.067475221908818
4.056535950731458
-0.2321304415271561
0.0878661882053336
2.498260691345569
-0.1113833899480856
4.099523346375779
-0.01648756648329375
4.039832246905494
4.05669140426288
0.3370438217656666
-0.4386191370006418
-0.01287174202332219
5.617284415393442e-12
0.892869425569577
-0.4130642177201667
-3.272937476594961e-13
1.633810958420969
-0.4646880779460196
7.505107646466058e-13
-0.5171013437843768
-1.265343385625783e-11
0.3341161938010329
-0.8918402845852405
-0.01277415581894198
0.9068219455952852
-0.8655137870117358
1.634736710082431
-0.9425092266748214
-1.035759431049813
0.330752463702057
-1.351363010712544
-0.01558043330210657
0.9266031105861543
-1.343377672371425
1.638843852803912
-1.451593645923354
-1.556743952486547
0.324081858511451
-0.01607258009220751
-1.703816946939663
0.9567816789441976
-1.851426129157187
1.647527302900855
-1.983871161217362
-2.082285862472109
-0.2321304415272271
-2.245160906161201
0.08786618820530197
2.498260691341846
-0.1113833899449509
-4.102205958070543
4.099523346375522
-0.01648756647938066
-4.067475221907036
4.039832246904058
-4.056535950727699
4.056691404258562
-0.262364899521357
-1.927852908000582
0.03358758664604578
-0.1344448363935917
-4.069002657399492
-0.02063062146521522
-4.113302303417241
-4.060050682681595
-0.2649899101986337
-1.570204757943525
0.005974190597522147
-0.1781047803827834
-3.985442184638607
-0.03211404899041481
-4.197995109254741
-4.097716584241568
-0.235953253548575
-1.254281079045674
-0.01567247285982078
-0.1845875339460565
-3.81653197052916
-0.04698184372826097
-4.257714534296577
-4.196623053251986
-0.1042120877496235
4.062973631712175
-4.011165516713663
-0.2075844506150776
3.93819283568548
-3.827812068740925
-0.1576824636692269
3.529872334029375
-3.43890757407409
1.45928118589436
-1.417735249645719
-0.01047801561485387
-0.09472387933022985
4.108046364871768
-0.1877444406528079
4.050908658797744
-0.1656295567138309
3.625678053701628
1.439678552224072
-0.007978839706898673
-0.08924791864916892
4.149921563886542
-0.1686299322229475
4.1602121186638
-0.1503822865916282
3.723214633100181
1.343317775042599
-0.003393844734236193
-0.08903438512234629
-0.150045786222911
-0.1199112692487569
0.002202973329338876
0.3630676504702714
-1.803005222617438
-0.01228128995083105
0.4394779593637583
-3.331026361333953
0.2402606474197949
-3.621428558574404
-3.844641688193376
0.5140376670299291
-2.281263166799714
-0.02966575851727511
0.4821409618293453
-3.176612051412445
0.2736589812827999
-3.407275600423184
-3.65964819907299
0.6286983448567572
-2.633114171103446
-0.26322369414816
0.5257819060387103
-3.000044964983426
0.3002093398731738
-3.185792329139303
-3.454810634280296
0.7153241822716296
-2.569307916320857
-0.7690707281005571
0.5764961770201708
-2.819842607266311
0.3468346625546855
-2.967052425344043
-3.224301474962645
-0.2198606947471911
3.4644031591251
-3.515470000801448
-0.1874177777592004
3.230011801211547
-3.304258681638053
-0.04683154962713632
3.107243816576354
-3.221600479955057
2.789609603886379
-2.890870582244936
0.04415747338827269
-0.1620751076438394
3.402431084112359
-0.1271063997628961
3.139807735127716
0.001551571621389858
3.004997981945958
2.707306335985823
0.06647361915010086
-0.1025100467957372
3.328922831410584
-0.0527434312026378
3.057280515709503
0.06928485036905574
2.911615757388574
2.641311670247696
0.1219615969281583
-0.03597171366968466
0.03387149689225821
0.1556892118130316
0.2296406237317233
0.1099864656012013
-2.995520918199714
0.01568641886871736
0.2666317451837021
-3.346350717783406
0.2510960171591852
-3.450090631923554
-3.557357414243823
0.140462272317744
-3.077803786672779
0.002474954392405859
0.2945971830751836
-3.472523942670169
0.1909897704448227
-3.584916117322544
-3.5921475409331
0.1485181984593374
-3.155192950780562
-0.006619705134672249
0.2559940892638155
-3.584087746886674
0.1028835462522029
-3.734483197508059
-3.642164531350868
0.1401542554892757
-3.239258028967347
0.002272935215275607
0.1880845746683257
-3.745430849240021
0.03402560082200246
-3.861472967592389
-3.705442014135832
0.07033239404324243
3.979813612071474
-4.10047663571959
0.1235568801691946
4.1324343108795
-4.226444994244989
0.08027974114401859
4.217519514396552
-4.316411339590022
3.56089515110334
-3.68227776426692
0.1473567438990631
0.0662778359349423
3.876832584574656
0.08925434226137841
4.042791288641257
0.008555793172594917
4.094877987128605
3.43466947043894
0.1118000103664417
0.05279861606395309
3.784937825933635
0.01845416538206024
3.955718438927051
-0.07013682068456195
3.93467065063657
3.332938919527822
0.05847369640867439
0.02149066557477963
-0.08849133525825859
-0.118551866326549
0.02716038852171554
-4.098033602544215
-0.0280375680109155
-4.102832247088997
-0.02810058145398187
-4.101808458226609
-0.03368332680561537
-0.03447584474103393
-4.096916883020612
-4.211433935865958
-0.06565772514193391
-4.206143977651811
-0.0462713066091891
-4.199831834301156
-0.0476071978617863
-0.05775041395907571
-4.190974512106108
-4.308885600826348
-0.1746601422161472
-4.301615859047451
-0.07818141828189229
-4.308730716240738
-0.04041903779585804
-0.04263136490741537
-4.319208364479707
-3.985008550211374
-0.04233680568757053
-4.249425082824978
-0.1400061080962763
-4.228675618011696
-0.1456623767864649
-4.244285135801874
-0.01747926798689875
-0.03210792209757896
-4.087623407570278
-0.06156510221788014
-4.176997232657075
-0.04809058603381455
-4.333663777919266
-4.273216547537524
-0.002871884203503455
-0.02801778147508149
-4.077679465187209
-0.06321985028655908
-4.158817168963443
-0.05402389285979597
-4.345713644065064
-4.316425877539115
-0.003535263192389226
-0.02162143680000628
-4.069795814515992
-0.06003526698783468
-4.138847320851988
-0.06822781220887042
-4.34763359779134
-4.365060007310274
-0.005960754485282521
-0.01554490071623116
-4.06443237165854
-0.05369585418069478
-4.118433244881473
-0.07864936238963377
-4.338142373309997
-4.431572833902355
-0.007518753408498169
-0.001073225819112178
4.059561400929955
-4.059708002048962
-0.01360739428535651
4.068844745226665
-4.062546333253259
-0.1044174763269655
4.220096165991628
-4.147974664589671
4.670365332966693
-4.712916798717203
-0.06872496606187872
-0.002963602619734051
4.059934644455402
-0.02651437505342819
4.081319711288838
-0.1015335312713237
4.275162867787519
4.585724726854024
-0.01838187947734751
-0.005655607621925962
4.061254172698654
-0.03726908098627896
4.098854669593044
-0.09666909710920418
4.314339681489362
4.503680605401629
-0.008941766224460218
-0.009950116100287842
-0.04540983795341536
-0.08785841967946101
-0.006796810608752923
-0.05298185236096936
-4.680683700922503
0.007741205509400995
-0.06567962921474119
-4.152940585608718
-0.03478328226377259
-4.096344154699612
-4.094845355574305
-0.06155655424620182
-4.64754718091598
0.006631564787404454
-0.06750054235028546
-4.16020414252249
-0.03485880936839292
-4.130355905930076
-4.129861134353638
-0.07410496928450511
-4.603056041546534
0.0052641440129092
-0.06893656665596576
-4.174765244613742
-0.03500481592259208
-4.164989934320473
-4.164891486989212
-0.08242253594532595
-4.554446301774258
0.006229212407728391
-0.06971402224280571
-4.194525756753899
-0.03501639673069801
-4.199820706033637
-4.199906971675808
-0.6887247639874027
-3.912954978079811
0.01129149061270163
-1.207511807823435
-3.68270244133223
-1.723712858923702
-3.683647048652621
-3.683668090055961
-0.6872903462426625
-3.273931949887115
0.01811965987168845
-1.207475968305976
-3.166040568005949
-1.723711851208882
-3.167421594032477
-3.167429763785974
-0.6888415125087771
-2.650874434967971
0.04172463936284482
-1.207473287064864
-2.649581373506488
-1.723711779126111
-2.651189460803519
-2.651191214823087
-0.68999549620347
-2.097351290652465
0.1168379204320618
-1.207473399361518
-2.133493287722041
-1.723711780188848
-2.134952228739778
-2.134952661529121
1.706212168246033
0.5337381654428741
1.172474003772971
0.5337381584280159
0.6387445851049461
0.5335571560094181
0.5291695193727606
0.1057111324266608
1.706212168248594
1.067476330870286
1.172474005829709
1.06747630283998
0.6387502466350006
1.067105510981991
1.053469950935155
0.1085008262948891
1.706212168246498
1.601214496294723
1.172474013702176
1.60121438689469
0.6388068709913972
1.600473905094874
1.575038108899096
0.1089061404065819
1.706212168319974
1.172474043753828
0.6388942755382581
0.1052259193559587
0.1054762303956857
0.1054762303998278
0.1054653881884631
0.1079721199993924
0.1059225097681579
0.1078287812739462
0.1026793210498461
0.1077871382147162
0.1079721199968418
0.1054653881927933
0.1076782096595026
0.1076782096619376
0.1081688378258413
0.1066956995281017
0.09903952431754624
0.1111325168265283
0.1078287812749902
0.1059225097715671
0.1066956995286789
0.1081688378284707
0.1063680731838722
0.1063680731841091
0.09589780350240208
0.1089243916447283
0.102679321053977
0.1077871382165363
0.09903952432055037
0.1111325168284313
0.09589780350679644
0.1089243916443472
0.09567818290159122
0.0956781829065753
-0.03916483561729378
0.1340424977047307
-0.06253205387838567
0.1313125725417379
-0.08851465243528445
0.1359908660187648
0.1348760676815675
-0.005682175122808608
0.1388609581709118
-0.01617534387067521
0.1408669391687847
-0.02705989136844472
0.145897759514884
0.1484336201792483
-0.0009897503638914285
0.139185228821849
-0.007344055245612491
0.1464985273842164
-0.01313442865745912
0.1509051830954096
0.1525076816015298
-0.001218715044762009
0.1398031720188066
-0.006135057631736274
0.1507758201867126
-0.009219360516806108
0.1533082385884782
0.1538215582989885
0.1533031367733567
0.00616957679326946
0.1533721082282546
0.004948544731211257
0.1526201132460029
0.007183186328620528
0.006669561084467535
0.1537744994895268
0.1535206864833791
0.005391475653242495
0.1538379776730074
0.004325676418320268
0.153916161450555
0.00691447414250379
0.003199576173409546
0.1574316418488935
0.1528814221328477
0.002725278804767028
0.1538629419838468
0.003033499517248517
0.1547047797028182
0.005885400881207814
-0.0097526468762969
0.1676840310110724
0.1419776543841808
0.1446515662333593
0.1502910792330397
0.1404652916969314
0.1402989199162368
-0.05510088796761956
0.1310928060368735
-0.00887037684360284
0.129668803611396
-0.006961202141987505
-0.006209410351211669
0.1296551252888719
0.1446496344269072
-0.04222970704873069
0.1388102976961607
-0.002739830135680132
0.1356410214911324
-0.003209403031695618
-0.003925133302934841
0.1339573011631907
0.1511964749187401
-0.02570025470814338
0.1456023189317156
0.003129667418725418
0.1416373012800075
0.001326779554180563
8.870422025453184e-05
0.138217594011175
0.1147562710788283
0.1181759320657493
0.1201040750270471
0.1208094054111947
0.1299201201055975
-0.006882550625261052
0.1308441980802654
-0.005824228373194795
0.1320144410046412
-0.003767121153361253
-0.003038507860274681
0.1331207886955908
0.1327149913918972
-0.004747780211368791
0.1322448947406025
-0.004284430349276031
0.1322701231878173
-0.002830369151054807
-0.002528197123524284
0.1326951400703378
0.1355128775756483
-0.001149129443942798
0.133607889151929
-0.001296574728682803
0.132548755928077
-0.000787853122423382
-0.001115515217312929
0.1321948902243791
0.1205604652195221
0.1203303270073641
0.1204691634241302
0.1203652742725781
0.1377885983409302
-0.02482797736480222
0.1348829072561774
-0.1504993931939057
0.1107600451174432
-0.1229669162718268
-0.01104222262261734
0.08051163500357343
0.1322029259811445
-0.02831564495903396
0.102325629976245
-0.1270268051726769
0.05610854348470223
-0.0814482134777198
-0.002616727876402047
0.04679692453746608
0.1239356379318934
-0.02441116140331095
0.0539134274562129
-0.06299651408064089
0.002564663185489577
-0.03524088619855892
-0.006634903042163132
0.004849391899499234
0.09095681846934256
0.02205359243531439
-0.01732373282065729
-0.02687791022690193
0.1047431170417873
0.1254181228007771
0.1177022358476323
0.1030276017149468
0.1245919555743902
0.05756185942593139
0.0267534146770726
0.1298440881871641
0.08613671662719465
0.08814329919137398
0.1121677371708611
0.08104242765587966
0.1233710958060772
0.05040395246949003
0.02496184796536471
0.1295954047313906
0.05318300512239844
0.04164885380531036
0.09764540644291926
0.0405200812443024
0.1175439402529464
0.03378403733460122
0.02014553294274835
0.1261443039250414
0.01606359238759233
0.06047037595127377
0.09669648124499323
0.1200202643906705
0.1350666756660995
0.003068350459193292
0.1400249918412158
-0.006417350570546043
0.1434898260414011
0.001381433523536701
0.01112154348458705
0.1477709509239479
0.1347763719839198
0.005054811566795103
0.1395687659999731
-0.002603429020205494
0.1424688566238962
0.001754648525034819
0.006794974693047018
0.1464998229016773
0.131989758215124
0.006205261666744843
0.1376972029616435
0.0001345414077509322
0.1417126574011975
0.001461447680907169
0.003119707869353561
0.1452932688645283
0.1330968539414121
0.1388413507845576
0.1429867713710873
0.1462795612828515
0.1586638248604671
0.03178751591060391
0.1726591192493613
0.05121749154326061
0.1922475947331045
0.102317418604594
0.1805136017062271
0.2412399921754362
0.1566728485215675
0.01993617552730775
0.1704611745620389
0.03610925222843298
0.1914989130437165
0.08113534929890626
0.1229080867431571
0.24920737717587
0.1538903118761242
0.009770553986784503
0.1672302470259639
0.02141995860298651
0.1942631580491274
0.05345214374568574
0.03428850418072732
0.2830991287237389
0.1546647499041898
0.1746625022885965
0.2273712103869273
0.2615308775155291
0.122001459681204
-0.6494854395449774
0.01214931814598557
-0.1526509921523669
-0.002597163649514301
-0.01384702531754081
-0.009765772438782069
-0.003860792969604335
0.08463898372332457
-0.4845210798444081
0.001807024392586571
-0.06912184259806776
-0.004315344635939338
-0.006799051517107227
-0.006316642104391029
-0.006748318502158407
0.04503313728330149
-0.2463298255811358
-0.002596053239269235
-0.02080257891063038
-0.005881508640732076
-0.002576896967808328
-0.003320598784155279
-0.008045811858472576
0.01517957984928974
-0.004926160269002409
-0.006659528444224792
-0.009082498088099099
-0.005367098352356883
-0.007899579394020272
-0.00684275381343066
-0.005047290089281477
-0.008519348276425278
-0.000810474127562362
0.003538168162699626
-0.00912878744570155
-0.008192612877845262
-0.005611317113427605
-0.009147314005017121
-0.002763109808371651
-0.009653908798016041
0.0007066780053016815
0.003168526776710381
-0.00847672516428552
-0.009688826643430511
-0.002882229115717545
-0.009469059165386082
-0.001545611607183386
-0.00870283966004377
0.00092910130330532
0.002634954994267344
-0.00732884129677744
-0.01079239452575186
-0.01094990965775896
-0.009120754997581252
-0.005723266742389474
-0.008421213746455776
-0.01576918684676559
0.001943222445125025
-0.002849367598085406
0.02247384644194938
0.01462053688885183
0.07047417110154135
0.04243683632133149
-0.009509035507108273
-0.01396201469886166
-0.007053670292631202
-0.003681714677027922
0.008909127153026032
4.086392587455967e-05
0.04770591965856769
0.0338860349923293
-0.01176754922574051
-0.008575068524870701
-0.01145443633084202
-0.002555816184048265
-0.003607259935924929
-0.006445982671050121
0.02557367298533925
0.02032689004755689
-0.01309195515101914
-0.01388658718772362
-0.01901290747011911
0.008976161792706064
0.04129074719945369
-0.006356858081466285
0.0106349260746004
0.03999959657838227
-0.007445487174464638
0.0112660774855679
0.03677247235649097
-0.01237327806033999
0.01704056032781429
-0.01696920708121872
0.0281799950167744
0.02546634397529544
0.03266473728797322
-0.003783930249694888
0.0307835248625845
-0.00478421810569845
0.02748583198398129
-0.008732292809927877
-0.01083086580093228
0.02110002791718602
0.01849778099421456
-0.001709240640918812
0.01641354153943066
-0.002220762532867324
0.0125721953234625
-0.004437076602963188
-0.005015198652505579
0.006837921576785651
0.006533380438286281
0.00458286661730388
0.0002902073816139147
-0.004408800356813493
-0.006411156877654062
0.002584410899726764
-0.006056285083641193
0.0007784012779203237
-0.003634277932319414
-0.0008802594343409222
-0.001874237267258005
-6.22002449546244e-14
0.003495916160436596
0.006009746811472889
0.001027996119721021
0.00363952925565314
-4.023951530442854e-05
0.0009232543859722629
-0.0009164585686318623
-2.605554660917164e-14
0.01669132650889243
0.01018028445992746
0.01132035044000449
0.008928201845573996
0.00568083045109672
0.006652641721841782
0.005073028829791923
1.676436767183986e-14
0.02174012913213156
0.01431344091323618
0.007707613624999186
5.661443536197908e-14
-0.001874237267256777
0.003634277932194209
-0.0009164585686409453
4.023951524535774e-05
0.005073028829811879
-0.005680830451046025
-0.007707613624873523
0.01287174202325364
-0.0008802594343306006
0.006056285083619425
0.0009232543859683008
-0.001027996119804628
0.006652641721890267
-0.01132035044008062
-0.01431344091322144
0.01277415581904328
0.0007784012778807546
0.00641115687748655
0.003639529255651773
-0.003495916160384319
0.00892820184565719
-0.01669132650890113
-0.02174012913214396
0.01558043330206534
0.002584410899797208
0.004408800356873126
0.00600974681147189
-0.006837921576860459
0.01018028445997213
-0.02110002791718853
-0.02817999501694458
0.01607258009212646
-0.03677247235641142
-0.01696920708107218
0.02546634397546113
-0.03999959657839371
-0.01237327806035012
0.01704056032776161
-0.04129074719944067
-0.007445487174473554
0.01126607748561526
-0.006356858081546422
-0.04243683632136466
0.01063492607464898
-0.02748583198401034
-0.01083086580095632
-0.03078352486255775
-0.008732292809975617
-0.03266473728799787
-0.004784218105740728
-0.003783930249758601
-0.03388603499241843
-0.01257219532351079
-0.00501519865247713
-0.01641354153942164
-0.004437076602912565
-0.01849778099431593
-0.002220762532900575
-0.001709240640942501
-0.02032689004763729
-0.0002902073816480333
-0.004582866617345117
-0.006533380438347752
-0.00897616179280674
0.01901290747000423
-0.02557367298539102
0.01388658718770245
0.006445982671266434
0.01309195515100588
0.002555816183990291
0.008575068524701898
0.005723266742413306
0.003607259935874886
-0.04770591965862307
0.01145443633077276
-4.086392610758161e-05
0.01176754922564426
0.003681714676933928
0.01396201469892583
0.007328841296785991
-0.008909127153175794
-0.0704741711015736
0.0070536702925314
-0.01462053688908893
0.009509035507011638
0.0028493675980793
0.01576918684648112
0.008476725164267248
-0.02247384644211117
-0.001943222445218811
0.008421213746296065
0.009128787445695612
0.008519348276433117
0.003538168162708046
0.006842753813506397
-0.0008104741275237644
0.005367098352410773
-0.005047290089418047
-0.007899579394070082
0.003860792969559868
0.009653908798009946
0.003168526776701097
0.009147314005054764
0.0007066780052954053
0.008192612877856803
-0.002763109808454206
-0.005611317113473254
0.006748318502164289
0.008702839660020098
0.002634954994280327
0.00946905916541381
0.000929101303392077
0.009688826643437662
-0.001545611607237086
-0.002882229115751362
0.008045811858471931
0.009120754997631585
0.01094990965779843
0.01079239452577654
0.009082498088100334
0.002597163649487245
-0.009765772438698236
-0.01214931814547717
-0.01384702531728546
-0.1220014596802296
-0.1526509921516826
-0.6494854395455681
-0.2412399921750144
0.004315344635981815
-0.006316642104315288
-0.001807024392404374
-0.006799051517007115
-0.08463898372266183
-0.06912184259781622
-0.4845210798443699
-0.2492073771755309
0.00588150864076105
-0.003320598784144655
0.002596053239342978
-0.002576896967762602
-0.04503313728300769
-0.02080257891054226
-0.2463298255810814
-0.2830991287235492
0.006659528444230743
0.004926160269033905
-0.01517957984922597
-0.2615308775156925
-0.1922475947331384
0.1805136017069963
-0.1726591192492617
0.1023174186055731
-0.1586638248605245
0.05121749154475297
0.03178751591157414
-0.1477709509240036
-0.1914989130435748
0.1229080867426306
-0.170461174562052
0.08113534929899807
-0.1566728485214071
0.03610925222957961
0.01993617552642846
-0.1464998229016941
-0.1942631580488456
0.03428850418068108
-0.1672302470259854
0.05345214374612572
-0.1538903118758904
0.02141995860475465
0.009770553987353492
-0.1452932688646349
-0.2273712103864698
-0.1746625022889334
-0.1546647499040079
-0.146279561282896
-0.1434898260414206
0.01112154348461525
-0.1400249918410837
0.001381433523267361
-0.1350666756655637
-0.006417350569895341
0.003068350458977243
-0.1298440881870777
-0.14246885662399
0.006794974691664901
-0.1395687659995409
0.001754648527645619
-0.1347763719835897
-0.002603429019901959
0.005054811566926443
-0.1295954047312796
-0.1417126574009994
0.003119707870810617
-0.1376972029612983
0.001461447680507821
-0.131989758214695
0.0001345414077904561
0.006205261666539008
-0.1261443039250331
-0.1429867713711097
-0.138841350784416
-0.1330968539412258
-0.1200202643904459
-0.1245919555745287
0.02675341467694992
-0.1177022358476573
0.05756185942569847
-0.1047431170419433
0.1030276017143308
0.1254181228010082
-0.08051163500376811
-0.1233710958061187
0.02496184796523704
-0.1121677371708855
0.05040395246826535
-0.08613671662752952
0.08104242765420588
0.08814329919239228
-0.04679692453760574
-0.1175439402528833
0.02014553294279475
-0.09764540644309931
0.03378403733420388
-0.05318300512255203
0.04052008124525719
0.04164885380395378
-0.004849391899894806
-0.09669648124463127
-0.06047037595092555
-0.01606359238783472
0.02687791022729664
-0.1107600451179123
-0.01104222262264121
-0.1348829072566323
-0.1229669162724744
-0.1377885983411273
-0.1504993931928517
-0.02482797736445858
-0.1331207886958661
-0.05610854348505565
-0.002616727877076452
-0.1023256299768978
-0.08144821347813486
-0.1322029259814071
-0.127026805172224
-0.02831564495874708
-0.1326951400705387
-0.002564663185703822
-0.006634903041993045
-0.05391342745682197
-0.035240886198597
-0.1239356379321705
-0.06299651408056178
-0.02441116140315394
-0.1321948902245184
0.01732373282062712
-0.02205359243540378
-0.0909568184694753
-0.1203652742725383
-0.1320144410047181
-0.003038507859601941
-0.1308441980800795
-0.003767121153070374
-0.129920120105606
-0.005824228373369628
-0.006882550625544659
-0.1296551252887141
-0.132270123187865
-0.002528197122996151
-0.1322448947404546
-0.002830369150562534
-0.1327149913917997
-0.004284430349533852
-0.004747780211300345
-0.1339573011631709
-0.1325487559279614