/*--------------------------------*- C++ -*----------------------------------*\
  =========                 |
  \\      /  F ield         | OpenFOAM: The Open Source CFD Toolbox
   \\    /   O peration     | Website:  https://openfoam.org
    \\  /    A nd           | Version:  11
     \\/     M anipulation  |
\*---------------------------------------------------------------------------*/
FoamFile
{
    format      ascii;
    class       surfaceScalarField;
    location    "0.0845";
    object      phi;
}
// * * * * * * * * * * * * * * * * * * * * * * * * * * * * * * * * * * * * * //

dimensions      [0 3 -1 0 0 0 0];

internalField   nonuniform List<scalar> 
1652
(
2.843686947071611
0.8895636090847481
0
1.954123337988149
0.8895636090834618
0
1.064559728903292
0.8895636090848025
2.664535259100376e-15
0.8895605539111329
-1.532443061336153e-10
0.1749962878077027
2.843686947076741
1.779127218162428
1.954123337998014
1.779127218162188
1.064559728910192
1.779127218168973
1.779105495110249
0.1749987665059997
2.843686947090741
2.668690827246526
1.954123338008367
2.668690827244562
1.064559728922066
2.668690827186311
2.668570058053447
0.1750051904326806
2.843686947092868
3.558254436328659
1.954123338013008
3.558254436324421
1.064559729191187
3.558254435082877
3.557874598222164
0.1750230519945571
4.418652025448567
2.872852967045247
5.279049614570542
2.872852967043177
6.139447203694204
2.872852967042502
2.872852967040012
6.99984479270973
4.418652025437511
2.012455377932159
5.279049614550977
2.012455377929712
6.139447203664236
2.012455377929244
2.012455377926207
6.999844792778096
4.418652009931085
1.152057811539611
5.279050073936722
1.152057618168113
6.137891637008392
1.152144309265845
1.15191384332756
7.001131420072085
4.436093467070863
0.2554022608160121
5.397020201316607
0.126567455967692
6.395064877583093
0.05740548154418246
7.401121182645922
0.03477380572539779
6.941512747533861
0.05833174342418224
6.883180552429956
0.05833129437823259
6.824848632573226
0.05833089767230304
0.05833151156747185
6.766516596983711
6.941520481538162
0.1166515780160378
6.883195094085662
0.1166430279659531
6.824863761885763
0.1166338245883638
0.1166406483174651
6.766536841102728
6.945877525120616
0.1703852196368931
6.889364458961919
0.1688912176423406
6.831472057158608
0.1672462888270418
0.1665771339736145
6.774373422071963
7.448455316582687
0.01994416130009774
7.480581091524461
0.01110591668970573
7.469877169689924
0.008998919440392883
7.428503266207912
-0.009326086876568884
7.429439331651974
0.01524001541562853
-0.1874889928784786
7.330165313118729
0.02766988980828905
-0.06286592019427023
7.194048747733389
0.0328070300148755
-0.009481433655608329
0.02337549792646332
7.058138887782367
-0.003899207549399042
6.779372264072391
7.146989353590261e-05
6.786998474738212
0.0001794371481208534
6.789835585253075
0.0002994697179389272
0.0002453765191015034
6.783591597393353
6.766557618139849
2.477061707417683e-06
6.766593944619409
5.293786821902735e-06
6.766608963677535
7.925300350208886e-06
6.54262714994136e-06
6.766587997313679
6.766516497432239
6.766516319104314
6.766516296206434
6.766516286744776
6.766516471511769
-2.837859559456923e-06
6.766516608833267
-5.520105678114007e-07
6.766516632361808
-3.974945772533545e-08
-7.464100448828503e-10
6.766516633038468
6.766539552657416
-0.000101179930018569
6.766519164661594
-1.994549817696534e-05
6.766516702571741
-1.743293003286794e-06
-4.814041054679308e-08
6.766516632980513
6.772930304868566
-0.01127912133720665
6.767622958771017
-0.002698918989559762
6.766574488242139
-0.000391757855510988
-1.935139187525525e-05
6.766517177590202
6.92574251621373
-0.001945456952391234
6.8202369863668
-0.002471811681626246
6.77390011908091
-0.001661452820169496
6.766769553095101
-0.0003698062604938768
2.413299637904487e-07
6.76652256258666
-2.412405667245876e-05
1.62681423887534e-10
6.766516676407912
-5.825484539201398e-11
6.766516631958116
6.766516633040515
4.690563109588375e-07
6.76649787966664
-1.489638694063267e-07
-2.249829211820042e-10
6.766516636318121
-2.193805137551408e-10
6.766516631948748
6.766516632976916
-1.539333853783909e-05
6.766616591265287
-8.479812959816257e-06
3.972318807221598e-09
6.766512950901196
3.296989647960658e-08
6.766516713851503
6.766516644746283
0.0005955773103609174
6.808099209382099
-0.09020997083512694
-5.795507785788523e-06
6.766558934825975
-2.932873378824752e-06
6.766502425613818
6.76651575767614
0.1555542801767807
6.610963734424885
0.3111019814840217
6.610955912904811
0.4627865751818626
6.6123757263348
6.835401723908062
0.1643505534913823
0.1555517423176905
6.455412368289836
0.3110683011957049
6.455422180524232
0.4539073460730105
6.459424625778918
6.713466078503706
0.1342860990939787
0.1555478643486755
6.299860915893125
0.3110028826029607
6.299901841883172
0.4434655943623148
6.309693660333883
6.629316245331569
0.08256031171767209
0.1555436864231539
6.144309054037697
0.3109142850904218
6.144356399662076
0.4316584231039118
6.157340025579411
6.56873951422019
0.0392224826180716
-0.4215089670240675
6.46417252399434
0.007851902255494037
-0.3108521567176331
6.006333082846295
-0.1555412454067923
5.988835768625993
5.988757277203177
-0.4123521360614433
6.258268667195476
0.004611949368417023
-0.3107510170945558
5.849322683240956
-0.1555362238080061
5.833272936841732
5.833205354527842
-0.4041101248481394
6.026129699960367
-0.00210660848592481
-0.3106854607735155
5.696575513658476
-0.1555340571790441
5.677760610528035
5.677653998670663
-0.3924022242729843
5.755021487166212
0.003445608421925872
-0.3104938044284242
5.541152536209185
-0.1555216327311111
5.522202286385173
5.522102913802921
0.1992706967845237
5.322802202688555
0.3979372676392396
5.32290686246288
0.5043560598237243
5.341772207701557
5.46391590686261
0.01998831031483905
0.1992580494633946
5.12350284083251
0.3976674099161425
5.12363494512532
0.4852322607247168
5.142705088259523
5.160752840299697
0.0510982030274052
0.1992428288198929
4.924197038082974
0.3974399639447944
4.924310919315859
0.4884566949146268
4.939028762223368
4.918378280480043
0.1609004952164208
0.1992999632933132
4.724896070759538
0.397907896944096
4.725316377151106
0.5298030791278294
4.744411476025633
4.706818678929293
0.3792442283668722
-0.3355533824140453
5.060308545503091
-0.6744629672694119
5.061452997324155
-1.100679202824552
5.095101373052339
4.903060326803112
-1.444886065330336
-0.3355083519596971
5.395714230064188
-0.6750199688954818
5.396564270791265
-0.9987294322400886
5.401057802025518
4.565091590363042
-0.4863630321090871
-0.3353985587843633
5.731124148660535
-0.6696052835838215
5.730757340694353
-0.9243296309441851
5.674252388876608
4.026479467428461
-0.06176417484293824
-0.3353896634503221
6.066529484650929
-0.667094451316312
6.065173767066231
-0.8269586345263334
5.911977648194704
3.533571416778496
-0.008383644567726556
0.3950377103373419
3.37641632052272
0.005030526895342585
0.3469893724558547
6.06445664881717
0.1749819199621624
6.240200601637103
6.241525172310612
0.3931088972190289
3.306571775328764
0.003366682118635368
0.3472003466879605
6.239847000870992
0.174984064073992
6.415630143232574
6.416523372074811
0.4095078446157737
3.405998241161402
0.0003571240557482189
0.3482550100633012
6.435781609545321
0.174990329185536
6.590799605562853
6.59151953078246
0.4030149374434482
3.58202469152645
0.01232340585454965
0.3481909582591333
6.638129206490773
0.1749901224510119
6.766001874679749
6.766515853816221
-0.07179717142761632
4.654700640478128
0.1646479119674012
-0.001084695555296555
6.728666692261167
-4.415678507951881e-06
6.766421418473107
6.766516492496143
-0.03162477777902128
5.57525338400692
0.1595221771328822
-0.0002799254623393477
6.757595092024395
-9.014126212125717e-07
6.766502623173856
6.766516618623788
-0.01362083325142316
6.278462030275445
0.1649452710436549
-8.460969691426179e-05
6.76624753469681
-2.347619947329349e-07
6.766521325126195
6.766516638096508
-0.007645528917336164
0.137725816719616
6.668039897024733
-4.667736100638642e-05
6.765212472339156
-1.546940326946356e-07
6.766505831735825
6.766516633198408
1.07070740962598
-0.8149182948115858
-0.05025071396193279
9.519052213136092e-12
1.982406262260184
-0.87230851420082
-7.481126829134155e-12
2.858262951186629
-0.8749504835336563
1.786126802016952e-11
-0.8749804609668654
-1.13358211706327e-11
1.072030710011832
-1.645610919628596
-0.03844442576462012
1.982420074607126
-1.744584425052149
2.858262985857935
-1.74990034428679
-1.749960919737254
1.073301252335917
-2.492434184171463
-0.03067147535817218
1.982427426233778
-2.617198592629081
2.858262994940248
-2.624852184179207
-2.624941382984193
1.0753322052282
-0.04593503039902141
-3.372309938899708
1.982459772284267
-3.491985029572561
2.858263187506247
-3.499831152919347
-3.499921983541436
-0.007645528918553635
-6.278462030281552
0.137725816718394
6.668039897021645
-4.667736462704575e-05
-6.766247534703584
6.765212472345957
-1.547076182717433e-07
-6.766521325137056
6.76650583174224
-6.766516638115649
6.766516633226613
-0.01362083325171293
-5.575253384020595
0.1649452710445598
-8.460970112178501e-05
-6.757595092028838
-2.347618046627531e-07
-6.76650262318919
-6.766516618625205
-0.03162477778901895
-4.654700640482686
0.1595221771342715
-0.0002799254717971156
-6.728666692272108
-9.014118855787956e-07
-6.766421418479581
-6.766516492495603
-0.07179717142579289
-3.582024691519737
0.1646479119647992
-0.001084695551830439
-6.638129206492047
-4.415677063329682e-06
-6.766001874672291
-6.766515853815197
-0.1749819199593436
6.241525172378928
-6.066529484644938
-0.3469893724250578
6.240200601711322
-6.065173767148694
-0.3950377103305529
6.064456648770455
-5.911977648163264
3.376416320483773
-3.533571416736013
0.005030526895006972
-0.1749840640525951
6.416523372099702
-0.3472003466693147
6.4156301432478
-0.3931088972107855
6.239847000826881
3.306571775292626
0.003366682118966673
-0.1749903291729716
6.591519530794984
-0.348255010042272
6.590799605569848
-0.4095078446062335
6.435781609523386
3.405998241144531
0.000357124056590552
-0.1749901224406247
-0.3481909582329371
-0.4030149374324554
0.01232340585360379
0.8269586345344145
-4.026479467393518
-0.008383644568590781
0.6670944513547654
-5.674252388847209
0.3353896634713442
-5.730757340729199
-5.731124148652401
0.9243296309507953
-4.565091590339431
-0.06176417484171874
0.6696052836041757
-5.401057802006072
0.3353985588004745
-5.396564270824987
-5.39571423004885
0.9987294322512906
-4.903060326794233
-0.4863630321075255
0.6750199689160753
-5.095101373045074
0.3355083519609874
-5.061452997341659
-5.06030854550294
1.100679202837761
-4.706818678927162
-1.444886065335003
0.6744629672861191
-4.744411476027468
0.335553382423144
-4.725316377155975
-4.724896070764518
0.1992706967881475
5.322802202705684
-5.52210291382492
0.3979372676517356
5.322906862464492
-5.522202286414915
0.5043560598340671
5.341772207673918
-5.541152536197465
5.463915906840444
-5.755021487143583
0.01998831031650483
0.1992580494679643
5.12350284084737
0.3976674099278068
5.123634945139479
0.4852322607322005
5.142705088242309
5.160752840283011
0.05109820302621038
0.199242828826662
4.924197038093708
0.3974399639599107
4.924310919325213
0.4884566949205983
4.939028762216046
4.918378280471952
0.1609004952145588
0.1992999632975657
0.3979078969590775
0.5298030791336733
0.379244228368671
-0.3924022242618017
-6.026129699954418
0.003445608429274771
-0.3104938044141282
-5.696575513598996
-0.1555216327242436
-5.677760610554142
-5.677653998690561
-0.4041101248334484
-6.25826866718214
-0.002106608484724437
-0.3106854607595704
-5.849322683192933
-0.1555340571723178
-5.833272936617152
-5.833205354541896
-0.4123521360667952
-6.464172523933326
0.004611949359906053
-0.3107510170771635
-6.006333082913373
-0.155536223800352
-5.988835768617669
-5.988757277207168
-0.4215089670190319
-6.568739514237588
0.007851902252055232
-0.3108521567074585
-6.157340025578975
-0.1555412454011049
-6.144356399724392
-6.144309054037607
0.1555542801776784
6.610963734433129
-6.766515757684558
0.3111019814852152
6.610955912906198
-6.766502425603393
0.4627865751848964
6.612375726311301
-6.76655893482424
6.835401723921935
-6.808099209381902
0.1643505534856621
0.1555517423174388
6.455412368281014
0.3110683011957604
6.455422180532365
0.4539073460668462
6.459424625805434
6.713466078486487
0.134286099102727
0.1555478643486748
6.299860915892502
0.3110028826031465
6.299901841857705
0.4434655943707992
6.309693660321359
6.629316245352565
0.08256031170211986
0.1555436864213525
0.3109142850869339
0.431658423089773
0.03922248264376604
-6.766516644748615
2.932876123962203e-06
-6.766516632977462
-3.296820560994007e-08
-6.766516633040261
2.160489565028456e-10
5.969347238732325e-11
-6.766516633037631
-6.766516713848351
5.79550235091375e-06
-6.766516631956773
-3.972337681013016e-09
-6.766516631965025
2.272974031214403e-10
-1.62654778534943e-10
-6.766516632976379
-6.76651295091196
-0.0005955773109473927
-6.766516636315624
1.539334141581472e-05
-6.766516676406035
-4.690578704891202e-07
-2.413307640392048e-07
-6.766517177588193
-6.766616591272184
-0.09020997083408183
-6.766497879668089
-8.479833653374236e-06
-6.766522562584838
-1.489636278773077e-07
-6.766769553091097
-2.412405558904762e-05
-7.467333418276212e-10
-6.766516632350199
-4.8140781250261e-08
-6.766516702572551
-1.935139385522699e-05
-6.766574488241553
-6.773900119080465
-0.0003698062598084806
-3.974928297623137e-08
-6.766516608835685
-1.743293125744394e-06
-6.766519164659845
-0.0003917578544598843
-6.767622958772275
-6.820236986372359
-0.001661452823283227
-5.520107601020285e-07
-6.766516471512384
-1.994549776296317e-05
-6.766539552656682
-0.002698918987949162
-6.772930304862314
-6.925742516216491
-0.002471811679621794
-2.837860475168874e-06
-6.76651628674404
-0.0001011799330919994
-6.766587997321677
-0.01127912133605141
-6.78359159739157
-7.058138887783839
-0.001945456950348978
-2.477068797968052e-06
6.766516497420163
-6.766516596967347
-7.146990515771723e-05
6.766557618118109
-6.766536841076967
-0.0152400154282093
6.779372264105202
-6.774373422091267
7.429439331660304
-7.428503266228272
-0.1874889928791528
-5.293790203420023e-06
6.76651631909482
-0.0001794371547987339
6.766593944616462
-0.02766988980853924
6.786998474768267
7.330165313123546
-0.06286592019579273
-7.925304110645293e-06
6.766516296201918
-0.0002994697256385459
6.766608963683202
-0.03280703001889118
6.789835585264382
7.194048747736805
-0.009481433655603111
-6.542633521289254e-06
-0.000245376531091468
-0.02337549792982108
-0.003899207551683881
-0.166577133975679
-7.469877169702847
-0.009326086876082385
-0.1166406483350572
-6.831472057123539
-0.05833151156936167
-6.82486376188302
-6.824848632558659
-0.1672462888359086
-7.48058109154834
0.008998919437561148
-0.1166338246079981
-6.889364458848956
-0.05833089767807487
-6.883195094108143
-6.883180552404403
-0.1688912176651664
-7.448455316592792
0.01110591669322758
-0.1166430279831967
-6.945877525049874
-0.05833129437974816
-6.941520481565862
-6.941512747529842
-0.1703852196624973
-7.401121182632445
0.0199441613020736
-0.1166515780401418
-7.001131420223639
-0.05833174343078396
-6.999844792821265
-6.999844792706547
-1.151913843306972
-6.395064877564032
0.03477380572249211
-2.01245537791096
-6.137891636993724
-2.872852967039927
-6.139447203692224
-6.139447203691335
-1.152144309259341
-5.397020201313854
0.05740548154192648
-2.01245537791648
-5.279050073929222
-2.872852967042259
-5.279049614566445
-5.279049614567438
-1.152057618167962
-4.43609346709615
0.1265674559685988
-2.012455377921992
-4.418652009929574
-2.872852967044603
-4.418652025443835
-4.418652025446893
-1.152057811537104
-3.557874598272911
0.2554022608146264
-2.012455377927508
-3.558254435082178
-2.872852967046921
-3.558254436324423
-3.558254436328661
2.843686947076677
0.8895636090796828
1.954123337995112
0.8895636090815642
1.064559728908979
0.8895636090860386
0.889560553728362
0.17499628786043
2.843686947077599
1.7791272181565
1.954123337999196
1.779127218159969
1.064559728911168
1.779127218170315
1.779105495099465
0.1749987664734622
2.843686947089469
2.668690827241873
1.95412333800662
2.668690827242819
1.064559728920478
2.668690827189828
2.668570058019859
0.1750051904270654
2.843686947088214
1.954123338006611
1.064559729185371
0.175023051999136
0.1749961081005399
0.1749961081343762
0.1749957798629164
0.1749979289718983
0.1749962087484966
0.174997622246344
0.1749077589216214
0.1750253575616117
0.1749979290357713
0.1749957798785392
0.1749971183682024
0.1749971183289791
0.1750026902486443
0.1749882299913302
0.1743650587499079
0.1752805254399783
0.1749976221603136
0.1749962087630236
0.1749882298560383
0.1750026901922288
0.1749319759895749
0.1749319762178722
0.1721646073618261
0.1761681499550226
0.1749077589687367
0.1750253575602548
0.1743650587859512
0.1752805253944323
0.1721646074342522
0.1761681500438766
0.1714689462790684
0.1714689463472026
-0.07676032504306923
0.2454820283338391
-0.1432378135755556
0.2388071982408081
-0.2106275936205719
0.2387783041592399
0.216782655306635
-0.01638989857757744
0.2619118970857785
-0.03936649595868835
0.2604343453464108
-0.07299903067699187
0.2694010510313087
0.2655123786722972
-0.006070330070083396
0.2695323178513558
-0.02101890256468553
0.2746871336191571
-0.0367294042009978
0.2817996554255839
0.2835319655089177
-0.004626920809120416
0.2722607689319954
-0.01822050504728789
0.2875482420264808
-0.02767070608577804
0.2915512122945179
0.2918573973036775
0.2954765317862339
0.01791527581024932
0.2989856172449131
0.00997990807014032
0.3009816268916491
0.008135283092895518
-0.009604591007349894
0.3018767748693286
0.2976850719011733
0.01284073334232688
0.3022012954761744
0.006182813882652238
0.3053263700227504
0.004685939154052798
-0.01543303642425886
0.3119928824968118
0.296230450614426
0.004581255709530163
0.3014901561196438
0.002343758197428825
0.3056793151697584
0.001274510693019593
-0.03985799188217976
0.3308815356684338
0.27694585048526
0.2832860953795303
0.2889671911169607
0.2531636326071833
0.2800344393745795
-0.1641382434329356
0.2581649870357169
-0.04304422400877395
0.2470643700541266
0.0004555643036089907
0.002622640154475941
0.2437116724882268
0.2733058256450484
-0.1237667764196465
0.2568950930779313
-0.02446377999703464
0.2503390350962102
0.00793237418564624
0.008176893197558266
0.247060263324684
0.278191405335305
-0.0695304107783733
0.261252842269208
-0.001589523100098522
0.2539377819733075
0.01627343710771728
0.01327409134353885
0.2498636540697534
0.1853326487297205
0.1882574851026077
0.2081137868669455
0.2241734838763935
0.2419582200152642
0.0006820149055457581
0.2377086622590681
-0.001290446963335579
0.2343889224428148
-0.001187302821392233
-0.0003166875618614839
0.2334239112998708
0.2437212556704644
0.003667338156172761
0.2390017242304754
0.0008630844433096252
0.2350046963186789
0.0002927994604528528
0.0001008886813910759
0.2335189245550711
0.246159498320945
0.006907708531972701
0.2409615703185656
0.003659333231078477
0.2359018115482142
0.002650753644413417
0.000968687264686241
0.2336620336829067
0.2319614896698322
0.2328133428909654
0.2329319288359738
0.2332103964247892
0.2333301527347758
-2.46158965942489e-05
0.2333275191635301
2.106147217739718e-08
0.2333275106804797
-3.527576217077222e-06
-0.1125386820965406
0.2457076395893294
0.2333331345268919
1.301084329119462e-05
0.2333279539806825
6.844280965312421e-07
0.2333279286054579
-7.047969616813532e-07
-0.1101080799755803
0.2178351449301725
0.2333380022698054
0.0001187792044644032
0.2333284248368856
3.584686369018097e-06
0.2333282861313524
-5.541785225160467e-08
-0.07462758326972579
0.18565215234509
0.2333201074282332
0.2333285534180435
0.2333286120356373
0.1454164305799439
0.2744192574910158
0.1251767596184471
0.2817206248372025
0.1123899544562861
0.2871634556475459
0.07051422042258315
0.03461344253882825
0.2946096623911016
0.2561073715768982
0.08135786377355303
0.2784155288837522
0.08133051754356346
0.2904452397486897
0.05567681493031806
0.0310920569099955
0.2996512277252712
0.2136060258208137
0.05285922938528698
0.2566835327468234
0.03441983748842448
0.2870823599752412
0.02140467066514995
0.01862244759375764
0.3008456541676151
0.2003228195989349
0.2314635786809766
0.2483257776758892
0.2694006371808196
0.3014734763153044
0.004831917666270558
0.3047836799306787
-0.0006047431070567155
0.3049210041764679
-0.007335206602224087
-0.003683088617699282
0.3050617761347352
0.3074479958570834
0.006152133534307991
0.3127469950013624
-0.001159353364943327
0.3135438395615807
-0.006463616403172612
-0.004407696246364723
0.314078746502042
0.3109616595186528
0.005120061435802459
0.3170490568838956
-0.0006238493235171116
0.3184688845890491
-0.005184747653610655
-0.003528992485414384
0.3186268710964505
0.2853338658842178
0.2950092327086365
0.296388849758141
0.2977174490825292
0.3089299243848477
0.009403627629511746
0.3212952251130565
0.03535003579745388
0.3509575725611273
0.1279985709049242
0.2979248039165971
0.4288224600994823
0.3189251392495988
0.005296639433481021
0.3331788016556949
0.0272389048529883
0.3607555509220703
0.1100775499434211
0.1946641574351862
0.4714709859357969
0.3246293237887509
0.001636704757395635
0.3394586824059902
0.02010404186382608
0.3760115634568731
0.08595927560805594
0.05099749314067425
0.5345533952726795
0.3045528346530033
0.331404493713755
0.4270928489730114
0.4971475873732163
0.2333188880198523
-1.246717313426918
0.03073107031248653
-0.2707039157419256
0.005097479687328437
-0.02574589185896768
-0.006792650921554524
1.606342672716074e-05
0.1587926632152006
-0.9277307566997336
0.01699560713080063
-0.1211690974073602
0.005738930023293185
-0.01156160473302472
-0.006910545504938755
0.0001427232354005922
0.08428482952834275
-0.4722225767532497
0.008654497337620987
-0.03824369688555238
0.004303082604985615
-0.002199884388887782
-0.005806578783630938
0.0009077930179171318
0.03059952975806236
-0.00218978268029848
0.003488811648526718
0.001382846704673759
0.0002045185741190152
0.002107996722399634
0.000299425497373669
-0.0004636725599676886
0.002335565989591126
-0.003714676887362579
-0.002368713568042392
0.015301247960977
-0.002688139900122764
-0.001534682953403713
-0.00369678852354063
-0.005240846042874114
-0.0007015813951899309
-0.009377244741924071
-0.006215599316833346
0.001098144753787987
-0.002232132550888034
-0.004046250833299181
-0.003362429413503027
-0.006766082961138224
-0.00272734839697325
-0.009110260121959451
-0.003327586752938282
-0.006522535281233597
-0.002550068021423843
-0.003694424709312732
-0.006162851540566162
-0.01057343198327833
0.1042767584760577
0.08923758812271207
0.1662786580713476
0.1250635162512638
0.2049607599576721
0.1536218957452792
0.1278839596746081
0.2322798579874559
0.06373909236730529
0.02494578122154331
0.1340482553317931
0.06768219313337162
0.1836664873669265
0.123538580376449
0.1001128963363089
0.2244378267092598
0.0182417318450366
0.001282410964755995
0.08333791313317589
0.01363992578408976
0.150123640696786
0.07077469713917919
0.06503512123276214
0.2072986488060908
-0.008060173186094789
0.01393497770824158
0.09807109204561687
0.1749408299152255
0.1858645938862767
-0.2358446607475868
0.2953760457401619
0.1394850086340556
-0.162588885148346
0.2092930264276996
0.1182261019709857
-0.09845774806853463
0.1518556574453444
-0.07030828925206825
0.09696027840973535
0.1337290005695629
0.1709608923003491
-0.1763417804849938
0.1219635220367103
-0.1093222761913981
0.07377860877907386
-0.05096567511504838
-0.02996997025391116
0.0399204875223554
0.1445763933846805
-0.1039078160185816
0.07970839685894224
-0.04033686054640513
0.04232853813939111
-0.01664054182230998
-0.006926528602222868
0.02014356918385177
0.07484690752583972
0.04015644851952272
0.02038167717874291
0.009001530022294486
0.001250650347031257
0.004857084314708519
-0.01617478943977108
-0.0009117344740459526
-0.01635841378859249
-0.009651962915288845
-0.01720333328482057
1.942890293094024e-16
0.007713289253532388
0.01231207578185532
-0.01295124544800229
0.001614547480968842
-0.01307732412261211
-0.008453668108952882
-0.0140237085830364
7.850664562880638e-14
0.0330396132161845
0.0208256420051495
0.01731925877086879
0.008403067070465214
0.006195656098823388
0.01097897432574521
0.01872544120787655
2.32314167902814e-14
0.07763568009280017
0.04905855933613509
0.01957006081618501
2.193523140903153e-13
-0.01720333328481282
0.01635841378859556
-0.01402370858301358
0.01307732412279242
0.018725441207873
-0.00619565609865283
-0.01957006081563652
0.05025071396185747
-0.009651962915274259
0.01617478943979128
-0.008453668108943758
0.01295124544813592
0.0109789743258127
-0.01731925877039912
-0.04905855933552645
0.03844442576475172
-0.0009117344740397371
-0.001250650347086307
0.001614547480986581
-0.007713289253466031
0.008403067070553799
-0.0330396132160299
-0.07763568009239141
0.03067147535836734
0.004857084314699267
-0.009001530022320684
0.01231207578184403
-0.02014356918372604
0.02082564200523558
-0.03992048752231596
-0.09696027840914789
0.04593503039897183
-0.1182261019702888
-0.0703082892519377
0.1337290005691393
-0.1394850086337565
-0.09845774806823672
0.1518556574451799
-0.1858645938860913
-0.1625888851486368
0.209293026428221
-0.2358446607478773
-0.2322798579873916
0.2953760457401897
-0.07377860877902369
-0.02996997025397618
-0.1219635220363288
-0.05096567511504152
-0.1709608923000893
-0.1093222761914431
-0.1763417804852747
-0.2244378267091984
-0.04232853813937655
-0.006926528602241881
-0.07970839685892503
-0.0166405418223251
-0.1445763933846114
-0.04033686054643775
-0.1039078160186846
-0.2072986488061511
-0.0203816771787658
-0.04015644851954927
-0.07484690752585674
-0.1749408299152945
-0.09807109204588033
-0.06503512123234034
-0.01393497770815256
-0.07077469713920218
0.00806017318655395
-0.01363992578379586
-0.001282410963863556
0.01057343198328055
-0.1501236406970902
-0.100112896335611
-0.08333791313307345
-0.1235385803767786
-0.01824173184432751
-0.06768219313340304
-0.02494578121991298
0.006522535281448786
-0.1836664873671513
-0.1278839596734843
-0.1340482553318691
-0.1536218957461739
-0.06373909236650382
-0.1250635162521637
-0.08923758812008857
-0.001098144753757737
-0.2049607599577099
-0.1662786580713783
-0.1042767584756276
-0.01530124796064569
-0.002335565989932415
-0.002368713568386863
-0.0002994254972973846
-0.003714676886966799
-0.0002045185739068135
-0.0004636725597646496
0.002107996722070106
-1.606342672058267e-05
0.0007015813950671992
-0.006215599317151269
0.003696788523528016
-0.009377244741669157
0.002688139900230093
-0.005240846042701044
-0.001534682953617923
-0.0001427232353222365
0.002727348396926286
-0.003327586753014262
0.003362429413490815
-0.009110260121805512
0.002232132550950392
-0.006766082961003575
-0.004046250833365919
-0.0009077930177900703
0.006162851540498218
0.00369442470922951
0.002550068021466739
-0.001382846704444619
-0.005097479687203909
-0.006792650922885217
-0.03073107031166321
-0.02574589185938103
-0.2333188880183304
-0.270703915740778
-1.246717313429286
-0.428822460099856
-0.005738930023377236
-0.006910545505907598
-0.01699560713057355
-0.01156160473341285
-0.1587926632140524
-0.1211690974069658
-0.9277307567009355
-0.4714709859357711
-0.004303082605099774
-0.005806578784159168
-0.008654497337567551
-0.002199884389021363
-0.08428482952781721
-0.03824369688548595
-0.4722225767543394
-0.5345533952726662
-0.003488811648551459
0.002189782680200732
-0.03059952975798735
-0.497147587374377
-0.3509575725609423
0.2979248039181748
-0.3212952251118373
0.1279985709058639
-0.3089299243835882
0.03535003579620333
0.009403627630931277
-0.3050617761339713
-0.3607555509216084
0.1946641574355569
-0.3331788016546952
0.1100775499473083
-0.3189251392493737
0.02723890485323222
0.005296639436013439
-0.3140787465026355
-0.3760115634572453
0.05099749314038315
-0.3394586824066638
0.0859592756119919
-0.3246293237893942
0.02010404186446946
0.001636704759142016
-0.3186268710973681
-0.4270928489757249
-0.3314044937166256
-0.3045528346561323
-0.2977174490853494
-0.3049210041766318
-0.003683088610560104
-0.3047836799302566
-0.007335206600539323
-0.3014734763126034
-0.0006047431150627558
0.004831917662730834
-0.2946096623929089
-0.3135438395620247
-0.004407696239904779
-0.3127469950008671
-0.006463616401441885
-0.3074479958548094
-0.001159353371835037
0.006152133533333326
-0.2996512277295567
-0.3184688845897827
-0.003528992480918647
-0.3170490568831463
-0.005184747652454802
-0.3109616595178465
-0.0006238493282476609
0.005120061437600576
-0.3008456541726612
-0.2963888497592816
-0.2950092327082466
-0.2853338658848147
-0.2694006371819687
-0.287163455646707
0.03461344255939081
-0.2817206248367128
0.07051422041016842
-0.2744192574926387
0.1123899544662098
0.1251767596124013
-0.2457076395892208
-0.2904452397486097
0.03109205692551287
-0.2784155288832155
0.05567681492099075
-0.2561073715764179
0.08133051755121812
0.08135786376952581
-0.2178351449303339
-0.2870823599754783
0.01862244760337095
-0.2566835327470069
0.02140467065957019
-0.2136060258194063
0.03441983749304822
0.05285922938231979
-0.1856521523441982
-0.2483257776731678
-0.2314635786813055
-0.2003228195975065
-0.1454164305798749
-0.2333275106770799
-0.112538682097551
-0.2333275191605769
-3.527586807439143e-06
-0.2333301527350142
2.106239177512848e-08
-2.461589578045542e-05
-0.233423911299628
-0.233327928603156
-0.1101080799779596
-0.2333279539785156
-7.048014997179664e-07
-0.2333331345273369
6.844287461227339e-07
1.301084355298521e-05
-0.233518924554717
-0.23332828612971
-0.07462758327208535
-0.2333284248355378
-5.541954989363163e-08
-0.2333380022701915
3.584687101709783e-06
0.0001187792041155156
-0.23366203368233
-0.2333286120354895
-0.2333285534179051
-0.2333201074289142
-0.2332103964254613
-0.2343889224430827
-0.0003166875608703879
-0.2377086622594087
-0.001187302824513126
-0.2419582200160642
-0.001290446960414582
0.0006820149061807501
-0.2437116724885887
-0.2350046963184331
0.0001008886824427346
-0.2390017242308542
0.0002927994578387216
-0.2437212556699681
0.0008630844456978259
0.003667338156765176
-0.2470602633245601
-0.2359018115479325
0.0009686872657970746
-0.2409615703187201
0.00265075364265327
-0.2461594983201414
0.003659333232677642
0.006907708532964685