/*--------------------------------*- C++ -*----------------------------------*\
  =========                 |
  \\      /  F ield         | OpenFOAM: The Open Source CFD Toolbox
   \\    /   O peration     | Website:  https://openfoam.org
    \\  /    A nd           | Version:  11
     \\/     M anipulation  |
\*---------------------------------------------------------------------------*/
FoamFile
{
    format      ascii;
    class       volScalarField;
    location    "0.1065";
    object      p;
}
// * * * * * * * * * * * * * * * * * * * * * * * * * * * * * * * * * * * * * //

dimensions      [0 2 -2 0 0 0 0];

internalField   nonuniform List<scalar> 
880
(
80
80
80
80.00022649967507
80
80
80.00000000000385
80.00104227576642
80
79.99999999999999
80.00000000315627
80.0054924368919
80
80
80.00000009423913
80.0103726298274
80
80.00000000000001
79.99999999999994
80.00000000001295
79.99999999999999
80
79.99999999999983
80
79.99999918048631
80.0000036822685
80.02503711191892
79.95326383664373
80.86639804619038
83.40077149557723
85.47673194239502
86.38510590367402
80.0000044157032
80.00001678621814
80.00002054204148
80.0000120517544
80.00009127451709
80.0002452199478
80.00060079779979
80.0004130891222
80.05317404209984
80.10987432001269
80.18096473479817
80.180878846513
87.41025165821429
88.72501817288767
90.08233369659031
91.63772866032932
90.84445058404462
88.42651728567088
86.53461667648625
85.25312031754794
80.31330683785671
80.59348513414217
80.75759244299014
80.66665840123223
80.00120777285055
80.00317759382465
80.00632430556773
80.00674197203774
80.00005030181443
80.00011600551169
80.00020540119256
80.00019856197004
80.0001246835871
80.00003820813234
80.00000421798548
80.00000010758332
80.00527820937752
80.00259573469866
80.00060211931998
80.00005560646822
80.51726071065937
80.30648586809551
80.10526176677105
80.01847819273372
83.97743461941485
82.75458166957344
81.6080997080816
80.6503123315691
80.13407907333777
80.00130525165173
80.0000017964997
80.00000000237877
80.01206401937
80.00010809239167
80.00000013327787
79.99999999714402
79.99780418477954
79.99973507917313
80.00000008188601
80.00000036381611
81.81554449139888
80.00718334737729
79.99973362857747
79.99997872204176
79.99996864367952
79.99987665179026
80.05873019829103
95.59705651280825
79.99999273933422
80.00048912152617
80.30584227732251
108.813656147611
80.0000655721164
80.00156887137021
80.59604344087685
115.8133794142587
80.00017774197009
80.00450440745126
81.07367488434922
122.4305118654992
128.3217131467607
81.46700555220424
80.00595342622755
80.00024782225907
135.4158338662334
82.08073412764868
80.01069429452518
80.00042052540182
140.2017218955076
82.42495480317299
80.01194332402623
80.00045542660064
145.715139618754
83.10979430452036
80.01997970174465
80.00082292644683
80.00088856574261
80.02255238262724
83.84529052473037
151.5079535037994
80.0013336117913
80.03361177942367
84.88739455008384
153.5555519526598
80.00237277689324
80.04633016070711
85.18626562150412
145.5074689523724
79.99978608392026
80.01760623925388
83.04316518865394
123.488459719993
80.00455034858177
80.11376139955628
83.49900183326085
96.86341844686375
80.00493956136881
80.12720146024081
81.25169492611867
70.3742049294159
79.99958444001592
80.0354841406178
79.78645168418879
57.44566644646928
79.99876098035061
79.93740041634052
77.78098238801189
50.63188904580739
48.71248946793835
76.93239677909148
79.91668020964629
79.99946383464713
46.25981993485156
76.56881500857253
79.92155813080518
79.99964476343847
44.63389605957757
76.71740694528793
79.95337384112213
79.99985713028673
41.9492476543773
76.48651932297183
79.95368564971373
79.99985725080884
48.82102331338487
78.16219006516111
79.98459072379127
79.99995198613198
57.16413934291575
79.28524315376507
79.99608214802994
79.99998940698207
63.61132020049001
79.69563188016346
79.99870797496337
79.99999702587849
69.36804291048304
79.88948058170465
79.9996087742814
79.99999846282128
71.48999824469
79.52161051140736
79.99195768505842
79.99994725791453
72.01715006751171
79.53606411105586
79.99203238372043
79.99994744902003
72.73441816882516
79.54757576426171
79.99197435300242
79.99994730691894
73.88452788189809
79.60263033886375
79.9919861993498
79.99994887947658
69.36804291032895
79.88948058129415
79.99960877376323
79.99999846347647
63.61132020008075
79.69563187971978
79.99870797355653
79.99999702591501
57.1641393426501
79.28524315412152
79.99608214797927
79.99998940713925
48.82102331359135
78.16219006617368
79.9845907238047
79.99995198577186
79.99946383491702
79.9166802107955
76.93239677965234
48.7124894678222
79.99964476388055
79.92155813132574
76.56881500903395
46.25981993510986
79.99985712949099
79.95337384211552
76.71740694499591
44.63389605971127
79.99985725106139
79.95368564992579
76.48651932419777
41.94924765408075
50.63188904508405
77.78098238709683
79.93740041535858
79.9987609805152
57.4456664455172
79.7864516834033
80.03548413963151
79.99958443783905
70.37420492928365
81.25169492525271
80.12720146041346
80.00493956133856
96.86341844706635
83.4990018330365
80.11376139902887
80.00455035023778
80.00088856521445
80.02255238419664
83.84529052576299
151.5079535051292
80.00133361194992
80.03361177965479
84.88739455019419
153.5555519526773
80.00237277761089
80.04633016067665
85.18626562068317
145.507468952292
79.99978608579333
80.01760623936072
83.04316518807002
123.4884597198471
145.7151396205942
83.10979430291228
80.01997970303863
80.00082292645281
140.2017218969411
82.42495480548806
80.01194332383588
80.00045542694792
135.4158338659877
82.08073412958068
80.01069429703911
80.00042052497638
128.3217131480813
81.46700555007681
80.00595342601375
80.00024782192898
79.99996864462344
79.9998766526119
80.05873019860603
95.59705651158282
79.99999273873658
80.00048912048074
80.30584227709468
108.8136561480283
80.00006557150712
80.0015688713918
80.59604344169844
115.8133794142747
80.00017774129634
80.00450440726335
81.07367488385661
122.4305118659718
79.99997872172224
80.00000036422917
79.99999999722723
80.0000000023098
79.99973362760386
80.0000000819163
80.00000013425621
80.00000179592401
80.00718334766057
79.99973507947246
80.00010809175131
80.00130525135478
81.81554449169296
79.99780418511691
80.01206401903511
80.13407907342005
80.00000010668877
80.00005560658438
80.01847819329089
80.65031233190055
80.00000421781716
80.00060211897934
80.10526176837098
81.60809970823989
80.00003820871216
80.00259573475718
80.30648586727655
82.75458166951746
80.00012468389228
80.00527820924772
80.51726071140209
83.97743461907805
80.0000503006821
80.00120777186282
80.31330683729018
90.84445058385772
80.00011600451448
80.00317759390904
80.59348513418614
88.42651728489885
80.00020540078796
80.00632430670768
80.75759244309037
86.53461667613203
80.00019856159808
80.0067419728085
80.66665840135845
85.25312031697437
91.6377286608202
80.18087884742181
80.00041308849589
80.00001205119224
90.08233369684454
80.18096473593373
80.00060079767067
80.00002054201613
88.72501817392026
80.10987432050679
80.00024522008694
80.00001678619276
87.41025165795509
80.05317404168736
80.0000912741549
80.00000441602543
86.38510590386427
79.95326383737381
80
80.00000000018113
85.47673194213405
80.02503710914793
80
79.99999999999999
83.40077149589435
80.00000368204783
80
79.99999999999999
80.86639804580065
79.99999918010631
80
79.99999999999989
80
79.99999999999997
80
80.00022649859669
80.00000000000003
80.00000000000001
79.99999999998791
80.00104226811929
80
80
80.00000000322075
80.00549243482334
80
80
80.00000009371543
80.01037262920501
80.00040466653365
80.00164964937117
80.00926986994529
80.20179406278463
80.00164967416119
80.00193651701838
80.00679505028391
80.78787561824575
80.0092698652313
80.00679503345258
80.30064379894449
85.11776800702677
80.20179405014586
80.78787561328868
85.1177680617031
102.789013120482
132.9293208708197
111.850870602577
100.4483615683448
89.37700239908801
127.8536354768565
123.3084619449674
120.8306838254843
111.6905151535621
124.9253708659075
123.6203907177866
123.4433015166811
119.2642869356058
125.5533303311605
124.2789558122308
123.9477339068668
121.2892565547704
123.1933792613567
123.9070452533289
125.0413181925647
127.7310820009821
124.5464887493812
125.2370135828873
126.2273258223893
129.2549587791026
124.9245245458964
125.3286886618491
126.2840609469203
128.6706056870007
125.305865412494
125.2378702818563
126.2053070154187
126.9219944436669
107.2644145380667
86.99031493212952
81.64677900042727
81.47257837295032
97.59348162284432
79.47308287393152
79.3912418915299
81.13216051156692
87.98791408094839
76.02030846139441
80.20326969382864
82.22145415315089
69.18636074434184
70.78232655410241
78.97121400488055
81.64268557586414
81.65527682513978
81.97818167119908
82.08293874203072
81.36100290501922
81.59900782351939
82.10912512271564
82.02794358733044
81.2657027469629
82.39362154548292
82.55485614703865
82.2912571753273
81.42271982203276
81.87339089469413
81.98277975477501
82.00191109815485
81.07083589149721
80.48026666138048
80.08109921216611
79.99784954510118
103.7329339208873
80.49663939407878
80.10591723763514
79.99554112516623
116.4651536055464
80.60307556867139
80.13961290064516
80.01067901229325
122.7995023245052
80.331086106244
80.04099849636
80.0126806484721
125.7749896699854
194.386398438914
207.2419708224684
208.069351969991
208.7089455755043
217.0896117932083
217.5997881917516
213.0863227604284
211.268957071552
215.1838396737745
211.7511944620859
213.29341018543
211.7691386978571
227.5575152951162
218.7867797171099
214.2361150759334
212.1427824897725
209.5645921008609
215.5493631924018
219.1490381418865
222.4399925614547
210.8790614339675
215.9931088058311
219.0552222562163
222.0678811611396
210.8155297753961
215.2704054385622
218.7308274249513
221.9059321600892
210.6792673114994
214.826999251702
218.0990657515103
221.4946204155137
221.6840865058645
214.8034551337406
198.1111273583209
165.0091415325941
220.8844392902648
214.5244559477093
197.7811316687666
174.4925987385505
221.2374201657439
215.2111081819112
199.4615707287707
185.7361959414039
221.0854926839907
216.3552098242685
201.8506902286738
206.3071897679193
100.5434867168552
20.79819630253308
6.321419463308048
7.927943698161827
77.37751165819317
12.1632841353439
7.031606066650593
8.006749179470601
52.10616865205406
6.888090454526878
6.105597080582873
8.42513304159727
29.05121619510102
3.486491411258464
6.991778958384837
8.649140961225275
9.806546189187367
10.67840552585438
10.83730650593274
9.412332654501256
9.547426234719136
9.855412201544972
9.355376458801228
8.088034258963269
9.759059389734949
9.622883268275045
8.892447064681905
8.516240989428631
9.646101660208457
9.02062664899821
8.364696659080703
9.770675615412207
21.18807081557771
30.79731219674701
38.02256867047004
48.78337961053049
20.80244281594388
29.86665577683511
35.40268064292138
46.92531955405951
18.67137207854051
29.10050799581754
36.27595073818934
45.32623819677571
14.44053448494783
23.89771983944764
32.24584948735064
43.75481369425454
34.43706796259835
22.21362327594044
10.20275917921308
7.453901814933591
31.36173484491245
17.73312941417381
7.498778906390263
8.671086526455282
24.39008183432306
10.86238831741734
4.129878131060457
10.27446531111309
16.40031182510299
5.152510397432492
2.979940374019804
12.08869974916479
17.36489412743782
16.99696322880304
17.68666351646996
18.26682144256347
15.88761575576202
15.57699544283621
15.67892389520612
15.68905641648138
16.0488604633331
17.94918024328797
17.90519953937949
17.75012823157126
19.81793899701798
31.26959671947045
31.0441742789151
29.42695608170591
18.26682144256601
15.68905641647552
17.75012823157084
29.4269560816863
17.68666351647517
15.67892389519064
17.90519953938548
31.04417427886738
16.9969632288051
15.57699544283594
17.94918024329546
31.26959671939856
17.36489412744114
15.8876157557915
16.04886046336703
19.81793899691592
7.453901814880918
10.20275917914309
22.21362327579258
34.43706796234284
8.67108652643552
7.498778906352766
17.73312941416222
31.36173484474689
10.2744653111452
4.129878131039269
10.86238831735076
24.39008183428759
12.08869974916865
2.979940374025374
5.152510397423983
16.40031182505979
43.7548136941513
32.24584948726068
23.89771983924017
14.44053448473244
45.32623819670768
36.27595073815947
29.10050799565968
18.67137207827559
46.92531955398509
35.40268064289734
29.86665577673396
20.80244281569582
48.78337961042403
38.02256867037568
30.79731219658396
21.18807081538765
9.412332654380016
10.83730650601986
10.67840552588829
9.806546189122125
8.088034258914144
9.35537645887154
9.855412201573747
9.547426234677697
8.516240989395227
8.89244706475389
9.622883268318585
9.759059389680145
9.77067561535608
8.364696659130209
9.02062664904021
9.64610166013377
7.927943698036855
6.321419463168159
20.79819630232477
100.5434867167596
8.006749179368692
7.03160606652221
12.1632841352317
77.37751165774347
8.425133041471891
6.105597080456217
6.888090454487954
52.10616865183572
8.6491409610513
6.991778958194723
3.486491411188384
29.05121619499238
165.0091415323719
198.1111273584685
214.8034551340233
221.6840865069207
174.4925987384059
197.7811316690377
214.5244559482021
220.8844392915842
185.7361959412883
199.4615707289833
215.2111081826194
221.2374201669786
206.3071897677436
201.8506902290058
216.3552098249641
221.0854926852529
222.4399925630941
219.1490381421272
215.549363191489
209.5645921025014
222.067881162452
219.0552222560412
215.9931088050546
210.8790614355954
221.9059321610223
218.7308274246737
215.2704054380849
210.8155297772494
221.4946204164391
218.0990657511871
214.8269992511303
210.6792673138035
208.7089455782302
208.0693519678198
207.2419708232761
194.3863984376795
211.2689570753154
213.0863227575182
217.5997881928092
217.0896117918607
211.7691387016538
213.2934101816327
211.7511944624637
215.1838396715384
212.1427824918392
214.2361150722626
218.7867797178062
227.5575152915974
103.7329339197769
79.99784954316121
80.08109921361385
80.4802666612091
116.4651536034368
79.99554112249564
80.10591723969961
80.49663939357059
122.799502321332
80.0106790102116
80.13961290331743
80.60307556773112
125.7749896658662
80.01268064624647
80.04099850076298
80.33108610417534
81.36100290513802
82.0829387417614
81.97818167092314
81.65527682513746
81.26570274700778
82.02794358712153
82.109125122555
81.59900782341106
81.42271982217881
82.29125717512969
82.55485614705044
82.39362154520833
81.07083589197423
82.00191109777133
81.98277975509029
81.87339089435497
81.47257837230363
81.64677900017612
86.99031493167797
107.2644145382272
81.13216051084416
79.39124189135673
79.47308287352412
97.59348162298281
82.22145415249217
80.2032696937318
76.02030846108238
87.98791408099044
81.64268557517664
78.97121400491086
70.78232655372615
69.18636074407623
127.7310820006893
125.0413181914596
123.9070452538174
123.1933792630086
129.2549587782379
126.2273258215144
125.2370135838941
124.5464887509729
128.6706056860047
126.2840609461768
125.3286886627584
124.9245245472075
126.9219944431275
126.2053070150845
125.2378702830237
125.3058654129958
121.2892565547728
119.2642869353996
111.6905151519238
89.37700239931708
123.9477339065183
123.4433015157667
120.8306838253803
100.4483615567018
124.2789558120762
123.6203907180736
123.3084619446287
111.8508705847862
125.5533303305015
124.9253708662176
127.8536354751579
132.9293208722145
73.13578702415192
79.85674816019646
79.99887941646966
79.99999551952241
72.50767247152343
79.81401627963835
79.9981200647474
79.99999032971559
72.97882757124515
79.76690922860045
79.99689234919022
79.99998141923089
73.34709692936896
79.68395694938623
79.9938306737362
79.99996257158215
79.99994725840511
79.9919576852442
79.52161051077665
71.48999824396613
79.99994744941985
79.9920323843825
79.53606411012717
72.01715006754766
79.99994730628036
79.99197435354738
79.54757576393985
72.73441816821786
79.99994887764878
79.99198620009744
79.6026303375147
73.88452788150251
79.99996257095329
79.99998141856304
79.99999032750155
79.99999551732671
79.99383067404763
79.99689234916673
79.99812006448015
79.99887941571592
79.6839569490955
79.76690922776267
79.81401628031404
79.85674815988794
73.34709692920202
72.97882757038649
72.507672471121
73.13578702443448
)
;

boundaryField
{
    back
    {
        type            empty;
    }
    inlet
    {
        type            zeroGradient;
    }
    front
    {
        type            empty;
    }
    top
    {
        type            zeroGradient;
    }
    outlet
    {
        type            fixedValue;
        value           uniform 80;
    }
    bottom
    {
        type            zeroGradient;
    }
    wall
    {
        type            zeroGradient;
    }
}


// ************************************************************************* //
