/*--------------------------------*- C++ -*----------------------------------*\
  =========                 |
  \\      /  F ield         | OpenFOAM: The Open Source CFD Toolbox
   \\    /   O peration     | Website:  https://openfoam.org
    \\  /    A nd           | Version:  11
     \\/     M anipulation  |
\*---------------------------------------------------------------------------*/
FoamFile
{
    format      ascii;
    class       volVectorField;
    location    "0.145";
    object      U;
}
// * * * * * * * * * * * * * * * * * * * * * * * * * * * * * * * * * * * * * //

dimensions      [0 1 -1 0 0 0 0];

internalField   nonuniform List<vector> 
880
(
(25 -2.33376657525449e-15 0)
(24.9999999999756 -6.707278684843099e-11 0)
(24.9999933518137 -6.768209372977056e-06 0)
(24.99776986526994 -0.001236983618561841 0)
(25 -1.959047797743946e-14 0)
(24.99999999986166 -4.881350713046396e-10 0)
(24.99997517337229 -3.153240149054953e-05 0)
(24.99000795981766 -0.02411283108399178 0)
(25 3.425926130001516e-13 0)
(25.00000000242459 5.087229255958538e-09 0)
(24.99988215643395 -0.0001037896396639777 0)
(24.97114476737617 -0.07151165483570839 0)
(25.00000000000002 -2.57071027611801e-12 0)
(24.99999997851068 -7.393390035100358e-10 0)
(24.9993479518347 -0.0003981843258721805 0)
(24.82666861057322 -0.1689311297371266 0)
(25.0000000000144 -8.283716628035204e-12 0)
(24.9999999999691 6.47738846814441e-11 0)
(24.99999999901212 -1.504003480266068e-09 0)
(24.99999989312167 -1.690387942693383e-07 0)
(25.00000003584531 -4.370173908623932e-09 0)
(24.99999995405141 -8.152898186301057e-10 0)
(24.99999975899108 1.676069087537685e-06 0)
(24.99999308648234 -1.195532926381809e-05 0)
(24.99682975798223 -0.0001654178316549431 0)
(24.99365947335777 0.00128356439687681 0)
(24.9896825908717 0.0148092014646754 0)
(25.00016016272022 -0.01961284719255471 0)
(24.35598324878225 0.02581563571576907 0)
(23.89535640876536 0.5582554995165518 0)
(23.74057988037118 1.07063215363973 0)
(23.70720302927647 1.34928515575166 0)
(24.99999864943127 -2.692986857139151e-06 0)
(24.99998867298628 -8.756426159758834e-06 0)
(24.99994814721472 -0.0001102707240875799 0)
(24.99992774198139 -9.503473826433015e-05 0)
(24.9998521030309 1.913664559107412e-05 0)
(24.9995068078134 0.0002321939565642434 0)
(24.99924392002492 0.001194426953839197 0)
(24.99918170556886 0.001175758997177427 0)
(24.95871028461339 0.01287088388054418 0)
(24.92575606257469 0.05614593724323291 0)
(24.90859063519094 0.1118106024427516 0)
(24.90946033014109 0.126612987589327 0)
(23.69286894645902 1.704846546770947 0)
(23.58242612975318 2.076646696945956 0)
(23.67020924401501 2.309915764702871 0)
(23.69572922812704 2.752956428533781 0)
(24.63686097339836 2.963584001542513 0)
(25.14314270635365 2.699142658310655 0)
(25.37457546242603 2.237936668216243 0)
(25.61417379930536 1.748096142365888 0)
(24.81344768087475 0.2700936546991955 0)
(24.84145004426261 0.4770500227349826 0)
(24.95186825892204 0.5789403576080099 0)
(25.08178541710138 0.5592558482941904 0)
(24.99615683014362 0.004324925179618283 0)
(24.99204351435506 0.01217125912127228 0)
(24.99246904207993 0.02421264346065669 0)
(24.99934666176974 0.03125521273990615 0)
(24.99977727196477 -0.0002864591409035272 0)
(24.99947248080628 -0.0007920214587285139 0)
(24.99892557063072 -0.001499348984068256 0)
(24.99834702570526 -0.001714822104077155 0)
(24.99818566654275 -0.001571519479169286 0)
(24.99831525383099 -0.001241110388968475 0)
(24.99871093058912 -0.0007848749360844799 0)
(24.99926122574816 -0.0003847422239638443 0)
(25.00523504805584 0.03013027747326973 0)
(25.00792976737917 0.02650013193059321 0)
(25.00880414623168 0.01939297397371174 0)
(25.00691347642035 0.01124651446705663 0)
(25.14909449983785 0.4989271010584989 0)
(25.18223346516678 0.4092308450066708 0)
(25.18401702933055 0.3078173860256138 0)
(25.15859788924385 0.2100080978470461 0)
(25.79800081128271 1.27277032786969 0)
(25.83769687628043 0.9052628294995226 0)
(25.78181511237853 0.6537423805524212 0)
(25.6782943445894 0.4741682578528716 0)
(25.54931104423003 0.365085381845943 0)
(25.11345320039105 0.126331095789055 0)
(25.00356120055591 0.00470386800115965 0)
(24.99971195317793 -0.0001359662905495454 0)
(25.41923935124516 0.154151432830726 0)
(25.06345453211943 0.05330043498871623 0)
(25.0010843854073 0.00116849257748913 0)
(24.99993476543415 -2.772344860524941e-05 0)
(25.05982710619246 0.2751055635184533 0)
(25.0128454521176 0.01094986630599904 0)
(25.00010055547051 9.689770879726679e-05 0)
(24.99999457127423 -1.522235124848529e-06 0)
(23.2401861176565 0.8250938731835598 0)
(24.96476379070345 0.03317497099517538 0)
(24.99986811857086 0.0002556470278906278 0)
(24.99999300582095 -1.226251837969328e-05 0)
(24.99998422116297 -3.719268152823073e-05 0)
(24.99880987520984 0.0006606048248583553 0)
(24.77110362086878 0.08125077439534663 0)
(18.89523705016886 1.853177953863413 0)
(24.99986938266317 -0.0001462778288057235 0)
(24.99704602655261 0.002434673739860712 0)
(24.5851601505876 0.2171739425631045 0)
(18.52260239628922 3.537141260716848 0)
(24.99979874983556 -0.0004826389867046712 0)
(24.99138376479059 0.007822001899967033 0)
(24.30363076184091 0.4943638850806927 0)
(17.8598715275895 5.236477475565196 0)
(24.99913426603987 -0.001128472885865664 0)
(24.98634071253909 0.01752228699543026 0)
(24.05983284951708 0.8696968818233382 0)
(17.75009946167035 6.676030028081991 0)
(17.57845901466348 7.958498350659085 0)
(23.74246108868666 1.418805576220588 0)
(24.97308897326554 0.03827876318434911 0)
(24.99871193129783 -0.002329302119292272 0)
(17.55011149527898 8.913886852812698 0)
(23.53388973163809 1.975828566537012 0)
(24.96639219182354 0.06639897962274093 0)
(24.9967228073522 -0.004090317170343886 0)
(17.5633304295009 9.645206336883049 0)
(23.2224793600062 2.658131938956468 0)
(24.94538195868409 0.1088690884183445 0)
(24.99568659275231 -0.006490793581949241 0)
(17.71340281630511 10.24842578805261 0)
(22.99780515229758 3.323967516549775 0)
(24.92963460633718 0.1707211564062849 0)
(24.99182860027361 -0.009941887077531797 0)
(24.98899653385442 -0.01512267808441426 0)
(24.88618238132988 0.2498344430126036 0)
(22.72004460845805 4.098213698928531 0)
(18.28780015624742 10.54311956939293 0)
(24.9815804346807 -0.02218431309486227 0)
(24.89541920477168 0.3426340404174511 0)
(23.24665221192509 4.052130619439157 0)
(19.96116535190801 10.06461458171779 0)
(24.99581936112556 -0.02590637840090394 0)
(24.95165498272456 0.2956937906113792 0)
(24.27244812555452 3.301725203369431 0)
(22.52325115355065 8.948990489801984 0)
(24.96943783894153 -0.02446695879784527 0)
(24.98042734609988 0.1800405943815891 0)
(24.99858772884542 2.10692410967638 0)
(25.14842979090232 6.513045210621502 0)
(24.98338666832007 -0.006768226181155624 0)
(25.03530985816162 0.28722941841511 0)
(25.92129210008767 1.621192011790487 0)
(29.00666866230484 3.641188377563706 0)
(24.98152688314985 -0.006001783144047193 0)
(25.19607437566264 0.1790264947912512 0)
(26.19780430983404 0.8083857025355083 0)
(30.54405700334124 0.942855489598717 0)
(24.99475346425891 -0.004521939091455044 0)
(25.16975816559311 0.03150814587768249 0)
(26.02193595049512 -0.02908785447751806 0)
(28.99465132791036 -1.309594581767145 0)
(25.00044106929088 -0.001403007605146416 0)
(25.06514223771125 -0.04635344238214125 0)
(25.45202261978091 -0.8752091079064011 0)
(23.66637060675421 -3.468808289032791 0)
(19.81188203688461 -5.619479581718474 0)
(24.85152398283319 -1.323673888052984 0)
(25.00029897968524 -0.08035561019704412 0)
(24.99986416785685 -0.001850430224391949 0)
(17.31441764161703 -6.637906968839612 0)
(24.28508245780913 -1.479308165771325 0)
(24.9622974596121 -0.08875174576456277 0)
(24.99910142881937 -0.001734735501745369 0)
(16.05011317359477 -5.97443340442249 0)
(23.90465461535817 -1.247625693214842 0)
(24.94677787356994 -0.06726358507987132 0)
(24.99962349921716 -0.0006291442943674687 0)
(14.72027862435898 -5.353950532811147 0)
(23.54620408361455 -1.133034651445535 0)
(24.93505954802931 -0.05893378778909602 0)
(24.99946590635176 -0.0006256462214461525 0)
(16.24735453300815 -3.475703473490733 0)
(23.79506548053565 -0.6829464234322453 0)
(24.95818111799089 -0.03236919089824866 0)
(24.99976221724464 -0.0002846741623206471 0)
(18.26765137295927 -1.278150265665921 0)
(24.16372852303986 -0.3464452245329769 0)
(24.97992366211439 -0.01328291691709945 0)
(24.99990514113441 -8.980635526982348e-05 0)
(20.16698364047041 -0.06683117653438152 0)
(24.48866818948067 -0.1730061358723004 0)
(24.99152636777431 -0.005635994209537855 0)
(24.99996852849225 -3.581899603254211e-05 0)
(21.7529646286257 0.3278694238802453 0)
(24.76279477488402 -0.1848223435470657 0)
(24.99839104748767 -0.004075638254031374 0)
(24.99999200399232 -1.840438880924047e-05 0)
(21.94482543826405 -0.2697239460571776 0)
(24.68777603016069 -0.02022895664853649 0)
(24.9851449872728 -0.0004361325408922562 0)
(24.99979693723617 -2.526021264075553e-06 0)
(22.04884189689176 -0.6368647668943902 0)
(24.70287903341936 -0.04789704854317205 0)
(24.9865425997678 -0.001101234174192324 0)
(24.99981011980304 -7.385854143207479e-06 0)
(22.01120783486076 -0.9707825958631457 0)
(24.69385059127594 -0.0807150290460697 0)
(24.98752624044068 -0.001946626256865805 0)
(24.99982680922406 -1.485142040908844e-05 0)
(21.86950190912971 -0.9014329231246709 0)
(24.70598790543935 -0.09281761157765032 0)
(24.98922845690705 -0.002769813376513963 0)
(24.9998589325059 -2.598632077907375e-05 0)
(21.75296462863936 -0.3278694239117936 0)
(24.7627947749407 0.1848223435243095 0)
(24.99839104757758 0.00407563820210077 0)
(24.99999200406135 1.840438526811078e-05 0)
(20.16698364047927 0.06683117649310535 0)
(24.48866818953509 0.173006135869442 0)
(24.99152636781881 0.005635994233727325 0)
(24.99996852852121 3.58190186371854e-05 0)
(18.26765137297161 1.278150265680051 0)
(24.16372852307333 0.346445224553969 0)
(24.97992366211318 0.01328291695999237 0)
(24.99990514114833 8.980636039305333e-05 0)
(16.2473545329863 3.475703473469902 0)
(23.79506548056721 0.6829464234786025 0)
(24.95818111797299 0.03236919090105201 0)
(24.99976221724113 0.0002846741702371949 0)
(24.99986416783615 0.001850430224093643 0)
(25.00029897966698 0.0803556101773194 0)
(24.85152398280214 1.323673888036229 0)
(19.81188203683364 5.619479581799414 0)
(24.99910142878949 0.001734735549656027 0)
(24.96229745960893 0.08875174576937606 0)
(24.28508245778293 1.479308165778397 0)
(17.31441764154686 6.637906968892043 0)
(24.99962349920484 0.0006291442875623793 0)
(24.94677787357618 0.06726358508199941 0)
(23.90465461537785 1.247625693264925 0)
(16.05011317354389 5.974433404448243 0)
(24.9994659063458 0.0006256462170143488 0)
(24.93505954799588 0.05893378775754138 0)
(23.54620408362992 1.133034651476188 0)
(14.72027862433165 5.353950532814163 0)
(23.66637060670342 3.46880828901682 0)
(25.45202261977672 0.8752091079202794 0)
(25.06514223773658 0.04635344242486271 0)
(25.00044106929039 0.001403007569712389 0)
(28.99465132787742 1.309594581796358 0)
(26.02193595050642 0.02908785447164237 0)
(25.16975816558368 -0.03150814590150518 0)
(24.99475346425846 0.004521939095624996 0)
(30.54405700334402 -0.9428554895746841 0)
(26.19780430983834 -0.8083857025527811 0)
(25.19607437565472 -0.1790264947843887 0)
(24.98152688312666 0.006001783156897756 0)
(29.00666866229919 -3.641188377553422 0)
(25.92129210011707 -1.621192011777831 0)
(25.0353098581908 -0.2872294183719289 0)
(24.98338666829575 0.006768226175790658 0)
(24.98899653387241 0.01512267810602958 0)
(24.88618238123716 -0.2498344429894432 0)
(22.72004460838065 -4.098213698931914 0)
(18.28780015625103 -10.54311956941203 0)
(24.98158043468238 0.02218431309230101 0)
(24.89541920470666 -0.3426340403579679 0)
(23.24665221187124 -4.052130619463199 0)
(19.96116535189936 -10.06461458172906 0)
(24.9958193609884 0.02590637858985918 0)
(24.95165498265449 -0.2956937906257698 0)
(24.27244812555256 -3.301725203385758 0)
(22.52325115356034 -8.948990489803329 0)
(24.9694378391201 0.02446695856942962 0)
(24.98042734609479 -0.1800405943611462 0)
(24.99858772883118 -2.106924109666074 0)
(25.1484297908986 -6.513045210616806 0)
(17.71340281631494 -10.24842578807448 0)
(22.99780515230183 -3.323967516538577 0)
(24.92963460649719 -0.1707211562628036 0)
(24.99182860014506 0.009941887073912836 0)
(17.56333042948904 -9.645206336895358 0)
(23.2224793599559 -2.658131939065501 0)
(24.94538195836801 -0.10886908863964 0)
(24.99568659279439 0.006490793615365894 0)
(17.5501114953047 -8.913886852795521 0)
(23.53388973169614 -1.975828566458699 0)
(24.96639219215383 -0.06639897951030749 0)
(24.99672280730707 0.004090317174406144 0)
(17.57845901466952 -7.958498350626369 0)
(23.74246108864915 -1.41880557623317 0)
(24.97308897313609 -0.03827876328059811 0)
(24.99871193129497 0.002329302080791565 0)
(24.99998422115621 3.719268355121011e-05 0)
(24.99880987518481 -0.0006606048329946079 0)
(24.7711036208367 -0.08125077444722306 0)
(18.89523705012392 -1.853177953905478 0)
(24.99986938260282 0.0001462778309197648 0)
(24.997046026544 -0.002434673724421273 0)
(24.58516015069329 -0.2171739425099023 0)
(18.52260239633043 -3.537141260707676 0)
(24.99979874976516 0.000482638990164074 0)
(24.99138376474682 -0.007822001917198977 0)
(24.30363076179813 -0.4943638851231405 0)
(17.85987152762648 -5.236477475571672 0)
(24.99913426602511 0.001128472885637738 0)
(24.9863407126325 -0.01752228696168238 0)
(24.05983284956 -0.8696968818026976 0)
(17.75009946167625 -6.676030028087256 0)
(24.99999300581679 1.226251751204687e-05 0)
(24.99999457128171 1.522233807873739e-06 0)
(24.99993476540692 2.77234519921699e-05 0)
(24.9997119531828 0.0001359662933540537 0)
(24.99986811863445 -0.0002556470178495861 0)
(25.00010055549804 -9.689770211790667e-05 0)
(25.00108438542804 -0.001168492565304536 0)
(25.00356120056196 -0.004703868022901196 0)
(24.96476379073354 -0.03317497100687318 0)
(25.01284545210134 -0.01094986630897661 0)
(25.0634545321387 -0.05330043498868252 0)
(25.11345320040553 -0.1263310957982238 0)
(23.24018611768311 -0.8250938731968399 0)
(25.05982710618679 -0.2751055635223323 0)
(25.41923935123721 -0.1541514328387096 0)
(25.54931104423407 -0.3650853818453897 0)
(24.99926122573142 0.0003847422267920842 0)
(25.00691347639567 -0.01124651448355306 0)
(25.15859788923255 -0.2100080978314919 0)
(25.6782943445812 -0.4741682578369488 0)
(24.99871093060415 0.0007848749428610679 0)
(25.00880414620046 -0.01939297396818457 0)
(25.1840170293359 -0.3078173860005621 0)
(25.78181511238116 -0.6537423805228727 0)
(24.99831525383214 0.001241110395595885 0)
(25.00792976736994 -0.02650013191566982 0)
(25.18223346518714 -0.4092308450320687 0)
(25.83769687630744 -0.9052628295383749 0)
(24.99818566656782 0.001571519474859884 0)
(25.00523504806769 -0.03013027747218322 0)
(25.14909449983437 -0.4989271010576651 0)
(25.79800081130887 -1.272770327836953 0)
(24.99977727196199 0.0002864591328238137 0)
(24.99615683018532 -0.004324925158486058 0)
(24.8134476808736 -0.2700936547185978 0)
(24.63686097337284 -2.963584001530691 0)
(24.99947248084674 0.0007920214368703217 0)
(24.99204351435763 -0.01217125908289376 0)
(24.84145004424917 -0.4770500227375237 0)
(25.14314270635091 -2.699142658301421 0)
(24.99892557060057 0.001499348988007415 0)
(24.9924690421106 -0.02421264345661918 0)
(24.95186825894741 -0.5789403576368195 0)
(25.37457546245858 -2.237936668222202 0)
(24.99834702571726 0.00171482209427564 0)
(24.99934666177903 -0.03125521272914512 0)
(25.08178541709367 -0.5592558482930972 0)
(25.61417379932159 -1.748096142375322 0)
(23.6957292281362 -2.752956428539031 0)
(24.90946033013665 -0.1266129876304831 0)
(24.99918170561522 -0.001175758960488638 0)
(24.99992774195696 9.503475084020602e-05 0)
(23.67020924403987 -2.309915764697607 0)
(24.90859063516637 -0.1118106024505487 0)
(24.99924392008086 -0.001194426924892546 0)
(24.99994814722709 0.0001102706764932067 0)
(23.58242612976313 -2.076646696911116 0)
(24.9257560625654 -0.05614593722145072 0)
(24.99950680787087 -0.0002321939685381286 0)
(24.99998867298865 8.756431812916454e-06 0)
(23.69286894646464 -1.704846546780249 0)
(24.95871028460384 -0.01287088389971069 0)
(24.99985210305839 -1.913663153051707e-05 0)
(24.99999864938945 2.692992417131764e-06 0)
(23.70720302929199 -1.349285155759038 0)
(25.00016016268286 0.01961284719649594 0)
(24.99999308648955 1.195535475057826e-05 0)
(24.99999989309882 1.690499973062087e-07 0)
(23.74057988038845 -1.070632153636101 0)
(24.98968259091679 -0.01480920145046725 0)
(24.99999975902916 -1.676106455161567e-06 0)
(24.99999999901172 1.504071278071385e-09 0)
(23.89535640878348 -0.5582554995131267 0)
(24.99365947337843 -0.00128356439034404 0)
(24.99999995409128 8.2229193027461e-10 0)
(24.99999999996895 -6.504391747191309e-11 0)
(24.35598324880161 -0.02581563571316102 0)
(24.99682975799488 0.0001654178240040391 0)
(25.00000003580476 4.372518834914831e-09 0)
(25 9.244833687774657e-12 0)
(25.00000000000001 2.147410809595668e-15 0)
(24.99999999997491 6.34769311092351e-11 0)
(24.99999335179924 6.768211704667491e-06 0)
(24.99776986522248 0.001236983607812439 0)
(25 1.267081542059144e-14 0)
(24.99999999987838 4.830415678920551e-10 0)
(24.99997517336833 3.153239520338543e-05 0)
(24.99000795982129 0.02411283105807593 0)
(25 -2.791627063105806e-13 0)
(25.00000000243369 -5.090150384482933e-09 0)
(24.99988215643407 0.0001037896332106605 0)
(24.97114476738074 0.07151165484243779 0)
(25 2.252217178065503e-12 0)
(24.99999997856704 7.372421195407527e-10 0)
(24.99934795185229 0.0003981843222087024 0)
(24.8266686105851 0.1689311297082519 0)
(24.99385196795964 -2.542022593842407e-11 0)
(24.97961757442566 0.03737787857859281 0)
(24.90462635482394 0.09427379748113116 0)
(24.46071438273568 0.04679266738056825 0)
(24.97961757441431 -0.03737787866232047 0)
(24.92328064893636 -4.972119240443279e-11 0)
(24.6495754699218 -0.007736649372759578 0)
(23.6324515310243 -0.3407229073084333 0)
(24.90462635480958 -0.09427379752003731 0)
(24.64957546991578 0.007736649325500451 0)
(23.72163347913303 -9.925554879503084e-12 0)
(21.73414881819982 -0.5237578464412438 0)
(24.46071438273127 -0.04679266745184593 0)
(23.63245153101549 0.340722907242945 0)
(21.73414881816066 0.5237578464159757 0)
(19.29805880592398 -3.250897212911027e-11 0)
(18.56848498482272 2.669079631865597 0)
(19.28393381480021 3.136075974488569 0)
(21.15014535285988 2.736012904296892 0)
(22.7536657318566 1.759579939287935 0)
(19.460064326681 4.446279206295258 0)
(19.6763538722305 4.422474822285918 0)
(20.59621814075002 4.381939069871185 0)
(21.83424834907239 4.050372103280112 0)
(19.80216847998033 5.480943225256595 0)
(20.3685398533665 4.690919475959741 0)
(21.16564312023674 4.838534191622939 0)
(21.96320526883217 4.703292427199003 0)
(20.59166995650366 5.662801147237566 0)
(21.00788900983382 4.954901656088968 0)
(21.57280581061201 5.04833861067157 0)
(22.10394277613899 4.991558242038089 0)
(22.34319084384301 5.277409098673142 0)
(22.57057438666168 5.3672440725445 0)
(22.79404303650445 5.35726411220871 0)
(23.12252852256949 5.565296435954099 0)
(22.00717380503562 5.338897643992339 0)
(22.45672697059916 5.490648564782954 0)
(22.73654334836532 5.431600773264961 0)
(23.63228800669866 5.780306853066748 0)
(21.58570895342065 5.23900655179296 0)
(22.19011489571152 5.461850655269479 0)
(22.58829118536316 5.47567113378343 0)
(25.01955821861948 6.152411861134271 0)
(21.01724141208806 6.090103782437481 0)
(21.1127910739878 6.273871171351125 0)
(21.3621507314491 6.058998684015124 0)
(26.57093501531735 7.383694916788114 0)
(27.13360200277294 3.295798868166234 0)
(27.2196578272366 0.8244324542607373 0)
(26.36139809637268 0.406102231739747 0)
(26.11830243295422 0.3460663067981838 0)
(29.02827979299475 2.430308100427892 0)
(28.87160365975328 0.2564649815741022 0)
(27.62609653528875 0.2709355959068137 0)
(26.88232387718785 0.3111676226176304 0)
(31.90670347572657 2.035301780159867 0)
(29.9458792664934 0.04149992325463222 0)
(28.31109050451512 0.03041501400532933 0)
(27.33604097692199 0.07416009607038336 0)
(25.33458380368909 1.704054631151224 0)
(23.52714889452846 0.8787255356574769 0)
(23.09444489028582 0.08073718177954586 0)
(23.16867161414317 -0.4056247873730504 0)
(26.06377717378501 0.19725848061343 0)
(26.00358823457903 0.05728209671384265 0)
(25.87787151247097 0.009929649754474841 0)
(25.74108719852315 0.02392308915402729 0)
(26.51409011823636 0.194572846278018 0)
(26.26762356200928 0.06006074149729329 0)
(26.05541785486052 -0.01537581678114788 0)
(25.86647805852954 -0.01763516733378308 0)
(26.74944377789511 0.02146091834365665 0)
(26.39004039901198 -0.05168260755292326 0)
(26.14142403138045 -0.07577461837159964 0)
(25.95303479368358 -0.06568686409819179 0)
(23.39725880369538 -0.6435142492349639 0)
(23.75327968376072 -0.7986497054739411 0)
(24.15171883977287 -0.8715039042704085 0)
(24.44010646043957 -0.784231735950318 0)
(25.60510026415848 0.0822233204423059 0)
(25.47054885001647 0.03053357149169081 0)
(24.08708534268325 2.001752602068746 0)
(18.19361165484187 4.48550159094764 0)
(25.71993471635625 0.04466739420038754 0)
(25.56098379966191 0.007116131333653086 0)
(22.9178544671753 2.714399567492594 0)
(14.6624273588294 3.755941865749143 0)
(25.81326336476944 -0.01059778491137121 0)
(25.63815538172509 -0.02397596918851061 0)
(20.92860603967506 2.509393217904102 0)
(10.56826946208407 2.380618480439036 0)
(24.7043965977416 -0.6585192019601575 0)
(24.97126183339547 -0.3626547341456955 0)
(17.28336975335328 -0.5616445440743024 0)
(4.868198562625039 0.3822756329515765 0)
(13.25826624238183 6.259209052442751 0)
(14.37621626246364 7.38669113685339 0)
(14.79953542675711 8.533001050417647 0)
(15.54734394928238 9.449083984597896 0)
(11.77000900236656 6.25663153063762 0)
(13.86220042522468 7.378850056560005 0)
(14.63898520700795 8.661979690443962 0)
(15.48621956694332 9.585020753859649 0)
(9.18164880784925 4.794374518187617 0)
(12.21560330763313 6.820028639018878 0)
(13.80540076197551 8.580533470990867 0)
(15.0374711952712 9.626578531072129 0)
(3.967863657702854 2.92996222985194 0)
(7.414284313021864 4.318378610757686 0)
(10.82634946751164 5.784197942240254 0)
(12.9197737613622 7.561966719010548 0)
(15.95265126530381 10.18493507264699 0)
(16.00146231956282 10.58711478209322 0)
(15.85682443455675 10.63527250037935 0)
(15.8715948908114 10.51081124811598 0)
(15.92540804085655 10.21749341243475 0)
(15.97505338525915 10.52343367953164 0)
(15.96467818708788 10.60865758345194 0)
(16.09658078660531 10.60210067369649 0)
(15.73472294277925 10.24524054674272 0)
(15.88852235030826 10.50260234585221 0)
(15.95851935347271 10.61643579640202 0)
(16.1345540159862 10.69969097185099 0)
(14.40321175268735 9.056907950487698 0)
(14.82424560892262 10.14068452505192 0)
(15.03683078066634 10.6848455407234 0)
(15.23121215565112 10.66542812616938 0)
(16.37804837123275 10.43372822045184 0)
(17.82937172295345 11.06553086332808 0)
(20.58788561940714 11.09339155601977 0)
(23.8635960937091 9.723236135836956 0)
(16.58186850861063 10.65295821368641 0)
(17.85685212533071 11.14552761115432 0)
(20.19618876638811 11.15153422631048 0)
(24.28330496731031 11.92843117806678 0)
(16.59767323478065 10.87909498926586 0)
(17.64164733608773 11.19936166629179 0)
(20.31811929993005 11.92584496090439 0)
(30.35111383264785 17.72200086411665 0)
(15.88978812440334 11.07644513932852 0)
(17.27759162776979 10.68856558299941 0)
(20.93925370130685 12.37766898296011 0)
(41.80717290920088 24.55914984971304 0)
(29.63008751024487 4.682260333062636 0)
(32.62558406074326 -4.804905875025389 0)
(10.35690721273897 -2.812088174451216 0)
(4.687566105615478 0.1229007685301147 0)
(31.17792116743416 4.111008989522857 0)
(26.01708634619044 -3.087610543590943 0)
(5.109951064248571 0.6890771572308952 0)
(2.367451626403781 3.683335176747631 0)
(31.53874762288651 2.90622059561808 0)
(16.45954234790279 -5.726516205768728 0)
(2.622501874288198 3.903121602610315 0)
(1.591502889726861 4.575148850554159 0)
(20.65576890817474 -8.894825549880572 0)
(5.016471116749511 -4.593839822838659 0)
(0.1058726654062641 4.967644672374761 0)
(0.2475439515392864 4.292093550656738 0)
(2.356743790791791 -0.7980023614062557 0)
(0.9476682531170243 -1.426066079698082 0)
(0.1431380142603687 -1.999351079272342 0)
(-0.757507114027458 -1.278291344027316 0)
(1.135842772341654 2.69634686224169 0)
(0.3202358654959463 1.493169738658554 0)
(-0.1649693170552044 0.5316280815584046 0)
(-0.2904389805967721 0.8373854872368199 0)
(0.9178569551782763 3.594001920662725 0)
(0.5612501898752882 2.537875170977646 0)
(0.3213014639840902 2.136965730812834 0)
(-0.1071715896583517 2.000664513977364 0)
(0.354978837080799 3.541740133387588 0)
(0.1613880965795012 2.681063885830288 0)
(-0.1005371842330703 2.660392215537053 0)
(-0.5888597963908955 2.042420458581215 0)
(4.261848510666233 -5.255122870985172 0)
(10.84168987438258 -7.511564372998022 0)
(15.67704515564496 -6.624794968210017 0)
(20.1560480103214 -6.755743786170532 0)
(1.786355253044914 -2.587602750565718 0)
(8.327536286276437 -5.226568125757241 0)
(13.75098819064081 -5.267781135222152 0)
(18.69757245116251 -5.877362545905284 0)
(-0.885529772867341 -1.707042263900609 0)
(3.824812693344269 -3.833528848568061 0)
(10.14172402054816 -4.546335027182606 0)
(17.38371675524228 -4.38272422112494 0)
(-1.480758933126469 0.2405115256225363 0)
(1.274689761442137 -0.5423067364673669 0)
(8.234601072515975 -0.03140895407430737 0)
(18.79466154805704 -2.828500012304962 0)
(21.43858801559611 -10.66603015527495 0)
(22.98295863172435 -11.86732688822821 0)
(21.11481898545091 -9.995872130884075 0)
(14.34243651361807 -6.146966406875666 0)
(19.51844924732617 -9.15061929437735 0)
(19.53581096425142 -8.30362084384579 0)
(16.83546284548969 -7.463586093316027 0)
(10.56631063387847 -4.416818837941162 0)
(17.88192116007364 -9.014222799086612 0)
(14.69017624117915 -6.791646169440524 0)
(9.69893382260034 -4.846673086385762 0)
(5.316549565825498 -1.403372596923181 0)
(12.7776705522165 -10.73480966340531 0)
(7.410063472178519 -3.940551377124848 0)
(3.847827611961609 -0.05005401111233765 0)
(1.652265958703704 1.414243053284219 0)
(0.1704247622566565 1.973022896105459 0)
(-0.8636805160198079 1.684308570782113 0)
(-1.39205990499619 1.075060220335468 0)
(-1.318151366258289 0.408087973965516 0)
(2.152722016566873 0.7074263494474688 0)
(-0.08722745797093069 0.7301439215223257 0)
(-1.415735416896833 0.3614045158705057 0)
(-1.86534473162834 0.1165624823012625 0)
(3.606349962317883 -1.982675297093269 0)
(-0.3258142694858709 -1.580094111636693 0)
(-1.909252067090009 -1.063901560147676 0)
(-2.238014748409195 -0.3205642303290716 0)
(8.10411397569791 -3.939133902427012 0)
(4.900581919077912 -3.254154642492812 0)
(3.809955348271358 -1.855410002132447 0)
(3.603706288863094 -0.5513495492793591 0)
(-1.318151366258787 -0.4080879739539988 0)
(-1.865344731631861 -0.1165624822859924 0)
(-2.238014748425147 0.3205642303378653 0)
(3.603706288823578 0.5513495492776634 0)
(-1.392059904995272 -1.075060220326651 0)
(-1.415735416898552 -0.3614045158617269 0)
(-1.909252067090261 1.063901560152617 0)
(3.809955348286389 1.855410002120685 0)
(-0.863680516016763 -1.684308570774002 0)
(-0.08722745796803907 -0.7301439215167623 0)
(-0.3258142694792043 1.580094111640684 0)
(4.90058191909633 3.254154642498174 0)
(0.1704247622600682 -1.973022896099418 0)
(2.152722016570614 -0.7074263494410655 0)
(3.606349962323929 1.982675297099867 0)
(8.104113975707783 3.939133902442384 0)
(14.34243651360937 6.146966406884991 0)
(21.11481898542225 9.995872130857849 0)
(22.98295863169631 11.86732688820626 0)
(21.43858801557144 10.66603015525024 0)
(10.5663106338804 4.416818837942371 0)
(16.83546284548631 7.463586093321092 0)
(19.53581096424916 8.303620843851133 0)
(19.51844924731931 9.150619294376913 0)
(5.316549565825443 1.403372596928776 0)
(9.698933822601941 4.846673086388875 0)
(14.69017624118036 6.791646169442871 0)
(17.88192116007714 9.014222799083324 0)
(1.652265958706413 -1.414243053281257 0)
(3.847827611960685 0.05005401112126721 0)
(7.410063472179043 3.940551377133942 0)
(12.77767055221894 10.73480966341162 0)
(18.79466154805657 2.828500012302757 0)
(8.234601072518869 0.0314089540801646 0)
(1.27468976144659 0.5423067364726328 0)
(-1.48075893312547 -0.2405115256171482 0)
(17.3837167552424 4.382724221119588 0)
(10.14172402055133 4.546335027181597 0)
(3.824812693347692 3.833528848571254 0)
(-0.8855297728700204 1.707042263905254 0)
(18.69757245115389 5.877362545901492 0)
(13.75098819063952 5.267781135225484 0)
(8.327536286272903 5.226568125765149 0)
(1.786355253030221 2.587602750572642 0)
(20.15604801031204 6.755743786158232 0)
(15.67704515564755 6.624794968202259 0)
(10.84168987437788 7.511564373005946 0)
(4.261848510633303 5.255122870995579 0)
(-0.7575071140515255 1.278291344026388 0)
(0.1431380142313909 1.999351079262067 0)
(0.9476682531045513 1.426066079661835 0)
(2.356743790799408 0.7980023614183379 0)
(-0.2904389806132017 -0.8373854872211662 0)
(-0.1649693170659418 -0.5316280815581593 0)
(0.3202358655153693 -1.493169738695087 0)
(1.135842772387311 -2.696346862252989 0)
(-0.1071715896684382 -2.000664513963025 0)
(0.3213014639755051 -2.13696573081654 0)
(0.5612501898828615 -2.53787517100621 0)
(0.9178569551990577 -3.594001920683326 0)
(-0.5888597963947048 -2.042420458570087 0)
(-0.1005371842400015 -2.660392215544748 0)
(0.1613880965815434 -2.681063885849456 0)
(0.3549788370845289 -3.541740133404746 0)
(4.687566105576885 -0.1229007685330556 0)
(10.35690721259924 2.812088174398861 0)
(32.62558406065899 4.804905875077909 0)
(29.63008751022696 -4.682260333051816 0)
(2.367451626413458 -3.683335176736561 0)
(5.109951064206903 -0.6890771572776579 0)
(26.01708634612667 3.087610543583301 0)
(31.17792116742704 -4.111008989511882 0)
(1.591502889729614 -4.575148850545878 0)
(2.622501874271397 -3.903121602622641 0)
(16.45954234786278 5.726516205764216 0)
(31.53874762287851 -2.906220595613332 0)
(0.247543951543093 -4.292093550650749 0)
(0.1058726654076749 -4.967644672385052 0)
(5.016471116753447 4.593839822782448 0)
(20.65576890819483 8.894825549864148 0)
(23.86359609371062 -9.723236135832005 0)
(20.58788561941515 -11.09339155601647 0)