/*--------------------------------*- C++ -*----------------------------------*\
  =========                 |
  \\      /  F ield         | OpenFOAM: The Open Source CFD Toolbox
   \\    /   O peration     | Website:  https://openfoam.org
    \\  /    A nd           | Version:  11
     \\/     M anipulation  |
\*---------------------------------------------------------------------------*/
FoamFile
{
    format      ascii;
    class       volScalarField;
    location    "0.3592355";
    object      p;
}
// * * * * * * * * * * * * * * * * * * * * * * * * * * * * * * * * * * * * * //

dimensions      [0 2 -2 0 0 0 0];

internalField   nonuniform List<scalar> 
880
(
80.0000000000004
80.00000016385775
80.01345663385754
81.88034357801261
80.00000000017729
80.0000004813165
80.01669045587523
82.76389190045289
80.00000000090172
80.00000187777135
80.0308949590827
83.82258197990065
80.0000000120275
80.00000824568897
80.0638093814441
85.40754857363468
79.9999999446778
80.00000002780087
80.00000611600429
80.00009435551667
80.00003799640601
80.00014606374219
80.00091099870467
80.0013464949666
80.14459816392728
80.23457378241058
80.38548816021284
80.53778701735348
88.34436588628832
91.39559654259226
94.00066047088694
95.23497518929364
80.00023343516669
80.0019027086234
80.00718965619583
80.02228094725551
80.01262419558316
80.05407601248173
80.10847709336343
80.2287564180767
81.27049660044479
81.90766518461999
82.71481898568453
83.76512360937667
96.38507570803569
97.95088301194789
98.27348987911243
97.50849578400744
90.98665578000281
87.50957139041166
85.83751495927496
84.74258778534639
85.69174511053296
86.37141459268845
86.7739687395499
86.80859297404496
80.63879897061724
81.12353969811136
81.63900269570381
82.02323445705711
80.07908829263508
80.19128789049468
80.36115893210678
80.59965822931579
80.87775511242459
81.15708591518774
81.43362245719157
81.64004704691267
82.31285738919017
82.48081319481552
82.5676087252174
82.57334959647608
86.44906530601067
85.94968197475312
85.29455003373349
84.61630458850753
83.58709855353948
82.89854564446394
82.50698878564907
82.07913739346972
82.08344609770506
84.1436599812363
82.52050534451547
81.76636957253558
87.7422421407565
83.86378092648157
82.36950305565384
81.74666098081518
120.5569229190981
85.26203244698515
82.18750963214731
81.49456437773159
158.347508364881
93.05755837088037
82.67018516025024
81.4018662767828
81.37294657433561
83.39321552436307
102.7712925802466
175.0765088850972
80.87269404843668
84.75156833405346
113.7341261447868
174.2793970034911
81.08510905425614
87.9014709600727
128.3724605822177
176.1372713305549
81.89136675061819
93.5855011413629
142.2707980820021
173.4128021864763
167.7074567602587
149.9506996094588
102.2396963003759
83.66778081732086
160.7384024630292
151.1909441867294
111.8297652902225
86.84020152870455
153.343165359397
148.9209081655559
120.1255222427207
91.94269116268266
145.6347033519566
138.9087860943834
121.4587391940716
98.31233466221329
103.9488351442242
117.363862945057
126.567635706492
136.6078141467582
103.1375553503852
109.2148359315966
113.4275995975402
123.6649397214612
100.8366647771833
101.4842685961201
100.6813307267937
107.3274263291164
97.84652224373332
95.22408936829898
89.17512220634754
88.30752303637031
95.4683276897909
89.3275596491756
78.72373778780019
66.39564760953876
91.68567227361378
83.96082807004267
69.93165790470732
43.06377312730913
88.8054395721845
81.54220870578824
63.23958627586446
26.39393007217438
86.35647880168804
80.46176731922752
58.99105727749229
14.84811446231282
15.60568977102434
60.56912569182307
79.58678679878216
84.17249030497814
24.76318268370229
61.36496212980623
78.99418188831291
82.70510170501794
27.33968290742277
61.04519393671707
78.13599516465059
81.71383434227747
25.83947250342177
60.43854282931999
77.52979699149263
81.17536028380354
31.26908594549975
63.06652265213898
77.2020922128478
80.23975358163565
36.95815071006619
65.60885803778555
77.11656902743388
79.6864024155651
43.59638750911441
68.84969857227114
77.31448666864389
79.66585399947068
51.42001942044342
71.09837901889888
77.69928410026053
79.73914644281938
53.28215837734165
58.94014606249909
73.28916600147434
79.2609304495804
51.93653850508618
60.14528052087135
73.5142899332854
79.25270856260786
49.49659649473893
61.86259267883176
74.01486143653442
79.25460745583767
47.17458604534564
63.82100828372051
74.73204149746356
79.31312119010657
51.42001942044605
71.09837901883714
77.69928410024413
79.73914644249496
43.59638750916295
68.84969857195537
77.31448666851078
79.66585399895779
36.95815071007421
65.60885803758677
77.11656902703203
79.68640241505781
31.26908594555184
63.06652265186869
77.20209221274324
80.23975358134993
84.17249030519868
79.58678679884827
60.56912569179561
15.6056897707523
82.70510170497614
78.99418188828071
61.36496212972422
24.76318268343509
81.71383434231818
78.13599516473958
61.0451939362848
27.3396829073624
81.17536028384863
77.52979699175106
60.43854282920504
25.83947250341213
14.84811446234386
58.9910572774187
80.46176731921143
86.35647880179056
26.39393007205905
63.23958627589377
81.54220870588816
88.80543957220533
43.06377312723111
69.93165790495725
83.960828070086
91.68567227390086
66.39564760965604
78.72373778761529
89.32755964881304
95.46832768997785
103.9488351444796
117.363862945713
126.5676357069961
136.6078141466954
103.1375553502664
109.2148359314479
113.4275995977778
123.6649397215181
100.8366647767375
101.4842685959938
100.6813307267802
107.3274263291735
97.84652224361972
95.22408936809025
89.17512220622625
88.30752303654361
145.6347033519441
138.9087860945196
121.4587391944494
98.31233466302979
153.3431653593067
148.920908165631
120.1255222428899
91.94269116278151
160.7384024630638
151.1909441866186
111.8297652900159
86.84020152897733
167.7074567599876
149.950699609781
102.2396963007395
83.66778081734481
81.37294657426106
83.39321552438564
102.7712925801608
175.0765088848082
80.87269404892041
84.75156833421335
113.7341261447809
174.2793970030951
81.08510905500252
87.9014709607542
128.3724605822312
176.1372713303986
81.89136675073451
93.5855011412916
142.2707980821023
173.4128021862511
81.40186627679498
81.49456437765006
81.74666098118148
81.76636957259839
82.67018515985127
82.18750963189743
82.36950305576647
82.52050534447508
93.05755837042075
85.2620324469962
83.86378092618621
84.14365998112409
158.3475083643795
120.556922918721
87.74224214086736
82.08344609771248
81.64004704718317
82.57334959660037
84.61630458867998
82.07913739359222
81.43362245690798
82.56760872539525
85.29455003387288
82.50698878571484
81.15708591518163
82.48081319484612
85.94968197470992
82.89854564411569
80.87775511215906
82.3128573889641
86.44906530629466
83.58709855360952
80.07908829250401
80.63879897036246
85.69174511075462
90.9866557802045
80.19128789023294
81.12353969771445
86.37141459295957
87.5095713903163
80.36115893242111
81.63900269527726
86.77396873958058
85.83751495873059
80.59965822911106
82.023234456948
86.80859297430652
84.74258778507404
97.50849578391706
83.76512360947063
80.22875641791163
80.02228094759215
98.27348987907315
82.71481898577503
80.1084770932255
80.00718965616606
97.9508830120014
81.90766518450293
80.05407601175966
80.00190270841168
96.38507570802126
81.27049660022681
80.01262419534217
80.00023343547974
95.23497518915573
80.53778701744405
80.00134649501268
80.00009435597177
94.00066047044164
80.38548816020585
80.00091099847407
80.00000611629116
91.39559654218507
80.23457378236651
80.00014606355543
80.0000000276608
88.34436588595464
80.14459816380142
80.00003799626849
79.99999994537085
80.00000000002807
80.00000016396199
80.01345663386407
81.88034357788646
80.00000000026193
80.00000048100623
80.01669045587414
82.76389190040892
80.00000000110963
80.00000187755403
80.03089495913471
83.82258198018364
80.00000001233936
80.00000824561121
80.06380938149471
85.40754857377068
83.52398298996012
85.09526950840289
87.64367549155243
92.78681613778751
85.09526950869343
87.15059245506237
90.99716066472527
98.69101957185273
87.64367549168269
90.99716066471866
97.31192460940795
106.8207852531488
92.78681613787194
98.69101957162022
106.820785253486
117.1819471382374
127.9923892939211
119.025159373984
115.1013155851343
106.8655505773808
126.2796722442751
123.6456150742401
123.604036978094
119.530084545812
126.3198138266524
125.4943144496606
125.0506529937808
123.6401107635907
123.7373416933742
123.330257777746
123.2434553100743
122.3928595197523
119.6767817651621
117.8559366632448
114.2518119648045
109.3401059659194
119.9429012258927
118.0398014775448
114.386792600517
109.805088695581
120.2785876342533
118.2215719750519
114.3689892707409
110.2398993240263
120.4533675559648
118.1133093931939
114.5207689666828
108.5601456753966
82.83050506439622
71.90504118953316
70.60492478418207
70.98548690440944
75.82087142163559
69.03043799993839
69.65707330831691
70.38173252143696
69.99731532764933
68.89584403990284
70.22944287558397
70.92989042208333
60.73660894764891
66.5979722455255
69.23782031487556
70.19843285140145
70.930079556065
71.29236169221603
72.10773725235914
73.05116069780235
70.47276447792012
70.85095631411508
71.73554685110837
72.92904312220918
70.90450977296616
71.13423409946557
71.8725274543722
72.80677361475728
70.29692061383803
70.61809608093057
71.55369896746285
72.84657677607369
78.67356266928169
114.0347653991224
165.0703281435969
181.4274470674772
81.36333813875893
121.5214337657215
162.5390898454903
173.2945450284003
83.49439350430121
125.2961934952703
161.313785427427
171.9958031012045
84.86356514421296
130.7121571009343
161.6591302101081
171.972866574362
218.1626300416867
209.3376238640034
201.7907560054007
190.5376583361271
219.3305513641584
212.1166532140539
203.9477707878194
192.3781967942126
218.3263724527917
213.6473080519492
205.0482155984465
193.4988774526914
213.209597696227
215.5722297722396
206.9711030187553
195.2368940934282
178.1485501806254
167.8957346302112
158.2746847288066
153.3866613807365
180.1469062700062
169.2802302027539
158.9648273165357
153.7599986442273
181.2954004289988
169.4892711128647
159.5125989209947
153.7252923190615
183.7017192233753
170.9144232255234
161.173995008957
154.8235150999409
148.5697639685961
140.6581892165664
126.7741784243376
105.8850756097414
149.263563493977
142.181864217179
128.893947482209
114.3599987837773
149.2079102681202
142.6097378530743
130.6897827288022
119.6674765990718
150.3700634500308
144.9548818370408
134.0436823245097
134.5834630264545
64.62303369213072
16.5490017705781
2.690617875414623
1.283618792004969
49.95163970622388
10.39447194301528
2.242194527257372
1.464416963881312
34.73868570509564
6.571954912302131
1.963433715086905
1.620815541706112
19.55113799780855
3.061005462945337
1.726203088289708
1.81327281793374
1.92925925932938
4.153536455078211
6.785771668098144
10.67160263794481
2.736366731206192
5.087908322545145
7.800727145138898
11.94483854996214
3.199574114063938
5.473000810767205
8.646014468982003
12.64696248841332
3.753879379121444
6.199486282533829
10.09296078391356
13.79309726031266
12.51726425591585
18.94029340226822
26.03304806595663
34.74107368184696
12.12982152478951
17.87733172750129
24.72002039612228
33.23100714149708
12.44053032487429
16.35109733391554
22.8755338065921
32.23958634365982
11.69548825458229
14.4607976690157
19.06072023683972
30.28217984570701
35.03388545633772
33.20774999516231
32.54790026060681
33.17744196521104
31.86524176719091
31.78646807467814
32.24761150862107
32.35377431828486
31.01256061612471
32.65718157475438
32.98671800990849
33.02248225680915
29.23682076413823
31.45587369341486
31.77609672316813
32.50251206116292
32.92044950568614
33.23138506353587
33.49139009248248
33.61794179884277
32.97862824182684
32.9362282376953
32.84474702011848
32.9509439375829
32.92856440988317
33.39768262646904
33.83632227502753
34.09496694809512
34.75147802179931
35.80221304272366
36.54012873759185
36.54221354753914
33.61794179884465
32.95094393756757
34.09496694811281
36.54221354754372
33.49139009250322
32.84474702011467
33.83632227503657
36.54012873760143
33.23138506351447
32.9362282377111
33.39768262650654
35.8022130427594
32.9204495057399
32.97862824181077
32.92856440990207
34.75147802184165
33.17744196530909
32.54790026062622
33.20774999522364
35.03388545637434
32.35377431830864
32.24761150866922
31.78646807473161
31.86524176723242
33.02248225685108
32.98671800998141
32.65718157480195
31.01256061618169
32.50251206117559
31.77609672319694
31.4558736934531
29.23682076418891
30.28217984580104
19.0607202369636
14.46079766911688
11.69548825466803
32.2395863437376
22.87553380667609
16.35109733402232
12.44053032499052
33.23100714157518
24.72002039623485
17.87733172761487
12.12982152488857
34.74107368190963
26.03304806606723
18.9402934023548
12.51726425605886
10.67160263800464
6.785771668125336
4.153536455039881
1.929259259357583
11.94483855001959
7.800727145184661
5.087908322534008
2.736366731209011
12.64696248847706
8.646014469044294
5.47300081076545
3.199574114059842
13.7930972603753
10.09296078396566
6.199486282548563
3.753879379117703
1.283618792042666
2.690617875377188
16.54900177046716
64.62303369217098
1.464416963897005
2.24219452724415
10.39447194296291
49.95163970618296
1.620815541705895
1.963433715076653
6.571954912295939
34.73868570512675
1.813272817930757
1.726203088278897
3.061005462945568
19.55113799780154
105.8850756097992
126.7741784242964
140.6581892163358
148.5697639685711
114.3599987836801
128.8939474820729
142.1818642170813
149.2635634937636
119.6674765990243
130.6897827286316
142.6097378531123
149.2079102680701
134.5834630265372
134.0436823243182
144.9548818371253
150.3700634498823
153.386661380671
158.2746847285141
167.8957346299624
178.1485501800529
153.7599986441325
158.9648273164867
169.2802302019119
180.1469062693496
153.7252923192193
159.5125989206476
169.4892711121135
181.2954004284108
154.8235150998465
161.1739950087808
170.9144232251234
183.7017192229641
190.5376583357326
201.7907560050504
209.3376238637319
218.1626300417394
192.3781967939543
203.9477707876003
212.1166532136631
219.3305513642034
193.4988774525325
205.0482155981554
213.6473080516725
218.3263724527527
195.2368940933376
206.971103018596
215.572229771753
213.2095976964586
181.4274470674793
165.0703281433376
114.0347653991852
78.67356266956473
173.2945450283162
162.539089845316
121.5214337657618
81.36333813905749
171.9958031011145
161.3137854272798
125.2961934952602
83.49439350461378
171.9728665740675
161.6591302099653
130.7121571009209
84.86356514453617
73.05116069802447
72.10773725210063
71.29236169170163
70.93007955570555
72.92904312246448
71.73554685100052
70.85095631358904
70.47276447769853
72.80677361503625
71.87252745421836
71.13423409895931
70.90450977274479
72.84657677634848
71.55369896723562
70.61809608040591
70.29692061348901
70.98548690396606
70.60492478383856
71.90504118965968
82.83050506453354
70.38173252100805
69.65707330789962
69.03043800015799
75.8208714217224
70.9298904216552
70.22944287515229
68.89584404015793
69.99731532769867
70.19843285096653
69.23782031436151
66.59797224576644
60.73660894772885
109.3401059659537
114.2518119648255
117.8559366635434
119.6767817650404
109.8050886955772
114.3867926007794
118.0398014777539
119.9429012256762
110.2398993240259
114.3689892707242
118.2215719750938
120.2785876340868
108.5601456753664
114.520768966933
118.11330939351
120.4533675558048
122.3928595191517
123.6401107626739
119.5300845449722
106.8655505773547
123.2434553092339
125.0506529928252
123.6040369767722
115.1013155846684
123.3302577770913
125.4943144485843
123.6456150727193
119.0251593729046
123.7373416926241
126.3198138257265
126.2796722423714
127.9923892917694
54.09195894629017
71.27155086071154
77.56392237189395
79.75944405342982
50.81862946387861
69.89469977636118
76.93570735387223
79.66604058376983
48.22207122424455
68.23888071964633
76.32178290043261
79.54990216449116
46.39901297581587
65.93402426369624
75.50440397210231
79.4209690193379
79.26093044950485
73.28916600148573
58.94014606249468
53.28215837741178
79.25270856246887
73.51428993329229
60.14528052086777
51.9365385051144
79.25460745580553
74.01486143664431
61.86259267878439
49.49659649480517
79.31312119004276
74.73204149741822
63.82100828369779
47.17458604540522
79.42096901916602
79.5499021643887
79.66604058366009
79.75944405317473
75.50440397185251
76.32178290031965
76.93570735353742
77.56392237171804
65.93402426375286
68.2388807196198
69.89469977650292
71.27155086088179
46.39901297579765
48.22207122418576
50.81862946387599
54.09195894633187
)
;

boundaryField
{
    back
    {
        type            empty;
    }
    inlet
    {
        type            zeroGradient;
    }
    front
    {
        type            empty;
    }
    top
    {
        type            zeroGradient;
    }
    outlet
    {
        type            fixedValue;
        value           uniform 80;
    }
    bottom
    {
        type            zeroGradient;
    }
    wall
    {
        type            zeroGradient;
    }
}


// ************************************************************************* //
