/*--------------------------------*- C++ -*----------------------------------*\
  =========                 |
  \\      /  F ield         | OpenFOAM: The Open Source CFD Toolbox
   \\    /   O peration     | Website:  https://openfoam.org
    \\  /    A nd           | Version:  11
     \\/     M anipulation  |
\*---------------------------------------------------------------------------*/
FoamFile
{
    format      ascii;
    class       volVectorField;
    location    "8.85";
    object      U;
}
// * * * * * * * * * * * * * * * * * * * * * * * * * * * * * * * * * * * * * //

dimensions      [0 1 -1 0 0 0 0];

internalField   nonuniform List<vector> 
4455
(
(99.965426 -0.40120808 0)
(99.925541 -1.0401166 -1.8711524e-18)
(99.677538 -1.6666506 6.4261219e-18)
(99.424207 -1.8831992 2.3198939e-20)
(98.887315 -2.1302769 6.0895752e-18)
(98.430187 -2.2725809 -2.2879718e-17)
(97.615726 -2.2814578 1.0159013e-17)
(96.670318 -2.4260594 0)
(95.17152 -1.7441883 -6.1996594e-17)
(99.949508 -0.36080948 -1.2345266e-17)
(99.886376 -0.98501332 1.2039818e-17)
(99.684156 -1.5037071 -1.4790252e-17)
(99.338781 -1.7252222 2.4614046e-17)
(98.872771 -2.0104683 -4.715016e-17)
(98.330089 -2.1645793 5.1484053e-17)
(97.419056 -2.3051966 -4.9129979e-18)
(96.433204 -2.5080083 7.1675847e-18)
(94.523709 -2.5752778 2.6980951e-16)
(99.936927 -0.32717357 -1.3106177e-17)
(99.872749 -0.88778632 1.6519623e-17)
(99.649345 -1.3554509 1.4460866e-17)
(99.3516 -1.5342515 -1.4375666e-17)
(98.804521 -1.8578879 6.3249702e-17)
(98.272799 -1.887175 -3.5575147e-17)
(97.273564 -2.0008992 4.5913067e-18)
(96.251296 -2.3493031 -1.0186454e-16)
(94.455535 -1.9551334 -1.9106253e-16)
(99.925375 -0.2914946 -1.3781816e-19)
(99.869418 -0.77558756 -1.6536635e-18)
(99.64303 -1.2257088 3.4731204e-17)
(99.336384 -1.347116 4.7302687e-18)
(98.76377 -1.6230475 2.2914533e-19)
(98.213914 -1.6448158 -6.8793885e-18)
(97.210308 -1.6019641 7.6442282e-17)
(95.892158 -2.0327108 2.0412911e-16)
(93.843966 -1.1521415 1.600434e-16)
(99.917423 -0.25667115 2.5337903e-17)
(99.873108 -0.67114172 -2.8305034e-17)
(99.644754 -1.0798648 3.6299776e-17)
(99.313451 -1.1457979 1.727981e-20)
(98.749232 -1.4383294 -4.3643385e-17)
(98.148001 -1.3770134 -1.3408422e-17)
(97.121523 -1.375419 -6.0239744e-17)
(95.816098 -1.7203783 -9.6212052e-17)
(93.457975 -0.85601624 -4.7357775e-16)
(99.917705 -0.22159498 0)
(99.87363 -0.57604103 0)
(99.654938 -0.92129716 -6.3007333e-17)
(99.327779 -0.97367488 -7.2682893e-17)
(98.752101 -1.20982 0)
(98.121422 -1.0961802 -9.7674237e-17)
(97.023492 -0.95408061 -8.2575145e-18)
(95.452073 -1.3609101 -5.7841846e-18)
(92.781837 -0.15028514 5.8683774e-16)
(99.922766 -0.18987784 0)
(99.87673 -0.48281245 -1.7236866e-18)
(99.661442 -0.77034206 1.9400895e-18)
(99.339726 -0.81813514 7.1033235e-17)
(98.733107 -1.0376092 -5.2380886e-18)
(98.14735 -0.83220007 2.0841929e-16)
(97.010963 -0.74628359 0)
(95.423067 -0.9604723 0)
(92.366745 0.3868143 2.7259344e-16)
(99.929495 -0.15819268 4.8991706e-17)
(99.883309 -0.39932251 0)
(99.672259 -0.64196864 0)
(99.36196 -0.63113938 0)
(98.80001 -0.80894842 0)
(98.116712 -0.55173736 -1.0428906e-16)
(96.936004 -0.30217784 -1.1219781e-16)
(95.125978 -0.50042279 1.6161642e-16)
(91.592148 1.2038483 4.6034379e-18)
(99.938816 -0.12921962 -4.8242774e-17)
(99.894353 -0.32184245 -1.6737209e-18)
(99.6951 -0.51806865 -1.879941e-18)
(99.398435 -0.50411209 4.270811e-18)
(98.817031 -0.63475201 1.6449599e-16)
(98.220892 -0.32058778 1.853119e-16)
(96.993078 -0.12771166 3.5826728e-16)
(95.10614 0.012191452 -1.5865021e-16)
(91.039528 1.9266771 -4.6955105e-16)
(99.948233 -0.10695531 0)
(99.958418 -0.086093833 9.066869e-17)
(99.966539 -0.069352667 -8.9930854e-17)
(99.972939 -0.054480048 8.6624621e-17)
(99.978336 -0.042110874 -8.4669977e-17)
(99.981919 -0.031878877 1.6970268e-16)
(99.984949 -0.025045235 -1.6475359e-16)
(99.985658 -0.023794222 0)
(99.990057 -0.023314095 0)
(99.903267 -0.25185391 0)
(99.912349 -0.19515576 1.565224e-18)
(99.922287 -0.14425025 0)
(99.932971 -0.10377169 4.4671824e-18)
(99.944728 -0.070452238 9.1570587e-17)
(99.95941 -0.042894887 -2.7384671e-16)
(99.972143 -0.025311478 1.7738003e-16)
(99.98811 -0.0074340564 -2.7051037e-18)
(100.00251 0.0088379615 1.716241e-16)
(99.71923 -0.40230489 1.1282756e-16)
(99.737055 -0.30047262 -2.2268903e-16)
(99.761627 -0.21398822 2.1330643e-16)
(99.787162 -0.13957821 -6.4055794e-18)
(99.813999 -0.082978437 -1.0106046e-16)
(99.84638 -0.033062977 -3.0812691e-18)
(99.867801 -0.0057444855 0)
(99.890627 0.017466133 5.8529968e-18)
(99.893889 0.014609975 -2.8569051e-18)
(99.435237 -0.35502404 1.1744282e-16)
(99.489789 -0.2154151 -2.389458e-16)
(99.533237 -0.11048615 2.2814555e-16)
(99.599223 -0.00387039 -1.1069613e-16)
(99.642348 0.073563041 -6.9585336e-18)
(99.719093 0.15683123 3.3696245e-18)
(99.762761 0.20787519 0)
(99.86373 0.30723123 -3.188509e-18)
(99.91036 0.31336302 1.9218233e-16)
(98.881964 -0.43387464 -1.3210134e-16)
(98.926831 -0.20269521 0)
(99.00485 -0.013159081 -1.2356629e-16)
(99.075074 0.16244777 1.2737503e-16)
(99.139591 0.30012893 -1.1575765e-16)
(99.233718 0.44722096 1.1958124e-16)
(99.264113 0.52903365 0)
(99.361366 0.66060406 0)
(99.369411 0.63599788 6.7879327e-18)
(98.168078 -0.0061119498 -1.6165381e-16)
(98.3304 0.32757438 -1.5579106e-16)
(98.325784 0.63111431 1.4973759e-16)
(98.53612 0.93813675 1.444721e-16)
(98.602072 1.1767171 -1.3927407e-16)
(98.852826 1.5091824 0)
(98.984707 1.6507624 2.5967479e-16)
(99.257913 1.9983404 -1.9472013e-19)
(99.36752 2.0058213 -4.8567241e-16)
(96.938745 0.29111804 -1.9005553e-16)
(97.032571 0.72104587 0)
(97.00485 1.1053818 0)
(97.098613 1.5718068 5.3052472e-18)
(97.126487 1.907725 0)
(97.307176 2.4037594 0)
(97.401671 2.6660367 0)
(97.623685 3.1691234 0)
(97.703021 3.2349655 0)
(94.827453 0.57653643 7.3990346e-18)
(94.872671 1.7574436 0)
(94.755637 2.4831484 6.7371294e-18)
(95.042395 3.7339484 -1.2583142e-17)
(95.308044 4.391075 -1.9055919e-16)
(95.770296 5.5357406 -1.8158252e-16)
(96.387653 5.8580261 3.4785267e-16)
(96.956663 6.890058 3.3741779e-16)
(97.513988 6.8702039 -3.1926889e-16)
(89.913707 2.8552545 8.9600933e-16)
(89.288846 5.0716132 -5.5264589e-16)
(88.732884 6.6206656 5.2692766e-16)
(89.18322 8.70255 -4.9456676e-16)
(89.795166 9.9278444 -7.0975243e-16)
(90.852146 11.585511 1.3384188e-15)
(91.716285 12.200866 -8.4603611e-16)
(92.773496 13.467222 -4.0453638e-16)
(93.488693 14.009589 3.8023138e-16)
(99.98442 -0.045368869 -2.2602013e-19)
(99.98905 -0.057940134 2.3215107e-16)
(99.996652 -0.06880406 -6.5819716e-21)
(100.00504 -0.080097005 -2.3393749e-16)
(100.01509 -0.091006416 2.2925155e-19)
(100.02908 -0.10033752 2.357841e-16)
(100.04845 -0.10760766 -2.3693576e-16)
(100.07573 -0.11293586 -2.3200247e-19)
(100.11544 -0.11422637 -1.1953366e-16)
(100.03123 0.023402089 -2.4661932e-16)
(100.0348 0.055356996 2.4866038e-16)
(100.07166 0.074852522 -2.48635e-16)
(100.07016 0.11835523 0)
(100.11183 0.14596008 2.5154804e-16)
(100.11157 0.21357163 5.2596547e-19)
(100.17316 0.24721734 7.5885756e-19)
(100.19064 0.35093211 -2.5375748e-16)
(100.29497 0.38514661 1.2804442e-16)
(99.902836 0.040402834 2.6418363e-16)
(99.884351 0.07873499 -2.6427659e-16)
(99.913203 0.11022204 -2.6660332e-16)
(99.903024 0.18856236 2.6727994e-16)
(99.977852 0.23920095 -2.7030036e-16)
(99.980484 0.36880859 2.6954813e-16)
(100.09905 0.42790803 -2.7300015e-16)
(100.11616 0.5936507 -5.6748508e-19)
(100.2686 0.65127354 2.7391499e-16)
(100.0272 0.42435321 -2.8096874e-16)
(100.02482 0.61575557 -1.1094553e-18)
(100.0914 0.72078045 1.1200261e-18)
(100.1286 0.92179367 0)
(100.0781 1.0975934 -5.2169062e-21)
(100.22267 1.2526334 -2.8872204e-16)
(100.16947 1.5059961 2.9372698e-16)
(100.36497 1.6955276 1.1501058e-18)
(100.35135 1.9277592 1.1558213e-18)
(99.487523 0.81425487 -1.190375e-18)
(99.406516 1.0417698 -3.0805058e-16)
(99.544101 1.1995457 -1.4763267e-18)
(99.484787 1.472907 3.1142448e-16)
(99.688743 1.6335996 3.1471075e-16)
(99.667229 1.9571758 -3.1627667e-16)
(99.942474 2.124809 -1.2325542e-18)
(99.945697 2.495895 -1.2394716e-18)
(100.26383 2.6543706 -1.2462648e-18)
(99.650475 2.3234237 3.3255195e-16)
(99.60827 2.8167798 0)
(99.825214 3.107805 0)
(99.705979 3.548887 3.3809927e-16)
(99.926352 3.8343932 -3.4258044e-16)
(99.823624 4.3092861 -3.451409e-16)
(100.12054 4.5935789 6.9160422e-16)
(100.08701 5.1380426 7.3490995e-20)
(100.43231 5.4005492 -7.0005966e-16)
(97.926324 3.7037506 -1.4578422e-18)
(97.970717 4.2614516 0)
(98.195595 4.515174 1.4736361e-18)
(98.337204 5.018209 3.7873792e-16)
(98.68427 5.2860475 -3.8105237e-16)
(98.923319 5.7882103 3.8340947e-16)
(99.353888 6.0289414 -3.8424951e-16)
(99.584157 6.4828435 -1.5115661e-18)
(100.02449 6.6645591 3.8934534e-16)
(98.06903 7.6950209 -4.114331e-16)
(98.577056 8.4897509 4.1695483e-16)
(98.950369 9.1652144 -4.2034384e-16)
(99.283935 9.8845578 4.1816252e-16)
(99.663592 10.518503 -4.178844e-16)
(100.12898 11.144157 -5.9489387e-19)
(100.58823 11.610239 4.2406689e-16)
(101.03623 11.985921 3.331483e-18)
(101.4572 12.2655 2.1264205e-16)
(94.667056 15.396966 0)
(95.205483 16.262596 -4.7252612e-16)
(96.483036 16.963223 3.0698805e-18)
(97.449858 16.906123 5.0718775e-18)
(98.818417 16.856063 9.4630791e-16)
(99.59238 16.089363 -4.7312764e-16)
(100.7393 15.189704 -4.7216482e-16)
(101.73251 13.680938 4.7404948e-16)
(103.11159 12.500064 2.3764807e-16)
(103.32167 10.917797 -2.7767075e-16)
(103.79049 9.7920632 0)
(103.74714 9.2721711 2.7858102e-16)
(103.91835 8.8704277 -2.7756285e-16)
(103.67156 8.6856115 0)
(103.56278 8.2371873 0)
(103.02218 7.7729506 0)
(102.80782 7.1429782 -2.9521876e-16)
(102.07229 6.6351832 2.9522129e-16)
(101.76615 12.408719 -2.4221674e-16)
(102.06186 12.584997 0)
(102.30606 12.649466 0)
(102.45568 12.775355 0)
(102.56242 12.83495 0)
(102.67129 12.908381 0)
(102.6589 12.943336 0)
(102.61073 13.033307 2.4381563e-16)
(102.4316 13.063473 -4.9040669e-16)
(100.22777 7.0361591 2.2966859e-19)
(100.67105 7.3807835 -4.2833741e-16)
(100.81481 7.6675638 0)
(101.2266 7.9898328 -2.1477396e-16)
(101.33778 8.3002866 2.1477345e-16)
(101.72897 8.587717 0)
(101.78728 8.8700014 0)
(102.13813 9.1436292 0)
(102.1154 9.4304332 0)
(100.44417 5.9673578 3.7673428e-16)
(100.80046 6.2822294 0)
(100.84966 6.8262585 1.8839865e-16)
(101.18307 7.1261287 -3.7684977e-16)
(101.25494 7.6794211 1.8844753e-16)
(101.60641 7.9724743 0)
(101.69611 8.536116 0)
(102.06485 8.8395274 0)
(102.15928 9.4296196 1.8874523e-16)
(100.26804 3.0593513 0)
(100.61899 3.2541742 3.3906106e-16)
(100.63854 3.7002319 -5.0859356e-16)
(101.04447 3.9060673 1.6956929e-16)
(101.08245 4.4007345 1.6958768e-16)
(101.53949 4.6158529 -1.1371153e-20)
(101.58704 5.1432161 -3.391751e-16)
(102.08176 5.376467 3.3915776e-16)
(102.126 5.9342961 -1.6956892e-16)
(100.57624 2.2417651 0)
(100.65767 2.4238513 1.532655e-16)
(100.85736 2.7919884 -1.5326549e-16)
(100.96076 3.0078416 0)
(101.20911 3.4023324 -3.0653459e-16)
(101.34433 3.6205039 3.0645751e-16)
(101.64827 4.0618085 1.5309852e-16)
(101.83251 4.2940513 -3.0615948e-16)
(102.20907 4.7560217 1.5302547e-16)
(100.30354 0.85002925 0)
(100.50589 0.92105245 0)
(100.56505 1.1717272 0)
(100.83556 1.2508762 -1.4070985e-16)
(100.9089 1.5256717 2.8147183e-16)
(101.2535 1.7026363 -2.8131673e-16)
(101.36383 1.9165644 1.4061501e-16)
(101.70779 2.2164405 -1.4041435e-16)
(101.94473 2.3568351 2.8066854e-16)
(100.33611 0.52520724 -2.5973304e-16)
(100.4847 0.55727344 3.2688245e-20)
(100.54948 0.73051586 1.2985958e-16)
(100.73712 0.7588405 -1.2976604e-16)
(100.83816 0.97368279 1.2974272e-16)
(101.0806 0.98479181 0)
(101.21388 1.2130747 1.2956319e-16)
(101.54399 1.2518945 -2.5898575e-16)
(101.72812 1.505821 1.2940404e-16)
(100.14462 -0.099990303 1.2141095e-20)
(100.21849 -0.11475448 1.2098081e-16)
(100.27625 -0.07274586 1.2104001e-16)
(100.41421 -0.049652601 -1.2104002e-16)
(100.49225 0.0063412506 0)
(100.66886 0.027353429 0)
(100.77237 0.096562999 -1.2084376e-16)
(100.99972 0.11076872 2.4160614e-16)
(101.13857 0.19114798 -1.2076144e-16)
(101.45215 0.24170967 0)
(101.64433 0.32420384 -1.2033777e-16)
(102.05839 0.39251587 2.1705762e-19)
(102.32131 0.50939191 2.5163361e-19)
(102.80658 0.57467173 2.9100834e-19)
(103.16278 0.70065585 1.1959581e-16)
(103.7477 0.78681754 1.1886925e-16)
(104.19079 0.92829525 -1.1886925e-16)
(104.8885 1.0250331 0)
(102.12134 1.5040627 0)
(102.34595 1.7968123 0)
(102.85668 1.85358 -1.2859383e-16)
(103.12631 2.1206025 2.9797866e-19)
(103.71513 2.1491882 3.6000851e-19)
(104.10425 2.5518098 1.2793821e-16)
(104.7037 2.5403972 1.2708047e-16)
(105.27725 2.9414029 -1.2708044e-16)
(105.8731 3.0016014 0)
(102.21636 2.787576 -1.4026824e-16)
(102.6649 2.9021749 0)
(102.8455 3.4255606 0)
(103.44316 3.5328478 -1.3937605e-16)
(103.65207 4.0975466 2.7860833e-16)
(104.32245 4.278592 -3.3483116e-19)
(104.56214 4.8159524 -3.9014927e-19)
(105.34714 5.0719227 -1.3838803e-16)
(105.63289 5.6540191 0)
(102.3851 5.0375883 -1.5276051e-16)
(102.83485 5.514074 1.527603e-16)
(103.05492 5.7812061 0)
(103.54188 6.2930071 0)
(103.78836 6.6125505 1.5189733e-16)
(104.41943 7.0573637 -1.5189732e-16)
(104.62205 7.5557555 1.5119519e-16)
(105.37528 7.9402412 -7.5812368e-17)
(105.60785 8.5051444 -7.5399787e-17)
(102.64433 6.1846488 -1.6953438e-16)
(102.69203 6.7853566 1.695499e-16)
(103.22392 7.0423736 0)
(103.34429 7.7332309 0)
(103.79218 8.0040078 0)
(104.05963 8.7808817 0)
(104.42806 9.1268122 0)
(104.73292 9.9961718 0)
(105.19981 10.397614 0)
(102.51139 9.7185436 -1.8877139e-16)
(102.58634 10.34134 1.8900624e-16)
(102.95118 10.664376 -1.890044e-16)
(102.96046 11.313805 1.8935331e-16)
(103.38818 11.703467 -1.8934451e-16)
(103.31589 12.408434 0)
(103.79981 12.860159 0)
(103.7286 13.689888 0)
(104.23017 14.195933 0)
(102.39146 9.7463601 0)
(102.24378 10.075971 -2.1823452e-16)
(102.46657 10.484535 2.1817651e-16)
(102.20949 10.891178 0)
(102.4323 11.411695 2.2098802e-16)
(102.08409 11.904416 -2.209463e-16)
(102.33877 12.555928 0)
(101.87895 13.144499 1.1186936e-16)
(102.16515 13.935031 -2.2415935e-16)
(102.28755 13.244523 2.4632428e-16)
(101.85393 13.414831 2.4964065e-16)
(101.6754 13.745211 -2.4986403e-16)
(101.09975 14.164603 2.5377509e-16)
(100.91402 14.620848 -5.0989808e-16)
(100.26033 15.141928 5.14247e-16)
(100.07384 15.700522 -5.1870579e-16)
(99.292495 16.294222 2.6048582e-16)
(99.053871 16.939896 0)
(101.51109 6.3423458 -3.0335104e-16)
(100.40828 6.5087985 3.0334216e-16)
(99.603021 6.8807416 0)
(98.456798 7.3187669 0)
(97.617101 7.7192855 0)
(96.334702 8.0341685 0)
(95.396925 8.1226338 0)
(93.951675 8.0690132 -1.6715275e-16)
(93.194713 8.0643688 1.6708695e-16)
(91.612994 8.0920889 1.7163846e-16)
(98.102031 17.607351 0)
(101.58011 14.67436 1.1233886e-16)
(104.17262 15.156389 0)
(105.42435 11.398592 0)
(106.4494 9.0247545 0)
(106.50745 5.9383398 6.8424079e-17)
(106.64111 3.370692 6.2667246e-17)
(105.45981 1.1775288 5.8649748e-17)
(90.908992 8.8344064 -1.7158276e-16)
(97.821967 18.364981 0)
(101.93312 15.584355 0)
(104.69208 15.724908 9.5104452e-17)
(106.09584 11.859033 0)
(106.7591 9.5375203 -7.4537844e-17)
(106.84819 6.5318485 -1.3651042e-16)
(107.22918 3.5333676 -1.2496562e-16)
(106.26523 1.2972847 -1.1695879e-16)
(89.072879 9.365029 0)
(96.671977 19.269993 0)
(101.28362 16.532076 1.1350879e-16)
(104.63269 16.820122 -9.5104799e-17)
(106.22875 12.975615 0)
(107.66361 10.266354 7.4537828e-17)
(107.85482 6.8963162 6.8088861e-17)
(108.21198 3.8693026 6.2298372e-17)
(106.98386 1.4531144 5.8309028e-17)
(88.427773 11.061081 1.7839045e-16)
(96.411862 20.253337 0)
(101.71231 17.517554 -2.2730314e-16)
(105.2447 17.465655 0)
(107.02346 13.46242 0)
(108.11788 10.731343 -7.3729938e-17)
(108.26182 7.527432 -6.7288374e-17)
(108.8298 4.094258 0)
(107.91583 1.5940753 -5.7482976e-17)
(86.203492 12.290053 -1.7839051e-16)
(95.134433 21.701013 -1.3778469e-16)
(101.04142 18.738262 1.1379758e-16)
(105.19709 18.749028 0)
(107.29136 14.74629 0)
(109.09918 11.620109 7.372991e-17)
(109.40277 7.9236421 6.7288345e-17)
(110.00061 4.4269739 0)
(108.78021 1.7647235 5.7482968e-17)
(85.662142 14.564193 0)
(95.039265 22.929352 1.3784083e-16)
(101.51246 19.802746 -1.1420584e-16)
(105.92657 19.478862 0)
(108.03504 15.245239 0)
(109.65682 12.111053 -7.267364e-17)
(109.8933 8.6225725 -6.6273844e-17)
(110.66657 4.766071 0)
(109.85994 1.9142851 -5.6441605e-17)
(83.182127 15.88529 0)
(93.861923 24.79939 0)
(100.88243 21.37327 1.1420571e-16)
(105.9081 20.973982 -4.6990468e-17)
(108.53962 16.638349 -4.1205184e-17)
(110.8026 13.099646 1.08694e-16)
(111.19933 8.9956244 9.9108235e-17)
(112.03035 5.0379249 0)
(110.87801 2.0890078 8.435796e-17)
(82.833926 18.121804 0)
(93.938258 26.135416 -6.9707316e-17)
(101.48093 22.494068 0)
(106.806 21.736821 4.6978131e-17)
(109.29446 17.187147 4.1190969e-17)
(111.44867 13.61994 -3.5543168e-19)
(111.78 9.8157462 -6.5337897e-17)
(112.77181 5.4880702 0)
(112.10135 2.2476907 -2.7916358e-17)
(80.324231 19.560527 -9.3284724e-17)
(92.897744 28.233518 6.969024e-17)
(100.97475 24.508203 0)
(106.93585 23.507766 0)
(109.98671 18.777641 0)
(112.73991 14.75184 -7.0922227e-17)
(113.25312 10.173988 3.8187921e-19)
(114.32046 5.7086634 0)
(113.27093 2.4286857 0)
(114.8464 2.601606 0)
(115.15021 6.2442996 0)
(114.00849 11.033332 -1.5582795e-18)
(113.51683 15.166894 3.7003381e-17)
(110.89679 19.164116 0)
(107.96257 24.141375 -5.9000694e-18)
(101.90097 25.480337 -5.9250735e-19)
(93.233829 29.747708 -5.7986728e-17)
(80.198975 21.961693 1.7442572e-16)
(116.33492 2.7247059 -1.3320531e-17)
(116.85366 6.3196867 -1.8195441e-18)
(115.71058 11.187122 1.6153185e-17)
(114.88406 16.263594 -7.0349794e-20)
(111.89763 20.628018 -1.727321e-17)
(108.39933 25.871505 2.2411147e-17)
(101.88985 27.681313 -7.1797946e-18)
(92.587316 32.540825 7.531259e-17)
(79.055968 27.037533 -8.9090012e-17)
(117.86373 2.8264702 2.6650064e-17)
(117.8507 6.7800954 0)
(116.60996 12.020852 3.1483178e-17)
(116.00157 16.441715 -1.712094e-17)
(113.17194 20.867552 1.7459687e-17)
(109.77452 26.377075 -4.2414043e-17)
(103.58815 28.480135 -3.4589059e-17)
(94.366368 33.900218 1.7178616e-17)
(81.822677 29.550901 1.815432e-18)
(119.50042 2.9256796 -1.3347216e-17)
(119.70887 6.8717692 -1.7965676e-18)
(118.59183 12.230001 -1.3861643e-17)
(117.39104 17.748481 1.9563161e-17)
(114.48234 22.450089 7.3713892e-18)
(110.58657 28.229819 2.2781846e-17)
(104.10706 30.849386 2.7890808e-17)
(94.587135 36.738753 9.083352e-18)
(82.029179 34.061771 -1.0402026e-17)
(121.25656 3.0272061 3.2165009e-18)
(120.91719 7.2931215 -3.4789681e-18)
(119.61658 12.935548 -1.9539469e-18)
(118.86167 17.677799 6.3449884e-18)
(115.89783 22.569145 -7.4258474e-18)
(112.31035 28.57623 -8.32467e-18)
(106.20731 31.395455 -7.1896135e-18)
(96.790014 37.81356 8.1196371e-18)
(84.751123 35.592251 -1.2068696e-17)
(123.11147 3.1291967 -3.2543326e-18)
(122.95328 7.3982158 3.5207983e-18)
(121.8329 13.240833 -1.9341873e-18)
(120.35083 19.072861 -9.5793854e-21)
(117.57141 24.117042 -2.378725e-18)
(113.24485 30.493601 5.6578203e-18)
(107.03789 33.769919 -7.1612821e-18)
(97.299709 40.526941 8.1083468e-18)
(85.205689 39.260694 0)
(125.05001 3.2213431 -3.1023903e-18)
(124.32736 7.7955108 -1.733779e-18)
(122.98089 13.689277 -1.8595342e-18)
(122.01804 18.907508 -2.1494094e-18)
(119.06209 24.153642 -2.4055603e-18)
(115.26568 30.659363 5.8321118e-18)
(109.33088 34.108058 -1.3643127e-17)
(99.658685 41.276442 1.7107375e-17)
(88.023392 40.332763 -1.0432919e-17)
(127.06313 3.2972221 9.2052529e-18)
(126.51997 7.8783576 6.6375982e-18)
(125.39642 14.112828 9.2397666e-18)
(123.77917 20.190705 1.0192532e-17)
(120.93572 25.669445 7.2705152e-18)
(116.38683 32.654643 -2.695885e-18)
(110.41226 36.490213 -7.0635954e-18)
(100.48883 43.875282 -9.4765214e-19)
(88.757103 43.813743 -1.1507234e-17)
(129.15561 3.3501212 -1.7959083e-17)
(128.04066 8.2711723 -6.7203651e-18)
(126.67675 14.386271 -2.367585e-17)
(125.39414 19.978457 -6.2486316e-18)
(122.61468 25.518073 1.609515e-17)
(118.51782 32.590684 8.3640288e-18)
(112.82229 36.652098 -3.9772153e-17)
(103.01389 44.350378 7.9754264e-18)
(91.624782 44.62378 2.2521807e-17)
(92.722793 48.018325 -2.2121812e-17)
(104.17293 46.965973 8.8565463e-18)
(114.19373 39.072654 5.9239605e-17)
(119.99983 34.587233 -8.2390232e-18)
(124.64437 27.05974 3.9685463e-18)
(127.63364 21.128251 1.16604e-17)
(129.27168 14.770707 1.6396771e-17)
(130.36952 8.2792691 -8.0107186e-19)
(131.32572 3.3806622 2.4170869e-17)
(95.685546 48.466338 8.6782217e-17)
(106.90192 47.248814 7.8002247e-18)
(116.70568 38.997497 -8.4445518e-17)
(122.22685 34.287029 -2.5748556e-18)
(126.46183 26.685857 -1.6145824e-17)
(129.0978 20.901004 -1.3986531e-17)
(130.6531 14.89937 -2.9170996e-17)
(132.00231 8.5960622 0)
(133.5662 3.3887271 -1.1606877e-17)
(97.011517 51.554857 -1.1119664e-16)
(108.38606 49.931615 7.8861063e-17)
(118.43983 41.376875 4.553487e-17)
(124.07714 36.222391 -2.5210054e-18)
(128.7527 28.149061 3.4760814e-17)
(131.664 21.745953 7.2799147e-20)
(133.41381 15.14364 4.5992586e-18)
(134.44745 8.6105412 2.239161e-17)
(135.86141 3.369237 2.131757e-17)
(99.892292 51.708104 -2.1731411e-17)
(111.18572 49.932858 1.3237854e-17)
(121.02821 40.993994 -6.5285131e-18)
(126.34904 35.654599 0)
(130.63272 27.580429 -3.5262866e-17)
(133.20644 21.503196 0)
(134.91533 15.12212 2.5342585e-17)
(136.14765 8.8300134 -4.5879641e-17)
(138.20142 3.3210403 -1.1708286e-18)
(101.46048 54.607639 -9.9973927e-18)
(113.01005 52.501218 -6.1820283e-17)
(123.12722 43.223845 6.3654003e-18)
(128.53711 37.450417 0)
(133.19931 28.887566 -3.4662307e-17)
(135.91724 22.274641 2.8047843e-17)
(137.78435 15.363434 1.612485e-18)
(138.70111 8.8136942 4.5673757e-17)
(140.57029 3.2455857 -2.0646372e-17)
(104.38972 54.47041 -9.5219542e-17)
(115.88317 52.114982 -5.0910668e-17)
(125.73581 42.49201 -5.1882746e-19)
(130.84383 36.601821 -4.9648686e-18)
(135.10569 28.089964 -2.262835e-19)
(137.58474 21.617302 -5.5276347e-17)
(139.33835 15.004111 1.5516624e-18)
(140.41996 8.8695785 -2.2542156e-17)
(142.95173 3.1377911 0)
(106.30304 57.297083 6.5501193e-17)
(117.99125 54.428199 7.4721351e-17)
(128.16135 44.487205 -4.9707564e-19)
(133.28476 38.230828 -4.7910655e-18)
(137.88801 29.197961 3.013681e-17)
(140.32592 22.453971 2.907638e-17)
(142.26457 15.164902 1.4449078e-18)
(143.06886 8.8432555 -1.3239792e-18)
(145.32128 2.9924975 0)
(109.39476 56.880526 0)
(121.04089 53.747712 -6.7496638e-18)
(130.75535 43.404187 5.7524522e-18)
(135.59387 37.07852 -6.5628855e-17)
(139.82754 28.137706 -1.9023812e-18)
(142.13529 21.434685 4.7626242e-17)
(143.87795 14.588793 -4.1578121e-17)
(144.74984 8.7279962 3.8434869e-17)
(147.65713 2.8073647 3.2342087e-17)
(111.84616 59.801428 1.4814281e-16)
(123.24714 55.621586 1.1741862e-16)
(133.47635 45.17567 -5.5066277e-18)
(138.26967 38.535868 6.920116e-17)
(142.76555 29.109698 -1.7320293e-18)
(144.82027 22.108563 -4.8461255e-17)
(146.71996 14.590082 4.4952418e-17)
(147.44493 8.654831 -4.0162317e-17)
(149.93458 2.5873813 -2.6192356e-18)
(152.24379 2.278061 -2.9849276e-17)
(149.06734 8.3324197 3.2874229e-17)
(148.37665 13.818551 0)
(146.84516 20.85498 -2.8253315e-18)
(144.70989 27.663749 5.206081e-17)
(140.56777 36.949179 5.6647144e-17)
(136.03913 43.618752 0)
(126.7891 54.612664 -8.3142009e-18)
(115.40073 58.967053 -1.4482733e-16)
(154.21276 1.9291214 0)
(151.77596 8.0557361 -3.4008901e-17)
(151.18972 13.554601 0)
(149.50412 21.200158 -2.6573283e-18)
(147.93952 28.253217 -9.3141518e-17)
(143.7539 38.133092 -6.1850378e-17)
(139.41976 45.060536 7.0623551e-17)
(129.66478 56.095342 -8.7743779e-17)
(119.47809 62.375247 1.0814237e-16)
(156.13185 1.5255316 0)
(153.34799 7.5240608 0)
(152.81139 12.513533 -3.2197802e-17)
(151.62691 19.597209 0)
(149.97219 26.477861 4.705996e-17)
(146.05879 36.102658 -4.9685333e-17)
(142.00679 42.994334 -6.4426884e-17)
(133.73789 54.561513 -4.7821143e-18)
(123.80469 60.616494 -2.3570147e-17)
(157.89909 1.1107279 0)
(155.88225 7.1274613 0)
(155.49882 12.21401 3.2866178e-17)
(154.12058 19.616585 3.1675372e-17)
(153.18702 26.708013 3.9365156e-17)
(149.35811 36.910714 5.4063584e-17)
(145.25497 44.0065 0)
(136.76092 55.35347 6.7767025e-17)
(129.17802 63.576577 -1.1942221e-16)
(159.46595 0.70145514 3.3466874e-19)
(157.26695 6.4716894 -3.6780811e-19)
(156.91952 10.789534 0)
(156.17365 17.746197 -3.7271169e-18)
(155.04809 24.607908 -7.9025021e-17)
(151.8011 34.594892 2.7379314e-18)
(148.05339 41.747959 5.4894941e-17)
(140.40338 53.389396 -7.4774672e-17)
(133.83443 60.793063 8.9974404e-17)
(160.81961 0.2982342 -3.0006225e-19)
(159.48171 5.9555169 3.3032492e-19)
(159.49155 10.408898 0)
(158.59945 17.575775 -3.3689209e-17)
(158.21576 24.561791 4.1388411e-17)
(154.89388 35.035818 -2.4915764e-18)
(151.02886 42.375178 -5.6774062e-17)
(142.9741 53.427263 0)
(140.21601 62.748865 -8.7960381e-17)
(161.95003 -0.097708774 2.6659344e-19)
(160.62226 5.1882137 1.8780507e-17)
(160.58283 8.7960547 -7.4383955e-19)
(160.17455 15.401245 2.4242628e-17)
(159.89242 22.085274 3.1090107e-17)
(157.38842 32.470227 0)
(153.83252 40.06076 0)
(145.93079 50.892741 -5.9967644e-17)
(145.15406 59.115153 0)
(162.89561 -0.51279524 0)
(162.48428 4.5045543 -1.9467938e-17)
(162.86965 8.3112188 0)
(162.59049 15.035417 -2.726935e-17)
(162.73949 21.709135 -2.8230417e-17)
(160.51581 32.48594 2.8423823e-17)
(156.64569 40.609668 0)
(147.43797 50.202806 6.4880606e-17)
(151.71081 59.888119 -1.3996215e-17)
(163.33002 -0.70052673 0)
(163.20458 3.653259 0)
(163.61546 6.5764545 -5.8196324e-19)
(163.70524 12.427463 -6.9777191e-19)
(164.56388 18.305746 1.5064498e-18)
(163.03741 29.106059 -2.9340296e-17)
(160.72029 37.676369 0)
(149.38015 47.144778 0)
(154.66155 55.250996 1.1626279e-17)
(164.10715 -1.0352322 -3.4926975e-19)
(164.64778 3.0436124 -4.564227e-20)
(165.51601 6.0581666 1.4013411e-17)
(165.72494 12.624686 0)
(166.10312 18.71022 0)
(165.5955 29.329237 -1.3027107e-18)
(162.38011 39.79143 -2.0136524e-17)
(149.56553 49.854053 1.3857566e-18)
(159.02522 54.499715 0)
(164.19993 -1.4316965 -2.8865059e-19)
(165.11003 2.573561 -3.0329458e-20)
(166.18698 5.3369985 -1.2696825e-17)
(166.85826 11.284216 0)
(168.22303 18.399972 0)
(167.65838 30.101677 7.771294e-19)
(164.31168 41.7093 3.6429398e-17)
(149.37807 51.20189 -1.2130722e-18)
(154.22842 51.772206 -6.4639945e-17)
(164.08184 -1.641057 0)
(166.1297 1.7435207 1.6555347e-17)
(167.64538 4.5536686 0)
(168.98317 11.487449 6.1557986e-19)
(169.50686 18.697695 -6.7246388e-19)
(169.48113 30.40682 -3.0729071e-19)
(166.92743 43.879115 -1.404842e-17)
(146.33082 53.682385 9.9888845e-19)
(138.59341 48.71646 6.1458827e-17)
(163.81797 -1.886065 1.1569979e-17)
(166.23636 1.0874601 -1.581035e-17)
(168.307 3.9736533 1.2523294e-17)
(169.96056 9.9511169 1.0513044e-17)
(171.64366 18.002721 -9.9553843e-18)
(171.22806 31.108447 2.4446395e-18)
(169.40299 45.159859 -1.8040905e-18)
(140.84852 52.281531 1.0083092e-16)
(118.60903 55.054676 0)
(163.34312 -2.1286221 -2.1906079e-17)
(166.95743 -0.0039551461 1.0508122e-17)
(169.06172 2.6641929 -1.2114686e-17)
(172.04702 9.6314386 -5.5350241e-18)
(173.35252 18.079874 9.3429216e-18)
(172.98329 31.252924 -8.4623618e-18)
(170.57346 46.992423 0)
(134.86606 56.773247 -9.6454138e-17)
(85.620515 66.025361 0)
(162.61148 -2.3542303 1.9723881e-17)
(166.75885 -0.80820608 -1.0045969e-17)
(169.71671 1.9583715 6.1029991e-18)
(173.14998 7.8410462 -4.5994261e-18)
(175.68537 16.897877 1.8737927e-19)
(174.97986 31.815459 5.9623011e-18)
(169.99974 50.286805 -2.9784942e-17)
(124.24894 55.759847 6.4111923e-17)
(40.037643 29.971776 3.6938264e-17)
(161.63426 -2.575463 -9.5473097e-18)
(167.33754 -2.1082679 2.1725767e-19)
(170.07949 0.64164076 -5.8748244e-18)
(174.82988 7.0062972 -1.9175772e-19)
(177.37406 16.77038 2.068604e-19)
(176.66725 32.136201 2.4141096e-17)
(167.52697 50.950327 6.386404e-17)
(100.96225 47.824755 -6.078294e-17)
(-7.3158587 -2.2697995 -3.5018985e-17)
(160.41313 -2.7908119 -1.0805337e-19)
(166.75692 -3.0335138 1.164674e-19)
(170.42793 -0.29919755 1.3739229e-18)
(175.84632 4.9709943 -9.6435807e-18)
(179.60132 15.318329 2.0145138e-17)
(178.25067 31.962323 -5.6272743e-17)
(162.73038 52.1832 -7.2555472e-17)
(72.286177 40.0999 3.6746448e-17)
(-8.7010554 3.2362645 5.2922692e-17)
(158.98907 -2.9992111 9.8551403e-18)
(166.83191 -4.4397151 -3.352366e-20)
(170.57922 -1.8113271 -1.5620385e-18)
(177.24777 3.9236213 9.3519514e-18)
(181.02116 14.803547 -1.8602799e-17)
(178.92299 31.997042 3.2038129e-17)
(153.34011 52.182636 3.5714659e-17)
(39.378885 22.5182 -3.5308241e-17)
(-15.440649 6.756544 -5.0429663e-17)
(-17.83305 4.8067023 -1.0239187e-16)
(18.736533 13.786814 -2.1854237e-19)
(144.88148 53.789939 8.7977165e-19)
(179.09354 31.340306 -7.5219916e-19)
(182.64207 13.308763 0)
(177.71811 1.9946395 1.354047e-19)
(170.37498 -2.9243095 1.7657777e-18)
(165.78711 -5.189328 -3.5007209e-18)
(157.35813 -3.1858985 -2.0404284e-17)
(-20.098857 4.7778287 9.8584382e-17)
(5.916102 8.9552226 0)
(136.57366 52.598158 0)
(180.17491 29.894289 1.4258446e-16)
(183.70917 11.440977 0)
(178.39729 0.056020727 -3.9493581e-17)
(170.41235 -4.5038046 -6.8046357e-18)
(165.22971 -6.693344 3.3642903e-18)
(155.54673 -3.3372352 -1.261104e-17)
(-20.680755 4.1729182 3.6309975e-19)
(-1.1559818 11.838386 -2.9277804e-19)
(126.48293 52.224161 0)
(179.74491 29.056263 -1.393814e-16)
(184.84035 9.8724923 0)
(178.47063 -2.0267483 3.8978303e-17)
(169.48909 -5.9863515 5.0328438e-18)
(163.90263 -7.2976213 -7.140021e-20)
(153.61565 -3.429831 2.2893333e-17)
(-21.218394 4.7651245 2.1787616e-16)
(-0.40721925 20.274056 -5.0141033e-18)
(119.03469 50.062869 3.7582789e-19)
(179.97349 27.006672 0)
(185.42368 7.7290509 -9.9802173e-17)
(178.9497 -3.8307818 0)
(169.413 -7.3443033 8.8952511e-21)
(162.83906 -8.7306929 -8.058707e-20)
(151.62387 -3.4508379 6.570223e-20)
(-21.333835 6.0660416 -2.0977933e-16)
(1.8458295 30.717367 -2.2034262e-17)
(110.09066 50.286426 1.2351646e-16)
(178.83532 26.122259 -1.0932805e-18)
(186.15036 6.0084103 -8.2381981e-18)
(178.75792 -5.9427583 0)
(168.06534 -8.9413773 -6.6812455e-18)
(161.14197 -9.1898273 0)
(149.52534 -3.42347 0)
(-19.802215 8.072189 5.3568036e-19)
(1.725472 36.701857 2.4359731e-17)
(104.29345 48.544603 -2.534945e-16)
(178.27797 23.865314 2.0508387e-16)
(186.29858 3.7039117 1.0425156e-16)
(178.77156 -7.7933845 5.0186336e-17)
(167.61092 -10.321704 6.4094996e-18)