/*--------------------------------*- C++ -*----------------------------------*\
  =========                 |
  \\      /  F ield         | OpenFOAM: The Open Source CFD Toolbox
   \\    /   O peration     | Website:  https://openfoam.org
    \\  /    A nd           | Version:  11
     \\/     M anipulation  |
\*---------------------------------------------------------------------------*/
FoamFile
{
    format      ascii;
    class       volScalarField;
    location    "0.35923615";
    object      rho;
}
// * * * * * * * * * * * * * * * * * * * * * * * * * * * * * * * * * * * * * //

dimensions      [0 0 0 0 0 0 0];

internalField   nonuniform List<scalar> 
880
(
0.2239950333699092
0.2239950336977215
0.2240219312571987
0.2277382429568036
0.2239950333702082
0.223995034333608
0.2240283850450453
0.2294906832562143
0.2239950333717012
0.2239950371321023
0.2240567386440233
0.2315875355639934
0.2239950333941023
0.2239950499075351
0.2241222553596738
0.2347099927082474
0.223995033259515
0.2239950334139612
0.2239950459401247
0.2239952242250021
0.2239951096729004
0.2239953271713974
0.2239968608662883
0.2239977477441084
0.2242817662734062
0.2244566853823437
0.2247513438247838
0.2250683389140958
0.2401924847215568
0.2455343320313517
0.25000848983322
0.2520201929222181
0.2239955037666914
0.2239988445315341
0.2240094182347912
0.2240395953098572
0.2240201690132747
0.2241022659606456
0.2242088530280918
0.2244460992825424
0.226458300736675
0.2276524974040698
0.229173489472585
0.2311937816716294
0.2539939525389507
0.2568432915486329
0.2574509114440765
0.2560354347378995
0.243627987790765
0.23667210104648
0.233138528622741
0.2308249298858351
0.234744907132463
0.2358606734076435
0.2365383538548538
0.2365730265586616
0.2252532866444917
0.2262087711964099
0.2272170783871168
0.2279428582358881
0.2241532002237684
0.2243777850277282
0.2247180579271736
0.2251948690784805
0.2257495213189599
0.226307008450332
0.2268586626833078
0.2272746974395722
0.2284637115744398
0.2287683386938088
0.2289177055650924
0.2289562428984731
0.2358869521112664
0.2349358156086036
0.2336846441758515
0.2323892227676571
0.2284543767801913
0.227099871523318
0.2263600882633607
0.2255256124457982
0.2257913916000102
0.2314865494613785
0.2288735405005397
0.2275322318908179
0.2365886725659171
0.2310972117028753
0.2286240051455672
0.2274951325890916
0.295415629113584
0.2338487995886015
0.2283256720905517
0.2269978160929351
0.3573532535191766
0.2486712613171694
0.2292792791285579
0.2268111508774863
0.2267524175324446
0.2306964252743257
0.2665977693879343
0.3845281295293304
0.2257541467701738
0.2332911405677137
0.2862190397313602
0.384115194197666
0.2261775394543692
0.239209452407683
0.3116796700916958
0.3875968291345544
0.227776280993126
0.2496192132930443
0.3348897858752086
0.3832617303020832
0.3736731657866861
0.3470976084773009
0.2651510324981221
0.2312645543402556
0.3618911538031241
0.3484420144260099
0.2820884161840134
0.2373726192390281
0.3493507042524424
0.344441019232971
0.2966028835848727
0.2469823512631442
0.3360857554821124
0.3272445418451091
0.2987921427637751
0.2586678637408416
0.2688481766084329
0.2915294639936168
0.3056281147818795
0.3202638181501581
0.2674709428371785
0.2769600663826184
0.2821379563885794
0.2973622454925101
0.2634548230204204
0.262945086354731
0.2588575747946401
0.2680360563734993
0.2581467118164956
0.2516078758813339
0.2376536094378363
0.2330812836899668
0.2537299041721035
0.2402838208340492
0.2167389803865191
0.1875799760438918
0.2465604604568654
0.229899526343827
0.1990008177475095
0.1311077043784817
0.2410505255803492
0.2255981684465529
0.1852431406896499
0.0869181902799657
0.2363159356361907
0.2232416429210471
0.1728893057765884
0.05198500761136227
0.0532157165822407
0.1741785935576312
0.221394157131597
0.2320721769446178
0.07253519686363409
0.1742443333046477
0.2201203809020374
0.229199392975834
0.07399477047532656
0.1723931926191804
0.218394370622114
0.2272665545439411
0.06823139104430785
0.1690866013127856
0.2169799553783811
0.2262495784026747
0.08121609630188262
0.1750671366710021
0.2166091845318252
0.2244899374064386
0.09692924945267753
0.1821352141211945
0.2169353349461846
0.2234647351024234
0.1160786896424155
0.1914404936971474
0.2176618229333938
0.2234194788079082
0.1390486326530709
0.1994237897388549
0.2188313723161224
0.2235311409332442
0.1554764560048964
0.1757859563745042
0.2098487107911589
0.2225128371588758
0.1533132530872441
0.178660120953739
0.2102829482339961
0.222489827744308
0.1489452505730734
0.1829368877169917
0.2113252300829914
0.2224888393001295
0.1437272909189146
0.1876059919235302
0.2129160492200318
0.2226132265748132
0.1390486326530964
0.1994237897388601
0.2188313723158648
0.2235311409324449
0.1160786896426154
0.1914404936964569
0.2176618229329305
0.2234194788065965
0.09692924945272803
0.1821352141209807
0.2169353349455568
0.2234647351014987
0.08121609630198842
0.1750671366703909
0.2166091845315586
0.2244899374060248
0.2320721769450841
0.2213941571317435
0.1741785935574063
0.05321571658143451
0.2291993929756798
0.2201203809019461
0.174244333304142
0.07253519686294832
0.2272665545441492
0.2183943706225105
0.172393192618254
0.0739947704752109
0.2262495784029873
0.2169799553789572
0.1690866013126771
0.06823139104418607
0.05198500761130487
0.1728893057764617
0.2232416429211353
0.2363159356364664
0.08691819027959101
0.1852431406896836
0.2255981684466909
0.2410505255802325
0.1311077043781659
0.199000817748201
0.2298995263440197
0.2465604604575935
0.1875799760441626
0.2167389803861486
0.2402838208331881
0.2537299041726963
0.2688481766093309
0.2915294639949219
0.3056281147827783
0.3202638181497173
0.2674709428370831
0.2769600663823921
0.2821379563891762
0.2973622454922278
0.2634548230197399
0.262945086354563
0.2588575747947241
0.2680360563734711
0.2581467118163706
0.2516078758809076
0.2376536094374843
0.2330812836902718
0.3360857554818384
0.3272445418448924
0.2987921427645138
0.2586678637424837
0.3493507042518373
0.3444410192327115
0.296602883585235
0.2469823512634105
0.3618911538028964
0.3484420144253116
0.2820884161835671
0.2373726192398643
0.3736731657857901
0.3470976084778054
0.2651510324988536
0.2312645543403037
0.2267524175322073
0.2306964252742892
0.2665977693879228
0.3845281295285319
0.2257541467711498
0.2332911405679655
0.2862190397312646
0.3841151941966178
0.2261775394559144
0.2392094524091676
0.3116796700912198
0.3875968291340968
0.2277762809934442
0.2496192132931148
0.3348897858749696
0.3832617303015655
0.2268111508776083
0.2269978160927118
0.2274951325898882
0.227532231890924
0.2292792791277734
0.2283256720899987
0.2286240051460875
0.2288735405004331
0.2486712613162374
0.2338487995886117
0.231097211702309
0.2314865494611264
0.3573532535179195
0.2954156291128647
0.2365886725663049
0.2257913916000881
0.2272746974401206
0.2289562428987862
0.2323892227679603
0.2255256124456994
0.2268586626825635
0.228917705565214
0.2336846441758419
0.2263600882633029
0.2263070084503466
0.2287683386937988
0.2349358156087434
0.2270998715226456
0.2257495213184059
0.2284637115737621
0.2358869521117258
0.2284543767803175
0.2241532002236348
0.2252532866438672
0.2347449071327293
0.2436279877908937
0.2243777850274246
0.2262087711955567
0.2358606734080149
0.2366721010459875
0.2247180579279465
0.2272170783858979
0.2365383538548121
0.2331385286214624
0.2251948690782116
0.2279428582356636
0.2365730265588944
0.2308249298852603
0.256035434737627
0.2311937816719174
0.2244460992822113
0.2240395953104119
0.2574509114438956
0.2291734894727832
0.2242088530277526
0.2240094182347838
0.2568432915483579
0.2276524974037412
0.224102265959136
0.2239988445314369
0.2539939525389839
0.2264583007361937
0.224020169012769
0.2239955037670216
0.2520201929219232
0.2250683389142975
0.2239977477440565
0.2239952242259381
0.2500084898322627
0.2247513438247487
0.2239968608659094
0.2239950459407107
0.2455343320305619
0.2244566853822376
0.2239953271712473
0.2239950334137216
0.2401924847209516
0.2242817662730623
0.2239951096724143
0.2239950332612173
0.2239950333699093
0.2239950336979472
0.2240219312572601
0.2277382429565869
0.2239950333704065
0.2239950343328749
0.2240283850453018
0.2294906832558229
0.2239950333721685
0.2239950371315927
0.2240567386440583
0.2315875355646041
0.2239950333946447
0.2239950499073844
0.224122255359777
0.2347099927085768
0.2309860294681867
0.2340818211497884
0.2390621512267539
0.248897892804026
0.2340818211503725
0.2381173078203724
0.2455747081532234
0.2600340104961394
0.2390621512270135
0.2455747081530879
0.2575888061406207
0.2748616085493603
0.248897892804411
0.2600340104953451
0.2748616085501663
0.2928127519522548
0.3104166421071788
0.2953225021211254
0.2891128087582122
0.2745362672834531
0.3072130952820444
0.3028630628410784
0.3034057782235902
0.2963689314814467
0.3073448913997175
0.3059054872950315
0.3051217301848486
0.3025786711834677
0.3028575715435303
0.3020908910185684
0.3018049216123134
0.3000916410299078
0.2950240195135611
0.2917401303514087
0.2853881291785835
0.2766609330589768
0.2958574529913824
0.2924022301666625
0.2858384050975079
0.2774974357127254
0.2966769022878116
0.2929358231335368
0.2859251235705392
0.2782979049606646
0.2970753845935706
0.2928005487716692
0.2862005347479557
0.2758410573160986
0.2263160502297423
0.2042670284735798
0.2017444497376413
0.2026249231077838
0.2115210429689734
0.1977466558120587
0.1990277397240025
0.200637073637758
0.1993451708994583
0.197292720387695
0.2000145382452385
0.2014855638662665
0.1809417608632823
0.1925853840156871
0.1978577592605308
0.1999101969481306
0.2023253038905672
0.2029380393134143
0.2046257057138612
0.2066685779671709
0.2009345566065553
0.2018168395438779
0.2037636491398101
0.2063170087458925
0.2016265833104955
0.2022707071628606
0.2039852800128914
0.2060235019794934
0.2003334646270252
0.2011786376005462
0.2033035716352038
0.2060925287927537
0.2180898116660286
0.2812246096705182
0.3614443271381445
0.3822065663939682
0.2229326430600613
0.2927331743895077
0.3544347841840868
0.367446722617335
0.2263444322957643
0.2975606005686751
0.3517792966935412
0.3643076226720245
0.2283716771341902
0.3061291977395444
0.3524200049535651
0.3640316528415231
0.4398970309943231
0.4300653545128674
0.4215545165086872
0.4060841620295165
0.4369342063567145
0.4303675678828858
0.4218069152056027
0.4064954545679251
0.4312653789790897
0.4288336871148062
0.4202850168247094
0.4055026173420528
0.4223955303752723
0.4303391822955013
0.4216465461801093
0.4068340789535809
0.3875013890272302
0.3713088654465101
0.3555408356423712
0.346926592551988
0.3887683736058777
0.371972627175551
0.35553286734532
0.3465954143925894
0.3881573894808114
0.3703911811837052
0.3547424032291218
0.3453439300717354
0.3906693867049433
0.3717219182078108
0.3564606261282994
0.3464652050943126
0.3381630975021971
0.324065384910325
0.3003142752221027
0.2623605661253126
0.3387633310669745
0.3267217162349411
0.3038970632076247
0.2701430990716334
0.3380921399792391
0.3272109671154622
0.3035346265364038
0.2700298554932817
0.3396839069101127
0.3305057112590949
0.3044647940520421
0.3119512344678373
0.1731391551158429
0.0503437689365899
0.008911924473542984
0.004212792248701864
0.1365655437145081
0.0344845957138705
0.01027399179639983
0.008104230853235903
0.1037545860225228
0.02499454513184924
0.01089996884553707
0.009786684903120667
0.07437612536205743
0.01516459907470049
0.01060713453481521
0.01059518674768853
0.007180906057721314
0.0143955874815616
0.02016574529537131
0.02856986582928022
0.01249885530292581
0.01872660672210373
0.02471769397615287
0.03400880814420842
0.01535750185199929
0.02183513843273788
0.02993099304452118
0.03977558061122358
0.01757989357687147
0.02469622048128573
0.03513801931153721
0.04478698917654587
0.03597864101113072
0.05195654368341498
0.07156276051341755
0.09542407395962947
0.03896834614999291
0.0528089466018983
0.0702435748891235
0.09111898448582006
0.04275491077624537
0.05287652596903621
0.06805802340040584
0.08778034365470382
0.04171625968458264
0.04958590619168612
0.05995648503996008
0.08265008744048388
0.09972283563157892
0.09878550256576391
0.09918755219713975
0.1010378467700211
0.09008942737519206
0.09155978098046802
0.09365986157547834
0.09517702107558842
0.08610360727737434
0.09010301708492885
0.09206422575015778
0.09461475444239133
0.08127594987933698
0.08658442109250644
0.08919855109523084
0.09399553126535759
0.09891497079491465
0.1032401761314174
0.1060218829086734
0.1069890003779552
0.0979134619838105
0.1011867881820361
0.1034641943418424
0.1045903483864858
0.09812564515586496
0.1013573416164082
0.1046580028122883
0.1063073941920414
0.1051230807845026
0.1089087076096707
0.1123102593732562
0.1130949407647019
0.1069890003779697
0.1045903483864702
0.1063073941920642
0.113094940764693
0.1060218829087514
0.1034641943418419
0.1046580028123012
0.1123102593732424
0.1032401761314252
0.1011867881821572
0.1013573416165894
0.1089087076097197
0.0989149707951797
0.09791346198382095
0.09812564515598711
0.1051230807845661
0.1010378467703325
0.09918755219722862
0.09878550256588892
0.09972283563165327
0.09517702107564818
0.09365986157560012
0.09155978098053968
0.09008942737528812
0.09461475444258134
0.0920642257504318
0.09010301708502712
0.08610360727752124
0.09399553126546081
0.0891985510953279
0.08658442109264596
0.08127594987948318
0.08265008744071622
0.0599564850403043
0.04958590619195875
0.04171625968482381
0.08778034365489799
0.06805802340055592
0.05287652596930953
0.04275491077660591
0.09111898448600364
0.07024357488938467
0.05280894660217304
0.03896834615024016
0.09542407395977553
0.07156276051369509
0.05195654368358781
0.0359786410115167
0.02856986582945415
0.02016574529545852
0.01439558748148615
0.007180906057660879
0.03400880814437277
0.02471769397628782
0.01872660672209592
0.01249885530293339
0.03977558061139798
0.0299309930447124
0.02183513843273263
0.01535750185199288
0.04478698917671144
0.03513801931165483
0.02469622048132903
0.01757989357686803
0.004212792248614617
0.008911924473380937
0.0503437689362023
0.1731391551156266
0.008104230853227154
0.01027399179633682
0.03448459571367513
0.1365655437144025
0.009786684903117694
0.01089996884549102
0.02499454513181016
0.1037545860225257
0.01059518674765888
0.0106071345347682
0.01516459907466884
0.07437612536200003
0.2623605661252845
0.3003142752218694
0.3240653849094361
0.3381630975021925
0.2701430990711444
0.3038970632069857
0.326721716234579
0.3387633310660467
0.2700298554932076
0.3035346265360504
0.3272109671160455
0.3380921399790118
0.3119512344677352
0.3044647940514044
0.3305057112596377
0.3396839069096272
0.3469265925515119
0.3555408356415352
0.3713088654461343
0.3875013890257962
0.3465954143921213
0.3555328673452894
0.3719726271738369
0.3887683736045088
0.3453439300721364
0.3547424032282043
0.3703911811823927
0.3881573894797516
0.3464652050937415
0.3564606261278574
0.3717219182070415
0.3906693867041042
0.4060841620287043
0.4215545165083256
0.430065354512514
0.439897030994681
0.4064954545675568
0.421806915205108
0.4303675678822108
0.4369342063570845
0.4055026173419751
0.4202850168243374
0.4288336871147593
0.4312653789789502
0.4068340789535673
0.4216465461799269
0.4303391822945201
0.4223955303761474
0.382206566393979
0.3614443271377222
0.2812246096706926
0.2180898116666123
0.3674467226172372
0.3544347841838648
0.2927331743896537
0.2229326430606354
0.3643076226719617
0.3517792966934046
0.2975606005687534
0.2263444322963615
0.3640316528407307
0.3524200049534368
0.3061291977396261
0.2283716771348123
0.2066685779675267
0.2046257057131154
0.2029380393122512
0.2023253038896468
0.2063170087463459
0.203763649139612
0.2018168395427771
0.2009345566060935
0.2060235019800155
0.2039852800125928
0.2022707071618274
0.2016265833100836
0.2060925287932663
0.2033035716347092
0.2011786375994837
0.2003334646262674
0.2026249231068425
0.2017444497369161
0.2042670284737855
0.2263160502299551
0.2006370736368414
0.1990277397231546
0.1977466558124766
0.211521042969094
0.2014855638653666
0.2000145382444039
0.1972927203882429
0.1993451708995131
0.1999101969472176
0.1978577592595314
0.1925853840162343
0.1809417608634358
0.2766609330589792
0.285388129178515
0.2917401303518349
0.2950240195133225
0.2774974357127188
0.2858384050980639
0.2924022301667342
0.295857452990865
0.2782979049607085
0.2859251235704786
0.2929358231334589
0.2966769022874994
0.2758410573160382
0.2862005347485918
0.2928005487723419
0.2970753845932974
0.3000916410289195
0.3025786711815717
0.296368931480173
0.2745362672833395
0.3018049216106671
0.3051217301835707
0.3034057782214519
0.2891128087572155
0.3020908910174388
0.3059054872934128
0.3028630628390472
0.2953225021192586
0.3028575715422291
0.3073448913984346
0.3072130952792799
0.3104166421039595
0.1499153816666844
0.2006579600187693
0.2185670191452963
0.2235520860542391
0.1465637185454803
0.1988682794726606
0.2174185997848132
0.2233523642738668
0.1435238445262002
0.1964072512192869
0.2163008333117765
0.2231149409090108
0.141169026242935
0.1921317072975772
0.2146289223405486
0.2228457144065634
0.2225128371587554
0.2098487107912261
0.175785956374437
0.1554764560051734
0.2224898277440692
0.2102829482339329
0.1786601209536175
0.1533132530872094
0.2224888393000072
0.2113252300831261
0.1829368877168045
0.1489452505732488
0.2226132265745148
0.2129160492198106
0.1876059919234205
0.1437272909191194
0.2228457144060237
0.223114940908808
0.2233523642732523
0.2235520860533719
0.2146289223399522
0.2163008333115419
0.21741859978383
0.2185670191444953
0.1921317072978043
0.1964072512189514
0.1988682794728437
0.2006579600191258
0.1411690262429622
0.1435238445260851
0.146563718545472
0.149915381666873
)
;

boundaryField
{
    back
    {
        type            empty;
    }
    inlet
    {
        type            calculated;
        value           nonuniform List<scalar> 
16
(
0.2239950333699092
0.2239950333702082
0.2239950333717012
0.2239950333941023
0.223995033259515
0.2239950334139612
0.2239950459401247
0.2239952242250021
0.2239952242259381
0.2239950459407107
0.2239950334137216
0.2239950332612173
0.2239950333699093
0.2239950333704065
0.2239950333721685
0.2239950333946447
)
;
    }
    front
    {
        type            empty;
    }
    top
    {
        type            calculated;
        value           nonuniform List<scalar> 
40
(
0.2239955037666914
0.2239988445315341
0.2240094182347912
0.2240395953098572
0.2241532002237684
0.2243777850277282
0.2247180579271736
0.2251948690784805
0.2257495213189599
0.2263070084503321
0.2268586626833078
0.2272746974395722
0.2275322318908179
0.2274951325890916
0.2269978160929351
0.2268111508774864
0.2267524175324445
0.2257541467701738
0.2261775394543692
0.227776280993126
0.2312645543402556
0.2373726192390281
0.2469823512631442
0.2586678637408416
0.2688481766084329
0.2674709428371785
0.2634548230204204
0.2581467118164956
0.2537299041721035
0.2465604604568654
0.2410505255803492
0.2363159356361907
0.2320721769446178
0.229199392975834
0.2272665545439412
0.2262495784026747
0.2244899374064386
0.2234647351024234
0.2234194788079082
0.2235311409332442
)
;
    }
    outlet
    {
        type            calculated;
        value           uniform 0.2239950333699093;
    }
    bottom
    {
        type            calculated;
        value           nonuniform List<scalar> 
40
(
0.223531140932445
0.2234194788065965
0.2234647351014987
0.2244899374060248
0.2320721769450841
0.2291993929756798
0.2272665545441492
0.2262495784029874
0.2363159356364664
0.2410505255802325
0.2465604604575935
0.2537299041726963
0.2688481766093309
0.2674709428370831
0.2634548230197399
0.2581467118163706
0.2586678637424837
0.2469823512634105
0.2373726192398643
0.2312645543403037
0.2267524175322073
0.2257541467711498
0.2261775394559144
0.2277762809934442
0.2268111508776083
0.2269978160927118
0.2274951325898882
0.2275322318909241
0.2272746974401206
0.2268586626825635
0.2263070084503466
0.2257495213184059
0.2241532002236348
0.2243777850274246
0.2247180579279465
0.2251948690782116
0.2240395953104119
0.2240094182347838
0.2239988445314369
0.2239955037670216
)
;
    }
    wall
    {
        type            calculated;
        value           nonuniform List<scalar> 
104
(
0.3104166421071788
0.3072130952820444
0.3073448913997175
0.3028575715435303
0.2970753845935706
0.2928005487716692
0.2862005347479557
0.2758410573160986
0.1809417608632823
0.1925853840156871
0.1978577592605308
0.1999101969481307
0.2003334646270252
0.2011786376005462
0.2033035716352038
0.2060925287927537
0.2283716771341902
0.3061291977395444
0.3524200049535651
0.3640316528415231
0.4223955303752723
0.4303391822955013
0.4216465461801093
0.4068340789535809
0.3906693867049433
0.3717219182078108
0.3564606261282994
0.3464652050943125
0.3396839069101127
0.3305057112590949
0.3044647940520421
0.3119512344678373
0.07437612536205743
0.0151645990747005
0.01060713453481521
0.01059518674768853
0.01757989357687147
0.02469622048128573
0.03513801931153721
0.04478698917654587
0.04171625968458264
0.04958590619168612
0.05995648503996008
0.08265008744048388
0.08127594987933698
0.08658442109250644
0.08919855109523084
0.09399553126535759
0.09891497079491465
0.1032401761314174
0.1060218829086734
0.1069890003779552
0.1069890003779697
0.1060218829087514
0.1032401761314252
0.0989149707951797
0.09399553126546081
0.0891985510953279
0.08658442109264596
0.08127594987948318
0.08265008744071622
0.0599564850403043
0.04958590619195875
0.04171625968482381
0.04478698917671144
0.03513801931165483
0.02469622048132903
0.01757989357686803
0.01059518674765888
0.0106071345347682
0.01516459907466884
0.07437612536200003
0.3119512344677352
0.3044647940514044
0.3305057112596377
0.3396839069096272
0.3464652050937415
0.3564606261278574
0.3717219182070415
0.3906693867041042
0.4068340789535673
0.4216465461799269
0.4303391822945201
0.4223955303761474
0.3640316528407306
0.3524200049534368
0.306129197739626
0.2283716771348123
0.2060925287932663
0.2033035716347092
0.2011786375994837
0.2003334646262674
0.1999101969472176
0.1978577592595313
0.1925853840162343
0.1809417608634358
0.2758410573160382
0.2862005347485918
0.2928005487723419
0.2970753845932974
0.3028575715422291
0.3073448913984346
0.3072130952792799
0.3104166421039595
)
;
    }
}


// ************************************************************************* //
