/*--------------------------------*- C++ -*----------------------------------*\
  =========                 |
  \\      /  F ield         | OpenFOAM: The Open Source CFD Toolbox
   \\    /   O peration     | Website:  https://openfoam.org
    \\  /    A nd           | Version:  11
     \\/     M anipulation  |
\*---------------------------------------------------------------------------*/
FoamFile
{
    format      ascii;
    class       volScalarField;
    location    "0.098";
    object      Ma;
}
// * * * * * * * * * * * * * * * * * * * * * * * * * * * * * * * * * * * * * //

dimensions      [0 0 0 0 0 0 0];

internalField   nonuniform List<scalar> 
880
(
1.443353270571932
1.443353270571932
1.443353270571932
1.443352871072397
1.443353270571932
1.443353270571932
1.443353270573889
1.443347471589331
1.443353270571932
1.443353270571933
1.443353270593011
1.443339249934034
1.443353270571932
1.443353270571932
1.443353271386921
1.443299981322173
1.443353270571932
1.443353270571932
1.443353270571933
1.443353270575182
1.443353270571932
1.443353270571932
1.443353270571935
1.443353270571932
1.443353339531341
1.44335288641626
1.443349407632381
1.443452456871167
1.435564544395373
1.41343446763458
1.399357839795045
1.395443094217572
1.443353244184339
1.443353187082786
1.44335309613248
1.443353179629841
1.443352426802671
1.443351825973051
1.443351692897997
1.443351930336604
1.442793905514036
1.44265517872318
1.442606487032954
1.442534972542912
1.392850791132986
1.388833916257334
1.393363387463628
1.38277937111976
1.404718398784296
1.430575989921009
1.45059583191015
1.457661981915454
1.442026399718192
1.440436869536129
1.441522374505577
1.442839121218052
1.443348919919269
1.443341237140734
1.443336551677557
1.443343953590636
1.443352951478888
1.443352561907704
1.443352015387714
1.443352041752346
1.443352471242363
1.443353010013127
1.443353234300226
1.44335326881839
1.443352378551298
1.443354827011419
1.443353678305664
1.443353297044873
1.443655531838528
1.443704159813816
1.443480781357541
1.443369128139334
1.456929735951999
1.452916486456044
1.448094979600018
1.444665402206435
1.443494125527923
1.443353840390681
1.443353271024381
1.443353270547148
1.443357603223732
1.443353305815743
1.443353270663862
1.443353270584691
1.443373126664578
1.443353855363281
1.443353254527272
1.443353267201816
1.429641764334546
1.443339016123084
1.443356265798952
1.443353419086553
1.443353325908784
1.443353946134365
1.442921943008206
1.301987687262891
1.443353245500548
1.443348249823219
1.440753045367889
1.205657180953467
1.443352884419931
1.443340051217537
1.43807893150372
1.159536256824741
1.443352063951327
1.443334387079335
1.435928452479072
1.149384447193689
1.146818670258435
1.43370981196469
1.443324423292828
1.4433517899172
1.150951176909081
1.432244711961723
1.443319332699314
1.443350545803858
1.142904220809823
1.429443596099084
1.443303454298885
1.443350532577199
1.135916030126917
1.426515260440049
1.443287334080854
1.44334800477
1.443347735756082
1.443276054776358
1.422588910173322
1.114734912528575
1.44334556882802
1.443231679632714
1.417198560613779
1.126285394099645
1.443341929763117
1.443211923578168
1.417445846279816
1.159228540740307
1.443350951273817
1.443202265740515
1.424305569532231
1.257127811775073
1.443325464229059
1.443319183827768
1.441261757715465
1.427897431488145
1.443315065233548
1.443922719568002
1.449816016825666
1.519530516021611
1.443355588328828
1.443538263173022
1.443921236485957
1.436378169636329
1.443354909548615
1.443212332528087
1.428913344730628
1.269810372330519
1.172370706079346
1.424425202071349
1.443215524557484
1.443353300756826
1.133869469789516
1.419841382912008
1.443062193785067
1.443352597404801
1.139423815882973
1.423326163810836
1.443198890371075
1.443353143295666
1.106083359741726
1.420600762218236
1.443168416405755
1.443353031001419
1.208130019510459
1.43078150254566
1.44327717587657
1.443353161282491
1.319215648770101
1.438504768573519
1.443335349014855
1.443353247801183
1.394110309590132
1.441944588223674
1.443350209965767
1.44335326877449
1.437710669716037
1.443441483331835
1.443354922053665
1.443353272202257
1.384822662672373
1.440774503502613
1.443318162760593
1.443353081412788
1.385734450216252
1.440816500709106
1.443318616894987
1.44335308248329
1.383361033925316
1.440783833631551
1.443318871020646
1.443353082868224
1.380011263603309
1.44079564608852
1.443320808630658
1.443353091010846
1.43771066972296
1.443441483336743
1.443354922061576
1.443353272191634
1.394110309594862
1.441944588229793
1.443350209981694
1.443353268772891
1.319215648768087
1.438504768568572
1.443335349013304
1.443353247800335
1.208130019503239
1.430781502530934
1.443277175874517
1.443353161286845
1.443353300745553
1.443215524533177
1.424425202068884
1.172370706078024
1.443352597391965
1.443062193779056
1.419841382907561
1.133869469784873
1.443353143304645
1.4431988903614
1.4233261638099
1.139423815874137
1.443353031001065
1.443168416401218
1.420600762204976
1.106083359743962
1.269810372338437
1.428913344741116
1.443212332550983
1.443354909560002
1.436378169646631
1.443921236495719
1.443538263187244
1.443355588347085
1.519530516021852
1.449816016836323
1.443922719567526
1.443315065241202
1.427897431486127
1.441261757719823
1.443319183833519
1.443325464206532
1.443347735762946
1.443276054764029
1.422588910169253
1.114734912521471
1.443345568827398
1.443231679622197
1.417198560608169
1.126285394098658
1.443341929751074
1.443211923577473
1.41744584628773
1.159228540740324
1.443350951255778
1.443202265740198
1.42430556953824
1.257127811776178
1.13591603011691
1.426515260443066
1.443287334061984
1.443348004769812
1.142904220798292
1.429443596065625
1.44330345429798
1.443350532573457
1.150951176906305
1.432244711963794
1.443319332676853
1.443350545809182
1.146818670255242
1.433709811988235
1.44332442330764
1.443351789920701
1.443353325899518
1.443353946125044
1.442921943012022
1.301987687269041
1.44335324550736
1.443348249834931
1.440753045355823
1.205657180963933
1.44335288442728
1.443340051222198
1.438078931503917
1.159536256811654
1.443352063960056
1.443334387065218
1.435928452473264
1.149384447199392
1.44335341908746
1.443353267197257
1.443353270583852
1.443353270548415
1.443356265808964
1.443353254527451
1.443353270653686
1.443353271029078
1.443339016119879
1.44335385536109
1.443353305822815
1.443353840394475
1.429641764333927
1.443373126664743
1.44335760322231
1.443494125527579
1.443353268824252
1.443353297044914
1.443369128131567
1.444665402202142
1.443353234304256
1.443353678309092
1.443480781335806
1.448094979600674
1.443353010005675
1.44335482701126
1.443704159825792
1.452916486456811
1.443352471239606
1.443352378552554
1.44365553182755
1.456929735957966
1.44335295149259
1.443348919929539
1.442026399713578
1.40471839878456
1.443352561920286
1.443341237141698
1.4404368695383
1.430575989927709
1.443352015392897
1.443336551665113
1.441522374509299
1.450595831914596
1.443352041756879
1.443343953580602
1.442839121220819
1.457661981920993
1.382779371116619
1.442534972517471
1.443351930344101
1.443353179636013
1.393363387461581
1.442606487007078
1.443351692900953
1.443353096129042
1.388833916247075
1.442655178731936
1.443351825970398
1.443353187086486
1.39285079113546
1.442793905571159
1.443352426805501
1.443353244180553
1.395443094213704
1.443452456840457
1.443353270571932
1.443353270573812
1.399357839796703
1.443349407657652
1.443353270571932
1.443353270571933
1.413434467629247
1.443352886419912
1.443353270571932
1.443353270571933
1.43556454439202
1.443353339533396
1.443353270571932
1.443353270571934
1.443353270571932
1.443353270571933
1.443353270571932
1.443352871127303
1.443353270571931
1.443353270571932
1.443353270574265
1.443347471639674
1.443353270571932
1.443353270571932
1.443353270592026
1.443339249931988
1.443353270571932
1.443353270571932
1.443353271392148
1.443299981329133
1.443352320531505
1.443348015973148
1.44331834423527
1.442130888409357
1.443348015866668
1.443349271931999
1.44333538471147
1.435565230222202
1.443318344190121
1.443335384601984
1.440329610312786
1.391071403224885
1.442130888346133
1.435565230258837
1.391071403459002
1.214348007093811
1.045427068138514
1.13628705146678
1.29039743627297
1.377694735889354
1.095773187748495
1.120040958552078
1.182129856792462
1.255197007111542
1.154186414594347
1.173059917499987
1.213210028886184
1.261826553300764
1.18204056378926
1.220323043752628
1.253070369593311
1.281706495285597
1.285106631515693
1.28925875967591
1.297969488435186
1.290178960649291
1.277453571552881
1.289607811790832
1.297035124427313
1.314778232463321
1.262536644926876
1.287187345869055
1.294020926197372
1.399692761931553
1.189286937236762
1.207594714169407
1.215154298778787
1.517117927109018
1.412326091564614
1.541735107500964
1.532071415144852
1.494136116753796
1.505999265186813
1.626295143823661
1.578564190854773
1.52851158110893
1.686911192149901
1.725865856528186
1.608086185861706
1.541507571474715
1.275256044105293
1.281037295413373
1.251686019002362
1.289998848050556
1.475501398682395
1.46512132735162
1.456577904332615
1.448510366718639
1.496380807845682
1.47854330539917
1.465768746454886
1.453329117628002
1.508953659094172
1.488818181477236
1.473292427193729
1.458060424993176
1.353620895657529
1.403241304741608
1.420959545830957
1.433775471072368
1.444374082223268
1.443433618638089
1.443356273344946
1.277031294911938
1.445666850046938
1.443562535698045
1.443367975752856
1.139737457823499
1.44723600268348
1.443756044962931
1.443375805134851
1.01042154704531
1.440920482329399
1.4430733328461
1.443353984938686
0.7774887673914315
0.8680605317459127
0.8858804696707705
0.9184611852260176
0.9499397490562395
0.7445853364496566
0.8392782112401633
0.9096282158629048
0.9479693942362613
0.6192219042478437
0.7681137580469035
0.8782935028709943
0.9376898844448333
0.4475386064034985
0.6422561614767323
0.743707340747027
0.8397149986333232
0.9699677618416378
0.9810022684062781
0.9853128182961742
0.9846059685275858
0.9709719608437785
0.9844662920275619
0.993718414108301
0.995205865334475
0.9681250421412589
0.9841857305521411
0.9950676911221229
0.9982578054619394
0.8958497399864801
0.921181478454688
0.9355481934938616
0.9341863452573539
0.9840984090739406
1.003701601686977
1.047730062303303
1.146878489785277
0.9964706756007392
1.013566210032076
1.065815791473926
1.203804619665248
1.001126994929847
1.015908560924426
1.096044672366049
1.518246650903371
0.9472853165748594
0.9663354656952307
1.101561544613062
2.096245551730433
1.375024525777321
1.629282085534868
0.6351584359410232
0.3137756712065387
1.454297141365429
1.426590041535509
0.5082818965746989
0.1572705484317383
1.515169380347149
1.083117707961522
0.3034276403171853
0.1300885222298091
1.169775836022622
0.5028063993976981
0.1525476654124702
0.1062193767309136
0.1598271359751924
0.1055727390080527
0.09811798231250657
0.09898014394724579
0.04340726281822763
0.1184910747382613
0.1370480259836688
0.2351964153354403
0.05613453795909748
0.1382152406175888
0.2219719575018689
0.3725692716084282
0.02035982667080961
0.1366453480580409
0.2733020164023177
0.395120417840961
0.8311444591620833
1.220244858188836
1.423692109424063
1.479428723533279
0.4551733902470969
0.9490870096688595
1.280081905243764
1.400183274191115
0.07718775792366268
0.4668191495475576
0.9139528834348194
1.349368228370537
0.1565517822569627
0.1915721705720504
0.6315672000579819
1.47387530713958
1.675269467622937
1.963468245563916
2.63037252568804
2.545418151341087
1.655814852288488
1.960224386625343
2.60716742841123
2.401645290537122
1.707878826606983
2.09572654265296
2.684863803177844
1.43303309304264
1.417107637658671
1.489592430927049
2.025629057636387
0.4987601990527609
0.3833897933571799
0.5427648892322563
0.4090886816254802
0.2446932096646534
0.3665365481008278
0.4254577260541732
0.3643718454201801
0.2526126620249454
0.8546427941849025
0.09256991630240297
0.08984473619331902
0.05732036149410626
1.372638197553322
0.6827292949769117
0.4041338895953578
0.3777961127830986
0.2446932096643309
0.2526126620251365
0.05732036149438027
0.3777961127813946
0.4090886816247003
0.3643718454212865
0.08984473619516754
0.4041338895934963
0.5427648892324161
0.4254577260554254
0.09256991630348921
0.6827292949754266
0.3833897933576218
0.3665365481008551
0.8546427941860748
1.37263819755887
2.545418151346277
2.630372525696085
1.963468245573591
1.675269467632949
2.401645290534885
2.607167428412675
1.960224386625329
1.655814852295432
1.433033093040981
2.684863803184174
2.09572654265959
1.707878826609929
0.4987601990512853
2.025629057635429
1.489592430927362
1.417107637660333
1.473875307142703
0.631567200057485
0.1915721705720304
0.1565517822615355
1.349368228373977
0.9139528834363505
0.4668191495438244
0.07718775791917867
1.400183274195493
1.280081905246283
0.949087009664738
0.4551733902397974
1.479428723538746
1.423692109425718
1.220244858187194
0.8311444591561381
0.09898014394389876
0.09811798230605476
0.1055727390055008
0.1598271359733293
0.2351964153377577
0.1370480259800681
0.1184910747405039
0.04340726282588212
0.3725692716092758
0.2219719574977963
0.1382152406186019
0.05613453796333631
0.395120417841841
0.2733020163997243
0.1366453480600593
0.02035982667509812
0.313775671210147
0.6351584359433992
1.629282085534051
1.375024525777529
0.1572705484344462
0.5082818965783963
1.426590041537231
1.4542971413709
0.1300885222298601
0.3034276403204386
1.083117707961964
1.515169380351559
0.1062193767255366
0.1525476654108852
0.5028063994038264
1.169775836028344
1.146878489785565
1.047730062302158
1.003701601685204
0.9840984090682723
1.203804619666607
1.065815791473162
1.013566210030865
0.9964706755962753
1.518246650907726
1.09604467236716
1.015908560923472
1.001126994927151
2.096245551737563
1.101561544618152
0.9663354657020893
0.9472853165811523
0.9846059685180925
0.9853128182911974
0.9810022684086221
0.9699677618382982
0.9952058653288171
0.9937184141039541
0.984466292028903
0.9709719608464673
0.9982578054592524
0.99506769111903
0.9841857305539957
0.968125042146384
0.934186345261121
0.9355481934927565
0.9211814784576419
0.8958497399894655
0.9499397490474895
0.9184611852245879
0.8858804696769145
0.8680605317438504
0.9479693942310927
0.9096282158602347
0.8392782112435199
0.744585336448078
0.9376898844403981
0.8782935028692217
0.7681137580475959
0.6192219042473953
0.8397149986228801
0.7437073407495751
0.6422561614775902
0.4475386064004198
1.277031294913638
1.44335627333394
1.443433618641401
1.444374082217064
1.139737457825936
1.443367975764689
1.443562535703231
1.44566685003808
1.010421547045844
1.443375805144332
1.443756044967438
1.447236002673518
0.777488767395714
1.443353984935343
1.443073332853952
1.440920482335667
1.448510366717978
1.456577904337995
1.465121327352695
1.475501398689391
1.453329117628295
1.465768746457209
1.478543305400933
1.49638080785118
1.458060424994357
1.473292427194305
1.488818181478548
1.508953659097832
1.43377547106278
1.420959545836845
1.403241304739485
1.35362089564962
1.494136116756708
1.532071415146651
1.541735107500735
1.412326091564618
1.528511581114205
1.578564190855982
1.626295143826377
1.505999265188292
1.541507571481997
1.608086185863704
1.725865856536448
1.686911192152592
1.289998848055194
1.251686019002878
1.281037295417882
1.275256044105648
1.290178960654125
1.297969488443227
1.289258759671035
1.285106631500321
1.314778232469907
1.297035124429074
1.28960781178534
1.277453571541703
1.399692761940819
1.294020926199349
1.287187345866478
1.262536644919667
1.517117927123934
1.215154298794684
1.207594714176324
1.189286937236492
1.28170649528858
1.261826553304205
1.255197007114327
1.377694735910096
1.253070369595997
1.213210028900698
1.182129856783244
1.290397436292019
1.220323043758669
1.173059917521045
1.120040958539165
1.13628705136355
1.182040563794581
1.154186414587418
1.095773187751355
1.045427068113934
1.434368028983295
1.442936738311675
1.443349720170068
1.443353258550041
1.434914089028069
1.442699387140923
1.443346300265847
1.44335323767692
1.40868435775262
1.442051314785044
1.443339646194376
1.443353201362122
1.377457225628947
1.441058155423473
1.443328093239177
1.443353135691613
1.443353081406752
1.443318162762037
1.440774503502506
1.384822662657419
1.443353082477849
1.443318616887917
1.440816500719302
1.385734450218608
1.443353082874514
1.443318871011642
1.440783833639812
1.383361033935223
1.443353091030808
1.443320808620521
1.44079564611338
1.38001126361337
1.443353135696072
1.443353201367743
1.443353237701026
1.443353258573494
1.443328093236254
1.443339646195123
1.443346300270823
1.443349720181711
1.441058155423866
1.442051314789099
1.44269938713233
1.442936738320745
1.37745722563734
1.408684357761092
1.434914089029196
1.434368028983594
)
;

boundaryField
{
    back
    {
        type            empty;
    }
    inlet
    {
        type            calculated;
        value           nonuniform List<scalar> 
16
(
1.443353270571932
1.443353270571932
1.443353270571932
1.443353270571932
1.443353270571932
1.443353270571932
1.443353270571932
1.443353270571309
1.443353270570791
1.443353270571932
1.443353270571932
1.443353270571933
1.443353270571932
1.443353270571932
1.443353270571932
1.443353270571932
)
;
    }
    front
    {
        type            empty;
    }
    top
    {
        type            calculated;
        value           uniform 0;
    }
    outlet
    {
        type            calculated;
        value           nonuniform List<scalar> 
16
(
1.443353010697094
1.443353011666156
1.443353011600005
1.443353019505167
1.443353252578922
1.443353224218692
1.443353174085294
1.443353080791585
1.443353010693304
1.443353011662339
1.443353011603739
1.443353019517606
1.44335308079407
1.443353174087973
1.443353224233169
1.443353252593832
)
;
    }
    bottom
    {
        type            calculated;
        value           uniform 0;
    }
    wall
    {
        type            calculated;
        value           uniform 0;
    }
}


// ************************************************************************* //
