/*--------------------------------*- C++ -*----------------------------------*\
  =========                 |
  \\      /  F ield         | OpenFOAM: The Open Source CFD Toolbox
   \\    /   O peration     | Website:  https://openfoam.org
    \\  /    A nd           | Version:  11
     \\/     M anipulation  |
\*---------------------------------------------------------------------------*/
FoamFile
{
    format      ascii;
    class       surfaceScalarField;
    location    "0.098";
    object      phi;
}
// * * * * * * * * * * * * * * * * * * * * * * * * * * * * * * * * * * * * * //

dimensions      [0 3 -1 0 0 0 0];

internalField   nonuniform List<scalar> 
1652
(
2.843686947071611
0.8895636090847481
0
1.954123337988149
0.8895636090834615
0
1.064559728903326
0.8895636090837764
1.354472090042691e-14
0.889557695884956
-9.055400873592134e-11
0.1749965363494155
2.843686947076741
1.779127218162428
1.954123337998014
1.779127218162188
1.064559728912134
1.779127218146547
1.779098088942965
0.1750013804319494
2.843686947090741
2.668690827246526
1.954123338008367
2.668690827244562
1.064559728952278
2.668690827044359
2.668525670247166
0.1750125283911532
2.843686947092868
3.558254436328659
1.954123338013008
3.558254436324422
1.064559730094175
3.558254431534143
3.557576847989682
0.1750623601095422
4.418652025448567
2.872852967045247
5.279049614570534
2.872852967043177
6.139447203695476
2.872852967042502
2.872852967039885
6.999844792861271
4.418652025437511
2.012455377932159
5.279049614550978
2.012455377929711
6.139447203664153
2.012455377929244
2.012455377926221
6.999844792777942
4.418651991913816
1.152057872506458
5.279050485213414
1.152057290686772
6.137845869281779
1.152180808299297
1.151927673899257
7.00021486967927
4.437583626056824
0.252516502649296
5.409076747344828
0.1203347797773371
6.420163389235761
0.05117320903680989
7.436800023601807
0.03426639104318119
6.94151275306259
0.058331664649936
6.883180193948586
0.05833066387888963
6.824848519209332
0.05832933195538459
0.05833058286462312
6.766516490456758
6.941523155472813
0.1166489730723314
6.883209709225328
0.116629900372616
6.824883711626216
0.1166049880920331
0.1166144768997368
6.766561276590656
6.946834101230546
0.1692080916865289
6.892605771689364
0.166964650832038
6.835919235470049
0.1646270434963946
0.1627162129103099
6.779896231010918
7.495392055408578
0.02324592577401197
7.545226083070096
0.01388783554473272
7.584528383220668
0.01088174820208554
7.571978779065284
-0.008982414927950821
7.569750745410521
0.02303925524978945
-0.1865894046049033
7.463938590669689
0.04745911923034596
-0.06648572960123217
7.326751954183794
0.05084937807990403
-0.01776453609521728
0.03464716220929631
7.185927500099627
-0.00525420641091523
6.787806783544569
0.000139157567431214
6.802106599293871
0.0003958338760299274
6.811804090068189
0.0007494911823171524
0.0007191669149686497
6.808135226744651
6.766602270149921
5.294903380526073e-06
6.766705766077882
1.29218471939252e-05
6.766818862733801
2.528585557037832e-05
2.514324301727822e-05
6.766816518950747
6.766516493732692
6.766516000585537
6.766515679211302
6.766515217465801
6.766515481687512
-1.68562062127231e-05
6.766516254883274
-5.47890183533184e-06
6.766516598540569
-7.769369567700579e-07
-4.243722018237861e-08
6.766516632444453
6.766689919672084
-0.000495217284358751
6.766554655712635
-0.0001652791924382502
6.766519405952259
-2.53212643090972e-05
-1.844403961337449e-06
6.76651669009444
6.792642650037136
-0.02260256048688508
6.774689165067848
-0.01112228063847792
6.767675885987367
-0.002711007264846244
-0.0004129914915160793
6.766572305889804
7.052276555835518
-0.003713034606773968
6.925304816852227
-0.001975919678115834
6.822806252704726
-0.002686074462063981
6.775108255725583
-0.001980663536667759
2.297035307591289e-05
6.76694232842681
-0.0005096520250499892
4.870016268032629e-08
6.76651864833793
7.171784277559823e-10
6.766516633304072
6.766516632948479
1.879585840636189e-06
6.766433969444315
-4.156519104336898e-05
8.308757237784903e-09
6.76651282413886
-4.442790579872735e-11
6.766516633092508
6.766516632995744
-2.729412734364667e-05
6.766522243859205
-3.203173029553419e-05
-1.339949553536002e-07
6.766506733210011
1.252113157601542e-08
6.766516643810332
6.766516645545005
0.000934366644566087
6.824606230369624
-0.1074089849211646
-3.286659716605911e-07
6.766736334584701
-3.207051218145907e-06
6.766507613364062
6.766515005705943
0.155554333039236
6.610963020052276
0.311098234662811
6.610958676661479
0.4611863620939745
6.613844212380129
6.889201891618156
0.1456933794235666
0.1555520558065576
6.455412069924034
0.311042524873119
6.455424637275705
0.4489578189802439
6.461298739427394
6.774293542072787
0.148344406735293
0.1555444464970471
6.299861736351324
0.3109321126220005
6.299939350459733
0.4348573658963143
6.313586351475141
6.643390141782612
0.08684032612372672
0.1555333645198753
6.144310341875035
0.3107449256141689
6.144410778107559
0.417706424746174
6.165080721462203
6.551567791761937
0.04272647796482809
-0.3989541163431408
6.475339921149195
0.003304386832213679
-0.3105718786248449
6.01894384356279
-0.155525750914724
5.988949882636305
5.988759698885376
-0.3823246696462337
6.321123968882389
-0.001044862440626848
-0.310306884267158
5.864180463980381
-0.1555089034981414
5.833399855533802
5.833208396196315
-0.3669539796566167
6.094873464522873
-0.01448919471403154
-0.3101464850601781
5.712223594783674
-0.1555064006707361
5.677931647215695
5.677658350225143
-0.3478882508508301
5.798272391389176
-0.006281647464236984
-0.3097036548745368
5.558882174036366
-0.1554705581454471
5.522378358256892
5.522110092081792
0.1992163837885452
5.322810650177749
0.3969492802409113
5.323099733745202
0.4440939451626339
5.358635052020889
5.469726500692467
0.01144760512835385
0.1991722811557682
5.123516794891519
0.3961629904760712
5.123907268455159
0.4119025676244018
5.16055353059725
5.152964527618514
0.05244128073592913
0.1991221547083016
4.924182327965895
0.3955732025084185
4.924543518657225
0.4253200265861656
4.953142836517441
4.921662527808252
0.1638960099377743
0.1992945807521371
4.724939281643336
0.3968201282975849
4.72584381933536
0.4911416138313313
4.753154896316958
4.733681575499193
0.365310772008101
-0.3358245476901099
5.060355202191262
-0.6795350416693755
5.062008048166371
-1.148047278504976
5.110253655681559
4.891907119977703
-1.450363642183382
-0.3359297277589752
5.39570236265255
-0.6826575028541829
5.40009252879852
-1.007822871369216
5.412146616036706
4.49922480279449
-0.4744985255776519
-0.335314905464246
5.731117481919278
-0.6699500847762827
5.731080333881249
-0.924397357967837
5.684642907243695
3.967645103345569
-0.06354053334202892
-0.3353693151614626
6.066524526342345
-0.6655924053248214
6.064238418721924
-0.8107867923445506
5.904961665854445
3.508113882885182
-0.02344217406409239
0.3754333959673999
3.329638802845218
-0.002675484318039947
0.3450951910794827
6.02685813410752
0.1749599696986183
6.238928738648789
6.241520984974486
0.3664366309355603
3.168667546886294
-0.0008525329060552478
0.3449980789666033
6.164947174786211
0.174964704683785
6.414295643040537
6.416521248808572
0.3773526612853046
3.106841963892822
-0.0004102693198610799
0.3464417450574021
6.348488023840305
0.1749805103894624
6.589689315938255
6.591517478910503
0.3675236331711935
3.155607270677657
0.01179111572379091
0.3463420522053708
6.547148063045749
0.1749806409982352
6.765199611833022
6.7665142557567
-0.1015820535831399
4.098870233279908
0.123117453107141
-0.002350211835292271
6.688208438163263
-1.173094868844871e-05
6.766240010112222
6.766516142833654
-0.05213085104816073
5.027459630759446
0.140254474456795
-0.0006828763606716581
6.742999010113606
-2.730564140351888e-06
6.76646419523185
6.766516564738645
-0.02619465115623321
5.80714486706945
0.1551010172967525
-0.0002319719473991011
6.763218285304644
-7.956662313457485e-07
6.766523865310966
6.766516643274175
-0.01536315628571572
0.1311142488800107
6.426974231321544
-0.0001117285324316875
6.76276812754611
-4.108208500053223e-07
6.766486588160491
6.766516633818696
1.057583092157274
-0.8087996660531087
-0.03430392969664897
-7.94120325053882e-12
1.981622299020013
-0.8708484834564638
-2.263078613395919e-12
2.858253148782122
-0.8749157940239765
2.453948155789476e-11
-0.8749802172311578
-1.602007415613116e-11
1.059460273445958
-1.655162833127382
-0.03501724020930072
1.981656536037014
-1.741695746594774
2.858253291523692
-1.749829268357019
-1.74996042623227
1.060162286088815
-2.541861836234124
-0.04485459743765331
1.981666102934561
-2.61370687036248
2.858253339367177
-2.624752023947599
-2.624940665730678
1.064745543528404
-0.05818054543511345
-3.428921721548109
1.981770134304991
-3.490632935196738
2.858254078832033
-3.49975559692258
-3.499921380271952
-0.01536315628638907
-5.80714486707707
0.1311142488788851
6.426974231317326
-0.000111728537930178
-6.76321828530955
6.76276812755864
-4.108428413029941e-07
-6.766523865325615
6.766486588170329
-6.766516643305213
6.766516633864051
-0.02619465115736153
-5.027459630778789
0.1551010172984635
-0.0002319719529224606
-6.742999010122766
-7.956627658955995e-07
-6.76646419525008
-6.766516564732724
-0.05213085106149573
-4.098870233284314
0.1402544744576372
-0.0006828763735964305
-6.688208438177126
-2.730563315012091e-06
-6.766240010120789
-6.766516142832645
-0.1015820535801097
-3.155607270666739
0.1231174531038213
-0.002350211829832194
-6.54714806303614
-1.173094667206165e-05
-6.765199611821044
-6.766514255755929
-0.1749599696973652
6.241520984944394
-6.06652452632632
-0.3450951910504513
6.238928738709133
-6.06423841872684
-0.3754333959615958
6.026858134079915
-5.90496166580813
3.32963880281098
-3.508113882842854
-0.002675484318378142
-0.1749647046618755
6.416521248834101
-0.3449980789430482
6.414295643061684
-0.3664366309290756
6.164947174750628
3.168667546848895
-0.000852532905683441
-0.1749805103764708
6.591517478923832
-0.3464417450368779
6.589689315944232
-0.3773526612758885
6.348488023809633
3.10684196389086
-0.0004102693191870843
-0.1749806409883511
-0.3463420521795232
-0.3675236331604921
0.01179111572263903
0.810786792350164
-3.967645103309357
-0.02344217406491095
0.6655924053686242
-5.684642907212591
0.3353693151849535
-5.731080333896287
-5.73111748197245
0.9243973579740542
-4.499224802770516
-0.06354053334114985
0.6699500847954158
-5.412146616016951
0.3353149054715664
-5.400092528833144
-5.395702362638923
1.007822871380103
-4.891907119968266
-0.4744985255758242
0.6826575028737012
-5.110253655674964
0.3359297277588907
-5.062008048191922
-5.060355202185828
1.1480472785187
-4.733681575496067
-1.450363642187781
0.6795350416857613
-4.753154896319546
0.335824547698091
-4.725843819342761
-4.724939281630284
0.1992163837918832
5.322810650195263
-5.522110092103903
0.3969492802532297
5.323099733734199
-5.522378358301422
0.4440939451757241
5.358635051997532
-5.55888217402179
5.469726500676752
-5.798272391368602
0.01144760513198984
0.1991722811587632
5.123516794907774
0.3961629904851606
5.12390726846534
0.4119025676314564
5.16055353057574
5.152964527603322
0.05244128073622689
0.199122154715401
4.924182327993384
0.395573202524601
4.924543518665782
0.4253200265918362
4.953142836508349
4.921662527799615
0.1638960099403259
0.1992945807582088
0.3968201283133406
0.4911416138374656
0.3653107720091704
-0.3478882508327861
-6.094873464500139
-0.006281647456478856
-0.3097036548595253
-5.712223594696662
-0.1554705581374308
-5.67793164723132
-5.677658350247433
-0.3669539796419369
-6.321123968842586
-0.01448919471608323
-0.3101464850433589
-5.864180463950351
-0.1555064006627562
-5.833399855551379
-5.833208396209654
-0.3823246696586307
-6.475339921135348
-0.001044862450610307
-0.3103068842516088
-6.018943843619366
-0.1555089034911398
-5.988949882677804
-5.988759698888501
-0.3989541163316321
-6.551567791805581
0.003304386840125129
-0.310571878616728
-6.165080721428114
-0.1555257509092173
-6.144410778191483
-6.144310341876996
0.1555543330404734
6.610963020064584
-6.766515005718474
0.3110982346639353
6.610958676660219
-6.766507613361594
0.4611863620989435
6.613844212357582
-6.766736334588281
6.889201891633015
-6.824606230377079
0.1456933794149673
0.1555520558060248
6.455412069913675
0.3110425248726839
6.455424637296232
0.4489578189699218
6.46129873944899
6.774293542062283
0.1483444067456116
0.1555444464984526
6.299861736350412
0.3109321126249761
6.299939350431183
0.4348573659086497
6.313586351485549
6.643390141792525
0.08684032610571146
0.1555333645161734
0.310744925605979
0.4177064247302276
0.04272647798542883
-6.76651664554787
3.207054732667913e-06
-6.76651663299467
-1.25192822775233e-08
-6.766516632949851
4.049838242536907e-11
-7.163477588889577e-10
-6.766516632444789
-6.766516643803153
3.286657648260416e-07
-6.766516633102116
1.339928850097039e-07
-6.766516633313009
-8.307823984310403e-09
-4.869943981411495e-08
-6.766516690088346
-6.766506733219595
-0.0009343666451267496
-6.76651282413942
2.72941292737694e-05
-6.766518648334871
-1.879585694419816e-06
-2.297035475234965e-05
-6.766572305887188
-6.766522243887722
-0.1074089849221553
-6.766433969461318
-3.203173765503609e-05
-6.766942328413478
-4.156518958697841e-05
-6.775108255722373
-0.0005096520250061909
-4.24382071706475e-08
-6.766516598531361
-1.84440531059149e-06
-6.766519405954938
-0.0004129914947449409
-6.767675885987019
-6.822806252709536
-0.001980663535488758
-7.769366973109371e-07
-6.766516254884746
-2.532126443677285e-05
-6.766554655711181
-0.00271100726105894
-6.774689165063013
-6.925304816859724
-0.002686074464392285
-5.478902220579229e-06
-6.766515481686266
-0.000165279191740364
-6.766689919672054
-0.01112228064026993
-6.792642650031995
-7.052276555838644
-0.001975919676379612
-1.685620731062265e-05
-6.766515217465079
-0.0004952172889860496
-6.766816518957837
-0.02260256048027048
-6.808135226750642
-7.185927500098687
-0.003713034605816956
-5.294911831876803e-06
6.766516493721895
-6.766516490440856
-0.0001391575801613643
6.766602270127805
-6.766561276566283
-0.02303925526513245
6.787806783570445
-6.779896230994206
7.56975074541935
-7.571978779089137
-0.1865894046063995
-1.292185002066404e-05
6.76651600057662
-0.0003958338816441032
6.766705766074675
-0.04745911923356827
6.802106599338935
7.46393859067533
-0.06648572960525234
-2.528585885541723e-05
6.766515679206793
-0.0007494911891138267
6.766818862744024
-0.05084937808851164
6.811804090091568
7.32675195418469
-0.01776453609470147
-2.514324969293824e-05
-0.0007191669271930934
-0.03464716221434211
-0.005254206413437656
-0.1627162129141196
-7.584528383252677
-0.008982414926829496
-0.1166144769168193
-6.835919235393924
-0.05833058286556503
-6.824883711629773
-6.824848519198354
-0.1646270435081779
-7.545226083100746
0.01088174819745436
-0.1166049881111549
-6.8926057715895
-0.05832933196183621
-6.883209709250533
-6.883180193906705
-0.1669646508602445
-7.495392055419311
0.01388783554928241
-0.1166299003899667
-6.94683410133432
-0.05833066387986019
-6.941523155484187
-6.941512753057172
-0.1692080917055273
-7.436800023580491
0.02324592577640111
-0.116648973096556
-7.000214869843637
-0.05833166465692596
-6.999844792821089
-6.999844792857568
-1.151927673860653
-6.420163389226315
0.03426639103605833
-2.012455377910976
-6.137845869197929
-2.872852967039809
-6.139447203692131
-6.139447203692587
-1.152180808298915
-5.409076747348905
0.05117320903387002
-2.01245537791648
-5.279050485205063
-2.872852967042258
-5.279049614566445
-5.279049614567429
-1.152057290686534
-4.437583626049657
0.1203347797815649
-2.012455377921992
-4.418651991911581
-2.872852967044603
-4.418652025443835
-4.418652025446893
-1.152057872503987
-3.557576847900782
0.2525165026363714
-2.012455377927508
-3.558254431534612
-2.872852967046921
-3.558254436324423
-3.558254436328661
2.843686947076677
0.8895636090796828
1.954123337995112
0.8895636090815642
1.064559728909011
0.8895636090850183
0.8895576957456339
0.1749965363861903
2.843686947077599
1.7791272181565
1.954123337999196
1.77912721815997
1.064559728913242
1.779127218147734
1.779098088918589
0.175001380333048
2.843686947089469
2.668690827241873
1.95412333800662
2.668690827242819
1.064559728950638
2.66869082704951
2.668525670162312
0.1750125283991148
2.843686947088214
1.954123338006611
1.064559730088034
0.1750623600907956
0.1749961853661613
0.1749961853818876
0.1749956817303343
0.1749994937704797
0.1749962356380906
0.1750021311035848
0.1749807340088341
0.1749951515493892
0.1749994938500053
0.1749956817250881
0.1749981199183352
0.1749981198551221
0.1749973824059202
0.1749922095443857
0.174359484799014
0.1753713219391194
0.1750021310896949
0.1749962356058157
0.1749922094654325
0.1749973823604761
0.1749359813956327
0.1749359816409589
0.1720530449364997
0.1764010561927709
0.1749807340447058
0.1749951515217764
0.1743594847968669
0.175371321933741
0.1720530449639878
0.1764010564476015
0.1714759599671981
0.1714759600882683
-0.07468416763899344
0.2442274570256896
-0.1396676357811426
0.2383473981429937
-0.2067369074081732
0.2392383231894423
0.2182056002019785
-0.01593314056289219
0.2591028584613911
-0.0376042719883406
0.2582447658879656
-0.06923792374317761
0.2680944174583745
0.2657899068699813
-0.007874668476807622
0.2673334080781769
-0.02055454487719
0.271366689598035
-0.03284582926260349
0.2797855352939878
0.2825184737837459
-0.002387564427238198
0.2690136329905872
-0.01541965502270015
0.2835770071728465
-0.02599064858940336
0.2889135923569863
0.2900205018942141
0.2925154100132553
0.02075864922546289
0.2955631202492199
0.01234572862740868
0.2990134767144698
0.008982052310990307
-0.009094744767581264
0.3005027347823826
0.2947493908036347
0.01493756635015192
0.298944235975295
0.0100424447051678
0.3029333635311713
0.007184053259607859
-0.01278730501051628
0.3102827094334042
0.2931131052132467
0.004830061560309573
0.2985838882805721
0.005883005583535827
0.3033630812917036
0.004519548965141562
-0.0352386457083812
0.3298137814043942
0.2729898990607226
0.2787942964414736
0.2839225237204012
0.2517813736477518
0.2783696530459665
-0.1633963539193665
0.2572713760460291
-0.03936800635068188
0.2469360905074101
-0.004076724088665162
-0.000669141321124056
0.2431111641367662
0.2715184948839498
-0.1234164421083065
0.2556552065682509
-0.0166516238447092
0.2510018068639027
0.005085010178569993
0.004743091156861168
0.2474411802127436
0.2772882606380785
-0.06961182653715559
0.2620812866208203
0.004397209568007543
0.2568054750775176
0.01346428782303816
0.01158971122806024
0.2516844478376605
0.1841218710172927
0.1914638419876337
0.2047490407345352
0.2169240674955096
0.2424183087387276
-0.001589941747234869
0.2420001570769289
-0.0007738482982945216
0.238266381077712
-0.001453158747584671
-0.00131331530221912
0.2346443134945477
0.245177016920779
0.003754827021354767
0.2433310379489044
0.001296671884882084
0.2391371372471776
0.0005004578809877924
0.0001776447956494676
0.2351794215034453
0.2484091656184713
0.00926545835603837
0.2453267927226299
0.004379952243906748
0.2405260896583343
0.002930712295078908
0.002208036929363832
0.2359404320382408
0.2279029179822172
0.233059188528661
0.2332308652927663
0.233127586308029
0.2334692514140185
-0.0003940503837063236
0.233325630706936
-3.540137383484243e-05
0.2333206582690336
-2.070342331350616e-05
-0.1287192568343901
0.2461346472271845
0.2335833231488725
7.275645462118119e-05
0.2333326682358434
1.539081627466299e-05
0.2333234296291159
2.7788381593008e-06
-0.123386789613702
0.217404804959076
0.2337430537961012
0.0009024494431121854
0.2333468277485646
0.000137457134573582
0.2333171791210861
2.237841430469123e-05
-0.08351437207889839
0.1826971338693996
0.2332459991457547
0.2333234450472834
0.2333304116609385
0.1368841147216218
0.2734830326139019
0.1112877617503909
0.2789897797967775
0.1306766144251943
0.2825872434339407
0.0716011528478262
0.03173536354287476
0.2868427102521635
0.2530849052916171
0.07196766839808011
0.2749816055976372
0.1004799151897545
0.2844544533801256
0.05494541263031516
0.02650938897706379
0.2904019481146239
0.2071110076719493
0.0451448117271267
0.250904083139332
0.04873382094042622
0.2796443795306781
0.02219202868845072
0.01775139742923637
0.2913053189363147
0.1814726696906039
0.2226639564437189
0.2411883099011172
0.2604508652861879
0.293106924549038
-0.0004928601209768235
0.3004685576537849
-0.003403929515240267
0.3028718528560705
-0.01564654897958107
-0.00953328941250764
0.3037862433264378
0.2966309707341935
0.00144462770270648
0.3058676509890729
-0.001929769511454849
0.3097143298804871
-0.01140992125445117
-0.00668139689856162
0.3110413957992867
0.2994187065325219
0.003800732106960747
0.3091725607264031
0.001017593246107396
0.3141885634830187
-0.005640780219583252
-0.001834680584782977
0.3153629305426656
0.2746042223152231
0.2874058161104088
0.2924523596150584
0.2958098489118573
0.3072916430661495
0.005238261501018915
0.32108305224849
0.03994463743378907
0.3513174145882395
0.1382590850698221
0.2894364735824647
0.4306141091504042
0.3167004396127475
0.004604557309256796
0.3323521364995962
0.03072895052474933
0.3611298452763378
0.1179508105776396
0.1919903900023825
0.4696259341017754
0.3218828198050147
0.004349963554022063
0.3361548792956913
0.02284496378238143
0.3732676109178531
0.08809965815145204
0.04760735423189244
0.5302932433198018
0.304780999741304
0.3327947611219219
0.4281934094456859
0.4887974750879399
0.2283269283619095
-1.241851953638612
0.02769870791174628
-0.264040069956524
0.004927013707589025
-0.03346094678208533
-0.01888564992138662
0.0009147019538916709
0.1566726159963227
-0.919230291141776
0.01608502365285957
-0.1167249493912197
0.005505991513813743
-0.01817364958052506
-0.01375208479677092
-0.0001146658541722675
0.08126450427387692
-0.4632999289811042
0.007819063009505309
-0.03623937543110498
0.003213912907635185
-0.005980541915949336
-0.008335293791088973
0.0002553521390721136
0.02904289031209578
-0.001896406601865869
0.002520184727733276
0.001241763741027342
0.0005449312860578356
-0.004307391435043884
0.0006615310775289797
-0.002617621819147965
0.001533449277229379
-0.002362674248031452
-0.0003449980002286773
0.01172749799598351
-0.002546431397867352
-0.005786340922734036
-0.002686589934494764
-0.004988972374682515
-0.0006252530992530338
-0.006404416671808771
-0.004153903524410269
-0.0009763341719675571
-0.002083402628048089
-0.005514843286771029
-0.00277150219867107
-0.004824399511703353
-0.003817072435116321
-0.00579931605500103
-0.0009841250198400001
-0.009933115107579419
-0.001589636701278875
-0.002994578827746159
-0.007688695595072898
-0.01152312174221153
0.08301697698728674
0.05923416213726374
0.1432683129463397
0.101444306332445
0.1862316838646704
0.1359005269641335
0.1217146110902814
0.2177130272319135
0.04675693016953753
0.01515065592088932
0.1119064124883557
0.04892091624670572
0.1645052085477404
0.09879152932312085
0.09702871596540752
0.2088430949400712
0.01188639642100794
-0.00106511970650644
0.06608932626003583
0.008687367217840497
0.1305444041714092
0.05183732788818604
0.05901989250760611
0.1865681939058631
-0.009934093078014655
0.009045367028277393
0.0784808057587538
0.159729969294254
0.177108694882136
-0.21606349318414
0.2716726030013657
0.1300337827699494
-0.1489771373669689
0.201262431628344
0.09454111067051962
-0.08733522865362379
0.1230015301940635
-0.05843434008102411
0.08510830813683173
0.09076562668692227
0.1589762256920552
-0.1574286622511736
0.1087458052150746
-0.09347038526355847
0.07630142630176164
-0.04944941695270114
-0.02973915736152496
0.04136700051656567
0.1294257342558196
-0.09401827238944244
0.07721421532165809
-0.03629217870843846
0.04436732783047435
-0.01274539419610809
-0.01011318347451705
0.008326547835642142
0.06848586245529263
0.03346150946342646
0.02664613636782896
-0.008431194587303049
-0.04328989804749087
0.003101847156482328
-0.04604122744494633
-0.003560118339832077
-0.02740455900393158
-0.008005009698547515
-0.009607752125293498
1.067895771811322e-14
-0.02840288069050137
0.01648906616346082
-0.03224368761692675
-0.001024967652092566
-0.01943906811010333
-0.007881937341970409
-0.00980562455747902
9.389711230767261e-14
0.008495917622993419
0.03463501383959488
-0.004931227971613675
0.01224939856597557
-0.004802549363867537
0.003023880535916994
0.004208176545461909
1.130623372702644e-13
0.07092641358962415
0.04188301321621444
0.01676976705146373
2.945838017964775e-13
-0.009607752125269309
0.02740455900389021
-0.009805624557464206
0.01943906811026165
0.004208176545445565
0.004802549364128009
-0.01676976705062522
0.03430392969641628
-0.008005009698490911
0.04604122744495724
-0.007881937341963543
0.032243687617017
0.003023880535942616
0.004931227971946575
-0.04188301321540203
0.03501724020932651
-0.003560118339813803
0.04328989804750046
-0.001024967652104535
0.0284028806906082
0.01224939856601984
-0.008495917622878137
-0.07092641358891726
0.04485459743789452
0.003101847156451554
0.008431194587414814
0.01648906616344472
-0.008326547835568097
0.03463501383967355
-0.04136700051676097
-0.0851083081362612
0.05818054543499811
-0.09454111066992588
-0.05843434008091508
0.09076562668646052
-0.1300337827696037
-0.08733522865352503
0.1230015301941873
-0.1771086948818452
-0.1489771373671538
0.2012624316285882
-0.216063493184363
-0.2177130272319121
0.2716726030015089
-0.07630142630160143
-0.029739157361652
-0.1087458052146744
-0.04944941695265895
-0.1589762256917618
-0.09347038526346917
-0.1574286622513522
-0.2088430949399912
-0.04436732783049641
-0.01011318347450306
-0.07721421532157682
-0.0127453941961109
-0.1294257342556361
-0.03629217870843082
-0.0940182723894572
-0.1865681939058159
-0.02664613636778521
-0.0334615094634025
-0.06848586245524103
-0.1597299692941549
-0.07848080575876745
-0.05901989250720374
-0.009045367028022715
-0.05183732788812348
0.009934093078253468
-0.008687367217439346
0.001065119706848972
0.01152312174210008
-0.1305444041715969
-0.09702871596465079
-0.06608932625963782
-0.09879152932342664
-0.0118863964203714
-0.04892091624607017
-0.01515065591962246
0.009933115107555306
-0.1645052085479357
-0.1217146110892651
-0.1119064124880877
-0.1359005269654096
-0.0467569301684079
-0.1014443063325307
-0.05923416213439009
0.0009763341719193318
-0.186231683864732
-0.1432683129462568
-0.08301697698654228
-0.01172749799555181
-0.001533449277550258
-0.0003449980006319936
-0.0006615310774205248
-0.002362674247663545
-0.0005449312858555322
-0.002617621818875149
-0.004307391435318303
-0.0009147019537777672
0.0006252530991228532
-0.004153903524677833
0.002686589934557249
-0.006404416671549819
0.002546431398051243
-0.004988972374357803
-0.005786340922901229
0.00011466585431299
0.003817072434970668
-0.0009841250198590959
0.00277150219865931
-0.005799316054921705
0.002083402628191185
-0.004824399511732511
-0.005514843286842173
-0.0002553521388598701
0.007688695594954548
0.00299457882769746
0.001589636701453722
-0.001241763740724175
-0.004927013707464808
-0.01888564992224243
-0.02769870791096657
-0.03346094678202882
-0.2283269283602589
-0.2640400699551403
-1.241851953640641
-0.4306141091505776
-0.00550599151382478
-0.01375208479745245
-0.01608502365258398
-0.01817364958078416
-0.1566726159951286
-0.1167249493906582
-0.9192302911427641
-0.469625934101853
-0.003213912907627438
-0.008335293791895154
-0.007819063009483486
-0.005980541916147983
-0.08126450427318513
-0.03623937543100717
-0.4632999289818815
-0.5302932433195175
-0.002520184727671217
0.001896406601754162
-0.02904289031200476
-0.4887974750884974
-0.3513174145880779
0.2894364735831616
-0.3210830522476799
0.1382590850707458
-0.307291643065761
0.03994463743329324
0.005238261503742292
-0.3037862433262012
-0.3611298452761835
0.1919903900020239
-0.3323521364990099
0.1179508105760911
-0.3167004396129993
0.03072895052393387
0.004604557311703061
-0.3110413958001251
-0.3732676109171142
0.04760735423022666
-0.336154879295542
0.08809965814920362
-0.3218828198057313
0.02284496378219592
0.004349963555196679
-0.3153629305434426
-0.4281934094470773
-0.332794761124505
-0.3047809997447837
-0.2958098489149866
-0.3028718528556498
-0.009533289405972534
-0.3004685576522284
-0.01564654897994955
-0.2931069245486487
-0.003403929524336768
-0.0004928601134837063
-0.2868427102542954
-0.3097143298803481
-0.006681396894021474
-0.3058676509871276
-0.01140992125318707
-0.2966309707351428
-0.001929769517504454
0.001444627710061486
-0.2904019481184219
-0.3141885634829498
-0.001834680582196713
-0.3091725607248939
-0.005640780217482377
-0.2994187065348274
0.001017593242902959
0.003800732112303251
-0.2913053189407903
-0.2924523596158511
-0.2874058161087637
-0.2746042223189695
-0.2604508652880801
-0.2825872434326961
0.03173536356130258
-0.2789897797980325
0.07160115283257884
-0.2734830326155985
0.1306766144367816
0.1112877617391737
-0.2461346472250758
-0.2844544533795524
0.0265093889874024
-0.2749816055988527
0.05494541261837371
-0.253084905289635
0.1004799151984184
0.07196766838865343
-0.2174048049571946
-0.2796443795290522
0.0177513974315795
-0.2509040831405658
0.02219202868188364
-0.2071110076682157
0.04873382094579104
0.04514481171962659
-0.18269713386543
-0.241188309898004
-0.2226639564456445
-0.1814726696859194
-0.1368841147203244
-0.2333206582600376
-0.1287192568424631
-0.2333256307004385
-2.070344186644313e-05
-0.2334692514162038
-3.540136571589247e-05
-0.0003940503854970578
-0.2346443134940663
-0.2333234296221704
-0.1233867896238225
-0.2333326682313226
2.778819885418393e-06
-0.2335833231511995
1.539082689755444e-05
7.27564515941026e-05
-0.2351794215024904
-0.2333171791159198
-0.08351437208445722
-0.2333468277470169
2.237840472518737e-05
-0.2337430537974314
0.0001374571412025016
0.0009024494411423167
-0.2359404320373515
-0.2333304116568546
-0.2333234450457696
-0.2332459991497479
-0.233127586307054
-0.2382663810785031
-0.001313315300946027
-0.2420001570768893
-0.001453158750228611
-0.2424183087393944
-0.0007738482944755209
-0.001589941745257839
-0.2431111641371418
-0.2391371372472724
0.000177644797593024
-0.243331037949179
0.0005004578787906611
-0.2451770169214602
0.001296671889206347
0.003754827021860641
-0.2474411802124878
-0.2405260896582794
0.002208036931338142
-0.2453267927225871
0.002930712293495286
-0.2484091656182858
0.004379952247233254
0.009265458355721845
-0.2516844478374736