/*--------------------------------*- C++ -*----------------------------------*\
  =========                 |
  \\      /  F ield         | OpenFOAM: The Open Source CFD Toolbox
   \\    /   O peration     | Website:  https://openfoam.org
    \\  /    A nd           | Version:  11
     \\/     M anipulation  |
\*---------------------------------------------------------------------------*/
FoamFile
{
    format      ascii;
    class       volScalarField;
    location    "0.062";
    object      rho;
}
// * * * * * * * * * * * * * * * * * * * * * * * * * * * * * * * * * * * * * //

dimensions      [0 0 0 0 0 0 0];

internalField   nonuniform List<scalar> 
880
(
0.3733250556165154
0.3733250556165154
0.3733250556165154
0.3733250633645714
0.3733250556165154
0.3733250556165154
0.3733250556165152
0.3733251984586753
0.3733250556165154
0.3733250556165153
0.3733250556165154
0.373327481272762
0.3733250556165154
0.3733250556165154
0.3733250556169025
0.3733288172614053
0.3733250556165154
0.3733250556165155
0.3733250556165152
0.3733250556165155
0.3733250556165154
0.3733250556165154
0.3733250556165151
0.3733250556165154
0.3733250556086863
0.3733250552249616
0.3733313583725248
0.3733036363270335
0.3743486442023139
0.3782162005130194
0.3819993127122038
0.3840175884835096
0.3733250563895111
0.3733250567271246
0.373325056915416
0.3733250560997339
0.3733250922989843
0.3733251139350904
0.3733251273507779
0.3733250869615884
0.3733700761023726
0.3733770406862547
0.3733856305928585
0.3733697832272922
0.3852578930438435
0.3867821465876511
0.3879065184358276
0.3883888803208859
0.38780177783044
0.3844366283713259
0.3807535624293217
0.3771418122652676
0.3734415461893008
0.3734698172814628
0.3734563005632403
0.3733867952477072
0.3733252590076116
0.3733252987796747
0.3733252631664755
0.3733251537672297
0.3733250599474335
0.3733250599208555
0.3733250585618702
0.3733250566246692
0.3733250557373701
0.3733250556193695
0.3733250556165154
0.3733250556165155
0.3733250746931061
0.3733250566940078
0.3733250556237419
0.3733250556148452
0.3733381257142045
0.3733259546678759
0.3733250676719389
0.3733250550242225
0.3744457498331641
0.3734486042878191
0.3733282487678966
0.3733250516804079
0.373325047578097
0.3733250552963517
0.3733250556164104
0.3733250556165154
0.3733250481418492
0.3733250549491675
0.3733250555842549
0.3733250556161268
0.3733251277538773
0.3733251811854409
0.3733250631962287
0.3733250558017446
0.3739512392280857
0.3733031747109866
0.3733242684902128
0.3733250546312573
0.3733250539119415
0.3733248808401303
0.3733381321596875
0.3909395302960885
0.373325058002993
0.3733251671450585
0.3734549199931368
0.4090046959422295
0.3733250632168537
0.3733254218826457
0.3735871782747125
0.4197598779542518
0.3733250660376746
0.3733255692894888
0.3736739730196172
0.4275544919940185
0.4313055349084557
0.37373214132585
0.3733256954502859
0.3733250689878049
0.4358642720275788
0.3738245644184359
0.373325908506285
0.3733250735090573
0.439172373412318
0.3738987637500329
0.3733260887721629
0.3733250782348722
0.4443671950148074
0.3740658599139216
0.3733265999086086
0.3733250903954791
0.3733250872884504
0.3733264576982754
0.3741104219298426
0.4505599419472828
0.3733250947115
0.3733267937675305
0.3742441902360818
0.454180916856817
0.3733251073221062
0.3733272241907196
0.3743322754456478
0.4502217457895772
0.3733250917425334
0.3733264839500931
0.3737976021238998
0.4217990330424323
0.3733246192947471
0.3733268724951687
0.3740671598204172
0.3831700181059746
0.3733250040223177
0.3733158679211247
0.3725075908293026
0.3323469187318461
0.3733250289861594
0.3733101142706354
0.3708515240392182
0.2938522517535567
0.3733250188130193
0.3732978610449571
0.3685574134722057
0.2626521635512936
0.2644891586276159
0.3698802206982837
0.373311091262091
0.373325031398928
0.2666342828593547
0.3702475676704671
0.373313180557293
0.3733250365905262
0.2798846601674595
0.3713351932549528
0.3733187549404535
0.3733250459810034
0.2750702006162043
0.3710260234262748
0.373317618321201
0.3733250446290715
0.3144427811503315
0.3725927159300996
0.3733231974594433
0.3733250528052982
0.3491493260260591
0.3731958852760894
0.3733248160732169
0.3733250553210256
0.3654416080585592
0.3732987471214251
0.3733250106188482
0.3733250555660783
0.3694852413480517
0.3733052876507419
0.3733250088286845
0.3733250555217718
0.3575595402919534
0.3730722362808909
0.3733236553297843
0.3733250520259456
0.3578182179970419
0.3730723259271803
0.3733236544752278
0.3733250520166128
0.3582039796535914
0.3730715978019766
0.373323647098728
0.3733250519467853
0.3591178425061859
0.3730768111425193
0.3733236573338504
0.3733250519032603
0.3694852413479221
0.3733052876501476
0.3733250088279139
0.3733250555223611
0.3654416080573238
0.3732987471206225
0.3733250106167971
0.3733250555662667
0.3491493260255237
0.3731958852762248
0.3733248160730412
0.3733250553212924
0.3144427811508554
0.3725927159315817
0.3733231974595705
0.3733250528048434
0.3733250314002839
0.3733110912641006
0.3698802206986234
0.2644891586275752
0.3733250365912424
0.3733131805579623
0.3702475676711719
0.2666342828596105
0.3733250459797829
0.3733187549416346
0.3713351932549709
0.2798846601684978
0.3733250446294581
0.3733176183213029
0.3710260234285935
0.2750702006153621
0.2626521635493451
0.3685574134714411
0.3732978610443039
0.3733250188128635
0.2938522517516017
0.3708515240380473
0.3733101142685891
0.3733250289841813
0.332346918731276
0.3725075908277055
0.3733158679211673
0.37332500402014
0.3831700181063761
0.3740671598198221
0.3733268724946391
0.373324619297074
0.3733250872879554
0.3733264576995002
0.3741104219309547
0.4505599419487888
0.3733250947119152
0.3733267937677688
0.374244190235924
0.4541809168564201
0.3733251073233723
0.3733272241907676
0.3743322754443962
0.4502217457893221
0.3733250917448527
0.3733264839500524
0.3737976021230818
0.4217990330421906
0.4443671950178171
0.3740658599123884
0.37332659991054
0.3733250903951869
0.4391723734153326
0.3738987637511794
0.373326088773005
0.373325078235361
0.4358642720284695
0.3738245644221377
0.3733259085074833
0.3733250735086736
0.4313055349067798
0.3737321413251419
0.3733256954509023
0.3733250689873738
0.3733250539130126
0.3733248808415316
0.3733381321596554
0.390939530293888
0.3733250580017135
0.3733251671437822
0.3734549199934161
0.4090046959426226
0.3733250632162599
0.3733254218826907
0.3735871782766172
0.4197598779543747
0.3733250660369351
0.3733255692896394
0.3736739730160895
0.4275544919970365
0.3733250546310442
0.3733250558021996
0.3733250556161359
0.3733250556165154
0.3733242684882946
0.373325063195881
0.3733250555855484
0.3733250556159882
0.3733031747113246
0.3733251811863816
0.3733250549483212
0.3733250552958891
0.3739512392280992
0.3733251277540436
0.3733250481418737
0.3733250475780716
0.3733250556165152
0.3733250556148289
0.3733250550244718
0.3733250516807918
0.3733250556165154
0.3733250556234799
0.373325067674223
0.3733282487679805
0.3733250556195311
0.3733250566939584
0.3733259546669765
0.3734486042880881
0.3733250557376897
0.3733250746925585
0.3733381257152147
0.3744457498327782
0.3733250599458575
0.3733252590059939
0.3734415461883691
0.3878017778298258
0.3733250599195939
0.3733252987802628
0.3734698172816424
0.3844366283699245
0.373325058561591
0.3733252631685892
0.3734563005629712
0.3807535624290448
0.3733250566243332
0.3733251537683229
0.3733867952477989
0.377141812264482
0.3883888803213215
0.3733697832291848
0.3733250869603981
0.3733250560989475
0.3879065184353276
0.3733856305958226
0.3733251273503326
0.3733250569158678
0.386782146589569
0.3733770406863146
0.3733251139356404
0.373325056726688
0.3852578930436311
0.3733700760972753
0.3733250922984141
0.3733250563898929
0.3840175884841825
0.3733036363311478
0.3733250556165154
0.3733250556165164
0.3819993127115161
0.3733313583683863
0.3733250556165154
0.3733250556165154
0.3782162005135224
0.3733250552247186
0.3733250556165154
0.3733250556165153
0.3743486442013214
0.3733250556082964
0.3733250556165154
0.3733250556165151
0.3733250556165154
0.3733250556165154
0.3733250556165154
0.3733250634023829
0.3733250556165152
0.3733250556165155
0.3733250556165153
0.3733251984497897
0.3733250556165154
0.3733250556165154
0.3733250556165154
0.373327481273927
0.3733250556165154
0.3733250556165154
0.3733250556168111
0.3733288172614626
0.3733249498634008
0.3733249174234257
0.3733275576972162
0.373589120686807
0.3733249174754688
0.3733235758683888
0.3733220793843004
0.3744389486295577
0.3733275576642769
0.3733220793490825
0.3737150452496418
0.3835594135566714
0.3735891206969299
0.3744389486176448
0.3835594135740593
0.4318608717413147
0.5158328304709026
0.4546823580591334
0.4246171355220013
0.3941994377698374
0.509579335773846
0.4938164338405079
0.4851357274885314
0.4551281650938717
0.5033912362494403
0.5006007475018666
0.5001966713844747
0.488651667747432
0.5069769426830898
0.5062387862421417
0.5081491599721442
0.5033650278119008
0.5114500539788129
0.5134587826724547
0.5141996690206954
0.521597507472539
0.5153974813039549
0.518547130591349
0.5192719599889426
0.5302742326803122
0.5118033319472735
0.5143691503816927
0.5150164899360891
0.5280606910355042
0.514291315073075
0.5178444887243459
0.518620751190737
0.5265917027632538
0.4605614546838498
0.399785641004289
0.3826453108776173
0.3797652075717077
0.4224196507451856
0.3643713219822426
0.3717699714294617
0.3766345389582204
0.3903278812624019
0.3599991907500143
0.3723867255713081
0.3789935004281582
0.3506402127548748
0.3621805843620912
0.3734730738803241
0.3787525792984682
0.3763708026529951
0.373853585138461
0.3733498304103301
0.3733252375323571
0.3759429316029305
0.3740467595773467
0.373370141882351
0.3733254801437471
0.3775304372421581
0.3745241385912003
0.373408035943858
0.3733260064692547
0.3757367972027313
0.3734475278653609
0.3732821687783986
0.3733235094597854
0.3733250517923904
0.3733250454816759
0.3733252981549824
0.4065949022191578
0.3733250606199161
0.3733250483878626
0.3733255206965632
0.4258404730570632
0.3733250587405803
0.3733250506887481
0.3733256534821363
0.4393194943922704
0.3733250496440379
0.3733250517579864
0.3733257762297658
0.4455295735794804
0.6369035740996631
0.6560587837655185
0.6699875347440879
0.6853955718406295
0.7039823364265414
0.6918696018905549
0.6974341117817775
0.7171273599154774
0.7040008228273164
0.6882599656899466
0.702947393995361
0.7254529407106215
0.7369585742057377
0.705855085809001
0.7079137962247318
0.7285067016608612
0.6905352245111118
0.6925512151498026
0.693056352204832
0.6935348028030791
0.7264723311668019
0.7286991232792013
0.7289551198005789
0.7285681934497646
0.7370368462738233
0.7397115673493561
0.7399098655314501
0.7397468837796252
0.7423084592155639
0.7459325636057675
0.7461118809473056
0.7455975604151991
0.6941953217517246
0.6895559101374839
0.6640069087146725
0.5837282662245445
0.7284879856159371
0.7212331224573761
0.691845900833862
0.6153744549988525
0.7395225404261593
0.7316624723670664
0.6952210956497391
0.6375057609637528
0.7471280902201041
0.7420239712291169
0.7032276226591815
0.7421222862459051
0.400277586946832
0.1334450558034297
0.0654230367412498
0.05243841974081537
0.3351973557235068
0.09227235342465369
0.05694577360058575
0.04928555389593228
0.2415139955295035
0.06940487702612394
0.06581227814112395
0.06669740932199417
0.1758821207321579
0.04042034808897744
0.07893724107616154
0.08787255360246443
0.05615261774387868
0.05735684069732127
0.06177484580287938
0.05528273169774345
0.04752273746716847
0.0507292962136506
0.05725232573990812
0.04732585996862904
0.06601922952161596
0.07137099443199862
0.07422026109860404
0.05578320073966184
0.08984153613692832
0.09716470686671165
0.09053145067653486
0.06072527924602115
0.158072730131028
0.2477819673263467
0.2907509741749608
0.3163632621641764
0.1158747248855625
0.2073532061086794
0.2524696877546331
0.3001474239663504
0.1043564291782694
0.1878056960516069
0.2340420393821741
0.2897780400055631
0.07886273234787627
0.1411610220014188
0.2042422299966525
0.265447666012406
0.2592659327646976
0.1881248834787671
0.1845125343499927
0.1970836325115286
0.2185331278528815
0.1268818880631916
0.07782893069822659
0.1172324671056522
0.1795291725922382
0.0899201130272255
0.05666113186699841
0.06100101358497092
0.1351827138991735
0.04836326986302755
0.04054091426557506
0.07707245533874418
0.09189123847422216
0.08956949882528376
0.08899357518000696
0.1020488908230491
0.08914965046130154
0.111430245524041
0.12446061482141
0.1634446566222053
0.1561399278378784
0.1624178046475404
0.1513176526968662
0.1419409383284771
0.1887779026216919
0.1709999664871941
0.1451013288107555
0.1199033286762415
0.1020488908228811
0.1634446566221343
0.1419409383285176
0.1199033286762933
0.08899357517985232
0.1244606148211843
0.1513176526969152
0.1451013288108322
0.0895694988252093
0.1114302455238691
0.1624178046472494
0.1709999664867643
0.0918912384742321
0.08914965046135716
0.1561399278376826
0.1887779026210217
0.1970836325108054
0.1845125343492941
0.1881248834784096
0.259265932763712
0.1172324671055469
0.07782893069830146
0.1268818880629954
0.2185331278524122
0.06100101358503715
0.05666113186699479
0.08992011302706
0.1795291725920095
0.07707245533878543
0.04054091426558594
0.04836326986301789
0.1351827138991638
0.2654476660124556
0.2042422299971121
0.1411610220020466
0.07886273234801565
0.2897780400053252
0.2340420393821759
0.1878056960519665
0.1043564291783675
0.3001474239662232
0.2524696877540805
0.2073532061088825
0.1158747248855135
0.3163632621640284
0.2907509741742484
0.2477819673264033
0.1580727301306968
0.05528273169712029
0.06177484580352251
0.05735684069745617
0.05615261774368956
0.04732585996849075
0.05725232574004554
0.0507292962138393
0.04752273746726651
0.0557832007395527
0.07422026109875351
0.07137099443217614
0.06601922952165537
0.0607252792459681
0.0905314506765867
0.09716470686687323
0.08984153613681546
0.05243841973990756
0.06542303674027079
0.1334450558030293
0.4002775869466523
0.04928555389600382
0.05694577360016218
0.0922723534243287
0.3351973557220053
0.06669740932178489
0.06581227814066917
0.06940487702618985
0.2415139955288264
0.08787255360175882
0.0789372410760068
0.04042034808917569
0.1758821207320092
0.5837282662235802
0.6640069087144266
0.689555910137149
0.6941953217526357
0.6153744549979608
0.6918459008335894
0.7212331224580187
0.7284879856175095
0.6375057609632255
0.6952210956501818
0.7316624723678508
0.7395225404269195
0.7421222862459107
0.7032276226594838
0.7420239712298919
0.7471280902210727
0.693534802805006
0.6930563522083296
0.692551215150614
0.6905352245069569
0.7285681934511112
0.7289551198022807
0.728699123280282
0.7264723311655018
0.7397468837796231
0.7399098655323346
0.7397115673502539
0.7370368462725178
0.7455975604152174
0.7461118809483263
0.7459325636065506
0.7423084592139424
0.6853955718447611
0.6699875347438934
0.6560587837663718
0.6369035740987287
0.7171273599174889
0.6974341117816779
0.6918696018909088
0.7039823364260248
0.7254529407119995
0.7029473939953976
0.6882599656897147
0.7040008228265809
0.728506701662373
0.7079137962245775
0.7058550858086519
0.7369585742048635
0.4065949022191037
0.3733252981545417
0.3733250454812576
0.3733250517923613
0.4258404730567769
0.3733255206960074
0.3733250483874422
0.373325060620115
0.4393194943917986
0.3733256535046584
0.3733250506885216
0.3733250587408989
0.4455295735788417
0.3733257762057138
0.3733250517579748
0.3733250496445066
0.3733252375324202
0.3733498304101817
0.3738535851395437
0.3763708026520799
0.3733254801436823
0.37337014188189
0.3740467595787783
0.3759429316011494
0.3733260064690341
0.3734080359433536
0.3745241385927406
0.377530437240594
0.3733235094596699
0.3732821687778431
0.3734475278670598
0.3757367972003289
0.3797652075711982
0.3826453108773376
0.3997856410033409
0.4605614546837311
0.3766345389575803
0.3717699714293306
0.3643713219814309
0.4224196507454785
0.3789935004273224
0.3723867255713215
0.3599991907493865
0.3903278812637275
0.3787525792975897
0.3734730738803384
0.3621805843616298
0.3506402127556019
0.5215975074726034
0.514199669019763
0.5134587826712445
0.5114500539799746
0.5302742326799396
0.5192719599883766
0.5185471305906366
0.5153974813047582
0.5280606910353489
0.5150164899361321
0.5143691503812415
0.5118033319471705
0.5265917027633953
0.5186207511907254
0.5178444887241913
0.5142913150737154
0.5033650278125842
0.4886516677462782
0.4551281650953587
0.3941994377699154
0.5081491599731069
0.5001966713833063
0.4851357274895836
0.4246171355272094
0.5062387862437857
0.500600747501292
0.4938164338418015
0.454682358060149
0.5069769426840528
0.5033912362491272
0.5095793357739961
0.5158328304729541
0.3689471495841155
0.3732893427044928
0.3733249076177514
0.3733250552889512
0.3663457992108434
0.3732484673276614
0.3733246797807947
0.3733250546895776
0.3635621752786516
0.3731824754661585
0.3733242849329079
0.3733250535860202
0.3578519267458155
0.3730707500928199
0.373323705297523
0.3733250521310023
0.3733250520267448
0.3733236553294938
0.3730722362803252
0.3575595402902801
0.3733250520171786
0.3733236544761921
0.3730723259258733
0.3578182179966944
0.3733250519460374
0.3733236470995333
0.3730715978016549
0.3582039796531046
0.3733250519008476
0.3733236573349961
0.3730768111393212
0.3591178425055007
0.3733250521305698
0.3733250535856048
0.3733250546871271
0.3733250552860574
0.3733237052977774
0.3733242849328849
0.3733246797803526
0.3733249076164833
0.3730707500937937
0.373182475464728
0.3732484673289357
0.3732893427036528
0.3578519267450435
0.3635621752772167
0.3663457992105937
0.3689471495846771
)
;

boundaryField
{
    back
    {
        type            empty;
    }
    inlet
    {
        type            calculated;
        value           nonuniform List<scalar> 
16
(
0.3733250556165154
0.3733250556165154
0.3733250556165154
0.3733250556165154
0.3733250556165154
0.3733250556165155
0.3733250556165152
0.3733250556165156
0.3733250556165164
0.3733250556165154
0.3733250556165154
0.3733250556165151
0.3733250556165154
0.3733250556165152
0.3733250556165154
0.3733250556165154
)
;
    }
    front
    {
        type            empty;
    }
    top
    {
        type            calculated;
        value           nonuniform List<scalar> 
40
(
0.3733250563895111
0.3733250567271246
0.373325056915416
0.3733250560997339
0.3733250599474335
0.3733250599208555
0.3733250585618702
0.3733250566246692
0.3733250557373701
0.3733250556193695
0.3733250556165154
0.3733250556165155
0.3733250556165154
0.3733250556161268
0.3733250558017446
0.3733250546312573
0.3733250539119415
0.373325058002993
0.3733250632168537
0.3733250660376746
0.3733250689878049
0.3733250735090573
0.3733250782348722
0.3733250903954791
0.3733250872884504
0.3733250947115
0.3733251073221062
0.3733250917425334
0.3733246192947471
0.3733250040223177
0.3733250289861594
0.3733250188130193
0.373325031398928
0.3733250365905262
0.3733250459810034
0.3733250446290715
0.3733250528052982
0.3733250553210256
0.3733250555660784
0.3733250555217718
)
;
    }
    outlet
    {
        type            calculated;
        value           uniform 0.3733250556165154;
    }
    bottom
    {
        type            calculated;
        value           nonuniform List<scalar> 
40
(
0.3733250555223611
0.3733250555662667
0.3733250553212924
0.3733250528048434
0.373325031400284
0.3733250365912424
0.3733250459797829
0.3733250446294581
0.3733250188128635
0.3733250289841813
0.37332500402014
0.373324619297074
0.3733250872879554
0.3733250947119152
0.3733251073233723
0.3733250917448527
0.3733250903951869
0.373325078235361
0.3733250735086736
0.3733250689873738
0.3733250539130126
0.3733250580017135
0.3733250632162598
0.373325066036935
0.3733250546310442
0.3733250558021996
0.3733250556161359
0.3733250556165154
0.3733250556165152
0.3733250556165154
0.3733250556195311
0.3733250557376897
0.3733250599458575
0.3733250599195939
0.3733250585615911
0.3733250566243332
0.3733250560989475
0.3733250569158678
0.373325056726688
0.3733250563898929
)
;
    }
    wall
    {
        type            calculated;
        value           nonuniform List<scalar> 
104
(
0.5158328304709026
0.509579335773846
0.5033912362494403
0.5069769426830898
0.514291315073075
0.5178444887243459
0.518620751190737
0.5265917027632538
0.3506402127548747
0.3621805843620912
0.3734730738803241
0.3787525792984682
0.3757367972027313
0.3734475278653609
0.3732821687783986
0.3733235094597854
0.373325049644038
0.3733250517579864
0.3733257762297658
0.4455295735794804
0.7369585742057377
0.705855085809001
0.7079137962247318
0.7285067016608612
0.7423084592155639
0.7459325636057675
0.7461118809473056
0.7455975604151991
0.7471280902201041
0.7420239712291169
0.7032276226591815
0.7421222862459051
0.1758821207321579
0.04042034808897744
0.07893724107616154
0.08787255360246443
0.08984153613692832
0.09716470686671165
0.09053145067653487
0.06072527924602115
0.07886273234787627
0.1411610220014188
0.2042422299966525
0.265447666012406
0.1351827138991735
0.04836326986302755
0.04054091426557506
0.07707245533874418
0.09189123847422216
0.08956949882528376
0.08899357518000696
0.1020488908230491
0.1020488908228811
0.08899357517985233
0.0895694988252093
0.0918912384742321
0.07707245533878543
0.04054091426558595
0.04836326986301789
0.1351827138991638
0.2654476660124556
0.2042422299971121
0.1411610220020466
0.07886273234801565
0.0607252792459681
0.09053145067658672
0.09716470686687323
0.08984153613681546
0.08787255360175882
0.0789372410760068
0.04042034808917569
0.1758821207320092
0.7421222862459107
0.7032276226594838
0.7420239712298919
0.7471280902210727
0.7455975604152174
0.7461118809483263
0.7459325636065506
0.7423084592139424
0.728506701662373
0.7079137962245775
0.7058550858086519
0.7369585742048635
0.4455295735788417
0.3733257762057138
0.3733250517579748
0.3733250496445066
0.3733235094596699
0.3732821687778431
0.3734475278670599
0.3757367972003289
0.3787525792975897
0.3734730738803384
0.3621805843616298
0.3506402127556019
0.5265917027633953
0.5186207511907254
0.5178444887241913
0.5142913150737154
0.5069769426840528
0.5033912362491272
0.5095793357739961
0.5158328304729541
)
;
    }
}


// ************************************************************************* //
