/*--------------------------------*- C++ -*----------------------------------*\
  =========                 |
  \\      /  F ield         | OpenFOAM: The Open Source CFD Toolbox
   \\    /   O peration     | Website:  https://openfoam.org
    \\  /    A nd           | Version:  11
     \\/     M anipulation  |
\*---------------------------------------------------------------------------*/
FoamFile
{
    format      ascii;
    class       volScalarField;
    location    "0.06";
    object      rho;
}
// * * * * * * * * * * * * * * * * * * * * * * * * * * * * * * * * * * * * * //

dimensions      [0 0 0 0 0 0 0];

internalField   nonuniform List<scalar> 
880
(
0.3733250556165154
0.3733250556165154
0.3733250556165154
0.373325061231002
0.3733250556165154
0.3733250556165154
0.3733250556165152
0.3733251552650602
0.3733250556165154
0.3733250556165153
0.3733250556165154
0.3733271549976933
0.3733250556165154
0.3733250556165154
0.3733250556166369
0.3733289444876079
0.3733250556165154
0.3733250556165155
0.3733250556165152
0.3733250556165155
0.3733250556165154
0.3733250556165154
0.3733250556165151
0.3733250556165154
0.3733250556104966
0.3733250553330752
0.3733300053544847
0.3733075203315148
0.3742783791111965
0.3779481399547088
0.3815781275012233
0.3834611529197449
0.3733250562164154
0.373325056466152
0.3733250566045545
0.3733250559873018
0.3733250858337834
0.3733251026751717
0.3733251127694038
0.373325080443063
0.3733639797150751
0.3733694115809296
0.3733762112065901
0.3733625353965401
0.3846019271023863
0.3859750759548758
0.3869465392184485
0.3873725348390111
0.3869814028368412
0.3837760940715199
0.3801270397185363
0.3765937828626623
0.3734257621104046
0.3734428733371052
0.3734252935549996
0.3733696921260974
0.3733252218610752
0.3733252431465796
0.3733252071663999
0.3733251221905724
0.3733250589627025
0.3733250588266303
0.3733250576895054
0.373325056266689
0.3733250556852278
0.373325055617735
0.3733250556165154
0.3733250556165155
0.3733250672236408
0.373325056172945
0.3733250556172505
0.3733250556154811
0.3733335595710838
0.3733255466980225
0.3733250604550959
0.3733250550938098
0.374169249381457
0.3734008457606625
0.3733264998234264
0.3733250444943966
0.3733250476790657
0.3733250553771841
0.3733250556165091
0.3733250556165154
0.3733250479061181
0.3733250549791223
0.3733250555880468
0.3733250556164321
0.3733255221804707
0.3733251855629838
0.3733250625483763
0.3733250557577024
0.373745545764216
0.3733018421801425
0.3733244128849413
0.3733250550363304
0.3733250546360197
0.3733249317329311
0.3733351082820986
0.3895844605666538
0.3733250577405895
0.3733251528372772
0.3734391834502571
0.4071034987912037
0.3733250613907876
0.3733253512416886
0.3735508282282529
0.4175608714286073
0.3733250634283962
0.3733254614807474
0.3736195707046208
0.4245810144759438
0.4279605420072174
0.3736683770249652
0.3733255614976791
0.3733250656390847
0.4321422080730985
0.3737439666978161
0.3733257246707618
0.3733250689710746
0.4352952516702318
0.3738076272821637
0.3733258708658612
0.3733250725656657
0.4401762002416857
0.3739464373310433
0.3733262630791134
0.3733250814704795
0.3733250788698375
0.3733261383599039
0.3739765213080987
0.445848892813505
0.3733250840447087
0.3733263838007062
0.3740808496100192
0.4490752432814871
0.373325093015669
0.3733267023428147
0.3741518324519976
0.4454582217680729
0.3733250813453212
0.3733261855843328
0.3737138100878669
0.4185667707996676
0.3733246157191434
0.3733251661284043
0.3739319066634927
0.3822646321282964
0.373325012719507
0.3733165236930157
0.3724980142644232
0.3334109495905662
0.3733250330766714
0.3733119986301919
0.3710063913794404
0.2955747033039141
0.3733250266038387
0.3733021230799304
0.3689144033188439
0.2650420772988268
0.2680665071005079
0.3702683407233004
0.3733135813213821
0.3733250365275524
0.2710520319706833
0.3706227566836593
0.3733153460365429
0.3733250406849658
0.2842727325772397
0.3715793048282263
0.3733198298267403
0.3733250479277038
0.2791509213900238
0.3712829269495041
0.3733188430121981
0.3733250468103018
0.3180819053805291
0.3726968929972446
0.3733235472784848
0.3733250534301655
0.3517557350014908
0.3732210621760462
0.3733248723384053
0.373325055400918
0.3667406690197858
0.3733047252983528
0.3733250225850058
0.3733250555805268
0.3699233348842603
0.3733080877156695
0.373325016881697
0.3733250555422287
0.3586100428631686
0.3731046091379477
0.3733239039478752
0.3733250528738496
0.358804025948832
0.3731045623626547
0.3733239033381203
0.3733250528657522
0.3591171859316632
0.373103676054158
0.3733238969503322
0.3733250528013451
0.3598933189543228
0.3731074226119015
0.3733239031502957
0.3733250527483287
0.3699233348841549
0.373308087715088
0.3733250168809434
0.3733250555427961
0.3667406690185661
0.3733047252975786
0.3733250225830348
0.3733250555807017
0.3517557350010049
0.3732210621761739
0.3733248723382401
0.3733250554011697
0.3180819053810428
0.3726968929986882
0.373323547278611
0.3733250534297298
0.37332503652889
0.3733135813233316
0.3702683407236641
0.268066507100551
0.3733250406856474
0.3733153460371592
0.370622756684358
0.2710520319709148
0.3733250479265252
0.3733198298278729
0.3715793048282418
0.2842727325782953
0.3733250468106721
0.3733188430123
0.3712829269517222
0.2791509213891428
0.2650420772968785
0.3689144033180888
0.3733021230793099
0.373325026603672
0.295574703302012
0.3710063913783047
0.3733119986282209
0.3733250330747612
0.3334109495900112
0.3724980142628725
0.3733165236930428
0.3733250127174214
0.3822646321286864
0.3739319066629175
0.3733251661279065
0.3733246157213795
0.3733250788693682
0.373326138361064
0.3739765213091383
0.4458488928149593
0.3733250840450987
0.3733263838009477
0.3740808496098883
0.4490752432811
0.373325093016884
0.3733267023428608
0.3741518324507931
0.4454582217678287
0.3733250813475497
0.3733261855842865
0.3737138100870673
0.4185667707994494
0.4401762002446071
0.373946437329606
0.3733262630809583
0.3733250814701986
0.435295251673098
0.3738076272833145
0.3733258708666478
0.3733250725661287
0.4321422080740555
0.3737439667012382
0.3733257246719569
0.3733250689707113
0.4279605420057275
0.3736683770243011
0.3733255614982136
0.3733250656386755
0.3733250546370231
0.3733249317342855
0.3733351082820434
0.3895844605645308
0.3733250577393716
0.373325152836058
0.3734391834505902
0.4071034987915577
0.3733250613902291
0.3733253512417211
0.3735508282299376
0.4175608714288271
0.3733250634276988
0.3733254614809315
0.3736195707013882
0.4245810144786384
0.3733250550361281
0.3733250557581245
0.3733250556164474
0.3733250556165154
0.3733244128830703
0.3733250625480336
0.3733250555892959
0.3733250556162318
0.3733018421804686
0.3733251855639078
0.3733250549783133
0.3733250553767538
0.373745545764228
0.3733255221806294
0.3733250479061506
0.3733250476790429
0.3733250556165152
0.3733250556154696
0.3733250550940485
0.3733250444947632
0.3733250556165154
0.3733250556170139
0.3733250604572606
0.3733264998235028
0.3733250556178511
0.373325056172903
0.3733255466971762
0.3734008457609123
0.3733250556855169
0.3733250672231095
0.3733335595720589
0.3741692493810831
0.3733250589611992
0.3733252218595219
0.3734257621094845
0.3869814028362502
0.3733250588254249
0.3733252431471448
0.3734428733372787
0.3837760940701862
0.3733250576892408
0.3733252071684485
0.3734252935547318
0.380127039718282
0.3733250562663739
0.3733251221916114
0.3733696921261844
0.3765937828618856
0.3873725348394129
0.3733625353983709
0.3733250804419238
0.3733250559865614
0.3869465392179502
0.3733762112094759
0.3733251127689731
0.3733250566049838
0.3859750759567331
0.3733694115811413
0.3733251026756774
0.37332505646574
0.3846019271021546
0.3733639797100958
0.373325085833259
0.3733250562167712
0.3834611529204158
0.3733075203352391
0.3733250556165154
0.3733250556165164
0.3815781275005813
0.373330005350698
0.3733250556165154
0.3733250556165154
0.3779481399552228
0.3733250553328482
0.3733250556165154
0.3733250556165153
0.3742783791102076
0.3733250556101473
0.3733250556165154
0.3733250556165151
0.3733250556165154
0.3733250556165154
0.3733250556165154
0.373325061271642
0.3733250556165152
0.3733250556165155
0.3733250556165153
0.3733251552571292
0.3733250556165154
0.3733250556165154
0.3733250556165154
0.3733271549989259
0.3733250556165154
0.3733250556165154
0.3733250556166261
0.373328944487629
0.3733249313189756
0.3733248441338807
0.3733271221867578
0.3735751100122963
0.3733248441863907
0.3733234504142959
0.3733218881735165
0.3743502381613145
0.3733271221619503
0.3733218881418919
0.373688003832748
0.3832193604066342
0.3735751100221479
0.3743502381501077
0.3832193604192484
0.4312582613692481
0.5152059577840419
0.4538233740274237
0.4237887307669435
0.393561158428216
0.5094527559392668
0.493410682302717
0.4843543456042516
0.4539043900480523
0.503475013118044
0.5006955909474859
0.5003836742776359
0.4887127973793973
0.5075526686273422
0.5071180765148376
0.5092416332030093
0.5044670660802598
0.5125096662507395
0.5143276934660975
0.5149816055075185
0.5226366172519294
0.5169992318695932
0.5197569043613719
0.5203000695644906
0.5316518239520226
0.5127322987455719
0.514841516477572
0.5153039516519307
0.5292954165559636
0.5147537185924105
0.5175484095986891
0.5180877193486565
0.5260570372288933
0.4621994050376957
0.4017432527070304
0.3836813399412055
0.3796512415956353
0.4241535023231629
0.3649334114239288
0.3720088079245995
0.3764370678364377
0.3886122840130276
0.3592255464303987
0.3724327956635078
0.3787990464368658
0.3512205906714825
0.3625059537321453
0.3739138473813878
0.3782973404172052
0.3758923178753243
0.3736772148013176
0.3733368980688974
0.3733250842469679
0.3755941370664596
0.3738246845477313
0.3733465978937187
0.3733251624649776
0.3770718602127196
0.3741884760470617
0.3733668952677738
0.3733253477950309
0.3750869253169379
0.373313194934204
0.3732940591766805
0.3733244014978109
0.3733250510447222
0.3733250455962482
0.3733253081808333
0.4049998502568073
0.3733250590303857
0.3733250491408983
0.373325670589964
0.423772203814836
0.3733250563599238
0.3733250516411397
0.3733256542467988
0.4364259208648635
0.3733250502996236
0.3733250529199444
0.3733257190415962
0.4429270149678136
0.6341443025306412
0.6557762699812144
0.6730479384970766
0.6877142241527548
0.702140445564
0.6906136891133604
0.6979723694675618
0.7179343434785885
0.7036353566469663
0.6873527944005815
0.7020664004512949
0.7249482299390578
0.7368508449866007
0.7054226433142303
0.7093419957093546
0.7310123617102513
0.691666872284626
0.6930944066876051
0.6934011608549567
0.693761109430014
0.7257069108838056
0.7271969846554608
0.7272869889164616
0.7267692839131598
0.7353552358869332
0.737488015834146
0.7377642206937387
0.7375601966572173
0.7438345813553108
0.7465557038995055
0.746673828381596
0.7461425737769874
0.69442864183872
0.6908103028075714
0.666128720581974
0.5870271179479829
0.7274729734159684
0.7214358611596317
0.6935840982188797
0.6169282562751386
0.7379420354025541
0.7307301763920537
0.6945344184752784
0.6363578949026968
0.7473557114235274
0.7416176231062006
0.7034114747762398
0.740884281101121
0.3998198715402089
0.1351738986790559
0.06649679552383911
0.05306179877995387
0.3376346188199727
0.0943735328010951
0.05710552146723672
0.048738084808831
0.242113607418075
0.07143142339010909
0.06641618821656965
0.06572028251443419
0.1752051516545931
0.03966636390806045
0.07824567463308597
0.0869222718240004
0.05653850873140502
0.05751848786371904
0.06179535111340491
0.05546518381855397
0.04670855996573989
0.04960944228995433
0.05678708216784335
0.04760443451817507
0.06468923602636845
0.06997681139527966
0.07408476122593155
0.0565092810369678
0.08847331995923477
0.095933510272575
0.09109184832131163
0.06076089231645016
0.1615103034453877
0.2526308256281721
0.295774732408184
0.3191143788603257
0.1184383544759332
0.2114867441328291
0.2569512798092285
0.3033912989894732
0.1050908197295782
0.1904939055731809
0.2371136379662041
0.2932063188877151
0.07719472768896189
0.1405082572179417
0.2056561625493802
0.2691159398565116
0.2633892971151849
0.1963128042941662
0.1961503125729183
0.2027319134278699
0.2211230873834414
0.1268466591091203
0.08270255341473538
0.1321836204763707
0.1805988329819476
0.09141794852101881
0.05829662210368458
0.06467545588746051
0.1365125304439753
0.04621817126048661
0.04628582037582741
0.08091403287915096
0.09087817285849951
0.08786480598671925
0.08540834146473082
0.08981211403510743
0.09582973814907009
0.1177869902841135
0.1253509327431609
0.1485846010196956
0.1663374540736751
0.1669321652250852
0.1473145683809142
0.1233395969754425
0.189326589449784
0.1684308943675868
0.1389218452482051
0.1117515319066133
0.08981211403496568
0.1485846010196274
0.1233395969754574
0.1117515319066079
0.08540834146459751
0.1253509327429445
0.1473145683809325
0.1389218452482657
0.08786480598665979
0.1177869902839495
0.1669321652248021
0.168430894367178
0.09087817285852458
0.09582973814911487
0.1663374540734717
0.1893265894491458
0.2027319134271632
0.1961503125721842
0.1963128042937849
0.2633892971142027
0.1321836204762405
0.08270255341485369
0.1268466591089346
0.2211230873829679
0.0646754558875318
0.05829662210368331
0.09141794852085318
0.1805988329817068
0.08091403287918458
0.04628582037582786
0.04621817126047523
0.1365125304439321
0.2691159398565151
0.2056561625497929
0.1405082572185452
0.07719472768914072
0.293206318887438
0.2371136379661656
0.1904939055735299
0.1050908197296837
0.3033912989893417
0.2569512798086726
0.2114867441330484
0.1184383544759215
0.3191143788601885
0.2957747324074955
0.2526308256282641
0.1615103034452585
0.05546518381796408
0.06179535111405896
0.05751848786383534
0.05653850873122973
0.04760443451801396
0.05678708216802869
0.04960944229013665
0.04670855996583694
0.05650928103687764
0.07408476122608058
0.06997681139545076
0.06468923602641845
0.06076089231640604
0.09109184832134992
0.09593351027274014
0.08847331995914214
0.05306179877908267
0.06649679552288795
0.1351738986786874
0.3998198715400594
0.04873808480888885
0.05710552146680444
0.09437353280078531
0.33763461881849
0.06572028251425711
0.06641618821610919
0.07143142339017534
0.2421136074173633
0.08692227182336068
0.07824567463299346
0.03966636390826385
0.1752051516544203
0.5870271179469717
0.6661287205817517
0.6908103028071242
0.6944286418394764
0.6169282562743078
0.6935840982185988
0.7214358611602325
0.727472973417707
0.6363578949021405
0.6945344184755869
0.73073017639279
0.737942035403245
0.7408842811011043
0.7034114747765944
0.7416176231070368
0.7473557114243976
0.6937611094312485
0.6934011608582588
0.6930944066889054
0.6916668722805147
0.7267692839141084
0.7272869889181367
0.727196984656708
0.7257069108822407
0.7375601966574704
0.7377642206944972
0.7374880158349021
0.735355235886222
0.7461425737770477
0.7466738283824393
0.7465557039002618
0.7438345813541088
0.6877142241556242
0.6730479384969736
0.6557762699819752
0.6341443025297783
0.7179343434801992
0.6979723694676828
0.6906136891135999
0.7021404455635408
0.7249482299400318
0.7020664004515669
0.6873527944003081
0.703635356646312
0.7310123617113735
0.7093419957093827
0.7054226433138272
0.7368508449858231
0.4049998502567899
0.3733253081803331
0.3733250455957902
0.3733250510447536
0.4237722038145455
0.373325670589285
0.3733250491404888
0.3733250590305852
0.4364259208644468
0.3733256542461471
0.3733250516409728
0.3733250563601621
0.4429270149673386
0.3733257190408452
0.3733250529199282
0.3733250502999633
0.373325084247055
0.3733368980688511
0.373677214802273
0.3758923178745413
0.3733251624649465
0.3733465978932819
0.3738246845491773
0.3755941370647173
0.3733253477948801
0.3733668952671391
0.3741884760488208
0.3770718602111047
0.3733244014977816
0.3732940591760155
0.3733131949360802
0.3750869253145803
0.3796512415951384
0.3836813399409202
0.4017432527061076
0.4621994050375841
0.376437067835831
0.3720088079244752
0.3649334114231868
0.4241535023237575
0.3787990464360494
0.3724327956635493
0.3592255464297946
0.3886122840139257
0.3782973404162888
0.3739138473814781
0.3625059537317375
0.3512205906721593
0.5226366172519286
0.514981605506571
0.5143276934648094
0.5125096662519675
0.5316518239516721
0.5203000695639211
0.5197569043605482
0.5169992318703933
0.5292954165558491
0.5153039516520381
0.5148415164771465
0.5127322987452892
0.5260570372290219
0.5180877193487197
0.5175484095986298
0.5147537185927538
0.5044670660808744
0.4887127973783054
0.4539043900494223
0.3935611584279621
0.5092416332038958
0.5003836742765313
0.4843543456051068
0.4237887307714705
0.5071180765165889
0.5006955909468724
0.4934106823037138
0.4538233740284243
0.5075526686284803
0.5034750131176314
0.5094527559393762
0.515205957785563
0.3693824717837307
0.373294281786434
0.3733249331851078
0.3733250553608264
0.3669258609760924
0.3732573675691551
0.3733247390879551
0.3733250548875213
0.3641153206004043
0.3731973865977987
0.3733244038051875
0.3733250540056885
0.3584864744823396
0.3730982178964092
0.3733239267537114
0.3733250528814632
0.3733250528746149
0.373323903947591
0.3731046091374131
0.3586100428616454
0.3733250528662982
0.3733239033390504
0.3731045623613996
0.3588040259484563
0.3733250528006259
0.3733238969511091
0.3731036760538501
0.3591171859312689
0.3733250527460089
0.3733239031514143
0.3731074226087548
0.3598933189536698
0.3733250528810798
0.3733250540052949
0.3733250548851771
0.3733250553580535
0.3733239267539368
0.3733244038051728
0.3733247390875287
0.3733249331838747
0.3730982178973941
0.3731973865964056
0.3732573675704016
0.373294281785601
0.358486474481539
0.3641153205990227
0.3669258609758583
0.3693824717842464
)
;

boundaryField
{
    back
    {
        type            empty;
    }
    inlet
    {
        type            calculated;
        value           nonuniform List<scalar> 
16
(
0.3733250556165154
0.3733250556165154
0.3733250556165154
0.3733250556165154
0.3733250556165154
0.3733250556165155
0.3733250556165152
0.3733250556165155
0.3733250556165164
0.3733250556165154
0.3733250556165154
0.3733250556165151
0.3733250556165154
0.3733250556165152
0.3733250556165154
0.3733250556165154
)
;
    }
    front
    {
        type            empty;
    }
    top
    {
        type            calculated;
        value           nonuniform List<scalar> 
40
(
0.3733250562164154
0.373325056466152
0.3733250566045545
0.3733250559873018
0.3733250589627025
0.3733250588266303
0.3733250576895054
0.373325056266689
0.3733250556852278
0.373325055617735
0.3733250556165154
0.3733250556165155
0.3733250556165154
0.3733250556164321
0.3733250557577024
0.3733250550363304
0.3733250546360197
0.3733250577405895
0.3733250613907876
0.3733250634283962
0.3733250656390847
0.3733250689710746
0.3733250725656657
0.3733250814704795
0.3733250788698375
0.3733250840447087
0.373325093015669
0.3733250813453212
0.3733246157191434
0.373325012719507
0.3733250330766715
0.3733250266038387
0.3733250365275524
0.3733250406849658
0.3733250479277038
0.3733250468103018
0.3733250534301655
0.373325055400918
0.3733250555805268
0.3733250555422287
)
;
    }
    outlet
    {
        type            calculated;
        value           uniform 0.3733250556165154;
    }
    bottom
    {
        type            calculated;
        value           nonuniform List<scalar> 
40
(
0.3733250555427961
0.3733250555807017
0.3733250554011697
0.3733250534297298
0.37332503652889
0.3733250406856474
0.3733250479265252
0.3733250468106721
0.373325026603672
0.3733250330747613
0.3733250127174214
0.3733246157213795
0.3733250788693682
0.3733250840450987
0.373325093016884
0.3733250813475497
0.3733250814701986
0.3733250725661287
0.3733250689707113
0.3733250656386755
0.3733250546370231
0.3733250577393716
0.3733250613902291
0.3733250634276988
0.3733250550361281
0.3733250557581245
0.3733250556164474
0.3733250556165154
0.3733250556165152
0.3733250556165154
0.3733250556178511
0.3733250556855169
0.3733250589611992
0.3733250588254249
0.3733250576892408
0.3733250562663739
0.3733250559865614
0.3733250566049838
0.37332505646574
0.3733250562167711
)
;
    }
    wall
    {
        type            calculated;
        value           nonuniform List<scalar> 
104
(
0.5152059577840419
0.5094527559392668
0.503475013118044
0.5075526686273422
0.5147537185924105
0.5175484095986891
0.5180877193486565
0.5260570372288933
0.3512205906714825
0.3625059537321454
0.3739138473813878
0.3782973404172052
0.3750869253169379
0.3733131949342041
0.3732940591766806
0.3733244014978109
0.3733250502996236
0.3733250529199444
0.3733257190415962
0.4429270149678136
0.7368508449866007
0.7054226433142303
0.7093419957093546
0.7310123617102513
0.7438345813553108
0.7465557038995055
0.746673828381596
0.7461425737769874
0.7473557114235274
0.7416176231062006
0.7034114747762398
0.740884281101121
0.1752051516545931
0.03966636390806045
0.07824567463308597
0.0869222718240004
0.08847331995923477
0.09593351027257502
0.09109184832131163
0.06076089231645016
0.07719472768896189
0.1405082572179417
0.2056561625493802
0.2691159398565116
0.1365125304439753
0.04621817126048661
0.04628582037582741
0.08091403287915096
0.09087817285849951
0.08786480598671925
0.08540834146473082
0.08981211403510744
0.08981211403496567
0.08540834146459751
0.08786480598665979
0.09087817285852458
0.08091403287918458
0.04628582037582786
0.04621817126047523
0.1365125304439321
0.2691159398565151
0.2056561625497929
0.1405082572185452
0.07719472768914072
0.06076089231640604
0.09109184832134992
0.09593351027274014
0.08847331995914212
0.08692227182336068
0.07824567463299346
0.03966636390826385
0.1752051516544203
0.7408842811011043
0.7034114747765944
0.7416176231070368
0.7473557114243976
0.7461425737770477
0.7466738283824393
0.7465557039002618
0.7438345813541088
0.7310123617113735
0.7093419957093827
0.7054226433138272
0.7368508449858231
0.4429270149673386
0.3733257190408452
0.3733250529199282
0.3733250502999633
0.3733244014977816
0.3732940591760155
0.3733131949360802
0.3750869253145803
0.3782973404162889
0.3739138473814781
0.3625059537317375
0.3512205906721593
0.5260570372290219
0.5180877193487197
0.5175484095986298
0.5147537185927538
0.5075526686284803
0.5034750131176314
0.5094527559393762
0.515205957785563
)
;
    }
}


// ************************************************************************* //
