/*--------------------------------*- C++ -*----------------------------------*\
  =========                 |
  \\      /  F ield         | OpenFOAM: The Open Source CFD Toolbox
   \\    /   O peration     | Website:  https://openfoam.org
    \\  /    A nd           | Version:  11
     \\/     M anipulation  |
\*---------------------------------------------------------------------------*/
FoamFile
{
    format      ascii;
    class       surfaceScalarField;
    location    "0.083";
    object      phi;
}
// * * * * * * * * * * * * * * * * * * * * * * * * * * * * * * * * * * * * * //

dimensions      [0 3 -1 0 0 0 0];

internalField   nonuniform List<scalar> 
1652
(
2.843686947071611
0.8895636090847481
0
1.954123337988149
0.8895636090834618
0
1.06455972890329
0.8895636090848313
1.998401444325282e-15
0.8895608453506607
-1.582012298939617e-10
0.1749962609970539
2.843686947076741
1.779127218162428
1.954123337998014
1.779127218162188
1.064559728910187
1.779127218170028
1.779106027935827
0.1749986702717971
2.843686947090741
2.668690827246526
1.954123338008367
2.668690827244562
1.064559728920606
2.668690827199338
2.668573967021816
0.175004800205042
2.843686947092868
3.558254436328659
1.954123338013008
3.558254436324421
1.064559729144461
3.558254435281771
3.55790380063589
0.1750198665364834
4.418652025448567
2.872852967045247
5.279049614570543
2.872852967043177
6.139447203694069
2.872852967042502
2.87285296704005
6.999844792715205
4.418652025437511
2.012455377932159
5.279049614550977
2.012455377929712
6.139447203664236
2.012455377929244
2.012455377926207
6.9998447927781
4.41865201185548
1.152057808064445
5.279050032458239
1.152057640448017
6.137922545015854
1.152139108608313
1.151917454537116
7.001211062871971
4.43586738348268
0.2557726435748954
5.395385549490368
0.1275181211734038
6.391904061041668
0.05807781598404171
7.396464377635113
0.03451600470037619
6.941512747931112
0.0583317578899637
6.883180574783942
0.05833135704199699
6.824848637308007
0.05833101688835418
0.0583315741260626
6.766516602436336
6.941520024914373
0.1166520249004708
6.883193731042576
0.1166444284595667
6.824862203795185
0.116636335660415
0.1166427675906492
6.766534984289963
6.945702903688258
0.1705290900652234
6.888993163952112
0.1691125176556903
6.831022031467131
0.1675641292166345
0.1669818159232094
6.773869593012819
7.441821712764951
0.01891747209506744
7.471117250566475
0.01051322120162135
7.454494383657426
0.008501569110577534
7.411642434905129
-0.009542497075453182
7.413431045528342
0.0144744187619224
-0.1876482595523233
7.314470175015929
0.02641475397446302
-0.06134814014330575
7.179169106956006
0.03131809579365558
-0.008365756462538176
0.02143055539255007
7.043448952210176
-0.003327660475181349
6.778618229061316
6.601721893495505e-05
6.785594464026627
0.0001638664781826726
6.787833961957072
0.0002652303292529634
0.0002102530459296981
6.781403751596605
6.766554078558253
2.259734138254643e-06
6.766585081249956
4.710993814827091e-06
6.766596138295362
6.797815538917007e-06
5.462382523413467e-06
6.76657536943001
6.76651650448328
6.766516353391121
6.766516341331962
6.766516345778993
6.766516507841017
-2.255395801675775e-06
6.766516616259411
-4.119554627424193e-07
6.766516632641785
-2.688389311167327e-08
-4.238924766752916e-10
6.76651663304319
6.766534327912026
-8.168185054946431e-05
6.766518413128998
-1.533399804509727e-05
6.766516675327125
-1.223652347670523e-06
-2.924201047971309e-08
6.766516632771907
6.771844569903338
-0.009606837414016356
6.767358618058898
-0.002257155793132848
6.766554227804927
-0.0002954160959776075
-1.24497778375976e-05
6.766516910703944
6.911806014797966
-0.001668385657854266
6.811639860526954
-0.002493188376416211
6.771887642517552
-0.001446739237714711
6.766665966597833
-0.0002780139938702852
1.274325196476411e-07
6.766520014641031
-1.477656267567795e-05
1.590949594287849e-11
6.766516650090626
-6.650824335707739e-11
6.766516631971546
6.766516633044199
2.689293929769576e-07
6.766504475824936
2.725552261662045e-08
-2.611457716739096e-10
6.766516627110549
-2.213517147353627e-10
6.766516631942666
6.766516632981127
-1.398930335511084e-05
6.766617779439284
-6.499032654594394e-06
3.165836814922329e-09
6.76651354358293
3.486065158764262e-08
6.766516719911897
6.766516644363141
0.0005578770062718563
6.806048863549673
-0.08813425982379408
-8.103783948665289e-06
6.766539484072198
-2.787416175209501e-06
6.766501776906717
6.766515843294819
0.1555542371463398
6.610963815809933
0.3111022967378871
6.610955953869707
0.4629534353517373
6.612252574692323
6.828512129229357
0.1667951538291057
0.1555517449115966
6.455412395699774
0.3110705121613358
6.455421881046062
0.4544164959746929
6.459275510239083
6.707854323384544
0.1327659163129374
0.1555481787085986
6.299860858594777
0.3110092561355072
6.299898286633957
0.4443494007281355
6.309266240840558
6.629390680582022
0.08168824285864906
0.1555445147439289
6.14430896830838
0.3109291777040191
6.14435198213292
0.4331581128474206
6.156540769478736
6.56883264898666
0.03782441475491949
-0.4238031819128625
6.458548161313701
0.007618194762031294
-0.310874282555666
6.005092591128601
-0.1555423880972765
5.988826883600791
5.988757130041395
-0.4152740463153231
6.24859492675149
0.004870560991345751
-0.310784224904026
5.848076748697675
-0.1555380247697329
5.833262870055028
5.833205183168968
-0.4075918358266195
6.017422052129532
-0.001077353249276158
-0.3107247662952678
5.695205314246727
-0.1555360015638627
5.677748805444549
5.677653713676682
-0.3965484747181712
5.74980323760502
0.004192136601528507
-0.3105518145817049
5.539645638372979
-0.1555250790052667
5.522190794936049
5.522102477427642
0.1992742558025953
5.322801701226342
0.398005733587514
5.322894049170668
0.509914853264116
5.340291752524143
5.4634242403312
0.02089118415435487
0.199263398895921
5.123502060094012
0.3977687066341257
5.123617621996741
0.4920899620600286
5.141140318244487
5.160916362507293
0.05176298760671139
0.1992502742167104
4.92419718569133
0.3975669123643302
4.924296334115632
0.4945325656589997
4.937797124092406
4.918552031208409
0.1619412040543537
0.1993001430374626
4.724896197620215
0.3979817797146437
4.725287874118252
0.5335706940370608
4.743564360621048
4.704217976712563
0.3814446363275449
-0.3355345253975017
5.060306408240232
-0.6740783711151134
5.061283734305346
-1.095900470418683
5.093462591385563
4.905445464765087
-1.443850877435473
-0.3354732750603526
5.395714199632272
-0.674351465124774
5.396274725989352
-0.9978399447404024
5.399853767725092
4.572288884815197
-0.4874846414625327
-0.335399000707198
5.731124031471623
-0.6696032536767333
5.730707997375998
-0.9245617039666604
5.673747441689343
4.031838346251478
-0.06206247910630049
-0.3353913582539551
6.066529781135083
-0.6672621460886539
6.065296722427481
-0.8291131847242527
5.913646518240911
3.537397585181112
-0.006737846621165111
0.3975482713094224
3.387921829841667
0.005646408083432475
0.3471791204376912
6.070221805953297
0.1749833696040505
6.240197370785967
6.241525588386792
0.396485119279874
3.332909956881044
0.00380670559883909
0.3474099690644194
6.248958865963471
0.1749854109495306
6.415729110304718
6.416523499736174
0.413397569933117
3.449085085595499
0.0005052559968867845
0.3484047414172681
6.445137316817229
0.1749909715457663
6.590878463881097
6.591519653747361
0.4072081852963341
3.641883446745431
0.0122698260859892
0.3483408097541306
6.646736295385692
0.1749907539894385
6.766056701880193
6.766515950145731
-0.06861376738007685
4.721108595395751
0.1690274048727856
-0.0009888238933659643
6.731955665287761
-3.931489736208604e-06
6.766432958792492
6.766516512311309
-0.02963656364427047
5.63605685038274
0.1610348608485793
-0.0002509714885712278
6.758650168085317
-7.872892016091981e-07
6.766504761934108
6.76651662116375
-0.01251401573055211
6.324646848947987
0.1647377514126353
-7.470445377344426e-05
6.766390977792621
-2.020743186115226e-07
6.766520977348636
6.766516637539326
-0.007022996433508122
0.1374948399894343
6.681985646984204
-4.223516057733079e-05
6.765360405460633
-1.380091116942594e-07
6.766507008085615
6.766516633100864
1.072086407940641
-0.8157568453255948
-0.05126202856163546
9.058975791731427e-12
1.982472297935764
-0.8724517153979323
-8.272493801086966e-12
2.858263656200406
-0.8749532045899033
1.717559428016102e-11
-0.8749804770590819
-1.176303499050846e-11
1.073393588509443
-1.645750478786515
-0.03834986319599777
1.982484476176537
-1.744871751599663
2.858263684357398
-1.749905878058237
-1.749960952084846
1.074634019863155
-2.491918326205191
-0.03041850438020864
1.982490868540657
-2.617589262911314
2.858263690411458
-2.624860151531901
-2.624941431068468
1.076561807685345
-0.04485710447166874
-3.367536268617525
1.982518884347874
-3.492223541799963
2.858263850009885
-3.499837976989754
-3.49992202779917
-0.007022996434744022
-6.324646848953878
0.1374948399882393
6.681985646981358
-4.223516399859406e-05
-6.76639097779956
6.765360405466835
-1.380218173085979e-07
-6.766520977359077
6.766507008091674
-6.766516637556862
6.766516633127261
-0.01251401573078126
-5.636056850396017
0.1647377514134939
-7.470445785751068e-05
-6.758650168089454
-2.020744069852753e-07
-6.766504761949117
-6.766516621165785
-0.02963656365391021
-4.721108595399577
0.1610348608500193
-0.0002509714976655086
-6.731955665298209
-7.87288501946648e-07
-6.766432958798736
-6.766516512310931
-0.06861376737836167
-3.641883446739737
0.1690274048702121
-0.0009888238900848112
-6.646736295387393
-3.931488349762091e-06
-6.766056701873085
-6.766515950144689
-0.1749833696005987
6.241525588452809
-6.066529781134569
-0.3471791204088088
6.240197370549491
-6.065296722477911
-0.3975482713024336
6.070221805902192
-5.913646518211436
3.387921829802132
-3.537397585138264
0.005646408083112057
-0.1749854109286975
6.416523499760902
-0.3474099690442158
6.415729110330315
-0.3964851192714781
6.248958865920422
3.33290995684556
0.003806705599163004
-0.1749909715332403
6.591519653759741
-0.348404741396147
6.590878463888451
-0.4133975699235543
6.445137316797257
3.449085085579049
0.000505255997740657
-0.1749907539789911
-0.3483408097279236
-0.4072081852853606
0.01226982608506733
0.8291131847326134
-4.031838346216841
-0.006737846621982471
0.6672621461266213
-5.67374744166014
0.3353913582745134
-5.730707997410583
-5.731124031462101
0.924561703973336
-4.572288884791653
-0.06206247910548795
0.6696032536971812
-5.399853767705698
0.3353990007234452
-5.396274726021684
-5.395714199615653
0.99783994475166
-4.905445464756219
-0.4874846414609173
0.6743514651454187
-5.09346259137829
0.3354732750618153
-5.061283734323869
-5.060306408239465
1.095900470431842
-4.704217976710495
-1.443850877440103
0.6740783711319522
-4.743564360622842
0.335534525406812
-4.725287874123016
-4.724896197624956
0.1992742558062497
5.322801701243368
-5.52210247744974
0.3980057336000795
5.322894049173483
-5.522190794965785
0.5099148532742278
5.340291752496385
-5.53964563836066
5.463424240308668
-5.749803237581609
0.02089118415584146
0.199263398900634
5.123502060108803
0.3977687066459915
5.123617622011098
0.4920899620675891
5.141140318227648
5.160916362490648
0.05176298760535714
0.199250274223425
4.924197185701793
0.3975669123793322
4.924296334124967
0.4945325656651006
4.937797124085187
4.91855203120022
0.1619412040516627
0.1993001430417861
0.39798177972953
0.5335706940428684
0.3814446363293447
-0.3965484747075186
-6.017422052123648
0.004192136608813346
-0.3105518145674593
-5.695205314190416
-0.1555250789985188
-5.67774880547195
-5.677653713696428
-0.4075918358121
-6.248594926741078
-0.001077353247793345
-0.3107247662826776
-5.848076748647817
-0.1555360015579139
-5.833262870044803
-5.833205183182926
-0.4152740463198109
-6.458548161250437
0.004870560983543326
-0.3107842248856229
-6.005092591194436
-0.1555380247614591
-5.988826883584625
-5.988757130045531
-0.4238031819083259
-6.568832648998542
0.007618194757993524
-0.3108742825451098
-6.156540769482212
-0.1555423880914887
-6.144351982190749
-6.144308968308176
0.1555542371471554
6.610963815817554
-6.766515843302604
0.311102296739049
6.610955953871435
-6.766501776896558
0.4629534353546425
6.612252574669889
-6.766539484070458
6.828512129242667
-6.806048863549685
0.1667951538236135
0.1555517449113579
6.455412395691154
0.3110705121614278
6.455421881053332
0.4544164959689615
6.459275510265432
6.707854323366963
0.1327659163212885
0.1555481787085188
6.299860858594146
0.3110092561355122
6.299898286609967
0.4443494007361059
6.309266240824547
6.629390680603626
0.08168824284347453
0.1555445147422899
0.3109291777009274
0.433158112833699
0.03782441478073262
-6.766516644365366
2.787418154515109e-06
-6.766516632981669
-3.485899924271507e-08
-6.766516633043992
2.180431390996773e-10
6.782252537362865e-11
-6.76651663304248
-6.766516719908779
8.103778059376232e-06
-6.766516631949973
-3.165497086676794e-09
-6.766516631977415
2.613161909081896e-10
-1.591515808030408e-11
-6.76651663276796
-6.766513543593143
-0.0005578770068614958
-6.766516627108143
1.398930613644156e-05
-6.766516650088783
-2.689309533954187e-07
-1.27433272822941e-07
-6.766516910702031
-6.766617779445101
-0.08813425982261575
-6.766504475825688
-6.4990501882356e-06
-6.76652001463949
2.725590653174237e-08
-6.766665966594101
-1.47765614771922e-05
-4.241624829148805e-10
-6.766516632630084
-2.924231878864703e-08
-6.766516675327695
-1.244977968656302e-05
-6.766554227804202
-6.771887642516628
-0.0002780139932252457
-2.688372668924188e-08
-6.76651661626167
-1.223652473680836e-06
-6.766518413127367
-0.0002954160951368356
-6.767358618060594
-6.811639860532107
-0.001446739240773431
-4.119556317183637e-07
-6.766516507841723
-1.533399765318855e-05
-6.766534327911051
-0.002257155791408061
-6.771844569897137
-6.911806014800669
-0.00249318837459922
-2.255396688077838e-06
-6.766516345778211
-8.168185344847867e-05
-6.766575369437942
-0.009606837413154934
-6.781403751593793
-7.043448952212151
-0.00166838565671007
-2.259741100796298e-06
6.76651650447103
-6.76651660242011
-6.601723044485919e-05
6.766554078536763
-6.766534984264143
-0.01447441877415884
6.778618229093802
-6.773869593034394
7.413431045536495
-7.411642434925902
-0.1876482595529156
-4.710997272505679e-06
6.766516353381496
-0.0001638664849872296
6.766585081246914
-0.02641475397481208
6.785594464054623
7.314470175020602
-0.06134814014493656
-6.79781930257306e-06
6.766516341327471
-0.0002652303369981013
6.766596138300713
-0.03131809579770051
6.787833961967416
7.179169106959876
-0.008365756462512808
-5.462388903088033e-06
-0.0002102530579557449
-0.021430555395614
-0.003327660477894401
-0.1669818159251513
-7.454494383668888
-0.009542497075009759
-0.1166427676082964
-6.831022031437619
-0.05833157412803303
-6.824862203791785
-6.824848637295934
-0.167564129225258
-7.471117250589766
0.00850156910792299
-0.1166363356800849
-6.888993163845977
-0.05833101689407538
-6.883193731063979
-6.883180574759451
-0.1691125176778318
-7.441821712774728
0.01051322120519305
-0.1166444284768527
-6.945702903603011
-0.05833135704361547
-6.941520024944114
-6.941512747927327
-0.1705290900913645
-7.396464377622633
0.01891747209800049
-0.1166520249245278
-7.001211063014884
-0.05833175789648082
-6.999844792821272
-6.999844792712077
-1.151917454518385
-6.391904061022071
0.03451600469806426
-2.01245537791096
-6.137922545011921
-2.872852967039962
-6.139447203692224
-6.139447203691201
-1.152139108601315
-5.395385549485144
0.0580778159818901
-2.01245537791648
-5.279050032450909
-2.872852967042259
-5.279049614566445
-5.279049614567439
-1.152057640447897
-4.435867383505107
0.1275181211731383
-2.012455377921992
-4.418652011854114
-2.872852967044603
-4.418652025443835
-4.418652025446893
-1.152057808061951
-3.557903800723059
0.2557726435749388
-2.012455377927508
-3.558254435280947
-2.872852967046921
-3.558254436324423
-3.558254436328661
2.843686947076677
0.8895636090796828
1.954123337995112
0.8895636090815642
1.064559728908978
0.8895636090860712
0.8895608451674555
0.1749962610511584
2.843686947077599
1.7791272181565
1.954123337999196
1.779127218159969
1.064559728911161
1.779127218171456
1.77910602792795
0.1749986702593497
2.843686947089469
2.668690827241873
1.95412333800662
2.668690827242819
1.06455972891903
2.668690827202667
2.668573967006731
0.1750048002912631
2.843686947088214
1.954123338006611
1.064559729138686
0.1750198665450036
0.1749961027789478
0.1749961028152738
0.1749957775346422
0.1749978636378315
0.1749961148555487
0.174997350450832
0.1749006597560194
0.1750281522962407
0.1749978637048023
0.1749957775522123
0.174997038731831
0.1749970386949966
0.1750034455530989
0.1749881272464765
0.174368281878158
0.17526996063676
0.174997350338096
0.1749961148727077
0.174988127130013
0.1750034454937495
0.1749319796494184
0.1749319798491257
0.1721773620108909
0.1761469622666331
0.1749006598014158
0.175028152299354
0.174368281916163
0.1752699605965964
0.1721773620811226
0.176146962333991
0.1714682985983172
0.1714682986574634
-0.07704334810969959
0.2456766060084154
-0.1436951444508395
0.2388746364796836
-0.2111150576114638
0.2387199162328361
0.2166016640649084
-0.01641000504261436
0.2622329240854891
-0.03960634577812139
0.2606974567763404
-0.07358462030000035
0.2695569055322595
0.2654477214901184
-0.006592926300882151
0.2696310268678931
-0.02186530878434789
0.2751236105061939
-0.0374964955257252
0.2820463831316046
0.2836666690163107
-0.004880663517499162
0.2725494686757016
-0.0182569251371939
0.2880104698904289
-0.02754227108924012
0.2918999468928544
0.2921472799029921
0.2959104589526806
0.01731722200480845
0.2993512373465993
0.00972529584700238
0.301174440786732
0.008198910964078487
-0.00957010364760702
0.3020359278087947
0.2980263127457343
0.01242250270179662
0.3024920710202588
0.005777058446426286
0.3054989971694582
0.005025132238507923
-0.01548701990343304
0.3120987024661632
0.2965749091318026
0.00437081732153205
0.3017829631740368
0.001839926977562689
0.3058799334676999
0.001375469356331149
-0.04016201338956243
0.3307647501779739
0.2775562338583945
0.2839815136910778
0.2894823618826367
0.2531508946607411
0.2801490789607212
-0.1644265218961781
0.2579154191070732
-0.04259712690042106
0.2471486419492323
0.001356210445424388
0.003329005932726392
0.2437970096605554
0.2733974450987471
-0.1239952512280643
0.2567426256459184
-0.02536128784887709
0.2501388771700829
0.008247259136416718
0.008212137480318515
0.2469193071575466
0.2780743972872529
-0.06957949184767814
0.2607869571743194
-0.002748244037675707
0.2534599610132938
0.01606848944299388
0.01292348702952345
0.2495781876016103
0.1854593567987706
0.1884358633610643
0.2091770941217158
0.2249949281007582
0.2415024301088476
0.0007613785821306007
0.2371530312851397
-0.001372361454522464
0.2341637474857708
-0.001060894304043103
-0.0002457632163423429
0.2333920924193722
0.2433045658236991
0.003503832122966011
0.2384426496975918
0.0008162486130016688
0.2347006924605578
0.0002928756202854044
8.773519269617003e-05
0.2334604363240148
0.2457876382230887
0.006561391731742805
0.240386553440223
0.003699587820596095
0.2354915508197585
0.002542594485668515
0.0008191756796324112
0.2335653262473366
0.2320794000619285
0.232757424231958
0.2329423758592898
0.2332308807443604
0.2333291746013144
-1.570047584381618e-05
0.2333277958515086
3.931987441196938e-08
0.2333278705861738
-2.546490307453464e-06
-0.1106046704092175
0.2456563373623334
0.233330829844146
9.441573533552905e-06
0.2333281003326004
3.963322242617195e-07
0.2333280970910566
-4.765563216269086e-07
-0.1085723094198275
0.2179609425788638
0.2333335939631541
8.432598881691344e-05
0.2333284276827076
2.034318710153471e-06
0.2333283694876885
-4.67042992058353e-08
-0.0735936765158095
0.1860620120842726
0.2333230981278824
0.2333285550578027
0.2333285851361344
0.1464703865782671
0.2745554686838143
0.127009532869539
0.2822065456345623
0.1104230980891736
0.287917764106626
0.07020053551729644
0.03355956905537172
0.2956551830776872
0.256440230184655
0.08268332353770769
0.2788488773800933
0.07925823444694013
0.2912620237310607
0.05607986826575828
0.03177654211137215
0.3009452535123742
0.2144879321838657
0.05371014869111534
0.2575188681904355
0.0327921212492488
0.2882269982668754
0.02186831516190357
0.02046295866690606
0.3023459796996135
0.2022990576350994
0.2323939266868694
0.2490428841365158
0.2702573998036479
0.3022772471391307
0.005504625322272139
0.3051324487359004
0.0003381855968246361
0.3051201743748537
-0.005567736244128763
-0.002201830513234637
0.3052388803777881
0.3086550656493026
0.008340050156496748
0.3134582678285209
0.001149657473479615
0.3140570000564568
-0.003431678179378395
-0.001606536056891428
0.3145574690841942
0.3124257074520402
0.007248455263443643
0.3179596434764178
0.001392051904482106
0.3191151282289678
-0.002688855834626303
-0.00126472316735915
0.3192234042249835
0.2863187452424699
0.295402412403294
0.2965436749939857
0.2976899237989385
0.3092599182855382
0.01054429494247144
0.3215383990535302
0.03541192750926636
0.351052151256648
0.1279716371981002
0.3000956973392326
0.4287068485194639
0.3193186454458826
0.007841229884701262
0.3335410732798543
0.02825233845944641
0.3610649391985883
0.1096494014502213
0.1963717864978984
0.471791097709193
0.3253035033667919
0.003706006414918472
0.3399066278642309
0.02118610917945618
0.3763749968970849
0.08558131597554952
0.05211036513987799
0.5351032382806439
0.3044473857903128
0.3311014988907277
0.4269403881539061
0.498290788153643
0.2336657807157876
-1.246239798739156
0.03107912332931145
-0.2712222937159159
0.004996805848694549
-0.02445004541490636
-0.005171878904895962
-0.0001414124622924097
0.1591585255405732
-0.9278834270883458
0.01704395789732278
-0.1211892462070346
0.005621368274461021
-0.01065981203228169
-0.005782718905221702
0.0001370872628847931
0.08449918413119525
-0.4729308467077473
0.008752773844557027
-0.03819338029415485
0.004277453252746029
-0.001742036048006393
-0.005292812914395005
0.0009429943406360115
0.03073439807792319
-0.002306368545809312
0.003533189391311822
0.001372239914080657
0.0002552297641892857
0.002949868614180721
0.0002863443282466686
7.490693513485802e-05
0.00236118019755056
-0.003635489062070958
-0.002438219551731582
0.01557723095959507
-0.002699817427426034
-0.0009447831844113311
-0.003836687369637722
-0.004963852485582176
-0.0007938990688075385
-0.009420389269711012
-0.006157647652240552
0.001253438037042014
-0.002252654837355733
-0.003887045918471561
-0.003527717863833345
-0.006813163352009648
-0.002666059633606247
-0.009317514263049519
-0.003429677742672194
-0.006019130962641837
-0.002607156313390086
-0.003840815888568067
-0.006073728740629013
-0.01033130335709469
0.1066764040245417
0.09260096566668236
0.16875663680252
0.1272917788126304
0.2067703335902725
0.1548705201492684
0.128323604467104
0.2335702263347614
0.06557125841430375
0.02660984600651346
0.1364049886794826
0.07011983202060176
0.1855125919217899
0.1259389164136392
0.09917252203482402
0.225542434794737
0.01917843327550747
0.001932688103690794
0.08556149057867769
0.0147868396941859
0.1521768193348617
0.07287066358455532
0.06530126342111456
0.2096803799269114
-0.007690827490396582
0.01468451644990165
0.1000047959382555
0.1770304436897494
0.1867997654850374
-0.2378131213552529
0.2978572502717722
0.1419990149394513
-0.1633125369030712
0.2102591612728391
0.1192125574758559
-0.1009417986897277
0.1580287612737036
-0.07038806848220044
0.09567521555120406
0.134960363034293
0.1724127590076067
-0.1786703407046261
0.1230198157123548
-0.1105184324764149
0.07298274162780162
-0.0508726140781488
-0.03077645002117945
0.0401634493820851
0.1460994577116627
-0.1051365151207499
0.07985919565880067
-0.0411373688641435
0.04188843760348921
-0.01630198509919067
-0.006959620230281996
0.02011029592479203
0.07613753684583234
0.03984050889098599
0.01850228122553662
0.009825764879862631
0.006085140549299126
0.005076415026017109
-0.01095226091038092
-0.0004359776157836347
-0.01259405759187119
-0.009823071731719042
-0.01854688755338624
3.4555691641458e-15
0.01163944126723989
0.01182932470603855
-0.00751746350201412
0.002020858769270996
-0.009793800298925681
-0.008074316936656088
-0.01438815876154968
7.971401316808624e-14
0.03650999381368213
0.01985970561721591
0.02516790242894457
0.008279083894774747
0.009743578368701405
0.01215158662158632
0.02094332167662322
3.497202527569243e-14
0.07733260083237593
0.05304445564775766
0.02252681282885775
2.280953204092384e-13
-0.01854688755338409
0.01259405759189226
-0.01438815876152633
0.009793800299093193
0.02094332167663612
-0.009743578368512265
-0.02252681282831052
0.05126202856158145
-0.009823071731702531
0.01095226091041511
-0.008074316936654016
0.007517463502137764
0.01215158662167008
-0.02516790242849896
-0.05304445564722064
0.0383498631961376
-0.0004359776157772978
-0.006085140549358263
0.00202085876929589
-0.01163944126719245
0.008279083894859981
-0.03650999381355752
-0.07733260083203802
0.03041850438038787
0.005076415026006925
-0.009825764879889898
0.01182932470603096
-0.02011029592469388
0.01985970561729274
-0.04016344938205255
-0.09567521555064698
0.04485710447161179
-0.1192125574751429
-0.07038806848206118
0.1349603630338748
-0.1419990149390925
-0.1009417986894297
0.1580287612735171
-0.1867997654848619
-0.1633125369033747
0.2102591612733798
-0.2378131213555301
-0.2335702263346984
0.297857250271781
-0.07298274162775173
-0.03077645002123055
-0.123019815711988
-0.0508726140781297
-0.1724127590073541
-0.1105184324764627
-0.1786703407049032
-0.2255424347946976
-0.04188843760346152
-0.006959620230298337
-0.07985919565877311
-0.01630198509920501
-0.146099457711601
-0.04113736886418227
-0.1051365151208595
-0.2096803799269755
-0.01850228122555396
-0.03984050889101795
-0.07613753684586357
-0.1770304436898364
-0.1000047959385507
-0.06530126342068837
-0.01468451644985266
-0.07287066358457583
0.007690827490862216
-0.01478683969392028
-0.001932688102743774
0.01033130335710616
-0.152176819335182
-0.09917252203394231
-0.08556149057862442
-0.1259389164139589
-0.0191784332747892
-0.07011983202071095
-0.02660984600479085
0.006019130962854504
-0.1855125919220217
-0.1283236044659936
-0.1364049886795866
-0.1548705201501476
-0.06557125841351386
-0.1272917788136431
-0.09260096566405358
-0.001253438037007044
-0.2067703335903108
-0.168756636802575
-0.1066764040241322
-0.01557723095928398
-0.002361180197900581
-0.00243821955209006
-0.0002863443281736194
-0.00363548906167227
-0.0002552297639780692
7.490693533699494e-05
0.002949868613859714
0.0001414124623865705
0.0007938990686826783
-0.006157647652571912
0.003836687369621028
-0.009420389269458734
0.002699817427522551
-0.004963852485408884
-0.0009447831846056826
-0.0001370872628095113
0.002666059633564272
-0.003429677742765494
0.003527717863814714
-0.009317514262890868
0.002252654837410498
-0.006813163351887301
-0.003887045918530653
-0.0009429943405122668
0.00607372874057089
0.003840815888475933
0.002607156313419311
-0.001372239913862067
-0.004996805848586259
-0.00517187890630294
-0.03107912332854893
-0.02445004541536607
-0.2336657807142559
-0.2712222937147566
-1.246239798741549
-0.4287068485198374
-0.005621368274564666
-0.005782718906230201
-0.01704395789709664
-0.01065981203263638
-0.159158525539429
-0.121189246206629
-0.9278834270895349
-0.4717910977091672
-0.00427745325286164
-0.005292812914925872
-0.00875277384448978
-0.001742036048087515
-0.08449918413065673
-0.03819338029409154
-0.4729308467087915
-0.5351032382806322
-0.003533189391335609
0.00230636854571745
-0.03073439807785026
-0.4982907881547523
-0.3510521512564526
0.3000956973408166
-0.321538399052298
0.1279716371980181
-0.3092599182841919
0.03541192750791766
0.01054429494369158
-0.3052388803769636
-0.3610649391980703
0.1963717864983275
-0.3335410732788033
0.1096494014544371
-0.3193186454460596
0.02825233845988728
0.007841229887033174
-0.3145574690850915
-0.3763749968976556
0.05211036513975142
-0.3399066278650618
0.0855813159800507
-0.3253035033673871
0.02118610918032737
0.003706006416434149
-0.3192234042258365
-0.4269403881564637
-0.3311014988937156
-0.3044473857934192
-0.297689923801701
-0.3051201743750293
-0.00220183050612055
-0.3051324487355175
-0.005567736242248267
-0.3022772471362942
0.0003381855894706298
0.005504625318024092
-0.2956551830792077
-0.3140570000569654
-0.001606536050324237
-0.3134582678281627
-0.003431678177457709
-0.3086550656467928
0.001149657466667509
0.008340050154420076
-0.3009452535164855
-0.3191151282297194
-0.001264723162782255
-0.3179596434758559
-0.002688855833221093
-0.3124257074509338
0.001392051899533731
0.007248455264017406
-0.3023459797042485
-0.2965436749952292
-0.2954024124031551
-0.2863187452430245
-0.2702573998046385
-0.2879177641054055
0.03355956907684188
-0.2822065456331039
0.07020053550522498
-0.2745554686848468
0.1104230980986075
0.1270095328638811
-0.2456563373622855
-0.2912620237311642
0.0317765421270052
-0.2788488773795385
0.05607986825686595
-0.2564402301842738
0.07925823445416857
0.08268332353411068
-0.2179609425790677
-0.2882269982670511
0.02046295867487524
-0.2575188681905713
0.02186831515696197
-0.2144879321825895
0.03279212125371855
0.05371014868836754
-0.1860620120834105
-0.2490428841339067
-0.2323939266870922
-0.2022990576337717
-0.1464703865781911
-0.2333278705834322
-0.1106046704094449
-0.2333277958490409
-2.546498908517769e-06
-0.2333291746013371
3.932037617726536e-08
-1.570047487337023e-05
-0.233392092419158
-0.2333280970891987
-0.1085723094212899
-0.2333281003307332
-4.765600326028796e-07
-0.2333308298443739
3.963323518818562e-07
9.441573933899328e-06
-0.2334604363237451
-0.2333283694862345
-0.07359367651781917
-0.2333284276814555
-4.67058413056165e-08
-0.2333335939633982
2.034319030119747e-06
8.432598862467833e-05
-0.2335653262468674
-0.233328585136109
-0.2333285550577763
-0.2333230981284144
-0.2332308807450551
-0.2341637474859697
-0.0002457632154372336
-0.2371530312855097
-0.001060894307057358
-0.2415024301095165
-0.001372361451842719
0.0007613785827176867
-0.2437970096608416
-0.2347006924602347
8.773519361027216e-05
-0.238442649698006
0.000292875617834143
-0.2433045658231209
0.0008162486150869452
0.00350383212370653
-0.2469193071574242
-0.2354915508193968
0.0008191756805625561
-0.2403865534404374
0.002542594484074012
-0.2457876382222385
0.003699587821852313
0.006561391733000133
-0.2495781876013694