/*--------------------------------*- C++ -*----------------------------------*\
  =========                 |
  \\      /  F ield         | OpenFOAM: The Open Source CFD Toolbox
   \\    /   O peration     | Website:  https://openfoam.org
    \\  /    A nd           | Version:  11
     \\/     M anipulation  |
\*---------------------------------------------------------------------------*/
FoamFile
{
    format      ascii;
    class       volScalarField;
    location    "0.3592364";
    object      p;
}
// * * * * * * * * * * * * * * * * * * * * * * * * * * * * * * * * * * * * * //

dimensions      [0 2 -2 0 0 0 0];

internalField   nonuniform List<scalar> 
880
(
80.0000000000004
80.00000016385775
80.01345681728579
81.88035306808928
80.00000000017729
80.0000004813165
80.0166906273391
82.76390408093825
80.00000000090172
80.00000187777135
80.03089522943147
83.82259662707719
80.0000000120275
80.0000082457378
80.06380985337232
85.40756612572051
79.9999999446778
80.00000002780087
80.00000611606767
80.00009435559267
80.00003799709627
80.00014606677965
80.00091100334534
80.00134650586746
80.14459910602199
80.23457513020134
80.38549015807473
80.5377906812847
88.3443857687287
91.39561849421177
94.0006853910768
95.23500173775483
80.00023343473094
80.00190272172892
80.00718973835187
80.02228113453658
80.01262427522229
80.05407643907131
80.10847793615717
80.22875822199271
81.27050169691198
81.90767216834419
82.71482894475871
83.76513706133538
96.38510128098807
97.95090626170018
98.27351058437785
97.50850821088537
90.98666307729934
87.5095731970777
85.83750988664345
84.74257980204416
85.69176055000459
86.37143126807833
86.7739852961697
86.80860814827219
80.6388030112843
81.12354681815462
81.63901197148627
82.02324506802208
80.0790889473823
80.19128927863811
80.36116125725319
80.59966186861169
80.87776060793345
81.15709335303505
81.43363226283701
81.64005942998459
82.3128693409523
82.48082575579943
82.56762048675806
82.57336061283465
86.44907798634623
85.94969044312383
85.29455270576956
84.61630583677054
83.58709541485243
82.89853364011097
82.50698312709827
82.07912302338649
82.08344073713418
84.14365758249684
82.52051551856646
81.76638556736808
87.74234287546658
83.8637825080196
82.36950873500578
81.74667862397824
120.5573265969724
85.26205476498234
82.18751848076265
81.49458207776327
158.3477544513215
93.0576476030342
82.67020022472811
81.40187997935953
81.37297378226627
83.39324226703391
102.7714180031225
175.0765950163999
80.87271429912755
84.75161384330414
113.734315017207
174.2794461841585
81.08513121506655
87.9015581971188
128.3727067391753
176.1372499931895
81.89140078364505
93.58565657108039
142.2710260915468
173.4127299925223
167.7073605373929
149.9508217601494
102.2399223338379
83.66784049045241
160.7382926736464
151.1909496634881
111.8300215619015
86.8403006542856
153.3430571808821
148.9208734186539
120.1257338402132
91.94284600656493
145.6346570477271
138.9087413275835
121.4588863342274
98.31254625875341
103.9490385598742
117.3639003616935
126.5675978167665
136.6078193503598
103.1377316344379
109.2148880431545
113.4275619906679
123.6649587557717
100.8368096126783
101.4843032152821
100.681291455367
107.3274394230965
97.84664082579776
95.2241128888666
89.17508371380283
88.30751287400695
95.46842235680521
89.32757333617418
78.72369022732562
66.39562858609041
91.68574335743227
83.96083622161308
69.9315895561827
43.06375447447687
88.80550039197121
81.54220854552682
63.23946690789722
26.39393645094667
86.35652596574928
80.46176520630006
58.99089481791307
14.848162951944
15.60547455595786
60.56897635794089
79.5867847692047
84.17252321269005
24.76301230649923
61.36485568087708
78.99417159672089
82.70513173577645
27.33961644910192
61.04509702430745
78.13597755718526
81.71386213344677
25.83942304446695
60.43844156100579
77.52977724126731
81.17538418716056
31.26905124276253
63.06644487370644
77.20207518981049
80.23976603849331
36.95810869382077
65.60880551804695
77.1165569743013
79.68640370347865
43.59637342752034
68.84966057211864
77.31447092169724
79.66584982508817
51.42000376520951
71.09835951753033
77.69926769017906
79.73914194232599
53.28227072174334
58.94010023385047
73.28909656128782
79.26091566824512
51.93666463540421
60.14524267469654
73.5142264791719
79.25269433786299
49.4967310773293
61.86255276338044
74.01481045343252
79.25459455550785
47.17464798589596
63.82096534453535
74.73200166646259
79.31311064371425
51.42000376522683
71.0983595174846
77.69926769012673
79.73914194199767
43.59637342761224
68.84966057176692
77.31447092150503
79.6658498244379
36.95810869384724
65.6088055179016
77.11655697389918
79.68640370302023
31.26905124280677
63.06644487334761
77.20207518967459
80.23976603828622
84.17252321289038
79.58678476932062
60.56897635787836
15.60547455568457
82.70513173568382
78.99417159669753
61.36485568073233
24.76301230620664
81.71386213354712
78.13597755739515
61.04509702387613
27.33961644905548
81.17538418728186
77.52977724154492
60.43844156089775
25.8394230444298
14.84816295203017
58.99089481788597
80.46176520638619
86.35652596589321
26.39393645082783
63.23946690789892
81.54220854565101
88.80550039188287
43.0637544743653
69.93158955656583
83.96083622171514
91.68574335776083
66.39562858626029
78.72369022715097
89.32757333571925
95.4684223570771
103.9490385602477
117.3639003623403
126.5675978172877
136.607819350274
103.1377316343113
109.2148880429984
113.4275619909714
123.664958755763
100.8368096122955
101.484303215167
100.6812914554124
107.3274394231529
97.84664082571659
95.22411288861606
89.17508371360695
88.30751287420473
145.6346570476954
138.9087413275772
121.4588863345839
98.31254625954249
153.343057180742
148.920873418624
120.1257338403813
91.94284600664841
160.7382926736811
151.1909496632582
111.830021561658
86.84030065461548
167.7073605371311
149.9508217604491
102.2399223342039
83.66784049044546
81.37297378213034
83.39324226699514
102.7714180031162
175.0765950160429
80.87271429957978
84.75161384345304
113.7343150171865
174.2794461837345
81.08513121577191
87.90155819785292
128.372706739035
176.1372499929516
81.89140078376079
93.58565657112611
142.2710260915672
173.4127299923631
81.40187997937811
81.49458207764147
81.74667862436156
81.76638556743008
82.67020022432887
82.18751848050503
82.36950873524324
82.52051551849188
93.05764760254583
85.2620547649646
83.86378250772199
84.1436575823801
158.3477544507205
120.5573265965941
87.74234287565804
82.08344073714144
81.64005943026855
82.57336061302236
84.6163058369432
82.07912302336132
81.43363226253243
82.56762048683946
85.29455270576273
82.50698312708819
81.15709335304477
82.48082575583007
85.94969044322305
82.89853363976665
80.87776060766575
82.31286934065123
86.44907798652123
83.58709541492655
80.07908894725092
80.63880301099974
85.69176055015124
90.98666307737524
80.1912892784581
81.12354681778919
86.37143126828495
87.50957319686765
80.36116125761797
81.63901197094644
86.77398529623443
85.83750988601324
80.59966186845976
82.02324506793937
86.80860814833926
84.74257980175574
97.50850821078538
83.76513706149191
80.228758221871
80.02228113476038
98.27351058432146
82.71482894485831
80.10847793598448
80.00718973832774
97.9509062616272
81.90767216819744
80.05407643833217
80.00190272166583
96.3851012810628
81.2705016966802
80.01262427498078
80.00023343489063
95.23500173759439
80.53779068142485
80.00134650587094
80.00009435604342
94.00068539062904
80.38549015806812
80.0009110031888
80.0000061163551
91.39561849381134
80.23457513015516
80.00014606671259
80.0000000276608
88.34438576843181
80.14459910586505
80.00003799678521
79.99999994537085
80.00000000002807
80.00000016396199
80.01345681729782
81.880353067979
80.00000000026193
80.00000048100623
80.01669062747781
82.76390408075235
80.00000000110963
80.00000187755403
80.030895229444
83.82259662738632
80.00000001233936
80.00000824565643
80.06380985342379
85.40756612590252
83.52399964535749
85.09529065955581
87.64370276100088
92.78685055557271
85.09529065984296
87.15061822739672
90.99719278982649
98.69105926967563
87.64370276115108
90.99719278977214
97.31196285454241
106.8208262924796
92.78685055576177
98.69105926930423
106.8208262929377
117.1819849139389
127.9924208212347
119.0251953924935
115.1013548295192
106.8655907932799
126.2797064089871
123.6456500588859
123.6040720891681
119.5301222598471
126.3198393329898
125.4943409920123
125.0506810512419
123.640142374252
123.7373644805239
123.3302811295769
123.2434791701293
122.3928850299697
119.6768049648691
117.8559468988054
114.2518196991908
109.3401020145708
119.9429239059151
118.0398133931557
114.3867995259544
109.805086013297
120.2786100497168
118.2215834374328
114.3689954435623
110.2398971105779
120.4533894437813
118.1133226151336
114.5207772938278
108.5601473523178
82.8304986090975
71.90503048023119
70.60490631800819
70.98546823475759
75.82086629249331
69.03042806279583
69.65705364869801
70.38171246604396
69.99731152337263
68.89583455929086
70.22942315036079
70.92987021935782
60.73660778730709
66.5979618829907
69.23779963721019
70.19841211331016
70.93005171287837
71.29232893842493
72.10770820654677
73.05113234889043
70.47273577263059
70.85092240194842
71.73551660547972
72.92901432930961
70.90448023638416
71.13419935591874
71.8724961403195
72.80674017972848
70.2968909582497
70.61806176745898
71.55366951892155
72.84654471278496
78.67366851664647
114.0351210236498
165.0706971140298
181.4274620843458
81.36349937268703
121.5217514626776
162.53934795424
173.2946307972229
83.49457683617534
125.2964959188277
161.3140570533675
171.9959100119326
84.86377626406916
130.7124531203007
161.6593489623701
171.9730225597553
218.1625578981813
209.3374505603594
201.7904846298338
190.5374261375566
219.3304872465295
212.1164817319706
203.9475808668968
192.377978394021
218.3263111242876
213.6471364409121
205.0480643752494
193.4986953848844
213.2095579984702
215.5720606235748
206.9709913443001
195.2367450148549
178.1482613256789
167.8954975078911
158.2745770550206
153.3866676935525
180.1465626765884
169.2798285130959
158.9646795726985
153.7600071815596
181.2950703632992
169.4888690080757
159.5124202315543
153.7252887661636
183.701401043933
170.9141573497249
161.1738589121086
154.823496717887
148.5698031836097
140.6582146400022
126.7741723393141
105.8850733078738
149.2636161336117
142.1818997142329
128.8939423406335
114.3599893584282
149.2079659306586
142.6097856400607
130.689802264877
119.6674667613958
150.3701162357767
144.9549412784957
134.0437150853056
134.5834648116638
64.62302247701845
16.54898629006558
2.690611359168192
1.28362571061461
49.95162571406482
10.39446159976276
2.242188696888239
1.464412874224702
34.73868036735271
6.571944720292327
1.963424372062144
1.620806674162562
19.55113662073817
3.060995341650061
1.726193724151414
1.813261457904544
1.929263966743082
4.153485682984071
6.785737844216298
10.67157205988331
2.73635313727519
5.087869985836903
7.800696589039358
11.94481539293191
3.199553510848595
5.47296844093476
8.645994894824629
12.64695066445485
3.753859484078132
6.199461486754285
10.0929507814223
13.79309386758299
12.51725512702226
18.94026454487957
26.03302990508017
34.74104405358747
12.12980914996802
17.87729696440321
24.72000195567245
33.23097980344026
12.44051782869763
16.35106855961584
22.87550990973592
32.23955903080684
11.69546913201006
14.46076029494438
19.06069086551887
30.28210241934719
35.03382194837835
33.20769950704348
32.5478761654478
33.1774688876369
31.86521817573233
31.78646089495195
32.24760979006594
32.35378815485307
31.01256559905998
32.65716891570323
32.98670107788933
33.02247546217721
29.23687211038303
31.45585903941089
31.77609130039966
32.50249416485919
32.92041290117971
33.23132073838249
33.49130711226278
33.61784795634282
32.97861554083259
32.93619982313948
32.84470502268972
32.95088885091847
32.92857362816549
33.39767322079943
33.83630060885451
34.0949344138806
34.75151841836076
35.80223889581453
36.54012237891703
36.54218143550333
33.61784795634463
32.95088885091363
34.0949344138856
36.54218143550784
33.49130711227021
32.84470502267639
33.83630060885578
36.54012237893552
33.23132073836608
32.93619982315744
33.39767322085768
35.80223889584314
32.92041290123942
32.97861554082479
32.92857362820597
34.75151841839115
33.17746888775607
32.54787616548187
33.2076995071085
35.03382194842905
32.35378815487509
32.24760979011415
31.78646089499113
31.86521817578136
33.02247546223575
32.98670107798434
32.65716891573933
31.0125655991169
32.50249416488231
31.77609130042857
31.4558590394609
29.23687211043368
30.28210241943701
19.06069086564817
14.46076029504556
11.69546913209585
32.23955903088475
22.87550990980321
16.35106855972267
12.44051782882754
33.23097980351833
24.72000195577777
17.87729696451678
12.1298091500709
34.74104405365011
26.0330299051909
18.94026454495924
12.51725512717669
10.67157205994488
6.785737844245272
4.153485682947243
1.929263966773731
11.94481539298967
7.800696589086706
5.087869985826103
2.736353137280662
12.64695066451891
8.645994894895209
5.472968440927573
3.199553510845212
13.79309386764649
10.09295078146647
6.199461486771569
3.753859484078789
1.283625710653828
2.690611359131582
16.54898628993297
64.62302247695398
1.464412874244127
2.242188696873456
10.3944615996896
49.95162571406601
1.620806674163822
1.963424372051013
6.571944720296548
34.73868036740502
1.813261457900377
1.726193724139318
3.060995341650145
19.55113662076178
105.8850733079326
126.7741723393241
140.6582146397298
148.5698031837159
114.3599893582698
128.8939423403603
142.1818997141372
149.2636161332882
119.6674667614492
130.6898022647335
142.60978564035
149.2079659306151
134.5834648118172
134.0437150849772
144.9549412787206
150.3701162356247
153.3866676934902
158.2745770547541
167.8954975076841
178.1482613250149
153.7600071814898
158.9646795727081
169.2798285122334
180.1465626758729
153.7252887664025
159.5124202311779
169.4888690073717
181.2950703627531
154.8234967177074
161.1738589119672
170.9141573493447
183.7014010434245
190.5374261371205
201.7904846295621
209.3374505600861
218.1625578983008
192.3779783937283
203.9475808666441
212.1164817316099
219.33048724659
193.4986953847531
205.0480643749886
213.6471364407296
218.3263111242038
195.2367450147529
206.9709913441617
215.5720606230198
213.2095579987666
181.427462084347
165.07069711377
114.0351210237126
78.67366851692896
173.2946307971384
162.5393479540663
121.5217514627179
81.36349937298588
171.9959100118424
161.3140570532194
125.2964959188181
83.49457683648806
171.9730225594203
161.6593489622269
130.7124531202865
84.86377626439216
73.05113234911239
72.10770820626517
71.2923289379104
70.93005171247516
72.92901432956523
71.73551660539552
70.85092240142265
70.47273577240938
72.80674018000782
71.87249614017556
71.13419935541256
70.90448023616314
72.84654471306008
71.55366951869327
70.61806176693477
70.29689095785895
70.98546823431356
70.60490631766422
71.90503048036329
82.83049860923516
70.38171246561407
69.65705364828106
69.03042806301565
75.82086629257991
70.92987021892959
70.2294231499291
68.8958345595459
69.99731152342217
70.19841211287473
69.23779963669604
66.59796188323128
60.73660778738716
109.3401020146048
114.2518196992104
117.855946899119
119.6768049647333
109.8050860133536
114.3867995262016
118.0398133932889
119.942923905646
110.2398971105535
114.3689954435402
118.2215834374984
120.2786100495191
108.5601473523003
114.5207772941085
118.113322615439
120.4533894436222
122.3928850293721
123.6401423732042
119.5301222591876
106.8655907932607
123.2434791692256
125.0506810504293
123.6040720879521
115.1013548290065
123.3302811288632
125.4943409909795
123.6456500574792
119.025195391323
123.737364479796
126.3198393320478
126.2797064071028
127.9924208190975
54.09186746850661
71.27152654386275
77.56390374680453
79.75943991298652
50.81850163826491
69.89467500050225
76.93568603477159
79.66603545554943
48.22196011250992
68.23885210578308
76.32175925460085
79.54989580918827
46.39897078609427
65.93398670913415
75.50437337455919
79.42096066791869
79.26091566812593
73.28909656132035
58.94010023381129
53.28227072185705
79.25269433771477
73.5142264791659
60.14524267462113
51.93666463543027
79.25459455545206
74.01481045354198
61.86255276326405
49.49673107743082
79.3131106435939
74.73200166641949
63.82096534444954
47.17464798598633
79.42096066766264
79.54989580910413
79.66603545532439
79.75943991267602
75.50437337430992
76.32175925448804
76.93568603431331
77.56390374646152
65.93398670925602
68.23885210570079
69.89467500065074
71.27152654405265
46.39897078608789
48.22196011244219
50.81850163826321
54.09186746859701
)
;

boundaryField
{
    back
    {
        type            empty;
    }
    inlet
    {
        type            zeroGradient;
    }
    front
    {
        type            empty;
    }
    top
    {
        type            zeroGradient;
    }
    outlet
    {
        type            fixedValue;
        value           uniform 80;
    }
    bottom
    {
        type            zeroGradient;
    }
    wall
    {
        type            zeroGradient;
    }
}


// ************************************************************************* //
