/*--------------------------------*- C++ -*----------------------------------*\
  =========                 |
  \\      /  F ield         | OpenFOAM: The Open Source CFD Toolbox
   \\    /   O peration     | Website:  https://openfoam.org
    \\  /    A nd           | Version:  11
     \\/     M anipulation  |
\*---------------------------------------------------------------------------*/
FoamFile
{
    format      ascii;
    class       surfaceScalarField;
    location    "0.3592364";
    object      phi;
}
// * * * * * * * * * * * * * * * * * * * * * * * * * * * * * * * * * * * * * //

dimensions      [0 3 -1 0 0 0 0];

internalField   nonuniform List<scalar> 
1652
(
1.706212168242977
0.5337381654478366
-1.763034163104749e-13
1.172474003768357
0.5337381584213272
9.350298313393068e-13
0.6387445850953067
0.5335571556399739
5.897504706808832e-13
0.5291695195170136
-8.919753824443433e-12
0.1057111328391022
1.706212168247671
1.067476330876201
1.172474005829468
1.067476302840521
0.6387502465711286
1.06710551001762
1.053469951325797
0.1085008274104518
1.706212168244341
1.601214496297512
1.172474013702309
1.601214386896552
0.6388068710348223
1.600473903410619
1.575038111446303
0.1089061398812096
1.706212168319533
2.134952661525118
1.172474043756277
2.134952228733701
0.6388942757183396
2.133493284855457
2.097351299013542
0.1052259159144114
2.651191214816961
1.723711780177984
3.167429763782276
1.723711779125778
3.68366809005323
1.723711851207373
1.723712858918735
4.199906971661397
2.651189460790769
1.207473399362295
3.167421594024493
1.207473287077485
3.683647048568414
1.207475968323956
1.207511807908662
4.199820705795078
2.649581370517527
0.6899954944005101
3.166040564630689
0.6888415104268188
3.682702438027873
0.6872903424100258
0.6887247621218578
4.194525749774043
2.650874461336357
0.1168379066885789
3.273931989367891
0.04172463155686518
3.912955037252664
0.01811964733842542
4.554446381787908
0.01129148847725325
4.164891486952515
0.03501639677554302
4.129861134141151
0.03500481607131467
4.094845355224454
0.03485880930690965
0.03478328209066772
4.059708001209978
4.16498993398454
0.06971402198040716
4.130355905869896
0.06893656509469037
4.096344156190653
0.06750053852270776
0.06567962332826605
4.062546337705291
4.174765249493249
0.08242252286997259
4.160204161706169
0.07410494973938742
4.15294062522079
0.0615565293143146
0.05298181895344628
4.147974730843289
4.603056132132683
0.006229210467724344
4.647547265928951
0.005264141493024344
4.680683768959564
0.006631567626016521
4.712916849359375
0.007741205258700312
4.670365360741314
0.1044175000135805
-0.06872496831753988
4.585724727938627
0.101533558614405
-0.01838188115067177
4.503680525755026
0.09666912507787917
-0.00894176717936776
0.0878584336495033
4.431572770492323
-0.006796810396209163
4.220096244124843
0.01360740929156318
4.275162943411123
0.02651440272951244
4.314339752380291
0.03726910456222177
0.0454098624415632
4.33814243764785
4.068844756752042
0.001073227348933448
4.08131973716671
0.002963606405018693
4.098854711186195
0.005655612148720457
0.009950123456508697
4.118433301499977
4.059561399626326
4.059934643790709
4.061254173317097
4.064432375748583
4.069795826684124
-0.01554491335662067
4.077679489669418
-0.02162145062703769
4.087623458019166
-0.02801780213556615
-0.0321079559620282
4.096916983096905
4.138847389526872
-0.05369588179149887
4.158817243568622
-0.06003530602662516
4.176997307594705
-0.06321988799391715
-0.06156514541184216
4.190974589078244
4.347633662147409
-0.07864938214133765
4.345713650790646
-0.0682278201131461
4.333663769133532
-0.05402390504049948
-0.04809061330987852
4.319208332736851
4.365059905839712
-0.007518749939798147
4.316425750718811
-0.005960751965452621
4.273216378012636
-0.003535247982081519
4.244284906476113
-0.002871878782305021
0.04263137969034803
4.228675434020282
-0.01747943140821323
0.05775046185908056
4.308730670388253
0.03447588935455248
4.199831902349775
4.101808621350454
0.04041909335673244
4.249424467381487
-0.1456627070938019
0.04760725779325037
4.301615770461559
0.03368337536097621
4.206144037575786
4.102832444788767
0.0781817328764508
3.985007142393767
-0.140005846574092
0.0462714190409772
4.308885528260995
0.02810062836259963
4.211434062237512
4.098033801576237
0.1746604981814726
3.682276377908832
-0.04233674327835418
0.06565779353938517
4.316411236684599
0.02803762909896057
4.226445199281216
4.100476738108033
0.07033233868843303
3.9798139145481
0.1235566940382046
4.132434649768256
0.08027950576510667
4.217519316145742
3.560893995538596
0.1473566824161298
0.06627773592394559
3.876832744784673
0.08925402938145294
4.042791693772149
0.008555499649256393
4.094877510345636
3.434668391267012
0.1118000063265184
0.05279843945183604
3.784937941059019
0.01845363411552858
3.955718935312029
-0.0701370755133508
3.934669889024525
3.332938029113545
0.0584737048564119
0.02149034468640676
3.705442162372946
-0.08849199677313069
3.861473479290574
-0.1185519184845416
3.745430261602806
3.239257537849495
0.02716041176883977
0.1401541463008981
3.155192707732032
0.002272825394121769
0.1880850452872899
3.584087339078275
0.03402612033468411
3.73448350259957
3.642164774237553
0.1485181246306653
3.077803604427352
-0.006619698824568143
0.2559943616803736
3.4725233001796
0.1028842078603067
3.584916120956425
3.592147880425862
0.1404621560781895
2.99552086068529
0.002475032423927104
0.2945972674655115
3.346351079850802
0.1909905082758933
3.450090899106903
3.557357935408636
0.1099862997096021
2.890870804534592
0.0156864150250654
0.2666316486046303
3.221601018889311
0.2510967241183519
3.304258079496309
3.51547068679712
-0.2198606497641336
3.464403761877804
-0.1874177396032068
3.230011803956944
-0.04683145925787624
3.107244002422447
2.789609950958087
0.0441574699841325
-0.1620751042849953
3.402431724571772
-0.1271063657680378
3.139807965699427
0.001551513345139366
3.004997916654233
2.707306595356743
0.06647363212025337
-0.1025099916321315
3.328923542719614
-0.05274330905771074
3.057280733037834
0.06928484254078421
2.911615525816922
2.641311834996508
0.1219615441571494
-0.03597156408643454
3.224302241864258
0.03387154233010503
2.967052768952162
0.1556891484232031
2.819842385523085
2.569307902636986
0.2296405861140824
-0.3468345580601778
3.454811512645528
-0.5764961705245371
3.18579270999486
-0.7153241749585124
3.000044763138678
2.633114074606703
-0.769070744248841
-0.300209147036072
3.659649143098651
-0.5257819209615605
3.407276024549398
-0.6286983183746263
3.176611630671082
2.281262896576862
-0.2632236718197574
-0.2736588378523097
3.844642712110516
-0.48214095061144
3.62142905899403
-0.5140376273662185
3.331025641665554
1.803005819779448
-0.02966571916943089
-0.2402601140999042
4.011166527224171
-0.4394778808518949
3.827812578403108
-0.3630680502756867
3.438906633483475
1.417732986129098
-0.01228126151192554
0.157681962946058
1.45927635845767
-0.0104780384607693
0.2075843954122364
3.529871300148176
0.1042120492062116
3.938193289862537
4.062974562442083
0.1656294518226642
1.439677529865779
-0.00797886332528264
0.1877443988774407
3.625677065558517
0.09472382881934016
4.050909034783306
4.108047342592089
0.1503822636681515
1.343317610424901
-0.003393853811878789
0.1686298887651284
3.723213629774283
0.08924784121448226
4.160212451364652
4.149922553134152
0.1199112815767565
1.254281323556849
0.002202952161857261
0.1500457348129968
3.816530988061881
0.08903432234738728
4.257714909904555
4.196623964237769
-0.2359530200896984
1.570204010580068
-0.01567249188390677
-0.1845876759692576
3.985441897826673
-0.04698203570917814
4.197995653704931
4.097716976982584
-0.2649898003329237
1.927851235254596
0.005974088679203279
-0.1781050208427728
4.069002669174063
-0.03211417876528611
4.113302766893892
4.060050729962876
-0.2623647962704699
2.245159085418395
0.03358745462262583
-0.1344450959188266
4.102206107207721
-0.02063070258376665
4.067475509852454
4.056535961830239
-0.2321305226096725
0.08786607529567692
2.498259567112288
-0.1113836418859311
4.099523719331306
-0.01648763328312142
4.039832332114814
4.056691391901828
0.3370437636154311
-0.4386184967649513
-0.01287172774918348
5.618172593813142e-12
0.8928689099405213
-0.4130647807279555
-3.459454944731988e-13
1.633810526902556
-0.4646879578000842
7.505107646466058e-13
-0.5171012942919653
-1.259925497265613e-11
0.3341161542402183
-0.8918392283278982
-0.01277413124970931
0.9068214851141002
-0.8655146323572565
1.634736306076607
-0.9425091286157068
-1.035759331919148
0.3307524687098856
-1.351362226899609
-0.01558037393409595
0.9266026592357495
-1.343378573495192
1.638843516189393
-1.451593597086315
-1.556743883064405
0.3240817018074243
-0.01607255215121812
-1.703816958817507
0.9567812864989379
-1.851427113047434
1.647527041222172
-1.983871160231657
-2.082285797330355
-0.2321305226098487
-2.245159085421425
0.08786607529565896
2.498259567108136
-0.1113836418825843
-4.102206107210559
4.099523719331422
-0.01648763327925495
-4.067475509850391
4.039832332113565
-4.056535961825235
4.056691391897528
-0.2623647962691588
-1.927851235257994
0.03358745462321702
-0.1344450959212841
-4.069002669184919
-0.02063070258563626
-4.113302766897995
-4.060050729967479
-0.2649898003343455
-1.570204010585919
0.00597408867947001
-0.1781050208456776
-3.985441897832563
-0.03211417877016753
-4.197995653706112
-4.09771697698124
-0.235953020089668
-1.254281323559034
-0.01567249188369563
-0.1845876759734525
-3.816530988073823
-0.04698203571377402
-4.257714909904946
-4.196623964230378
-0.1042120492013068
4.062974562460634
-4.011166527249229
-0.2075843954001793
3.938193289884758
-3.827812578433438
-0.1576819629397151
3.529871300125305
-3.438906633453794
1.459276358429417
-1.417732986106903
-0.01047803846099699
-0.09472382881351643
4.108047342595627
-0.1877443988631953
4.050909034797942
-0.1656294518176442
3.625677065545952
1.439677529855476
-0.007978863325402291
-0.08924784120893109
4.149922553127893
-0.1686298887477538
4.160212451373453
-0.1503822636630635
3.723213629771934
1.343317610422929
-0.003393853811623652
-0.08903432234045461
-0.1500457347968667
-0.1199112815717281
0.002202952161768298
0.3630680502794698
-1.803005819766269
-0.01228126151192638
0.4394778808669861
-3.331025641651773
0.2402601141150992
-3.621429059020541
-3.844642712130036
0.514037627370319
-2.281262896564658
-0.02966571916867812
0.4821409506261207
-3.176611630666481
0.2736588378635559
-3.407276024571017
-3.659649143113517
0.6286983183819117
-2.633114074603004
-0.2632236718185633
0.525781920976451
-3.000044763136506
0.3002091470462424
-3.185792710006494
-3.454811512651765
0.71532417496564
-2.569307902637187
-0.7690707442507573
0.5764961705367245
-2.819842385524446
0.346834558063617
-2.967052768958267
-3.224302241863637
-0.2198606497635679
3.464403761888645
-3.515470686812486
-0.187417739596434
3.230011803972312
-3.304258079519025
-0.04683145925288035
3.107244002411334
-3.221601018871336
2.789609950948009
-2.890870804522961
0.04415746998156656
-0.1620751042776629
3.402431724578387
-0.1271063657599113
3.139807965707916
0.001551513351254585
3.004997916645382
2.707306595349501
0.06647363212088009
-0.1025099916296857
3.328923542722283
-0.05274330904991797
3.057280733044405
0.06928484254497741
2.911615525812317
2.641311834993191
0.1219615441569345
-0.03597156408206059
0.0338715423393936
0.1556891484264168
0.229640586114401
0.1099862997124396
-2.995520860674372
0.01568641502566792
0.2666316486104449
-3.346351079841333
0.2510967241212185
-3.450090899121385
-3.557357935420076
0.140462156080955
-3.077803604422582
0.00247503242368019
0.2945972674723817
-3.472523300176472
0.1909905082804687
-3.584916120963786
-3.592147880433121
0.1485181246338239
-3.155192707724948
-0.00661969882580804
0.2559943616865439
-3.584087339081555
0.1028842078599966
-3.73448350260311
-3.642164774239641
0.1401541463028199
-3.23925753785059
0.002272825393480504
0.1880850452953706
-3.745430261604636
0.0340261203384844
-3.861473479291289
-3.705442162370786
0.07033233868968181
3.979813914549083
-4.100476738106332
0.1235566940390212
4.132434649769145
-4.226445199279182
0.08027950576750553
4.217519316149465
-4.316411236686927
3.560893995543116
-3.68227637791108
0.1473566824151159
0.066277735925935
3.87683274478609
0.08925402938259119
4.042791693774152
0.008555499651104803
4.094877510349018
3.434668391266038
0.1118000063245951
0.05279843945348905
3.784937941060842
0.01845363412225798
3.95571893531615
-0.07013707551321835
3.934669889031837
3.332938029114145
0.05847370485613279
0.0214903446889495
-0.08849199676849939
-0.1185519184833425
0.02716041176930251
-4.098033801575709
-0.02803762909813812
-4.102832444790558
-0.02810062836163685
-4.101808621351935
-0.03368337536007338
-0.03447588935492019
-4.09691698309801
-4.211434062238808
-0.06565779354191698
-4.206144037574467
-0.04627141904164378
-4.199831902344362
-0.04760725779264419
-0.05775046185868371
-4.190974589073552
-4.308885528264131
-0.1746604981793093
-4.301615770463793
-0.0781817328750482
-4.308730670387741
-0.04041909335778199
-0.04263137969015435
-4.319208332738026
-3.985007142401157
-0.0423367432785644
-4.24942446738258
-0.1400058465748457
-4.228675434019208
-0.1456627070913005
-4.244284906476983
-0.01747943140809477
-0.03210795596044791
-4.087623458018005
-0.06156514541074137
-4.176997307589918
-0.04809061330864345
-4.333663769137777
-4.273216378013616
-0.002871878782647552
-0.02801780213659255
-4.077679489669796
-0.06321988799220996
-4.158817243563336
-0.05402390503863547
-4.345713650796803
-4.316425750717142
-0.003535247980101547
-0.02162145062543674
-4.069795826685648
-0.06003530602681123
-4.138847389520397
-0.06822782011216683
-4.347633662156077
-4.365059905839074
-0.005960751965525063
-0.01554491335364072
-4.064432375754678
-0.05369588179254303
-4.118433301492924
-0.07864938214096762
-4.338142437659138
-4.431572770493536
-0.007518749938601771
-0.001073227350773753
4.059561399626323
-4.059708001204943
-0.01360740929364224
4.068844756735351
-4.062546337685106
-0.1044175000172596
4.220096244140755
-4.147974730860605
4.670365360750665
-4.712916849370743
-0.0687249683172336
-0.002963606408285635
4.059934643790643
-0.02651440273457462
4.081319737153095
-0.1015335586177571
4.275162943424975
4.585724727946092
-0.01838188115152814
-0.005655612152764666
4.061254173319069
-0.03726910457067306
4.09885471117429
-0.09666912508204745
4.314339752392798
4.503680525759386
-0.008941767181004229
-0.009950123458808302
-0.04540986244575523
-0.08785843365228224
-0.006796810395956199
-0.05298181895835885
-4.68068376896785
0.007741205258360639
-0.06567962334129157
-4.152940625227973
-0.03478328209580961
-4.096344156182359
-4.094845355223812
-0.06155652931973654
-4.647547265933861
0.006631567625710155
-0.06750053853573812
-4.160204161705286
-0.03485880931010499
-4.130355905873908
-4.129861134148296
-0.07410494974629883
-4.603056132132457
0.005264141492414609
-0.06893656510650303
-4.174765249486272
-0.03500481607196348
-4.164989934002726
-4.164891486952353
-0.08242252287426977
-4.554446381772044
0.006229210469191004
-0.06971402199299975
-4.194525749759456
-0.03501639677903423
-4.199820705822168
-4.199906971666994
-0.6887247621199768
-3.912955037222252
0.01129148847794453
-1.207511807900883
-3.682702438016593
-1.723712858924153
-3.683647048585212
-3.6836680900534
-0.6872903424079806
-3.273931989334987
0.0181196473410678
-1.207475968316518
-3.166040564626425
-1.723711851208922
-3.167421594038307
-3.16742976378594
-0.68884151042643
-2.650874461308384
0.04172463155354644
-1.207473287073675
-2.649581370516793
-1.723711779126112
-2.651189460796148
-2.651191214823067
-0.6899954944004963
-2.097351299001617
0.1168379066815464
-1.207473399362352
-2.133493284860528
-1.723711780188848
-2.134952228737057
-2.134952661529123
1.706212168246033
0.5337381654428741
1.172474003772972
0.5337381584279786
0.6387445850985307
0.5335571556421976
0.5291695195043165
0.105711132842689
1.706212168248594
1.067476330870286
1.172474005829714
1.067476302839855
0.6387502465716572
1.067105510023262
1.053469951316182
0.1085008274121526
1.706212168246498
1.601214496294724
1.172474013702193
1.601214386894296
0.6388068710340831
1.600473903413408
1.575038111445811
0.1089061398803593
1.706212168319974
1.172474043753885
0.6388942757154138
0.1052259159124597
0.1054762307967277
0.1054762308008695
0.1054653891812277
0.1079721206271059
0.1059225108624536
0.107828781029114
0.1026793170752488
0.1077871402394015
0.1079721206245508
0.105465389185558
0.1076782103140684
0.1076782103165092
0.1081688386039038
0.1066956990624703
0.09903952033565017
0.1111325178458814
0.1078287810301869
0.1059225108658461
0.1066956990630095
0.1081688386065497
0.1063680725410786
0.1063680725412778
0.09589780015827376
0.1089243905753174
0.1026793170795161
0.1077871402412362
0.09903952033853781
0.1111325178477344
0.09589780016272698
0.108924390574906
0.09567817973250003
0.09567817973747944
-0.03916483440131835
0.1340424938990639
-0.0625320485690673
0.1313125679930575
-0.08851464157894307
0.1359908621434394
0.1348760674764481
-0.005682171915395107
0.1388609525705431
-0.0161753409074013
0.1408669357394486
-0.02705988754378646
0.1458977553278358
0.1484336165865776
-0.0009897461529562168
0.1391852195046876
-0.007344048542793968
0.1464985228760408
-0.01313441911247926
0.1509051780497296
0.1525076768690943
-0.001218716111187346
0.1398031637112888
-0.006135057652871867
0.1507758157300411
-0.009219360024987522
0.1533082343849966
0.1538215532920759
0.1533031317823084
0.006169575957851781
0.1533721019513624
0.00494854357372243
0.1526201080241278
0.00718318801869694
0.006669561020430037
0.153774493866212
0.1535206827389599
0.005391475353009823
0.1538379733109515
0.004325676555041846
0.1539161570705432
0.006914475839715051
0.003199576558244432
0.1574316368950396
0.152881418859359
0.002725278698123335
0.1538629374421574
0.00303350157616622
0.1547047742525214
0.005885403220491692
-0.009752647440642415
0.167684026286025
0.1419776474016666
0.1446515622877735
0.1502910780102502
0.1404652912101595
0.1402989128913736
-0.05510088910145702
0.1310927971475698
-0.008870377985056188
0.1296687936075514
-0.00696120369169953
-0.006209409700848656
0.1296551153785843
0.1446496297275255
-0.04222970848002139
0.1388102913325346
-0.002739831201025528
0.1356410116973129
-0.003209403355270313
-0.003925132489461858
0.1339572913626038
0.1511964711660571
-0.02570025689687042
0.1456023145302893
0.003129665395983555
0.1416372930374697
0.001326780770570773
8.870574611327675e-05
0.1382175845217661
0.1147562677662071
0.118175925961348
0.1201040676363156
0.1208093989548849
0.129920111121541
-0.006882548713895598
0.1308441864231148
-0.005824224767505742
0.1320144306637216
-0.00376710959729798
-0.003038504044939744
0.1331207758781178
0.1327149820282288
-0.004747778840735489
0.1322448853144899
-0.004284428583540306
0.1322701141227827
-0.002830360599532705
-0.002528189179843765
0.132695129823772
0.135512868773972
-0.001149128803004246
0.1336078802956474
-0.001296574513332399
0.1325487467439463
-0.0007878477085368207
-0.001115511265125685
0.1321948811179
0.1205604595342806
0.1203303199978052
0.1204691582576594
0.120365269401129
0.1377885915856016
-0.02482817935118942
0.1348828144039197
-0.1504996806139381
0.1107599081569605
-0.1229665991175361
-0.01104216232730193
0.08051154489197006
0.1322028839637133
-0.02831584301813164
0.1023254408606046
-0.1270269732346234
0.05610842788406609
-0.08144794973351399
-0.002616685287548326
0.04679685388384947
0.1239355390207928
-0.02441129398936687
0.05391317691839863
-0.06299653514710213
0.002564578012083346
-0.03524077067259185
-0.006634873044544243
0.004849339388625307
0.09095665053333779
0.022053421088585
-0.01732377361907513
-0.02687791408645081
0.1047430848846943
0.1254180435631487
0.1177022290180786
0.1030275878533086
0.1245919337925103
0.05756181488618939
0.02675343600081448
0.1298440656878956
0.08613665776210844
0.08814323358497655
0.1121677145242231
0.0810423796451778
0.1233710933998376
0.05040389023365766
0.02496189471887689
0.129595382901169
0.05318292924477971
0.04164882517199842
0.09764534424616023
0.04052002247725595
0.1175439299879728
0.03378401369690143
0.02014558483952955
0.1261442759169539
0.01606355940557477
0.06047029767100048
0.09669645202631516
0.1200202669138462
0.1350666335723203
0.003068277574300282
0.1400249570662511
-0.006417315946232294
0.1434898219679929
0.001381491110017397
0.01112156128972419
0.1477709555480313
0.1347763352465711
0.005054771216827181
0.139568724857987
-0.002603304206463264
0.1424688404514204
0.001754680995821656
0.006794999492562237
0.1464998254297858
0.1319896954395431
0.00620524344690021
0.1376971318408613
0.000134553163962603
0.1417126266746222
0.001461482393715463
0.003119724138402336
0.1452932645224567
0.1330968616034419
0.138841329966691
0.1429867422880592
0.1462795471939882
0.1586638308357439
0.03178752300985888
0.1726591303050685
0.05121750812350467
0.1922475885173272
0.1023173895844724
0.1805135636426088
0.2412399882308681
0.1566728552789684
0.0199361873521261
0.1704611840170852
0.0361092691090652
0.1914989099976178
0.08113533756271041
0.1229080594961899
0.2492073649441054
0.153890314920735
0.009770562433055519
0.1672302516978699
0.0214199736701739
0.1942631608842666
0.05345214221716754
0.03428848243553811
0.2830991290901677
0.1546647502656238
0.1746625168578055
0.2273712283549775
0.2615308797165126
0.1220014523782871
-0.6494854459048978
0.01214931953997182
-0.1526509705136925
-0.002597149110618504
-0.01384699860700763
-0.009765749496201842
-0.003860773759314176
0.08463897844252126
-0.4845210868107942
0.001807027790378455
-0.06912182716967778
-0.004315338783225897
-0.006799031770290561
-0.006316626561142753
-0.006748306250723282
0.04503313708828673
-0.2463298309016269
-0.00259604966795289
-0.02080256881277431
-0.005881502028256723
-0.002576886574721006
-0.003320594050959367
-0.0080458000593343
0.01517957714376987
-0.004926157454106616
-0.006659519917864063
-0.009082486723615993
-0.005367093292588051
-0.007899572392161465
-0.006842751210248587
-0.00504731531404874
-0.008519340757471607
-0.0008104933396556012
0.003538151370822112
-0.00912878973419623
-0.008192601128350983
-0.005611314301013207
-0.009147311164828089
-0.002763127032298623
-0.009653902862468037
0.0007066532071404695
0.00316851877387158
-0.008476732047813967
-0.009688813212838179
-0.002882231314835637
-0.009469048543852967
-0.001545621734812042
-0.008702839539195605
0.0009290867181002763
0.002634955486255502
-0.007328852696709577
-0.01079238311637617
-0.01094990204625828
-0.009120758346561121
-0.005723270180715247
-0.008421238489270073
-0.01576921653833768
0.001943153852528471
-0.002849446676462725
0.02247376583170946
0.01462041747986323
0.07047405866895599
0.0424367710677573
-0.009509070189959761
-0.01396203881013258
-0.007053732288983632
-0.003681771493288556
0.00890903796928523
4.078819225619701e-05
0.04770580924668995
0.03388596368668564
-0.01176757844842442
-0.008575082019941511
-0.01145448046404176
-0.002555849351490593
-0.003607338002384296
-0.006445997354096442
0.0255735987827955
0.02032678388370077
-0.01309197457952499
-0.01388663015585457
-0.01901294345749507
0.008976020717640289
0.04129069386362483
-0.00635682344769415
0.0106348815666259
0.03999954897842924
-0.007445455514688067
0.01126604473664759
0.0367724132103909
-0.01237324621842635
0.0170405275558798
-0.01696917338708254
0.02817991811579506
0.02546631101027375
0.03266467474291324
-0.003783897195453016
0.03078346403658302
-0.004784178819557866
0.0274857641419013
-0.008732254064663561
-0.01083083698509921
0.02109995521339138
0.01849770912019894
-0.00170921280468744
0.01641348945022226
-0.002220723360673194
0.01257215334764602
-0.004437042421092628
-0.005015183179354406
0.006837887676246886
0.006533285766315289
0.00458282737347139
0.0002902092057529004
-0.004408778808793777
-0.006411135162445049
0.002584406140720568
-0.006056269715403899
0.0007783997829353614
-0.003634269682547889
-0.000880256219152515
-0.001874230203526565
-6.214473380339314e-14
0.003495893713102452
0.006009728395016494
0.001027986864300612
0.003639512532775661
-4.024172417149002e-05
0.0009232434777345436
-0.0009164598222068839
-2.674943599956237e-14
0.0166912564569243
0.01018026083945416
0.01132029827716028
0.008928169458250076
0.005680810086328036
0.006652603910912956
0.005073008444672358
1.671579541451251e-14
0.02174005434644675
0.0143134020647875
0.007707616027797119
5.660055757417126e-14
-0.001874230203527821
0.00363426968242702
-0.0009164598222133925
4.024172412321614e-05
0.005073008444684113
-0.005680810086285577
-0.007707616027673461
0.01287172774910787
-0.0008802562191441016
0.006056269715370592
0.0009232434777306647
-0.001027986864389437
0.006652603910956116
-0.01132029827724552
-0.01431340206476255
0.01277413124981507
0.0007783997828982037
0.006411135162283442
0.003639512532774277
-0.003495893713052589
0.008928169458346912
-0.01669125645693266
-0.02174005434645824
0.01558037393401231
0.002584406140789735
0.004408778808849226
0.006009728395015491
-0.00683788767632084
0.01018026083950969
-0.02109995521338542
-0.02817991811598018
0.01607255215110564
-0.03677241321030943
-0.01696917338691909
0.02546631101047107
-0.03999954897843865
-0.01237324621842492
0.01704052755584438
-0.04129069386362201
-0.007445455514686131
0.01126604473669939
-0.006356823447765114
-0.0424367710677908
0.01063488156666022
-0.02748576414193316
-0.01083083698512309
-0.03078346403654661
-0.008732254064712945
-0.03266467474294857
-0.004784178819599208
-0.003783897195518103
-0.0338859636867733
-0.01257215334770215
-0.005015183179323042
-0.01641348945020674
-0.004437042421031889
-0.01849770912031838
-0.002220723360714733
-0.001709212804711834
-0.02032678388378149
-0.0002902092057788797
-0.004582827373515397
-0.006533285766366005
-0.008976020717738634
0.01901294345737239
-0.02557359878285156
0.01388663015583499
0.006445997354351057
0.01309197457951127
0.002555849351432965
0.008575082019758158
0.005723270180737344
0.003607338002348061
-0.04770580924674445
0.01145448046396845
-4.078819249017651e-05
0.01176757844832305
0.003681771493194555
0.01396203881020908
0.007328852696719736
-0.008909037969428601
-0.07047405866898811
0.007053732288881422
-0.01462041748010015
0.009509070189862006
0.002849446676465736
0.01576921653804404
0.008476732047795898
-0.02247376583188519
-0.001943153852617511
0.008421238489102865
0.009128789734192904
0.008519340757478736
0.00353815137083149
0.006842751210324033
-0.0008104933396148803
0.00536709329264263
-0.005047315314185629
-0.007899572392212487
0.003860773759269613
0.009653902862461372
0.003168518773861741
0.009147311164865867
0.0007066532071251207
0.008192601128362464
-0.002763127032377841
-0.00561131430105757
0.006748306250729381
0.008702839539166044
0.002634955486268818
0.009469048543882218
0.0009290867182044915
0.009688813212845168
-0.001545621734872212
-0.002882231314871897
0.008045800059333712
0.009120758346615201
0.0109499020462959
0.01079238311640083
0.009082486723616969
0.002597149110591506
-0.009765749496121294
-0.01214931953945998
-0.01384699860675098
-0.122001452377323
-0.1526509705130207
-0.6494854459054943
-0.2412399882303374
0.004315338783268334
-0.00631662656106694
-0.001807027790195803
-0.006799031770190719
-0.0846389784418566
-0.06912182716942938
-0.4845210868107545
-0.2492073649438314
0.00588150202828572
-0.003320594050948267
0.002596049668025046
-0.002576886574675105
-0.04503313708798915
-0.02080256881267188
-0.2463298309015665
-0.2830991290900274
0.006659519917870135
0.004926157454138296
-0.01517957714370781
-0.2615308797166894
-0.1922475885173758
0.1805135636434453
-0.17265913030494
0.1023173895856848
-0.1586638308358258
0.05121750812524473
0.03178752301098886
-0.147770955548082
-0.1914989099974481
0.1229080594954489
-0.1704611840171294
0.081135337562589
-0.1566728552788036
0.03610926911034429
0.01993618735108238
-0.1464998254297857
-0.1942631608839793
0.03428848243554677
-0.1672302516979291
0.05345214221776168
-0.1538903149204649
0.02141997367237991
0.009770562433631835
-0.1452932645225742
-0.2273712283544694
-0.1746625168582292
-0.1546647502654344
-0.1462795471940336
-0.1434898219680214
0.01112156128972364
-0.1400249570661288
0.001381491109750055
-0.1350666335717791
-0.006417315945534408
0.003068277574068579
-0.1298440656878038
-0.1424688404515254
0.006794999491164466
-0.1395687248575489
0.001754680998620195
-0.1347763352462444
-0.002603304206264312
0.005054771216816412
-0.1295953829010305
-0.1417126266744156
0.003119724140006275
-0.1376971318405265
0.001461482393280034
-0.1319896954391189
0.0001345531639345143
0.006205243446993136
-0.1261442759169266
-0.1429867422881057
-0.1388413299665581
-0.1330968616032245
-0.1200202669136332
-0.1245919337926623
0.0267534360007361
-0.1177022290180961
0.05756181488597956
-0.1047430848848629
0.103027587852689
0.1254180435633969
-0.08051154489214689
-0.1233710933998941
0.02496189471848975
-0.1121677145242471
0.05040389023237157
-0.08613665776244966
0.08104237964337913
0.08814323358608267
-0.04679685388398359
-0.1175439299879073
0.02014558483960349
-0.09764534424638473
0.03378401369653583
-0.05318292924490797
0.04052002247855213
0.04164882517037383
-0.004849339389070756
-0.09669645202596835
-0.0604702976706285
-0.0160635594058344
0.02687791408689533
-0.1107599081574314
-0.01104216232732674
-0.1348828144043746
-0.1229665991181824
-0.1377885915857985
-0.1504996806128868
-0.02482817935084566
-0.1331207758783924
-0.05610842788441971
-0.002616685288316378
-0.1023254408612562
-0.08144794973392905
-0.1322028839639761
-0.1270269732341706
-0.02831584301784518
-0.1326951298239729
-0.00256457801229705
-0.006634873044357392
-0.05391317691900722
-0.03524077067263059
-0.123935539021069
-0.06299653514702258
-0.0244112939892093
-0.1321948811180394
0.01732377361905539
-0.02205342108865781
-0.09095665053346955
-0.1203652694010879
-0.1320144306637984
-0.003038504044267726
-0.1308441864229264
-0.003767109597025226
-0.1299201111215626
-0.005824224767680602
-0.006882548714212094
-0.1296551153784267
-0.1322701141228309
-0.002528189179315632
-0.1322448853143417
-0.002830360599042708
-0.1327149820281305
-0.004284428583798267
-0.004747778840668376
-0.133957291362584
-0.1325487467438268