/*--------------------------------*- C++ -*----------------------------------*\
  =========                 |
  \\      /  F ield         | OpenFOAM: The Open Source CFD Toolbox
   \\    /   O peration     | Website:  https://openfoam.org
    \\  /    A nd           | Version:  11
     \\/     M anipulation  |
\*---------------------------------------------------------------------------*/
FoamFile
{
    format      ascii;
    class       volVectorField;
    location    "0.3592364";
    object      U;
}
// * * * * * * * * * * * * * * * * * * * * * * * * * * * * * * * * * * * * * //

dimensions      [0 1 -1 0 0 0 0];

internalField   nonuniform List<vector> 
880
(
(24.99999999999999 -2.806193834507892e-12 0)
(24.99999998203183 -1.217448313814941e-08 0)
(24.99829022907051 -0.0005554032407768324 0)
(24.71736217332513 0.007624651880320345 0)
(24.99999999998872 -2.831398807107678e-11 0)
(24.99999994445427 -7.039871139546386e-08 0)
(24.99747956429957 -0.001722093025677466 0)
(24.63269570978199 -0.1593359725321189 0)
(24.99999999963697 -2.437840934380325e-10 0)
(24.99999976102305 -2.87188468992708e-07 0)
(24.99514551848752 -0.003584487158266983 0)
(24.51360166706809 -0.2644844846327679 0)
(24.99999999829957 1.052130768248084e-09 0)
(24.9999988181946 -1.167857354967431e-06 0)
(24.98908575882716 -0.007016799008890625 0)
(24.13724500667391 -0.4137218574080929 0)
(25.0000000111903 -4.11428726224883e-09 0)
(24.99999998001881 8.77874040131802e-09 0)
(24.99999953213299 -9.298566761147812e-07 0)
(24.99999314126271 -1.184382436720917e-05 0)
(24.9999937679695 -4.448707709706218e-06 0)
(24.99996304600845 -1.867020614136825e-05 0)
(24.99985589057892 1.067212277457125e-05 0)
(25.00017477370821 -0.001107686834297098 0)
(24.97171066643128 -0.0101983749930825 0)
(24.9516428923651 -0.006360449407250419 0)
(24.92414650003124 0.01073097301555715 0)
(24.91407765199988 -0.06683448073740141 0)
(23.40264114256727 -0.09542199047010323 0)
(22.69017313419504 0.6348506528150567 0)
(22.26855444798849 1.335027435351093 0)
(22.2443020473953 1.746229030413984 0)
(24.99988402704539 -6.197542791774563e-06 0)
(24.99960661633346 -0.0003640889538215219 0)
(24.99925375206947 -0.001529059275398473 0)
(24.99747569336245 -0.004522245084919928 0)
(24.99801875993936 -0.0006931034467455136 0)
(24.99019679047186 -0.0003535545148991322 0)
(24.97715026124553 0.005493423463196564 0)
(24.95441937236006 0.008911109347256968 0)
(24.75586062567421 -0.01080203424193141 0)
(24.63017767625724 0.0983950047615109 0)
(24.46165085989247 0.2785202495457605 0)
(24.31834630526888 0.4062583403631793 0)
(21.98167192660376 2.340708480295779 0)
(21.98732593249542 2.779772550683364 0)
(21.88512143080627 3.317362660471654 0)
(22.33925839906776 3.758410437556549 0)
(23.38567530478393 4.323115002324604 0)
(24.11422352122318 4.173023054719686 0)
(24.45809782891208 3.766268042999048 0)
(24.81732895426452 3.316635178942172 0)
(24.07885849129 0.7463996459764738 0)
(24.09385700807292 1.104403359336106 0)
(24.19611737823364 1.349489620201821 0)
(24.38213287826976 1.475562297985907 0)
(24.87564060173705 0.03529368529992601 0)
(24.77190243695089 0.1155048061810748 0)
(24.67953926240288 0.2412738128237586 0)
(24.63421390928026 0.39455777026233 0)
(24.98787369938338 -0.01055573849238063 0)
(24.97236283452472 -0.0242601943775034 0)
(24.95024687470399 -0.04404404970977905 0)
(24.9240511276396 -0.07056225173303643 0)
(24.90149098540875 -0.1010174618742753 0)
(24.88771094414203 -0.131131958074067 0)
(24.88284615278865 -0.1445276160743175 0)
(24.88832711760087 -0.1379817007509264 0)
(24.63263690848095 0.5574762658071538 0)
(24.67445683034962 0.7120259857640532 0)
(24.76092223932758 0.8382254110885962 0)
(24.87669145107267 0.8925695174128678 0)
(24.54953913930459 1.608774728653317 0)
(24.75257855824094 1.654945989432512 0)
(24.94052635328243 1.627183296953212 0)
(25.09323287251945 1.555466946209403 0)
(24.99115115032783 2.90579235986753 0)
(25.17872762481668 2.489598720766657 0)
(25.29112389313094 2.09435817730887 0)
(25.36345311821371 1.778075772226151 0)
(25.42831497165004 1.377470025604175 0)
(25.24435138150199 1.453731573542688 0)
(24.99915992986953 0.9127394662332162 0)
(24.89607445854206 -0.1212258956287211 0)
(24.54805722979815 1.559495495020459 0)
(25.34338530369535 1.289317248751902 0)
(25.14340443472769 0.8617790393720598 0)
(24.90333231243748 -0.09618278352399415 0)
(19.15446867566227 1.728677337222858 0)
(25.15905165525669 1.297215032764975 0)
(25.25814741112737 0.7517610253039365 0)
(24.91621891734201 -0.08053431572169026 0)
(14.12715762292992 2.095955496557785 0)
(23.70234432432028 1.628794461940287 0)
(25.27711919896728 0.7747409771132483 0)
(24.94896420780317 -0.09185093402445295 0)
(24.95452989524587 -0.06679498979163159 0)
(25.21733414666991 0.7182220039773608 0)
(22.05149371908779 2.269345479018307 0)
(12.4898604115076 3.860298168629625 0)
(24.83136608393755 -0.08882848764241572 0)
(24.9945992190498 0.8082355394771621 0)
(20.60602026431826 3.314550876113322 0)
(12.79858932249426 5.640549141917323 0)
(24.78950754645172 -0.1158505134376288 0)
(24.47445435935404 1.156895747294313 0)
(18.8249893597934 4.649467800208692 0)
(12.64753335146423 7.078642211566906 0)
(24.69831904506506 -0.1634659542914769 0)
(23.59935482721636 1.92880415383518 0)
(17.58777919535136 6.05836152790413 0)
(13.13583352591552 8.144179998290555 0)
(14.04754522762702 8.855731149966662 0)
(16.96792633925302 7.293791811390041 0)
(22.43004495183883 3.156614439880856 0)
(24.51832158737637 -0.186496281719127 0)
(15.13572933368574 9.393297221829785 0)
(17.2408818710602 8.219371865526101 0)
(21.21731273040116 4.641923517300579 0)
(24.19845377966566 -0.07130102222013326 0)
(16.37658892124924 9.684268192694001 0)
(18.11055368682844 8.754313175358652 0)
(20.70756367716098 5.995906364805847 0)
(23.69389359517432 0.2364132364783917 0)
(17.54806267718422 9.756789491490011 0)
(19.39761883978145 8.854128526863802 0)
(20.87608966967467 7.035967316477951 0)
(23.19628701075573 0.7229093863537478 0)
(22.9109856454808 0.8509584502592505 0)
(22.04904049257324 7.091141854129073 0)
(21.1210885800814 8.806653504332363 0)
(18.96385854198499 9.89779294045684 0)
(23.45622267560851 0.646379735173842 0)
(23.50851300543221 6.648119806685389 0)
(23.1079823146252 8.415244311549413 0)
(20.90706435048796 9.810493191127788 0)
(24.04000609474914 0.3441122841979899 0)
(24.93162750179511 5.875073704456559 0)
(25.19364607980174 7.620151528992758 0)
(23.44735715586752 9.238276015820803 0)
(24.51868720037003 -0.2494441404567174 0)
(26.06332574975486 4.606849775714601 0)
(27.16639004679685 6.226687967683816 0)
(26.40059972257122 7.616386458882559 0)
(24.88419539500099 -0.3075641510787055 0)
(26.92926016288941 3.628093157221905 0)
(29.0497950842553 4.804324940871203 0)
(30.68346583012396 4.759026937282371 0)
(25.30046800037849 -0.4989509716939678 0)
(27.49765788966991 2.601741108578689 0)
(30.11084458467823 3.390622865051828 0)
(34.00251469764507 0.7046181756580711 0)
(25.54327303894194 -0.5425571246048047 0)
(27.54995762427543 1.647316838802646 0)
(30.83476600353409 1.256058963424599 0)
(36.34819551536106 -4.253944132063894 0)
(25.65369178487248 -0.5437364480621705 0)
(27.22445245941409 1.022791007280001 0)
(30.31236640835519 -0.3107767815201188 0)
(37.77929293662334 -9.251900316892574 0)
(34.01923030358428 -7.328040576044024 0)
(29.13040080879195 -1.417307202630945 0)
(26.94232818464086 0.3554883152599201 0)
(25.69371254375736 -0.5467491576399978 0)
(25.6344484952976 -3.215017427172132 0)
(28.24646300877298 -1.936569296552018 0)
(26.64810812914757 -0.1001441843548062 0)
(25.629053183387 -0.4720540943778053 0)
(23.08905392768818 -3.612738944168428 0)
(27.75005939261406 -2.841728369286125 0)
(26.39349585835934 -0.5594312378889086 0)
(25.50626632902572 -0.3592885477576657 0)
(19.90312159574142 -3.659482915833952 0)
(26.97782799272222 -3.450133749287012 0)
(26.04930569589276 -0.9532379518595667 0)
(25.38979622880986 -0.2751049413382232 0)
(18.08527812315995 -4.76015644389706 0)
(25.72428359112049 -4.39114618534613 0)
(25.48601445028039 -1.289823084139034 0)
(25.1802173066203 -0.2156688784923019 0)
(15.4332494623977 -6.813629507796463 0)
(24.08649008016031 -4.635058833252151 0)
(24.89651900288344 -1.125734432729238 0)
(25.00123603579548 -0.1079258641434353 0)
(14.37828777754014 -6.976672481042195 0)
(23.02532108584742 -4.048543947760666 0)
(24.65192847178654 -0.7359075027265661 0)
(24.97081077434949 -0.04913542878883662 0)
(14.33665965066845 -5.861275165986327 0)
(22.80033456175792 -3.600470664517182 0)
(24.67303651755259 -0.601454208438029 0)
(24.97608483838025 -0.03607931857732915 0)
(14.22227161654673 -0.6632575689573827 0)
(20.34304424566283 -0.1132475168937357 0)
(23.64826046033292 0.0105796442956021 0)
(24.85559437344949 0.001982441981762025 0)
(14.20385939876359 -1.755758701959711 0)
(20.33968611866155 -0.5377995000641246 0)
(23.66317297304585 0.0006310873115275838 0)
(24.85253741263588 0.004365034731042494 0)
(14.41817762273302 -3.256083923228634 0)
(20.34759960797472 -0.9879031001460563 0)
(23.70249403582491 -0.07175664318704408 0)
(24.85178727478685 0.0002502755847485427 0)
(14.46999182724117 -4.649570451048295 0)
(20.55619819128347 -1.352432906717685 0)
(23.80222809339787 -0.1947170511882349 0)
(24.86017344276986 -0.011390421199657 0)
(14.33665965068204 5.861275165965483 0)
(22.80033456178278 3.600470664509684 0)
(24.67303651767112 0.6014542083910859 0)
(24.97608483849067 0.03607931855796349 0)
(14.37828777755747 6.976672481010612 0)
(23.02532108593138 4.04854394781341 0)
(24.6519284718518 0.7359075027114529 0)
(24.97081077445775 0.04913542883500868 0)
(15.43324946244342 6.813629507817098 0)
(24.08649008018103 4.63505883329101 0)
(24.8965190028735 1.125734432773475 0)
(25.00123603582652 0.1079258641937904 0)
(18.08527812318766 4.760156443899717 0)
(25.72428359123697 4.39114618541768 0)
(25.48601445030144 1.289823084173598 0)
(25.1802173066071 0.2156688785402285 0)
(25.69371254372525 0.5467491575815723 0)
(26.94232818465296 -0.3554883152941818 0)
(29.13040080881441 1.417307202623044 0)
(34.0192303035091 7.328040576171904 0)
(25.62905318339442 0.4720540943265674 0)
(26.64810812915534 0.1001441843475114 0)
(28.24646300883503 1.93656929655803 0)
(25.63444849536906 3.215017427275987 0)
(25.50626632896163 0.359288547711359 0)
(26.39349585830618 0.5594312379142399 0)
(27.75005939269967 2.841728369418818 0)
(23.08905392761606 3.612738944211628 0)
(25.3897962287174 0.2751049413175036 0)
(26.04930569582153 0.953237951831182 0)
(26.9778279927443 3.450133749364667 0)
(19.90312159581199 3.659482915862764 0)
(37.77929293667688 9.251900317038682 0)
(30.31236640834455 0.3107767815147255 0)
(27.22445245943162 -1.022791007287301 0)
(25.65369178485137 0.5437364480147217 0)
(36.34819551537126 4.253944132113144 0)
(30.83476600356995 -1.256058963383061 0)
(27.5499576243107 -1.647316838809038 0)
(25.54327303894178 0.542557124617371 0)
(34.00251469766 -0.7046181756164567 0)
(30.11084458459641 -3.390622865030071 0)
(27.49765788969217 -2.601741108554934 0)
(25.30046800024295 0.4989509717625589 0)
(30.68346583007343 -4.7590269372614 0)
(29.04979508429424 -4.804324940841283 0)
(26.92926016300229 -3.628093157195378 0)
(24.88419539487046 0.3075641511664348 0)
(22.91098564538978 -0.850958450239889 0)
(22.04904049251002 -7.091141854131816 0)
(21.12108858003724 -8.806653504335291 0)
(18.96385854200753 -9.897792940459242 0)
(23.45622267559495 -0.6463797351294379 0)
(23.50851300543668 -6.648119806680223 0)
(23.10798231456749 -8.415244311528227 0)
(20.90706435050729 -9.810493191131028 0)
(24.0400060947958 -0.3441122841779292 0)
(24.93162750182697 -5.875073704466897 0)
(25.19364607975852 -7.620151528965003 0)
(23.44735715586321 -9.238276015807477 0)
(24.51868720033168 0.2494441405263558 0)
(26.06332574982525 -4.606849775692647 0)
(27.16639004681641 -6.226687967653018 0)
(26.40059972253066 -7.616386458866654 0)
(17.54806267720356 -9.756789491495363 0)
(19.39761883980377 -8.854128526884875 0)
(20.87608966963509 -7.0359673164752 0)
(23.19628701062022 -0.7229093863699646 0)
(16.37658892128567 -9.684268192714198 0)
(18.11055368686857 -8.754313175373845 0)
(20.70756367714264 -5.995906364813774 0)
(23.69389359514332 -0.2364132364751583 0)
(15.13572933369585 -9.393297221842934 0)
(17.24088187112624 -8.219371865532581 0)
(21.21731273042136 -4.641923517275036 0)
(24.19845377957389 0.07130102222713862 0)
(14.04754522765935 -8.855731149969298 0)
(16.96792633925735 -7.293791811358492 0)
(22.43004495175289 -3.156614439846968 0)
(24.51832158736073 0.1864962817206965 0)
(24.95452989528201 0.06679498981435966 0)
(25.21733414668649 -0.7182220039514938 0)
(22.05149371910104 -2.269345479030703 0)
(12.48986041155386 -3.860298168637157 0)
(24.8313660838434 0.08882848764069129 0)
(24.99459921903813 -0.8082355394332833 0)
(20.60602026434407 -3.314550876113735 0)
(12.7985893225363 -5.640549141940965 0)
(24.78950754629752 0.1158505134309982 0)
(24.47445435922684 -1.1568957472303 0)
(18.82498935983923 -4.649467800184008 0)
(12.6475333514965 -7.078642211574833 0)
(24.69831904501589 0.1634659542946545 0)
(23.59935482722041 -1.928804153757548 0)
(17.58777919542161 -6.058361527882095 0)
(13.13583352592648 -8.144179998292968 0)
(24.94896420778064 0.09185093403827231 0)
(24.91621891736857 0.08053431573429341 0)
(24.90333231235891 0.09618278355363351 0)
(24.89607445853313 0.1212258956250838 0)
(25.27711919904626 -0.774740977114714 0)
(25.25814741119444 -0.7517610252948438 0)
(25.14340443464233 -0.8617790393588742 0)
(24.99915992985595 -0.9127394662492166 0)
(23.70234432441832 -1.628794461959661 0)
(25.15905165527823 -1.297215032769743 0)
(25.34338530375485 -1.289317248764946 0)
(25.24435138152756 -1.453731573535413 0)
(14.12715762299705 -2.095955496561604 0)
(19.15446867572892 -1.728677337218536 0)
(24.5480572297545 -1.559495494993844 0)
(25.42831497164212 -1.377470025578589 0)
(24.88832711754902 0.1379817007581397 0)
(24.87669145100692 -0.8925695173917341 0)
(25.09323287250901 -1.555466946184254 0)
(25.36345311827055 -1.778075772177858 0)
(24.88284615285493 0.1445276160550844 0)
(24.76092223929577 -0.8382254110816096 0)
(24.94052635333608 -1.627183296933411 0)
(25.29112389315979 -2.09435817726804 0)
(24.88771094413199 0.1311319580647599 0)
(24.67445683034425 -0.7120259857120121 0)
(24.7525785582697 -1.654945989443102 0)
(25.17872762486898 -2.489598720766346 0)
(24.90149098546247 0.101017461793373 0)
(24.63263690851764 -0.5574762657857351 0)
(24.5495391393194 -1.608774728649646 0)
(24.9911511503453 -2.905792359859062 0)
(24.98787369938428 0.01055573840724409 0)
(24.8756406018391 -0.03529368520608926 0)
(24.0788584913082 -0.746399645968949 0)
(23.38567530478732 -4.323115002303317 0)
(24.97236283454701 0.0242601942615558 0)
(24.77190243703252 -0.1155048061097397 0)
(24.09385700810336 -1.104403359301826 0)
(24.11422352128121 -4.173023054727926 0)
(24.95024687460191 0.04404404968285703 0)
(24.67953926253663 -0.2412738127529616 0)
(24.19611737828209 -1.349489620202837 0)
(24.4580978290399 -3.76626804305093 0)
(24.92405112766436 0.07056225166492927 0)
(24.63421390929413 -0.3945577702087336 0)
(24.3821328783636 -1.475562297952171 0)
(24.8173289543132 -3.316635178966904 0)
(22.33925839909243 -3.758410437544244 0)
(24.31834630525222 -0.406258340366198 0)
(24.95441937243942 -0.008911109252448398 0)
(24.9974756933338 0.004522245071651153 0)
(21.88512143083807 -3.31736266045598 0)
(24.46165085988241 -0.2785202495498268 0)
(24.9771502613026 -0.005493423425218994 0)
(24.99925375210344 0.001529059244375671 0)
(21.98732593254764 -2.779772550674814 0)
(24.63017767631114 -0.09839500476742095 0)
(24.99019679062796 0.0003535545219046246 0)
(24.99960661631954 0.0003640888321525109 0)
(21.9816719265905 -2.340708480277681 0)
(24.7558606257441 0.01080203423443078 0)
(24.99801876001577 0.0006931034618975797 0)
(24.99988402706061 6.19755705905758e-06 0)
(22.24430204737231 -1.746229030399373 0)
(24.91407765199526 0.06683448074192504 0)
(25.00017477374009 0.00110768685358363 0)
(24.99999314123308 1.184386760112927e-05 0)
(22.26855444793695 -1.335027435338014 0)
(24.92414650004314 -0.01073097301873692 0)
(24.99985589062063 -1.067212361187729e-05 0)
(24.99999953209123 9.298659463893043e-07 0)
(22.69017313404302 -0.6348506528238994 0)
(24.95164289239165 0.006360449398357219 0)
(24.99996304603597 1.86701968918435e-05 0)
(24.99999998004261 -8.824156746995233e-09 0)
(23.40264114233799 0.09542199042309468 0)
(24.97171066649933 0.01019837498779659 0)
(24.99999376809115 4.448720767591386e-06 0)
(25.00000001114298 4.117454994239367e-09 0)
(25.00000000000002 5.954932657591325e-12 0)
(24.99999998201898 1.215777365884971e-08 0)
(24.99829022906448 0.0005554032228779278 0)
(24.71736217329505 -0.007624651723593598 0)
(24.99999999997173 4.182435522648249e-11 0)
(24.99999994453042 7.037523901409405e-08 0)
(24.99747956427029 0.001722093003299142 0)
(24.63269570959673 0.1593359726026343 0)
(24.99999999962681 2.564908945904873e-10 0)
(24.99999976109916 2.871921674261988e-07 0)
(24.99514551850196 0.003584487144912479 0)
(24.51360166671828 0.2644844845633773 0)
(24.99999999828481 -1.026239224786815e-09 0)
(24.99999881823999 1.167870009414823e-06 0)
(24.98908575883274 0.007016798998602193 0)
(24.13724500639273 0.4137218573524803 0)
(24.52527485252015 1.09871182474231e-10 0)
(24.35979728666635 0.1495548251327874 0)
(23.97404948595343 0.1736329216139239 0)
(23.03855644000274 0.01871737533226067 0)
(24.35979728688265 -0.1495548249158289 0)
(24.08843864427033 4.096605075633747e-11 0)
(23.40957855607914 -0.06031084045284636 0)
(21.96067193574228 -0.4863797031267339 0)
(23.97404948639724 -0.1736329215210073 0)
(23.40957855643128 0.06031084052877472 0)
(22.12862479277936 6.328687224641759e-11 0)
(20.03096806198372 -0.5819752095051713 0)
(23.03855644040094 -0.01871737535289547 0)
(21.9606719362898 0.4863797030688742 0)
(20.03096806226829 0.5819752094590023 0)
(17.7891954580623 -2.40077410133508e-10 0)
(17.25879182847621 2.521585257212982 0)
(17.89935836881493 2.917350483368252 0)
(19.54340358122922 2.655844256018467 0)
(21.0869436948249 1.887815192667509 0)
(18.24491724795998 4.246788827688289 0)
(18.3081319131072 4.203003599154001 0)
(19.04066545231528 4.11478220570786 0)
(20.07398402324912 3.952547763860716 0)
(17.68386442636712 5.193202160274144 0)
(18.85058063031754 4.491073850871796 0)
(19.52792968215231 4.691879621601683 0)
(20.05234235416864 4.563750103162223 0)
(18.3352598542911 5.754220950735617 0)
(19.70556127637696 4.717195032538363 0)
(20.20572145712909 4.89123370311833 0)
(20.49070609995812 4.805575182331111 0)
(20.79097027905984 4.932706535124375 0)
(21.0292619237099 5.061731339390375 0)
(21.40435503256937 5.120579806382883 0)
(22.16085108522925 5.280348827290383 0)
(20.72900749958905 4.994248106378858 0)
(21.03869315797771 5.101570342814632 0)
(21.5383707181576 5.117413663913598 0)
(22.65128833391179 5.500671960324868 0)
(20.4728519641855 4.931259744266686 0)
(20.97344185786954 5.105923365982186 0)
(21.55536888886981 5.158191335205704 0)
(24.10137103028346 5.943007200514732 0)
(18.97617430578266 5.851120784923569 0)
(19.59933378214923 5.875949137146978 0)
(20.50317666859778 5.734759918163711 0)
(25.83119033547558 7.12589833964938 0)
(25.81525569392035 3.187582015020408 0)
(26.4094523266641 0.8090348038925604 0)
(25.72185721922882 0.4870787921755398 0)
(25.59509871320902 0.382058452602372 0)
(28.3761076052718 2.198782367055142 0)
(28.69592307182659 0.3397475436390884 0)
(27.56801936432662 0.2832496788301489 0)
(26.8926967506325 0.3137579401598575 0)
(31.549022203149 1.904715168196149 0)
(30.14995026973846 0.04577647528370306 0)
(28.75773644210212 0.05144591478599006 0)
(27.77933180103007 0.09386636256740323 0)
(25.0799067385773 1.987934065371049 0)
(24.21747397624719 0.6522694394646669 0)
(24.07232425538194 0.0897034440423103 0)
(24.15978622169552 -0.2164445774818448 0)
(25.66542753033461 0.3867735687429246 0)
(25.71343983389828 0.3198134349719269 0)
(25.70095717077429 0.2051390431762245 0)
(25.65343370855622 0.1716693256547671 0)
(26.53712328301163 0.3417380393734785 0)
(26.22460028425088 0.2915144304341761 0)
(25.94663383209031 0.1915954170474231 0)
(25.72127414441003 0.1306870865152348 0)
(27.15030146462272 0.1478464196375632 0)
(26.59224635715378 0.147193516127568 0)
(26.09881010764594 0.09830400499541914 0)
(25.66598343052365 0.08514219295831368 0)
(24.13123903916047 -0.4622501515384957 0)
(23.90331979970615 -0.6207336499149695 0)
(23.7023222502802 -0.7154383326907147 0)
(23.36994219888208 -0.6662478406646573 0)
(25.20554432711114 0.7717086976941677 0)
(20.09245535350508 5.098280938543244 0)
(13.71998406022372 3.924546005068224 0)
(9.345227297786742 1.059330565579954 0)
(24.6276230392047 1.25535293497462 0)
(16.07232590133838 4.951609500411537 0)
(8.863842298103094 2.740843400990753 0)
(4.471049379234723 -0.1764342907908766 0)
(23.43571741196253 1.295038831361255 0)
(11.69340660073476 3.634455462400075 0)
(3.139704205980011 2.029150889124145 0)
(-0.7690196845927367 0.2418303473188877 0)
(19.4140126596896 -0.7286132569793308 0)
(7.302883769107911 -0.7957951935457682 0)
(0.2337402270670919 0.542992510981353 0)
(-2.595583632214867 0.1743980289241896 0)
(8.569166239133571 2.693900869628847 0)
(10.58535902454715 4.55949785074382 0)
(11.49760273181613 6.280345063655766 0)
(12.44951732211786 7.625632784397729 0)
(6.136699614410261 1.993695884664883 0)
(9.511377082012133 4.411053785442099 0)
(11.20128257515516 6.226219887231633 0)
(12.40430801725214 7.672156787829148 0)
(2.933332058118141 0.01198812691589622 0)
(7.442498500774751 3.331973530098761 0)
(10.26714687178967 6.03619727032442 0)
(12.02122535206799 7.596919804723193 0)
(0.2395655979188304 -0.1062472343504376 0)
(3.470301728673683 2.4759950631023 0)
(7.538065716666108 3.976203625161625 0)
(10.63465513720341 5.463986796740584 0)
(13.63848757074681 8.986482291983489 0)
(14.77053480540906 10.00814686159135 0)
(15.9194487852293 10.56578663762943 0)
(16.81353128855504 10.85599304313821 0)
(13.55816087689787 8.920998763037698 0)
(14.71381969974635 9.954785259804243 0)
(15.82396603849405 10.54167335786255 0)
(16.69640094803365 10.8814228110577 0)
(13.2358580901163 8.76417252068164 0)
(14.51737831185678 9.775723629929244 0)
(15.74209469635578 10.47462917208373 0)
(16.62307436195562 10.96198332671361 0)
(13.11737446062488 6.748234903880048 0)
(14.67202552521448 8.448567197047861 0)
(15.76611919166928 10.30180784328154 0)
(16.64566268519825 10.93921654567655 0)
(17.8279231476754 11.27568641138079 0)
(19.42337817659327 11.76985011412497 0)
(21.77504641647785 11.69322464981615 0)
(24.77797810171838 10.42095935070409 0)
(17.62278387133208 11.27976702574675 0)
(19.07492559316859 11.72985582341892 0)
(21.21153583778668 11.74952293628817 0)
(24.97582377650174 12.47347236236407 0)
(17.47370782236147 11.3688617905366 0)
(18.7229759526015 11.78346335369311 0)
(21.34547479952356 12.58553912118129 0)
(31.48515342429381 18.45883690130748 0)
(17.43735895098913 11.3931266657047 0)
(18.64012075942149 11.79211476133208 0)
(22.0680698379798 13.1748399374951 0)
(43.24393712522906 25.51573357804058 0)
(30.59387624344026 5.261207075639844 0)
(32.03811266242432 -3.582406850864117 0)
(12.65433353725402 8.691283350971272 0)
(7.857760964596236 30.84079361242632 0)
(32.23134887074054 4.900228536308071 0)
(26.46679627908784 -1.952387799051612 0)
(8.976527837069623 17.41678987537475 0)
(8.448218115549828 29.02681403818254 0)
(31.97400693891306 3.29251785363324 0)
(17.20846034170903 -4.302855929828958 0)
(3.828913332223155 21.32885787817725 0)
(4.611990916896267 29.02653172207752 0)
(20.30819279999212 -8.299022694369398 0)
(7.328058022551702 -0.5716238330639961 0)
(2.088280415439927 24.81805096683729 0)
(2.64815626932347 28.73391192119272 0)
(7.017614761860951 24.62063662928717 0)
(2.699511251844409 17.69700198239797 0)
(-0.7734279293090456 14.87149796835111 0)
(-2.833107650191391 9.937935959273947 0)
(6.712180213871303 23.57247721404458 0)
(1.915014150839908 19.24740128814971 0)
(-0.4568467528122372 14.98167507764048 0)
(-1.253590946824129 7.687160734538464 0)
(3.278192292645631 22.61473616882945 0)
(1.430388493730721 18.10665296343816 0)
(-0.3154123324743589 12.35858953872949 0)
(-0.8159267527688824 4.900425210822211 0)
(0.7861728348694688 22.03872520691574 0)
(-0.4547242286649849 17.36655749880903 0)
(-1.909240882249528 10.96802460042598 0)
(-1.738856102874888 3.28518358481816 0)
(-6.073795600785542 3.289730969083395 0)
(-2.016681462396283 0.2621338444211338 0)
(2.42902928643992 -2.420521323563733 0)
(4.457025175382293 -6.632208721761988 0)
(-6.812408998091656 3.051107236930678 0)
(-5.955710171646714 0.3487206577796418 0)
(-1.266712825371459 -0.7973802418456742 0)
(2.679171691668804 -5.575519572283872 0)
(-6.212869213859562 2.126683863527858 0)
(-7.806373675740836 0.6687032881783211 0)
(-4.517859517918039 0.3046472657220698 0)
(0.03249511713144142 -4.086227627775317 0)
(-4.585730645309753 2.184275830730634 0)
(-7.136613441690314 2.668560236853714 0)
(-5.229434214570875 3.072709587477163 0)
(-0.6498505344962371 -1.052233184325553 0)
(2.361402736154117 -6.935594820207852 0)
(2.29331264882292 -7.541107071665821 0)
(3.156942868823159 -7.215777065936974 0)
(4.463000127023286 -6.469174477637286 0)
(1.465773832844986 -6.803524304290562 0)
(1.926656787118161 -6.275256272710319 0)
(3.127053065783863 -5.840706436087654 0)
(3.899696538514529 -4.924403861357287 0)
(0.4567614474761056 -4.75079078178492 0)
(0.6585324720190189 -3.491326632622514 0)
(1.65536649859851 -3.003662109119861 0)
(2.1373592244113 -1.923675164838287 0)
(1.658923348416872 -1.986399227680744 0)
(1.31113587443076 -0.7525215312771482 0)
(1.877073950176324 -0.3122937692111075 0)
(1.653207318911735 0.6367207452533927 0)
(0.7800726176452538 1.147325197533943 0)
(-0.03300365271488238 1.28471908209902 0)
(-0.6587235263959949 0.9682875653322633 0)
(-0.9813173467991642 0.3366277534944556 0)
(1.587011099849094 -0.9804532357232796 0)
(0.5863156455712771 -0.4815386157441577 0)
(-0.257033463538681 -0.05723671804387408 0)
(-0.6750689805420855 -0.02422566480124943 0)
(3.363759220727078 -3.806017873679487 0)
(2.444074209751853 -2.796875991422575 0)
(1.338050771766535 -1.704885769037755 0)
(0.6067412589550258 -0.63852274050027 0)
(5.10702881626356 -4.816701074434915 0)
(4.969887741060665 -3.302412301287824 0)
(4.187908640251765 -2.022007605857089 0)
(3.720962733366864 -0.7293638713816438 0)
(-0.9813173468014552 -0.3366277534715734 0)
(-0.6750689805421878 0.02422566481103128 0)
(0.6067412589552813 0.6385227404949172 0)
(3.720962733368185 0.7293638713621414 0)
(-0.6587235263997309 -0.968287565312538 0)
(-0.2570334635395448 0.05723671805338931 0)
(1.338050771770939 1.70488576903522 0)
(4.187908640280237 2.022007605838358 0)
(-0.03300365271870756 -1.284719082086063 0)
(0.5863156455697041 0.4815386157512319 0)
(2.444074209751823 2.796875991421489 0)
(4.969887741080961 3.302412301288574 0)
(0.7800726176428181 -1.147325197523424 0)
(1.587011099851877 0.9804532357284795 0)
(3.36375922071984 3.806017873683965 0)
(5.107028816265583 4.816701074442671 0)
(4.463000127006881 6.469174477613126 0)
(3.156942868826895 7.215777065926614 0)
(2.293312648826122 7.541107071654885 0)
(2.361402736168678 6.935594820195255 0)
(3.899696538514043 4.924403861357246 0)
(3.127053065792688 5.840706436081371 0)
(1.926656787133739 6.275256272700601 0)
(1.465773832866196 6.803524304278467 0)
(2.137359224412922 1.923675164836645 0)
(1.655366498602161 3.003662109112971 0)
(0.6585324720297553 3.491326632622104 0)
(0.4567614474897759 4.750790781778998 0)
(1.653207318913734 -0.6367207452495974 0)
(1.87707395018397 0.3122937692154613 0)
(1.311135874440085 0.7525215312843526 0)
(1.658923348425462 1.986399227688671 0)
(-0.6498505344787383 1.052233184327782 0)
(-5.229434214534574 -3.072709587449266 0)
(-7.13661344165355 -2.668560236822798 0)
(-4.585730645282392 -2.184275830722177 0)
(0.0324951171467542 4.086227627773233 0)
(-4.517859517895075 -0.3046472656995072 0)
(-7.806373675683826 -0.6687032881609383 0)
(-6.21286921379708 -2.126683863497783 0)
(2.679171691682084 5.575519572275433 0)
(-1.266712825339152 0.7973802418696889 0)
(-5.955710171575877 -0.348720657753851 0)
(-6.812408998041383 -3.051107236879749 0)
(4.457025175394917 6.632208721757067 0)
(2.429029286464214 2.420521323585124 0)
(-2.016681462310154 -0.2621338444002156 0)
(-6.073795600687489 -3.289730969014652 0)
(-2.833107650184933 -9.937935959159596 0)
(-0.7734279293668884 -14.87149796835723 0)
(2.699511251883046 -17.69700198265901 0)
(7.017614761591705 -24.62063662940866 0)
(-1.253590946819903 -7.687160734474563 0)
(-0.4568467528232825 -14.98167507761308 0)
(1.915014150928851 -19.24740128823594 0)
(6.712180213905305 -23.57247721404516 0)
(-0.8159267527705051 -4.900425210797651 0)
(-0.3154123324790399 -12.35858953870527 0)
(1.430388493756131 -18.10665296346928 0)
(3.278192292663408 -22.61473616883961 0)
(-1.738856102869978 -3.285183584826164 0)
(-1.909240882255595 -10.96802460044349 0)
(-0.4547242286664129 -17.36655749881469 0)
(0.7861728348797749 -22.03872520693692 0)
(7.857760964234342 -30.84079361245665 0)
(12.65433353698927 -8.691283351279235 0)
(32.03811266237099 3.582406850911628 0)
(30.59387624344564 -5.261207075626273 0)
(8.448218115405757 -29.02681403820538 0)
(8.976527837016279 -17.41678987557644 0)
(26.46679627911366 1.952387799025653 0)
(32.23134887069838 -4.900228536283 0)
(4.611990916912685 -29.0265317221522 0)
(3.828913332169252 -21.32885787829094 0)
(17.20846034167141 4.302855929774929 0)
(31.9740069388599 -3.292517853622857 0)
(2.648156269329055 -28.73391192126271 0)
(2.088280415418104 -24.81805096696328 0)
(7.328058022574568 0.5716238329997223 0)
(20.30819279999966 8.299022694348912 0)
(24.77797810170643 -10.42095935068374 0)
(21.77504641647039 -11.69322464979272 0)
(19.42337817663489 -11.76985011412308 0)
(17.82792314766545 -11.27568641137186 0)
(24.97582377652783 -12.47347236236372 0)
(21.21153583780892 -11.74952293627764 0)
(19.07492559317139 -11.72985582340394 0)
(17.62278387138004 -11.27976702576932 0)
(31.48515342425793 -18.4588369012768 0)