/*--------------------------------*- C++ -*----------------------------------*\
  =========                 |
  \\      /  F ield         | OpenFOAM: The Open Source CFD Toolbox
   \\    /   O peration     | Website:  https://openfoam.org
    \\  /    A nd           | Version:  11
     \\/     M anipulation  |
\*---------------------------------------------------------------------------*/
FoamFile
{
    format      ascii;
    class       volVectorField;
    location    "1.275";
    object      U;
}
// * * * * * * * * * * * * * * * * * * * * * * * * * * * * * * * * * * * * * //

dimensions      [0 1 -1 0 0 0 0];

internalField   nonuniform List<vector> 
4455
(
(99.982569 0.029000008 0)
(99.883155 0.025814101 -1.065972e-18)
(99.695094 0.11351213 3.6722665e-18)
(99.403331 0.058229718 2.6120694e-20)
(98.92591 0.21638587 3.4997715e-18)
(98.39993 0.13221502 -1.3263682e-17)
(97.55188 0.42632029 5.9117853e-18)
(96.575778 0.21665243 0)
(94.999934 0.89379767 -3.6905076e-17)
(100.00222 0.077951831 -6.9245928e-18)
(99.892123 0.11798502 6.7654064e-18)
(99.692646 0.26106554 -8.3570752e-18)
(99.391206 0.22331343 1.4004928e-17)
(98.881725 0.38376933 -2.7016398e-17)
(98.342964 0.27070534 2.9691266e-17)
(97.389981 0.41005742 -2.8784561e-18)
(96.426708 0.15487288 4.2009104e-18)
(94.525964 -0.037392274 1.6079529e-16)
(100.0168 0.10377979 -7.221379e-18)
(99.926272 0.22569885 9.1625415e-18)
(99.687901 0.38786553 8.1814517e-18)
(99.400905 0.43775956 -8.1686098e-18)
(98.849708 0.57451362 3.6037996e-17)
(98.313716 0.56576279 -2.050823e-17)
(97.335027 0.68131219 2.6197086e-18)
(96.26897 0.23061956 -5.9855775e-17)
(94.380808 0.53170637 -1.1398268e-16)
(100.0193 0.13057454 5.9374059e-20)
(99.951897 0.31376985 -1.0572943e-18)
(99.699572 0.53271412 1.9351277e-17)
(99.408191 0.60787805 2.6727435e-18)
(98.877791 0.83614654 5.1583724e-21)
(98.267935 0.77412932 -3.9180734e-18)
(97.270847 1.1627243 4.4123999e-17)
(96.043367 0.48811867 1.1978957e-16)
(94.022227 1.2598902 9.5577274e-17)
(100.04105 0.17284212 1.3957647e-17)
(99.965684 0.36967419 -1.5671373e-17)
(99.72716 0.67820777 1.9954594e-17)
(99.415267 0.7607493 2.9411547e-20)
(98.912944 1.0916429 -2.4644468e-17)
(98.263589 1.0045589 -7.6353463e-18)
(97.206941 1.4189676 -3.4787533e-17)
(95.893478 0.70145805 -5.6396512e-17)
(93.636618 1.5637257 -2.8301893e-16)
(100.0468 0.19299381 0)
(99.995372 0.43582684 0)
(99.75899 0.79696228 -3.4840934e-17)
(99.442882 0.91769174 -4.0220973e-17)
(98.969628 1.3199117 0)
(98.297794 1.3215031 -5.5066116e-17)
(97.146426 1.842709 -4.702292e-18)
(95.637084 1.055746 -3.421776e-18)
(93.123709 2.1385686 3.5083994e-16)
(100.0778 0.21839879 0)
(99.992485 0.46602522 -9.3821056e-19)
(99.811886 0.91693508 1.0560364e-18)
(99.477661 1.0489434 3.9311954e-17)
(99.020242 1.5052589 -2.9314109e-18)
(98.339794 1.5209458 1.1721129e-16)
(97.182589 2.1172506 0)
(95.505191 1.3174523 0)
(92.672235 2.7006431 1.6315218e-16)
(100.09381 0.23250692 2.600371e-17)
(100.01928 0.49962821 0)
(99.835015 0.99262037 0)
(99.556586 1.2161656 0)
(99.107392 1.7372367 0)
(98.391347 1.8413871 -5.8499061e-17)
(97.136333 2.540123 -6.3438539e-17)
(95.315724 1.7237512 9.3790364e-17)
(92.130078 3.3847572 2.739299e-18)
(100.11652 0.23766809 -2.5606192e-17)
(100.03632 0.51846666 -8.9656414e-19)
(99.877352 1.0411095 -1.026781e-18)
(99.589516 1.2825327 2.3104422e-18)
(99.21612 1.8722155 9.0012403e-17)
(98.500371 2.0112676 1.0265382e-16)
(97.244408 2.8429702 2.0184865e-16)
(95.160652 2.0779372 -9.2035492e-17)
(91.631869 4.0423443 -2.8092995e-16)
(100.12387 0.23757644 0)
(100.13484 0.22796449 4.6978799e-17)
(100.13308 0.21349228 -4.6605036e-17)
(100.13031 0.19114616 4.4358938e-17)
(100.12575 0.16651197 -4.3361944e-17)
(100.11193 0.1368306 8.6143731e-17)
(100.09602 0.10531725 -8.3628361e-17)
(100.07934 0.071950508 0)
(100.0369 0.029163825 0)
(100.06965 0.53813503 0)
(100.08535 0.5388726 8.1794945e-19)
(100.11544 0.53295282 0)
(100.12664 0.51239513 2.317366e-18)
(100.14473 0.48252778 4.700559e-17)
(100.16393 0.44523083 -1.4012021e-16)
(100.15974 0.39323219 9.0621893e-17)
(100.18678 0.34545147 -1.3774067e-18)
(100.14632 0.23444291 8.6834197e-17)
(99.926933 1.1129854 6.0032848e-17)
(99.983733 1.1526901 -1.1807466e-16)
(100.03757 1.1700754 1.1228844e-16)
(100.10778 1.1672073 -3.7290127e-18)
(100.14309 1.1377797 -5.2669756e-17)
(100.22679 1.1071737 -1.596949e-18)
(100.24487 1.0321258 0)
(100.3415 0.98247909 2.9851074e-18)
(100.33938 0.81315666 -1.4443178e-18)
(99.67758 1.4169663 6.307657e-17)
(99.761694 1.5194754 -1.2795881e-16)
(99.846116 1.5876387 1.2121859e-16)
(99.969193 1.6455542 -5.8634027e-17)
(100.04068 1.649716 -3.6617539e-18)
(100.18109 1.6724764 1.7455457e-18)
(100.24363 1.6188072 0)
(100.40428 1.6047667 -1.6280588e-18)
(100.4238 1.4396955 9.7702189e-17)
(99.287063 2.0777819 -7.229919e-17)
(99.468162 2.2864111 0)
(99.544962 2.4300406 -6.6073136e-17)
(99.754293 2.5847551 6.8119929e-17)
(99.844839 2.6551513 -6.0955367e-17)
(100.06441 2.7642173 6.2980087e-17)
(100.16931 2.7640394 0)
(100.40655 2.841335 0)
(100.49316 2.6975879 3.4800239e-18)
(98.563839 2.2950664 -8.9539522e-17)
(98.741137 2.6229664 -8.5038102e-17)
(98.84076 2.8497833 8.1747193e-17)
(99.046193 3.1495193 7.7686021e-17)
(99.192372 3.2945503 -7.4895895e-17)
(99.42362 3.566399 0)
(99.609012 3.6136759 1.3649669e-16)
(99.861619 3.8599477 -1.0695277e-18)
(100.02446 3.754602 -2.5257631e-16)
(97.226557 3.2189363 -1.0689239e-16)
(97.425995 3.8162509 0)
(97.522682 4.0925806 0)
(97.801276 4.6166452 2.9598698e-18)
(98.005364 4.8082967 0)
(98.347461 5.3327756 0)
(98.641564 5.4544757 0)
(99.033131 5.9699818 0)
(99.325507 5.9566667 0)
(95.047354 2.5528598 4.3512223e-18)
(94.869939 3.5131138 0)
(94.971858 4.1266274 3.9102776e-18)
(94.956601 5.1634895 -7.1249763e-18)
(95.348173 5.6544334 -1.0650336e-16)
(95.539236 6.5652406 -9.9745238e-17)
(96.079654 6.8810028 1.9276577e-16)
(96.390737 7.6436001 1.8367823e-16)
(96.994413 7.7970221 -1.7381696e-16)
(90.852692 4.8702179 5.3463811e-16)
(90.263314 6.940023 -3.3072956e-16)
(90.156762 8.2371868 3.0670424e-16)
(90.618902 10.315468 -2.9166428e-16)
(91.316187 11.348567 -4.0552878e-16)
(92.271726 12.95074 7.5285933e-16)
(93.158842 13.612242 -4.7339066e-16)
(94.225541 14.833854 -2.1861709e-16)
(95.123072 15.212219 2.0566601e-16)
(100.05483 0.045994565 -1.1403258e-19)
(100.08379 0.064722881 1.1691128e-16)
(100.12893 0.089908118 -1.4036743e-19)
(100.18853 0.11815067 -1.1767167e-16)
(100.26142 0.14772808 1.1476668e-19)
(100.34949 0.17816085 1.1789279e-16)
(100.4534 0.20991717 -1.1846681e-16)
(100.57498 0.2423748 -1.149334e-19)
(100.72637 0.2848874 -5.9155688e-17)
(100.21086 0.26356291 -1.2463132e-16)
(100.25364 0.35677796 1.2517933e-16)
(100.36386 0.36636321 -1.2523579e-16)
(100.43852 0.48979506 0)
(100.59006 0.48644101 1.2553157e-16)
(100.69786 0.63619971 -2.5726901e-19)
(100.88689 0.61639417 -1.9811143e-19)
(101.03019 0.78930758 -1.2553335e-16)
(101.26267 0.74895238 6.2668091e-17)
(100.47401 0.88681455 1.327616e-16)
(100.51488 1.061023 -1.3330111e-16)
(100.68322 1.1096 -1.3363933e-16)
(100.73715 1.295032 1.3394405e-16)
(100.92872 1.3413249 -1.3436823e-16)
(101.00205 1.5528374 1.3390705e-16)
(101.23091 1.5980969 -1.343806e-16)
(101.32927 1.8463319 4.1729931e-19)
(101.60303 1.8846002 1.3410191e-16)
(100.61046 1.5602962 -1.4286771e-16)
(100.63911 1.8019402 -5.5932911e-19)
(100.84394 1.8978812 5.6433476e-19)
(100.87027 2.1403203 0)
(101.09356 2.2342612 -4.0456547e-21)
(101.14142 2.5081933 -1.432774e-16)
(101.40624 2.6016412 1.4564752e-16)
(101.48386 2.9205163 5.6559246e-19)
(101.80076 3.0033805 5.6501203e-19)
(100.73577 2.8815546 -6.047026e-19)
(100.75361 3.2011358 -1.5573284e-16)
(100.98523 3.3514366 -1.0012255e-19)
(100.97819 3.6454681 1.5676682e-16)
(101.22351 3.7883401 1.5700427e-16)
(101.24359 4.1167369 -1.5779032e-16)
(101.53675 4.2576578 -6.1004049e-19)
(101.59082 4.6357572 -6.0984619e-19)
(101.9438 4.7635794 -6.0947356e-19)
(100.3244 4.0056694 1.7219259e-16)
(100.31592 4.4096238 0)
(100.59207 4.6168308 0)
(100.5562 4.9904321 1.7170708e-16)
(100.8527 5.1842712 -1.7400345e-16)
(100.85304 5.5954128 -1.7331385e-16)
(101.20191 5.7814581 3.4616818e-16)
(101.24182 6.2385968 -1.0916604e-18)
(101.6494 6.4032367 -3.4572641e-16)
(99.697061 6.3996157 -7.7109314e-19)
(99.749014 6.8803629 0)
(100.01391 7.1756668 7.6830926e-19)
(100.03777 7.5646819 1.9382885e-16)
(100.33228 7.824138 -1.9502315e-16)
(100.41563 8.1943056 1.9391429e-16)
(100.76575 8.438006 -1.9433926e-16)
(100.90237 8.7857605 -7.5664312e-19)
(101.2863 9.0024117 1.9253697e-16)
(97.363037 8.3730608 -2.1992775e-16)
(97.843282 8.9829105 2.2282418e-16)
(98.198248 9.3950648 -2.2027817e-16)
(98.709256 9.9007439 2.1916291e-16)
(99.099924 10.218184 -2.145625e-16)
(99.648314 10.634659 1.8909413e-18)
(100.06122 10.861952 2.1557234e-16)
(100.60912 11.178428 1.6522502e-18)
(100.99018 11.296106 1.0496175e-16)
(96.081061 16.001046 0)
(96.72661 16.599508 -2.4434967e-16)
(97.60267 17.087293 4.8686521e-18)
(98.262119 17.42358 5.7112177e-18)
(99.157334 17.597089 4.7340439e-16)
(99.842189 17.550222 -2.3517037e-16)
(100.79132 17.217225 -2.2885792e-16)
(101.53183 16.548759 2.2984445e-16)
(102.52301 15.436503 1.1324584e-16)
(103.05727 14.186147 -1.3212873e-16)
(103.29373 12.849043 0)
(103.55392 12.054444 1.3016473e-16)
(103.27601 11.182615 -1.3019189e-16)
(103.01218 10.662946 0)
(102.20615 9.8381767 0)
(101.64581 9.4325086 0)
(100.60001 8.7171398 -1.4228848e-16)
(99.91774 8.504655 1.4228949e-16)
(101.44078 11.485247 -1.1956032e-16)
(101.70261 11.611942 0)
(102.04006 11.676092 0)
(102.21531 11.703054 0)
(102.38271 11.685121 0)
(102.40774 11.704445 0)
(102.36754 11.714073 0)
(102.2775 11.770875 1.1595524e-16)
(102.04765 11.828977 -2.3319846e-16)
(101.43541 9.2992293 -1.4747125e-18)
(101.78701 9.5783117 -2.1024938e-16)
(101.91052 9.8220825 0)
(102.24018 10.073978 -1.0310391e-16)
(102.31825 10.300248 1.031038e-16)
(102.60346 10.520838 0)
(102.61613 10.733609 0)
(102.84628 10.956284 0)
(102.77724 11.182249 0)
(101.68316 6.862877 1.8546732e-16)
(102.10952 7.0977077 0)
(102.14736 7.5446895 9.0872957e-17)
(102.57682 7.7710533 -1.8111803e-16)
(102.61393 8.2153689 9.0240136e-17)
(103.0444 8.4438859 0)
(103.06952 8.8937208 0)
(103.50236 9.1402227 0)
(103.50259 9.6049155 8.7143831e-17)
(102.00625 5.1789679 0)
(102.39736 5.3339153 1.6297709e-16)
(102.47152 5.7725721 -2.4389317e-16)
(102.89285 5.9269403 8.0911188e-17)
(102.97734 6.3836599 7.96728e-17)
(103.42525 6.5436201 -6.5157966e-19)
(103.51394 7.0207278 -1.5736881e-16)
(103.989 7.1945239 1.5600581e-16)
(104.07517 7.6973516 -7.7654973e-17)
(101.8956 3.363599 0)
(102.2583 3.462279 7.3732507e-17)
(102.37657 3.8562284 -7.3734781e-17)
(102.78228 3.9490507 0)
(102.92526 4.3739309 -1.4395825e-16)
(103.37404 4.4630916 1.4395967e-16)
(103.54007 4.9212646 7.0616188e-17)
(104.03505 5.0105154 -1.4049234e-16)
(104.22143 5.5062922 6.9874645e-17)
(101.71984 2.1707458 0)
(102.03733 2.2165725 0)
(102.17867 2.5397526 0)
(102.54188 2.5810781 -6.6676963e-17)
(102.71062 2.9415035 1.327991e-16)
(103.1218 2.9779029 -1.316496e-16)
(103.32015 3.378248 6.5526536e-17)
(103.78468 3.4099733 -6.4204029e-17)
(104.01452 3.8549499 1.2767492e-16)
(101.43416 0.94837783 -1.2672968e-16)
(101.71474 0.90205191 4.2914187e-19)
(101.92166 1.1391306 6.2742711e-17)
(102.24693 1.0779973 -6.1774766e-17)
(102.49235 1.3465746 6.1774786e-17)
(102.86391 1.266468 0)
(103.15001 1.5658442 6.001759e-17)
(103.57565 1.466102 -1.1935666e-16)
(103.90644 1.8035898 5.9339068e-17)
(100.81895 0.34010137 3.0081941e-19)
(101.05128 0.34992129 5.9616562e-17)
(101.1988 0.47316003 5.8958156e-17)
(101.5049 0.48247492 -5.8958162e-17)
(101.67537 0.59983847 0)
(102.02643 0.60876434 0)
(102.23511 0.72599387 -5.718216e-17)
(102.64627 0.73944901 1.1380587e-16)
(102.91474 0.86404398 -5.6623688e-17)
(103.38901 0.88814568 0)
(103.72563 1.0177271 -5.4607391e-17)
(104.26972 1.0515031 7.961095e-19)
(104.6786 1.1880732 8.6463952e-19)
(105.30032 1.2315863 9.3754635e-19)
(105.7906 1.3741433 5.2009091e-17)
(106.49756 1.4311315 4.98917e-17)
(107.08092 1.581533 -4.9891701e-17)
(107.88696 1.6525258 0)
(104.3945 1.6846045 0)
(104.77345 2.0673331 0)
(105.33054 1.9294249 -5.6080123e-17)
(105.76092 2.3638774 9.6710501e-19)
(106.39477 2.2075121 1.0350622e-18)
(106.88033 2.7009219 5.4077525e-17)
(107.60041 2.5265724 5.1783351e-17)
(108.1467 3.08853 -5.1782879e-17)
(108.96526 2.8962729 0)
(104.5387 3.883401 -6.3471534e-17)
(104.80143 4.3791039 0)
(105.39179 4.4063282 0)
(105.68892 4.9599352 -6.0006603e-17)
(106.35292 4.9884209 1.1899658e-16)
(106.68713 5.6089286 -1.0844146e-18)
(107.43392 5.6406314 -1.1584596e-18)
(107.81016 6.3390003 -5.6745907e-17)
(108.65142 6.3745642 0)
(104.76619 5.6009986 -6.8268536e-17)
(104.96966 6.1404838 6.8267651e-17)
(105.56861 6.2471885 0)
(105.78656 6.8390208 0)
(106.4461 6.964607 6.4513433e-17)
(106.67803 7.6207656 -6.4512426e-17)
(107.40773 7.7712157 6.2312983e-17)
(107.6565 8.5071142 -3.175588e-17)
(108.46997 8.686315 -3.0555309e-17)
(104.57945 7.8949292 -7.6213641e-17)
(104.65667 8.4323047 7.6211286e-17)
(105.1946 8.6647485 0)
(105.25767 9.2502353 0)
(105.83727 9.5285416 0)
(105.88338 10.180704 0)
(106.5173 10.514183 0)
(106.54722 11.255067 0)
(107.25283 11.650113 0)
(103.93873 9.88782 -8.7143794e-17)
(103.90093 10.377331 8.5980756e-17)
(104.34171 10.717791 -8.5974284e-17)
(104.25548 11.248074 8.4871249e-17)
(104.70709 11.660904 -8.486152e-17)
(104.56636 12.257201 0)
(105.04645 12.751974 0)
(104.85134 13.444915 0)
(105.3871 14.029571 0)
(102.95198 11.452219 0)
(102.80235 11.69707 -1.0099908e-16)
(102.93589 12.054071 1.0096641e-16)
(102.67863 12.355503 0)
(102.80405 12.821991 1.012973e-16)
(102.43048 13.214212 -1.01306e-16)
(102.58024 13.8139 0)
(102.08924 14.33171 5.1002444e-17)
(102.29285 15.071395 -1.0212304e-16)
(101.86581 11.973216 1.1706652e-16)
(101.42694 12.157191 1.1901367e-16)
(101.17677 12.392283 -1.190341e-16)
(100.56452 12.714587 1.216191e-16)
(100.25917 13.055554 -2.4474932e-16)
(99.487196 13.540827 2.47836e-16)
(99.142961 14.005994 -2.511263e-16)
(98.224919 14.683619 1.2640406e-16)
(97.862602 15.294724 0)
(98.770612 7.9886428 -1.490519e-16)
(98.012534 7.9722245 1.4905272e-16)
(96.785757 7.6331751 0)
(95.96064 7.7943242 0)
(94.651684 7.6223009 0)
(93.745802 7.9698014 0)
(92.336733 7.9824328 0)
(91.331892 8.5506017 -8.7624708e-17)
(89.807192 8.787346 8.7623323e-17)
(88.690489 9.6335738 9.1773331e-17)
(96.813651 16.200779 0)
(101.69832 15.770235 5.1131438e-17)
(105.14443 14.850831 0)
(107.27168 12.503067 0)
(108.74267 9.5201875 0)
(109.07752 7.1633825 2.6378823e-17)
(109.58008 3.5386614 2.3844219e-17)
(108.57602 1.8113287 2.3001601e-17)
(87.042756 10.160532 -9.1771342e-17)
(96.461604 16.981938 0)
(101.97041 16.629873 0)
(105.76695 15.529535 4.0292564e-17)
(108.07 12.962423 0)
(109.65748 9.7288609 -2.8496824e-17)
(110.02673 7.2011764 -5.1993549e-17)
(110.51191 3.3275759 -4.6903509e-17)
(109.49576 1.9004122 -4.5243261e-17)
(85.811083 11.380716 0)
(95.303772 18.161052 0)
(101.31158 17.592187 5.1299897e-17)
(105.4909 16.511518 -4.0293742e-17)
(108.08789 13.950678 0)
(109.96588 10.680259 2.8496608e-17)
(110.51359 8.0933275 2.5614971e-17)
(111.20537 4.0640206 2.3059128e-17)
(110.30767 2.0676795 2.2241653e-17)
(84.041929 12.300583 9.8142239e-17)
(95.002654 19.136608 0)
(101.65879 18.562114 -1.025553e-16)
(106.23438 17.282162 0)
(109.00206 14.472315 0)
(111.0027 10.915094 -2.6848703e-17)
(111.58544 8.1286937 -2.3910962e-17)
(112.2693 3.8315451 0)
(111.35592 2.1755703 -2.0524509e-17)
(82.71897 14.044098 -9.8142217e-17)
(93.772483 20.642346 -6.8993771e-17)
(100.97254 19.820188 5.1253812e-17)
(105.94962 18.458988 0)
(109.03531 15.618412 0)
(111.36327 12.002877 2.6848619e-17)
(112.14728 9.1363612 2.3910969e-17)
(113.04311 4.6682291 0)
(112.30753 2.3518756 2.0524505e-17)
(80.866106 15.505282 0)
(93.583954 21.83416 6.8992199e-17)
(101.4299 20.90302 -5.0887175e-17)
(106.83264 19.29121 0)
(110.08853 16.192584 0)
(112.54434 12.256059 -2.4911647e-17)
(113.35656 9.1611323 -2.1933748e-17)
(114.27576 4.4291615 0)
(113.49853 2.4797505 -1.8512528e-17)
(79.559733 17.997607 0)
(92.340546 23.730653 0)
(100.76874 22.496082 5.0887116e-17)
(106.61667 20.723327 -1.8652935e-17)
(110.16363 17.519889 -1.4809749e-17)
(112.97661 13.495214 3.6819313e-17)
(114.01187 10.295278 3.234649e-17)
(115.1076 5.3366026 0)
(114.60166 2.6588752 2.7206625e-17)
(77.81391 20.203935 0)
(92.366261 25.140081 -3.4957305e-17)
(101.38785 23.676153 0)
(107.63446 21.586171 1.864597e-17)
(111.36733 18.117499 1.4802964e-17)
(114.32148 13.754482 -5.958122e-19)
(115.37866 10.296409 -2.0224349e-17)
(116.56626 5.1501036 0)
(115.93782 2.8010795 -8.6941003e-18)
(76.841527 23.792361 -5.2488319e-17)
(91.204852 27.556938 3.494888e-17)
(100.81787 25.745492 0)
(107.55524 23.385698 0)
(111.56956 19.767233 0)
(114.87593 15.236205 -2.1967689e-17)
(116.16327 11.596564 6.5244689e-19)
(117.44719 6.0844787 0)
(117.18679 2.9715972 0)
(118.86866 3.1338441 0)
(119.10438 5.9546318 0)
(117.69826 11.494562 1.5297061e-19)
(116.32189 15.316303 1.1151713e-17)
(112.92839 20.143137 0)
(108.77254 24.078651 -2.3835149e-18)
(101.79641 26.799491 -6.7589803e-19)
(91.788585 29.047777 -2.883245e-17)
(75.712714 26.832444 9.731201e-17)
(120.46934 3.2522443 -3.0618333e-18)
(120.10093 6.7393958 -4.493665e-19)
(118.65363 12.682019 4.5997476e-18)
(117.1336 16.753817 -8.655842e-20)
(113.51672 21.780442 -5.3311806e-18)
(109.05942 25.925626 7.9663951e-18)
(101.77115 29.087908 -3.2754017e-18)
(91.460539 32.031032 3.6849009e-17)
(76.484178 31.629617 -4.926253e-17)
(122.11186 3.3509828 5.7711067e-18)
(121.98176 6.5957667 0)
(120.51525 12.615403 7.341278e-18)
(118.77729 16.756964 -4.2004344e-18)
(115.20222 22.040545 5.3215958e-18)
(110.7086 26.487726 -1.4796763e-17)
(103.56585 29.967609 -1.409982e-17)
(93.559396 33.231288 8.1822325e-18)
(79.028733 33.373467 1.5720078e-18)
(123.87287 3.4487672 -2.7092471e-18)
(123.09671 7.3537131 -3.5575224e-19)
(121.60332 13.786944 -3.1098081e-18)
(119.80907 18.33567 4.8250292e-18)
(116.07703 23.850877 1.9877905e-18)
(111.33663 28.507942 7.7256494e-18)
(104.0283 32.395038 1.1108957e-17)
(93.92186 36.097995 4.4690647e-18)
(80.345526 37.393302 -5.1175853e-18)
(125.76339 3.5510145 4.3540723e-19)
(125.26123 7.2269734 -4.9051949e-19)
(123.74689 13.731842 -3.8037131e-19)
(121.6667 18.209532 1.2341235e-18)
(118.03695 23.9554 -1.9365314e-18)
(113.30751 28.903674 -2.4464038e-18)
(106.21601 33.07959 -2.9627121e-18)
(96.390382 37.080649 3.3457365e-18)
(82.426696 38.659376 -6.4427045e-18)
(127.7702 3.6559591 -4.4054342e-19)
(126.50274 7.9984841 4.9642904e-19)
(124.96738 14.856559 -3.1833382e-19)
(122.92126 19.89232 -4.0532638e-20)
(119.14132 25.860524 -4.8914871e-19)
(114.17546 31.009927 1.6920387e-18)
(106.91831 35.539503 -2.8257844e-18)
(96.955029 39.89839 3.1987677e-18)
(83.747291 42.207757 0)
(129.87794 3.7523005 -1.5250668e-19)
(128.95221 7.9009696 -1.7323328e-19)
(127.37363 14.797599 -1.5942931e-19)
(124.9651 19.622261 -3.7679641e-19)
(121.27308 25.813434 -4.6537163e-19)
(116.29421 31.239719 1.7505418e-18)
(109.22383 36.040971 -4.6311009e-18)
(99.45847 40.662244 7.0745208e-18)
(85.820547 43.110411 -4.6725162e-18)
(132.08802 3.8380471 1.3858705e-19)
(130.31353 8.6626465 1.3779871e-19)
(128.72873 15.852204 5.4478955e-19)
(126.43761 21.380094 9.4102093e-19)
(122.60086 27.773515 1.3856264e-18)
(117.45293 33.399064 -5.4665315e-19)
(110.18471 38.511715 -2.5009866e-18)
(100.30409 43.443534 -1.0219064e-18)
(87.409697 46.285924 -5.4471086e-18)
(134.40084 3.9034856 7.4674644e-19)
(133.01561 8.5723328 -1.3951684e-19)
(131.38096 15.771824 -4.9177496e-19)
(128.64219 20.956644 -6.6123355e-19)
(124.86984 27.558636 1.6621524e-18)
(119.66294 33.452906 1.8525878e-18)
(112.60999 38.800086 -1.0969962e-17)
(102.93684 43.972944 2.6344161e-18)
(89.565965 46.908809 1.0201241e-17)
(91.364885 49.824176 -9.4585467e-18)
(104.0644 46.712026 3.4622183e-18)
(113.8629 41.260415 1.4747306e-17)
(121.12433 35.581179 -1.542278e-18)
(126.44709 29.549326 -4.2118259e-19)
(130.33319 22.766025 -1.1705424e-19)
(132.89223 16.728837 2.9221241e-20)
(134.48755 9.3048553 6.0276869e-20)
(136.82073 3.9540005 -2.2867756e-18)
(93.529705 50.266175 3.4488247e-17)
(106.83188 47.021078 2.1322011e-18)
(116.41966 41.31034 -1.8452255e-17)
(123.47975 35.530292 -2.2484326e-19)
(128.8441 29.13383 -1.0558891e-18)
(132.68814 22.175953 -1.1242683e-19)
(135.75482 16.606532 3.2762708e-18)
(137.41284 9.2140967 0)
(139.34109 3.9801915 1.5094397e-18)
(95.457048 52.99707 -4.393457e-17)
(108.20894 49.720642 2.1843301e-17)
(117.96463 43.735704 8.9241042e-18)
(125.20402 37.526412 -9.5170914e-20)
(130.69491 31.123396 -1.1452739e-18)
(134.54137 23.979486 1.3162049e-19)
(137.46949 17.434217 1.2964944e-18)
(138.99917 9.9062237 -5.1741665e-18)
(141.95874 3.9907341 -6.4037424e-18)
(97.598808 53.296536 -7.861908e-18)
(111.07964 49.821669 1.1571112e-18)
(120.62434 43.534491 -1.3097665e-18)
(127.71867 37.392134 0)
(133.20687 30.476604 1.35065e-18)
(137.06953 23.293581 0)
(140.50572 17.244617 -4.6756661e-18)
(142.09175 9.804791 1.2359285e-17)
(144.66196 3.9732403 -1.8239365e-18)
(99.70519 55.886165 -2.8456705e-18)
(112.71856 52.48966 -1.3545778e-17)
(122.46056 45.89649 9.9564748e-19)
(129.6708 39.211199 0)
(135.33199 32.427097 6.1908609e-18)
(139.107 24.980852 -7.4872874e-18)
(142.40285 17.914568 -4.3831836e-19)
(143.83738 10.438925 -1.6453882e-17)
(147.4456 3.9368892 8.4071601e-18)
(101.88348 56.022014 -2.8953758e-17)
(115.68035 52.361538 -7.544086e-18)
(125.18596 45.427677 -8.2356376e-19)
(132.31776 38.976493 1.5043949e-19)
(137.9259 31.534748 2.9398338e-18)
(141.78889 24.243362 1.7838631e-17)
(145.57847 17.631373 -5.7057262e-19)
(147.0491 10.310682 9.257898e-18)
(150.29563 3.8682929 0)
(104.26793 58.483408 1.9979447e-17)
(117.60593 54.951625 1.0535149e-17)
(127.31446 47.683908 -8.408659e-19)
(134.47429 40.596745 4.9331644e-19)
(140.3077 33.405655 -7.7961794e-18)
(143.99382 25.756176 -1.0716161e-17)
(147.61677 18.122211 -8.139045e-19)
(148.93405 10.872258 7.4578674e-19)
(153.20293 3.7783308 0)
(106.55029 58.461787 0)
(120.66529 54.61545 1.5426391e-19)
(130.11853 46.91858 -1.3149653e-19)
(137.23085 40.244099 2.1760419e-17)
(142.97536 32.254725 6.6021998e-19)
(146.80083 24.946796 -2.9105251e-17)
(150.88333 17.7261 3.1751435e-17)
(152.24062 10.702761 -3.1279979e-17)
(156.14167 3.6532123 -3.4330566e-17)
(109.23865 60.75354 2.7385271e-17)
(122.89228 57.010354 -6.6982377e-18)
(132.37972 48.98865 5.7520156e-19)
(139.56962 41.643811 -2.2979343e-17)
(145.51115 34.0155 1.0621274e-18)
(149.15189 26.256348 2.9608452e-17)
(153.00993 18.024039 -3.4245363e-17)
(154.23799 11.1793 3.2754053e-17)
(159.09288 3.5168603 -4.4656533e-18)
(162.25237 3.3406223 3.8912689e-17)
(157.63601 10.940167 -4.0200228e-17)
(156.34626 17.499296 0)
(152.12131 25.326042 2.191815e-18)
(148.34894 32.596069 -4.1304379e-17)
(142.52263 41.137316 -3.4282481e-17)
(135.49223 47.969777 0)
(126.29894 56.46365 -9.3010698e-18)
(111.95216 60.595077 -2.6458795e-17)
(165.23126 3.0948239 0)
(159.76713 11.203647 4.1607465e-17)
(158.55353 17.509337 0)
(154.73539 26.286934 2.5912316e-18)
(151.16819 34.08186 8.3103841e-17)
(145.28545 42.204325 3.7267269e-17)
(138.25893 49.729832 -3.7183359e-17)
(129.28172 58.735179 1.5991826e-17)
(115.80995 62.948742 1.2434921e-18)
(168.10144 2.7517996 0)
(163.25219 10.785371 0)
(161.89495 16.836743 5.5046909e-17)
(157.86246 25.145809 0)
(154.21774 32.417546 -4.725572e-17)
(148.47957 41.465448 5.0777869e-17)
(141.69717 48.320343 3.3833764e-17)
(133.17739 57.73707 2.4391191e-18)
(119.42167 62.461535 -1.4321522e-17)
(170.83939 2.3390309 0)
(165.43113 10.867201 0)
(164.08128 16.65359 -5.618959e-17)
(160.58161 25.803443 -5.7999784e-17)
(157.10103 33.612937 -6.2573658e-17)
(151.40483 42.210324 -5.6011066e-17)
(144.55733 49.659535 0)
(136.39146 59.431251 -4.9807655e-17)
(123.95341 64.331749 1.1183667e-17)
(173.50383 1.8833772 -9.4060853e-19)
(168.90045 10.323954 1.0350418e-18)
(167.36104 15.827249 0)
(163.72461 24.433498 -6.4471284e-18)
(160.21761 31.736263 1.3856568e-16)
(154.63599 41.27271 -4.4119175e-18)
(148.02528 47.952741 -6.4684319e-17)
(140.15252 58.016711 5.4438196e-17)
(128.05057 63.481139 -4.9258366e-17)
(176.02585 1.4015944 1.0345163e-18)
(171.03267 10.282071 -1.1403989e-18)
(169.50258 15.446118 0)
(166.4482 24.780345 7.5474059e-17)
(163.12496 32.621033 -8.2270812e-17)
(157.63667 41.727763 5.0699204e-18)
(150.8129 48.988875 6.6902856e-17)
(143.25527 59.115606 0)
(133.30561 64.637938 4.9094297e-17)
(178.37004 0.90607478 -1.1299829e-18)
(174.37648 9.6270309 -7.7511849e-17)
(172.67975 14.465424 2.4267133e-18)
(169.50035 23.179251 -8.388987e-17)
(166.2262 30.529939 -9.5712415e-17)
(160.86077 40.621979 0)
(154.14243 47.149019 0)
(146.53252 57.275295 8.815741e-17)
(138.12856 63.191731 0)
(180.67435 0.29878781 0)
(176.33537 9.444527 8.0384693e-17)
(174.70622 13.90953 0)
(172.1227 23.238691 9.393168e-17)
(169.10084 31.073457 8.6396362e-17)
(163.91491 40.808702 -1.0415952e-16)
(156.73093 48.127189 0)
(149.07289 57.789895 -9.7850463e-17)
(144.2843 63.277587 1.3511123e-16)
(181.93945 -0.26816349 0)
(179.42342 8.6561116 0)
(177.68847 12.808466 2.9180765e-18)
(174.97639 21.420175 2.8993376e-18)
(172.18966 28.669905 -6.8879906e-18)
(167.11125 39.539924 1.0752324e-16)
(160.34432 46.189912 0)
(151.44276 55.488444 0)
(149.05655 61.20098 -1.3458504e-16)
(184.05848 -0.50191142 2.8118076e-18)
(181.04858 8.4928948 -1.6357129e-19)
(179.54414 12.100536 -1.0361632e-16)
(177.41477 21.274222 0)
(174.73111 29.086934 0)
(170.20607 39.511464 6.3505713e-18)
(162.14193 48.403026 1.0432606e-16)
(152.30103 56.4377 -3.2916723e-18)
(153.9056 61.285441 0)
(186.14414 -1.1259234 2.8501856e-18)
(183.7609 8.3984735 -1.4969179e-19)
(182.31579 12.254192 9.3739313e-17)
(179.92685 21.694608 0)
(177.36171 29.623913 0)
(172.61624 41.553904 -6.5323828e-18)
(163.39755 49.86431 -3.197919e-16)
(151.63722 58.277863 3.2374256e-18)
(147.44733 60.040463 -2.5854352e-16)
(187.49344 -1.0562162 0)
(185.07295 8.1809086 -1.942644e-16)
(183.92013 11.441863 0)
(182.09002 21.44766 -6.4627511e-18)
(179.51195 30.286799 7.0558793e-18)
(174.68338 41.963924 6.622172e-18)
(165.12565 52.507585 4.2750213e-16)
(147.80485 59.624341 -3.1915685e-18)
(130.36708 58.687421 2.4466305e-16)
(188.84423 -1.4381853 -1.8813599e-16)
(187.46036 7.7602485 1.8509745e-16)
(186.45183 11.446828 -2.0752618e-16)
(184.4501 21.871249 -2.1828152e-16)
(181.84602 30.807646 2.3740755e-16)
(176.56147 44.642073 -2.3956906e-16)
(165.18782 54.206942 -2.2140128e-16)
(143.99369 59.667118 -1.68751e-16)
(109.74699 70.005614 0)
(189.72021 -1.3967497 3.7465895e-16)
(188.54292 7.3383014 -1.9562417e-16)
(187.76198 10.62125 2.0075506e-16)
(186.50538 21.430618 -1.0156022e-17)
(183.91119 31.657216 -2.2871169e-16)
(178.36673 45.01393 -6.0511184e-18)
(164.98591 56.556724 0)
(137.24808 63.850833 1.6268516e-16)
(75.188496 76.254603 0)
(190.64089 -1.7563277 -3.6752631e-16)
(190.63159 6.5905115 1.8680841e-16)
(190.04638 10.477729 -2.1511811e-16)
(188.95421 21.654852 2.201179e-16)
(186.34483 31.835607 7.0431752e-18)
(180.56494 47.570569 2.2497566e-16)
(162.54782 59.423835 -2.1583556e-16)
(125.14276 58.779644 -1.7662288e-16)
(17.450316 18.237229 1.7761659e-16)
(191.11132 -1.8373723 1.8433653e-16)
(191.50037 5.9852809 -6.030354e-18)
(191.05888 9.6235956 2.0555758e-16)
(191.07673 20.761487 -6.8452758e-18)
(188.48848 32.655262 7.3844373e-18)
(181.87422 47.678663 2.5223842e-16)
(158.15702 58.974515 4.2711359e-16)
(98.917814 51.077017 1.6576906e-16)
(-3.8531996 18.931897 -1.6839689e-16)
(191.57163 -2.1196144 2.8017664e-18)
(193.35838 4.9124495 -2.986861e-18)
(193.04599 9.3011591 -2.075692e-16)
(193.66997 20.633689 -2.2903252e-16)
(190.81995 32.471204 2.4341561e-16)
(183.28914 49.473089 -4.971214e-16)
(151.17515 61.025838 -4.2464857e-16)
(74.781119 45.730087 -1.6934108e-16)
(-4.0099739 25.978896 1.6739508e-16)
(191.55359 -2.397477 -1.7252772e-16)
(193.9578 4.1188775 2.992791e-18)
(193.73565 8.4082351 -7.7536835e-18)
(195.80068 19.212085 2.2211037e-16)
(192.79682 33.189569 -2.2809366e-16)
(182.6062 50.231947 2.4348796e-16)
(139.35853 59.461226 2.0260099e-16)
(42.565889 24.196663 1.5911382e-16)
(-10.513945 29.246534 -1.5944047e-16)
(-12.420516 28.766503 -2.6877524e-16)
(22.640554 15.59772 -1.8080851e-18)
(127.32898 58.235036 5.2268193e-18)
(182.09829 50.376866 -4.3625276e-18)
(194.52468 32.864878 0)
(198.20904 18.793371 3.9641742e-18)
(195.34142 7.9009926 4.3451213e-16)
(195.55959 2.7712366 2.0625282e-16)
(191.32726 -2.6508274 3.3945676e-16)
(-13.767599 29.153321 2.6076156e-16)
(15.881928 15.021945 0)
(114.61814 55.96897 0)
(181.25182 50.238496 6.7753396e-16)
(196.35791 32.124083 0)
(199.96082 16.383951 -5.3536e-16)
(195.71635 6.546218 -6.7104037e-16)
(195.80094 1.7094173 -1.9558474e-16)
(190.87037 -2.8915827 1.6502848e-16)
(-14.618558 28.970582 2.1416252e-18)
(18.901534 26.969302 -1.7249138e-18)
(104.68202 52.170061 0)
(180.0522 49.579333 -6.6700306e-16)
(197.68086 31.635707 0)
(201.97205 15.745099 5.3008963e-16)
(196.98259 5.8647013 4.3454416e-16)
(197.01192 0.23711432 4.6203484e-18)
(190.18422 -3.0926525 -3.299247e-16)
(-15.968697 30.113896 4.9559688e-16)
(24.956737 38.74651 -4.9018797e-16)
(95.75368 51.54401 3.8476962e-18)
(178.14817 49.53725 0)
(199.18364 30.497987 -6.2857976e-16)
(203.34507 13.169955 0)
(197.06726 4.4720721 -3.4190684e-18)
(196.8298 -0.87095928 4.5816397e-18)
(189.26858 -3.256352 -1.3223145e-18)
(-16.886483 30.88492 -4.7612836e-16)
(25.378317 45.171833 -1.9745211e-17)
(88.250266 48.512422 6.1968861e-16)
(176.03517 48.284305 -4.775725e-18)
(200.15843 29.833958 -2.1752226e-17)
(205.03506 12.302139 0)
(198.02981 3.6270559 -4.3714987e-16)
(197.55947 -2.3606765 0)
(188.15176 -3.38887 0)
(-17.783377 32.305083 2.0525146e-18)
(23.691423 47.786154 4.7007236e-16)
(79.227936 47.898839 -1.2167168e-15)
(173.15354 48.434818 7.3447761e-16)
(201.26023 28.302226 6.2701891e-16)
(206.00044 9.5864495 5.6245943e-16)
(197.82489 2.1845031 4.2368522e-16)
(196.93125 -3.4467552 4.4597904e-18)
(186.84203 -3.4941773 -2.9312447e-16)
(-17.954152 33.289797 2.0262445e-18)
(20.069149 49.489535 -4.8951165e-16)
(71.16526 42.845528 6.1052172e-16)
(169.82268 46.859041 -7.1998893e-16)
(201.79789 27.547604 4.9291334e-18)