/*--------------------------------*- C++ -*----------------------------------*\
  =========                 |
  \\      /  F ield         | OpenFOAM: The Open Source CFD Toolbox
   \\    /   O peration     | Website:  https://openfoam.org
    \\  /    A nd           | Version:  11
     \\/     M anipulation  |
\*---------------------------------------------------------------------------*/
FoamFile
{
    format      ascii;
    class       volScalarField;
    location    "11.3";
    object      p;
}
// * * * * * * * * * * * * * * * * * * * * * * * * * * * * * * * * * * * * * //

dimensions      [0 2 -2 0 0 0 0];

internalField   nonuniform List<scalar> 
5472
(
97.324291
94.928218
92.535053
90.144499
87.78346
85.465994
83.205247
81.042877
78.962226
76.973231
75.107229
73.35137
71.757282
70.258814
68.96659
67.816571
66.864336
66.126572
65.567224
98.041114
95.817554
93.570092
91.313354
89.065167
86.843228
84.669077
82.561573
80.529957
78.580997
76.727144
74.986261
73.389784
71.899232
70.613106
69.460638
68.501407
67.672982
67.019221
98.71865
96.677911
94.57603
92.457949
90.327975
88.211129
86.122273
84.075132
82.089724
80.170826
78.328547
76.60714
75.005245
73.534328
72.23936
71.077635
70.104264
69.272586
68.678788
99.337441
97.460955
95.500695
93.524173
91.518859
89.504881
87.49997
85.531296
83.604456
81.720002
79.90835
78.193046
76.597001
75.147199
73.843303
72.686433
71.706736
70.889819
70.284263
99.887712
98.159283
96.363027
94.516998
92.61703
90.699674
88.79457
86.91481
85.042706
83.20814
81.427623
79.735248
78.162203
76.713513
75.409016
74.263343
73.290698
72.471532
71.849158
100.3871
98.794155
97.131744
95.405069
93.643737
91.847996
90.042689
88.234877
86.416809
84.646824
82.902675
81.239306
79.688182
78.262085
76.972928
75.82866
74.859474
74.05474
73.458459
100.79625
99.359242
97.837456
96.216156
94.571214
92.894493
91.196957
89.479797
87.734014
86.003373
84.302989
82.6855
81.152946
79.752054
78.481133
77.353835
76.394536
75.599942
74.989967
101.1697
99.846589
98.445948
96.960305
95.441154
93.866656
92.261649
90.626788
88.978138
87.315992
85.67056
84.092073
82.591518
81.218302
79.953254
78.848039
77.899646
77.116091
76.531686
101.48669
100.29779
99.014124
97.63919
96.219598
94.758558
93.259862
91.701388
90.133025
88.537842
86.952275
85.422753
83.974078
82.625778
81.386105
80.309073
79.359068
78.594167
78.017465
101.78128
100.67724
99.499457
98.258792
96.934779
95.559169
94.171683
92.729054
91.238283
89.698309
88.17932
86.693733
85.284738
83.966106
82.769347
81.709684
80.783016
80.03986
79.463286
102.03557
101.04231
99.948367
98.795498
97.576277
96.317595
95.000938
93.63869
92.235211
90.784574
89.338741
87.913117
86.556118
85.269527
84.10089
83.049042
82.158186
81.433082
80.880061
102.24172
101.32824
100.34339
99.283171
98.159999
97.005796
95.780121
94.504933
93.166959
91.790166
90.404056
89.051413
87.746032
86.505292
85.380447
84.347261
83.476382
82.766258
82.235959
102.43615
101.60794
100.69666
99.724525
98.703273
97.627118
96.481395
95.287719
94.036443
92.74815
91.42013
90.120487
88.86085
87.674699
86.583103
85.593514
84.748701
84.057649
83.542392
102.58904
101.82954
101.01019
100.11714
99.172316
98.175745
97.117861
95.999116
94.831745
93.620375
92.369632
91.136679
89.919386
88.777011
87.711716
86.762083
85.949422
85.294123
84.79588
102.72942
102.0534
101.3029
100.48051
99.610674
98.686747
97.707867
96.651471
95.55003
94.405121
93.237122
92.074083
90.929562
89.830418
88.801339
87.877351
87.07362
86.43517
85.970068
102.84373
102.23427
101.54586
100.79275
99.990932
99.148051
98.246672
97.261847
96.222695
95.131678
94.029111
92.923263
91.842357
90.792647
89.815605
88.927649
88.161627
87.55547
87.094177
102.97255
102.40693
101.77531
101.08562
100.33926
99.552898
98.715726
97.810744
96.844089
95.823075
94.783166
93.733921
92.696997
91.688663
90.750681
89.891203
89.167501
88.573493
88.138093
103.07842
102.56456
101.99019
101.35677
100.66736
99.933512
99.142692
98.293191
97.385941
96.433737
95.460186
94.478433
93.494263
92.531845
91.627212
90.807822
90.114264
89.539195
89.12196
103.18743
102.71757
102.18345
101.59437
100.96679
100.29203
99.550778
98.751718
97.892841
96.992859
96.07281
95.139932
94.204952
93.289501
92.417978
91.63588
90.963866
90.422067
90.01772
103.2888
102.86212
102.36772
101.8206
101.23609
100.60518
99.918288
99.172317
98.364713
97.515432
96.645095
95.758217
94.868592
93.997557
93.160808
92.400105
91.751898
91.231639
90.841602
103.39996
103.01075
102.5578
102.04969
101.49478
100.89776
100.2526
99.547038
98.786014
97.983694
97.154546
96.306959
95.453162
94.622959
93.839821
93.114417
92.491592
91.981019
91.605531
103.49661
103.14986
102.73493
102.26722
101.75483
101.19413
100.57938
99.906634
99.184542
98.425429
97.635327
96.821289
95.990029
95.167747
94.387451
93.685017
93.089647
92.599994
92.232019
103.60637
103.29276
102.9134
102.47877
101.99815
101.46907
100.88728
100.24744
99.55549
98.822951
98.067767
97.299401
96.521572
95.760374
95.023019
94.342482
93.727144
93.232609
92.874144
103.71549
103.4421
103.10528
102.70983
102.26047
101.76126
101.20564
100.58958
99.913573
99.187599
98.427137
97.644057
96.849265
96.066442
95.33846
94.672569
94.106966
93.629164
93.27458
103.80327
103.57916
103.28891
102.93358
102.5198
102.05571
101.54019
100.97164
100.34376
99.665239
98.949835
98.207747
97.450048
96.686642
95.924096
95.225046
94.615312
94.120456
93.767869
103.89515
103.72927
103.48674
103.16549
102.77177
102.30907
101.78176
101.18958
100.54019
99.83785
99.093103
98.324407
97.545039
96.779188
96.046008
95.376487
94.783706
94.290178
93.945939
103.9599
103.88759
103.74521
103.52807
103.23622
102.86599
102.41528
101.88737
101.28076
100.60079
99.858227
99.064223
98.245602
97.41474
96.590112
95.803625
95.104276
94.557145
94.19174
65.092653
64.676007
64.655132
64.75806
65.065901
65.502663
66.056674
66.833468
67.613942
68.600076
69.654328
70.818331
72.124066
73.510507
75.037617
76.598208
78.228415
79.86971
81.566169
66.599535
66.296764
66.340353
66.486427
66.912436
67.422537
68.175571
69.095686
70.113107
71.347405
72.610043
74.076126
75.60359
77.266863
79.004185
80.795689
82.642433
84.50579
86.419329
68.196697
67.968286
68.009938
68.243899
68.747771
69.399511
70.33362
71.388386
72.657969
74.044065
75.559877
77.225822
78.973024
80.844789
82.747442
84.75226
86.763034
88.847636
90.91122
69.805699
69.60485
69.668118
69.996429
70.578355
71.40564
72.46324
73.704046
75.147897
76.69806
78.422828
80.22903
82.162945
84.141999
86.201864
88.318217
90.452149
92.646448
94.780514
71.395617
71.219598
71.33063
71.737058
72.433557
73.393792
74.586216
75.987817
77.554147
79.271954
81.119203
83.068038
85.098723
87.175138
89.31454
91.464981
93.632022
95.784655
97.861227
72.984198
72.828183
72.985969
73.476389
74.27214
75.351295
76.674858
78.197338
79.90661
81.745617
83.696922
85.741031
87.818304
89.950664
92.078943
94.202299
96.280579
98.289088
100.15349
74.53825
74.409513
74.617502
75.179729
76.08445
77.280996
78.711353
80.349132
82.15225
84.077879
86.107689
88.192544
90.292148
92.404057
94.4591
96.470095
98.355175
100.11557
101.70667
76.080578
75.969434
76.231617
76.871717
77.873342
79.13986
80.676238
82.410529
84.299914
86.295049
88.352682
90.437908
92.497219
94.513374
96.440376
98.256523
99.897794
101.39973
102.68554
77.581238
77.494499
77.797053
78.520748
79.59838
80.946794
82.576482
84.36682
86.316424
88.324683
90.38616
92.413816
94.383839
96.27102
98.016301
99.611822
101.01694
102.24654
103.25601
79.046063
78.981784
79.348254
80.133487
81.256339
82.68946
84.382811
86.224541
88.199893
90.196398
92.209405
94.129209
95.988386
97.694778
99.240803
100.61344
101.78396
102.76842
103.56531
80.465833
80.423734
80.848699
81.66754
82.846797
84.351463
86.076028
87.952309
89.911382
91.864527
93.784863
95.595647
97.304551
98.810024
100.16329
101.30566
102.2733
103.05682
103.65844
81.830285
81.845391
82.28703
83.133989
84.375264
85.931119
87.673423
89.547637
91.456087
93.344172
95.151942
96.826191
98.351706
99.668324
100.81802
101.73417
102.50434
103.03853
103.37961
83.146065
83.186476
83.63072
84.539155
85.83061
87.400909
89.143052
90.995275
92.83331
94.630654
96.305199
97.823073
99.158497
100.28603
101.2183
101.91076
102.44013
102.69656
102.79603
84.417964
84.464047
84.935742
85.887978
87.196157
88.770628
90.495965
92.29113
94.041872
95.72765
97.251444
98.601919
99.74921
100.67921
101.38512
101.87181
102.17023
102.25714
102.21799
85.612644
85.65579
86.165235
87.148998
88.462508
90.024585
91.720338
93.443289
95.099458
96.652851
98.018746
99.202521
100.15504
100.88654
101.40827
101.73989
101.89758
101.9488
101.93118
86.747916
86.796338
87.357986
88.326285
89.630953
91.170994
92.811618
94.446664
95.999265
97.406101
98.621569
99.642705
100.417
100.99108
101.39495
101.65325
101.78642
101.89547
102.02365
87.794925
87.876252
88.444142
89.395862
90.712807
92.217383
93.791361
95.336658
96.775152
98.039564
99.114305
99.979257
100.61066
101.08143
101.43104
101.69465
101.87931
102.07902
102.30228
88.788299
88.884438
89.422129
90.390414
91.696376
93.137213
94.642809
96.09519
97.418312
98.558515
99.501316
100.24035
100.77732
101.2061
101.55377
101.86065
102.11602
102.37872
102.63221
89.701743
89.801403
90.354967
91.348306
92.588
93.980608
95.421389
96.7735
97.986583
99.017265
99.84067
100.48913
100.99085
101.41028
101.78072
102.12784
102.42239
102.70247
102.9516
90.530052
90.609231
91.158119
92.115406
93.339596
94.7103
96.078864
97.34032
98.464586
99.392812
100.14309
100.72656
101.24334
101.66874
102.04878
102.40088
102.70618
102.99359
103.22974
91.315367
91.421877
91.999111
92.934559
94.117565
95.413536
96.683975
97.867877
98.915096
99.77381
100.46002
101.03307
101.5484
101.9639
102.3314
102.65137
102.94576
103.18207
103.33462
91.931925
92.010704
92.544992
93.477742
94.673726
95.943097
97.180688
98.309323
99.282604
100.12025
100.78613
101.35493
101.83047
102.23
102.58086
102.84454
103.05275
103.17118
103.16847
92.598095
92.726387
93.30688
94.244174
95.360862
96.554405
97.732205
98.798839
99.721269
100.50376
101.13339
101.65964
102.0853
102.43623
102.68012
102.83798
102.9073
102.83783
102.68216
92.985529
93.062645
93.608536
94.531696
95.691192
96.940674
98.125277
99.184442
100.0891
100.84168
101.45659
101.94242
102.31971
102.58062
102.71908
102.74891
102.62991
102.4036
102.15453
93.497614
93.653102
94.288086
95.254849
96.403959
97.582598
98.710495
99.714608
100.54666
101.2145
101.73778
102.12202
102.37442
102.49534
102.49754
102.37939
102.17158
101.94642
101.69158
93.666139
93.781889
94.381662
95.350787
96.52184
97.791165
98.995234
100.0169
100.8398
101.49329
101.98562
102.31981
102.4985
102.52781
102.41598
102.20204
101.92369
101.58653
101.22347
93.913365
94.121492
94.88651
96.025093
97.360015
98.675573
99.817808
100.73015
101.41474
101.90513
102.22279
102.36894
102.32967
102.15724
101.90635
101.61288
101.30952
101.02418
100.79966
83.254128
84.957085
86.628215
88.249298
89.913924
91.477975
92.948057
94.151855
95.060224
95.42352
95.228134
94.069216
91.460565
86.890525
80.550668
72.768492
62.290636
49.98546
37.895486
88.263762
90.102807
91.754575
93.487101
95.227818
96.857519
98.475964
99.771767
100.84464
101.36976
100.9602
99.383841
96.297879
91.569414
84.971315
75.991163
64.643115
51.993546
38.674102
92.961541
94.814772
96.492745
98.263801
99.948541
101.73467
103.30774
104.68799
105.72536
106.04607
105.45842
103.57038
100.03426
95.312422
89.129827
81.217966
71.876471
61.661061
51.64595
96.890872
98.6791
100.33911
101.99077
103.68169
105.36827
106.8362
108.14158
108.9651
109.22835
108.39916
105.79564
101.93416
97.53336
91.910863
85.357592
78.181092
70.821512
64.018328
99.843071
101.47333
102.93173
104.40377
105.96599
107.44286
108.79129
109.85748
110.52046
110.61978
109.68615
107.40106
104.00429
100.01641
95.204171
89.934658
84.487602
79.250994
74.716313
101.85872
103.22498
104.44069
105.69474
106.99705
108.18195
109.22677
109.95527
110.43852
110.56135
110.08055
108.47974
105.72847
102.22335
98.053361
93.727833
89.562253
85.741385
82.506343
103.07954
104.17805
105.15381
106.1424
107.13684
107.9813
108.71416
109.18211
109.55598
109.73032
109.32242
107.95259
105.61395
102.58758
99.073048
95.390326
92.102661
89.557877
87.670043
103.75708
104.63145
105.36891
106.14981
106.87492
107.4656
107.99568
108.37842
108.66173
108.32754
107.46428
105.64142
103.10524
100.08234
97.120825
94.218398
91.529028
89.45485
88.219218
104.11156
104.77128
105.34663
105.96655
106.44653
106.79444
106.96315
106.91882
106.75062
105.888
104.01345
101.24345
97.964792
94.565703
91.439043
89.113487
87.611807
86.838519
86.583499
104.24873
104.73834
105.22252
105.64424
105.85906
105.76031
104.99479
104.37193
102.93493
100.6352
97.403363
93.322307
88.811054
84.769865
81.727245
79.902196
79.351206
80.086719
81.736669
104.11244
104.49161
104.90259
105.174
105.18399
104.73758
103.54171
101.50578
97.970556
93.172428
87.695859
81.573281
75.374665
70.042709
66.681482
65.369213
65.826716
67.979275
71.54127
103.55978
103.81668
104.10352
104.21204
104.04261
103.46424
102.13714
100.22474
95.506827
87.873322
78.140258
67.540174
57.169625
47.901418
40.714072
36.872422
37.777904
42.957849
50.772843
102.70045
102.73037
102.78808
102.59571
102.06551
100.99434
99.22621
96.472123
91.72167
84.346113
74.941546
63.380693
50.436154
37.991261
28.432567
23.855208
25.664176
34.129067
45.428597
101.95552
101.86514
101.75076
101.42111
100.72405
99.562958
97.91671
95.480053
91.995448
87.001174
80.466938
72.713642
64.453663
56.443079
50.437202
47.397677
47.994866
52.360629
59.496759
101.79701
101.76394
101.67481
101.42588
100.89123
100.17842
99.194668
97.783231
95.922692
93.388876
90.034653
86.148023
81.864712
77.606557
74.169297
71.57668
70.521636
71.741772
74.864928
102.07875
102.12678
102.09658
101.93828
101.64315
101.28639
100.75749
100.01417
99.01478
97.604995
95.837814
93.741595
91.247328
88.755661
86.521481
84.922766
84.161758
84.246093
84.820642
102.48458
102.58846
102.60116
102.53957
102.36821
102.19735
101.91033
101.47928
100.88722
100.05015
99.027996
97.698196
96.137161
94.536843
92.73135
90.877085
89.460305
88.536956
87.793978
102.90265
103.0711
103.15026
103.14608
103.12624
103.09514
102.97115
102.73945
102.36374
101.82217
101.07212
100.06003
98.88456
97.45408
95.642661
93.630879
91.684343
89.885335
88.04036
103.30333
103.52716
103.62988
103.67974
103.80573
103.9042
103.92137
103.82401
103.62913
103.35773
102.87789
101.83477
100.34574
98.509609
96.158242
93.356439
89.891387
85.327148
79.931246
103.56259
103.74906
103.87615
104.04718
104.21571
104.3814
104.3929
104.38438
104.0137
102.8814
102.00166
101.85727
101.58973
100.30928
97.963706
94.794941
90.724528
85.76542
80.5486
103.5319
103.67411
103.83984
104.07081
104.2595
104.39916
104.46683
104.33151
104.40329
103.83711
102.43463
101.79098
100.79643
99.302923
97.318014
94.840706
91.84134
88.565795
85.363554
103.14728
103.26572
103.48712
103.702
103.88061
104.00154
104.14698
103.9237
103.8106
102.68659
101.03329
100.15801
99.426124
98.10649
96.59619
94.9954
93.379375
91.960144
90.975924
102.48666
102.59561
102.7619
102.89848
103.02556
103.10902
103.23116
103.21692
103.16587
102.72514
101.17145
98.373549
94.881544
92.024053
90.372334
89.652578
89.626309
90.370013
91.756925
101.87994
101.88324
101.93529
101.97971
101.95373
101.87953
101.74494
101.4698
100.99703
99.938113
98.047882
96.00847
94.384681
92.676728
90.5451
88.735795
87.695535
87.946327
89.227531
101.46509
101.41664
101.38773
101.33376
101.23114
101.1494
101.02587
100.87372
100.7587
100.53636
99.899958
98.838923
97.312655
95.26486
93.214661
91.637588
91.077787
91.471248
92.524809
100.9644
100.98288
101.03213
101.04899
101.0351
100.99748
100.92749
100.77629
100.51207
100.14174
99.75499
99.225162
98.655954
98.752784
99.182173
99.146467
98.763678
98.289921
97.882774
100.61573
100.68263
100.73056
100.73865
100.71179
100.70387
100.71306
100.76624
100.82973
100.89704
101.01689
101.04491
100.95086
100.55441
99.921385
99.456371
99.255454
99.258245
99.37911
25.486181
13.70126
6.038863
4.8312331
9.7053675
19.303014
32.811586
46.331627
58.145254
68.572897
77.118095
83.821003
89.091772
92.773052
95.397232
97.177579
98.315388
99.041866
99.384624
28.532363
20.430593
15.607442
15.359007
19.782479
27.762924
38.115433
48.991034
59.219241
68.244079
75.875735
82.104488
86.911907
90.688254
93.437545
95.47073
96.89133
97.89523
98.577048
43.215821
37.159866
33.958471
34.027608
37.284371
42.940696
50.167404
57.763605
65.128248
71.880211
77.668963
82.612044
86.57422
89.837639
92.428608
94.441745
95.966696
97.123516
98.006708
58.417897
54.599115
52.8659
53.217971
55.31724
58.905914
63.365228
68.297248
73.097823
77.558845
81.570874
85.056412
88.114534
90.626845
92.763522
94.518845
95.862336
96.93708
97.811919
71.168831
68.815824
67.898892
68.520032
70.030108
72.220349
74.902906
77.750412
80.765595
83.641063
86.310226
88.6296
90.804908
92.668931
94.23277
95.591074
96.660893
97.449641
98.147376
80.29463
79.236706
78.803638
78.95247
80.01247
81.582639
83.434732
85.417314
87.385855
89.163037
90.858434
92.404828
93.826169
95.1429
96.26234
97.237498
98.049627
98.599357
99.015355
86.259666
85.317444
85.192093
85.803089
86.811053
88.153892
89.496417
90.815184
92.326769
93.688358
94.830423
95.865591
96.758253
97.663258
98.428797
99.111669
99.698738
100.07486
100.24715
87.843993
88.167063
88.969256
89.94425
90.938538
92.157309
93.543167
94.768942
95.918845
97.013912
97.875481
98.702188
99.331068
99.912943
100.47463
100.93885
101.36849
101.63464
101.67176
86.980179
87.998126
89.514428
91.471157
93.29555
94.796931
96.165429
97.465554
98.572786
99.59749
100.35266
100.93746
101.43544
101.81534
102.18378
102.51676
102.83704
103.00848
102.97157
83.955375
86.241853
88.665288
91.472511
94.244579
96.453094
98.135442
99.551025
100.69491
101.55005
102.27743
102.81129
103.16452
103.40929
103.64417
103.84876
104.04567
104.17099
104.06909
76.07606
80.774822
85.222806
89.397992
93.386002
96.634793
98.96882
100.71162
102.1547
103.0897
103.68737
104.15226
104.47946
104.67011
104.78666
104.92121
105.03156
105.10775
104.99255
60.2454
69.82186
78.236025
85.12598
90.872214
95.385336
98.517801
100.69718
102.42588
103.61119
104.39511
104.85679
105.17938
105.39717
105.51504
105.61762
105.69896
105.74838
105.66796
56.980858
68.280857
77.462042
84.917808
90.874885
95.41279
98.533327
100.68733
102.39957
103.60732
104.46403
105.04614
105.45139
105.71622
105.87661
105.99511
106.07687
106.10126
106.05576
67.648544
75.732517
83.010821
89.126252
94.006908
97.673055
100.19899
101.75588
103.27457
104.46308
104.99192
105.42887
105.78765
106.04253
106.18389
106.26727
106.34736
106.34912
106.26835
79.082776
83.628254
88.236708
92.524408
96.2162
99.230875
101.53136
103.26967
104.36702
105.0643
105.9037
106.30681
106.41742
106.53892
106.61215
106.61421
106.62878
106.60945
106.49518
85.981143
87.800093
90.193965
92.817876
95.478226
98.046653
100.50075
102.63293
104.43214
105.46539
105.56525
105.94037
106.46766
106.69989
106.80332
106.80576
106.75777
106.72861
106.61512
87.328907
87.626262
88.470287
89.69606
91.415694
93.531343
95.895569
98.287042
100.54056
102.44335
104.23545
105.63855
106.18752
106.6258
106.74721
106.77316
106.70334
106.62545
106.56532
86.235408
84.77175
83.544891
83.030688
83.561978
85.061735
87.401259
90.717911
94.731244
99.05941
102.87558
104.89694
105.61317
106.13633
106.30274
106.34574
106.28868
106.15866
106.12581
74.531411
69.830782
67.213179
67.880702
71.376829
76.53943
82.804266
89.345836
95.342005
99.601217
102.3945
103.98171
104.67903
105.0489
105.26235
105.40395
105.42382
105.37548
105.35657
75.385061
70.79107
68.370467
68.054457
69.988273
74.184083
80.013027
86.390755
92.248541
96.877806
99.955057
101.78127
102.85047
103.55015
104.01311
104.35114
104.52732
104.60612
104.67418
82.702591
81.083116
80.89238
82.104623
84.555452
87.886119
91.472407
94.841872
97.727082
99.939846
101.44155
102.44526
103.09398
103.5531
103.86316
104.10057
104.2559
104.32904
104.40901
90.656733
91.267618
92.854977
94.6503
96.367404
98.260197
100.13829
101.64784
102.71726
103.39876
103.7843
104.06259
104.19558
104.27515
104.29454
104.31193
104.33654
104.3192
104.32663
93.397407
95.111267
96.978512
98.992434
100.72105
102.01719
103.16819
104.19609
104.67073
104.76604
104.81033
104.72232
104.60206
104.50024
104.40961
104.32383
104.24412
104.1736
104.1043
91.185827
93.574527
95.948923
98.301269
100.41853
101.90951
102.65589
102.99809
103.64124
104.26238
104.42088
104.34952
104.31242
104.16497
104.07596
103.97443
103.87326
103.78501
103.74081
94.01124
95.705328
97.385687
98.962012
100.33736
101.38312
102.08494
102.18723
103.20952
103.82555
103.66012
103.69806
103.59144
103.51639
103.41993
103.32243
103.21766
103.04738
102.98023
97.644503
97.571284
97.65699
97.871483
98.31856
99.156584
100.53624
102.26834
103.163
102.62336
102.19675
102.3859
102.35405
102.33056
102.27815
102.21487
102.14535
102.02126
102.00488
99.502243
99.698057
100.05008
100.50695
100.81209
100.94493
100.76509
100.5091
100.57057
101.16869
101.46158
101.33303
101.17147
101.04947
100.97836
100.93919
100.92321
100.89102
100.84679
99.47172
99.410992
99.13824
98.704812
98.153306
97.510576
96.808214
96.107379
95.360125
94.652985
93.915739
93.241448
92.578704
91.934316
91.369825
90.891586
90.483385
90.194767
90.001492
98.930659
99.124921
99.137556
98.961496
98.618785
98.153143
97.575624
96.981058
96.283423
95.606584
94.895147
94.175585
93.516622
92.847075
92.266855
91.782532
91.379138
91.101633
90.929081
98.633171
99.030273
99.262874
99.258811
99.087285
98.777427
98.327217
97.813127
97.196591
96.513872
95.843511
95.102178
94.41435
93.746492
93.1483
92.648105
92.244827
91.982953
91.837648
98.505693
98.977428
99.323533
99.463843
99.406196
99.224803
98.897433
98.464245
97.951764
97.313015
96.679089
95.968638
95.265893
94.603868
93.99806
93.494325
93.089171
92.845838
92.739739
98.728659
99.115534
99.435839
99.628476
99.649046
99.561316
99.337541
98.984292
98.557079
98.007736
97.4227
96.77111
96.088986
95.434736
94.83271
94.32251
93.932629
93.669952
93.616038
99.3635
99.573638
99.784931
99.92524
99.956378
99.917461
99.754296
99.479808
99.11714
98.637629
98.100227
97.5043
96.859605
96.226489
95.643003
95.127167
94.759189
94.513648
94.467601
100.34233
100.36233
100.39047
100.41088
100.39573
100.32649
100.18865
99.953215
99.637772
99.230735
98.731526
98.18386
97.588057
96.968892
96.403943
95.908267
95.543561
95.344417
95.292741
101.52223
101.35124
101.21547
101.08146
100.96322
100.83805
100.67426
100.45014
100.15936
99.792622
99.337893
98.820709
98.265753
97.692369
97.128775
96.667463
96.299301
96.130686
96.109561
102.71761
102.41519
102.13179
101.87528
101.64683
101.42575
101.2114
100.97101
100.67797
100.33236
99.913569
99.438398
98.896551
98.371686
97.822303
97.384383
97.039384
96.894043
96.90034
103.78849
103.44079
103.07509
102.71099
102.39354
102.09119
101.80147
101.52822
101.2059
100.86978
100.46543
100.01934
99.514428
99.010762
98.495294
98.068739
97.737627
97.61204
97.660927
104.68551
104.32978
103.94358
103.54148
103.13792
102.78647
102.43373
102.11042
101.75948
101.40373
101.00408
100.574
100.09826
99.617206
99.135384
98.719236
98.418823
98.290449
98.404501
105.39968
105.07521
104.68758
104.29395
103.86393
103.46528
103.06539
102.69344
102.31994
101.94421
101.53642
101.1131
100.65174
100.18795
99.748195
99.338482
99.091089
98.952916
99.093105
105.86211
105.62858
105.30138
104.9277
104.51566
104.09629
103.67577
103.27285
102.86613
102.46989
102.05856
101.63141
101.18665
100.72017
100.32409
99.92046
99.697651
99.60066
99.734289
106.10731
105.96961
105.73623
105.43098
105.05962
104.65285
104.22749
103.81953
103.39908
102.9829
102.56792
102.1246
101.70178
101.23384
100.84857
100.48869
100.26307
100.21816
100.34931
106.29295
106.1973
106.01638
105.78848
105.481
105.1207
104.72233
104.31028
103.8919
103.45682
103.04975
102.60008
102.17815
101.73662
101.33791
101.02168
100.79281
100.78223
100.93218
106.42413
106.33633
106.18311
106.00347
105.77226
105.4764
105.12654
104.72724
104.33646
103.89951
103.48394
103.0549
102.62312
102.20631
101.79745
101.50646
101.29341
101.299
101.47913
106.44704
106.38536
106.2705
106.13189
105.96682
105.72688
105.44696
105.07957
104.70846
104.31033
103.89045
103.46709
103.03145
102.63948
102.23972
101.95467
101.77028
101.78433
101.99133
106.19046
106.24787
106.22631
106.14812
106.04927
105.86452
105.64606
105.35122
105.00284
104.63091
104.22725
103.82676
103.40215
103.02569
102.65197
102.36135
102.19832
102.22015
102.4504
105.64712
105.84901
105.99726
106.03152
106.02011
105.92271
105.76166
105.54653
105.24918
104.9171
104.54648
104.17308
103.76003
103.36637
103.02174
102.73829
102.61136
102.63902
102.87863
105.02566
105.31409
105.5718
105.74099
105.83221
105.84691
105.76051
105.62126
105.39354
105.10973
104.76799
104.4026
104.03673
103.66386
103.33939
103.06579
102.94505
102.99902
103.24437
104.6119
104.85628
105.12388
105.37698
105.56085
105.67832
105.68914
105.63051
105.47957
105.26009
104.99603
104.6692
104.33018
103.96052
103.63426
103.3782
103.25695
103.33924
103.6026
104.39505
104.57975
104.78547
105.02619
105.2514
105.42908
105.53199
105.54773
105.47489
105.30658
105.07655
104.78644
104.47041
104.15346
103.85076
103.62155
103.51409
103.57966
103.87796
104.11287
104.32118
104.51194
104.72217
104.94114
105.1516
105.32972
105.42444
105.43444
105.34596
105.18943
104.97573
104.71319
104.40604
104.09582
103.85486
103.75712
103.85311
104.15076
103.82695
104.08606
104.31117
104.53939
104.74885
104.94528
105.13689
105.27564
105.33556
105.314
105.19306
104.99656
104.74569
104.47449
104.2103
103.99901
103.91647
104.02962
104.34874
103.26858
103.61013
103.88064
104.12391
104.36346
104.59463
104.83236
105.05181
105.20884
105.27169
105.23849
105.13059
104.94782
104.70535
104.42232
104.17995
104.06888
104.19601
104.5267
102.56358
103.13181
103.61668
104.00771
104.31832
104.5628
104.76966
104.97387
105.11859
105.19725
105.18919
105.08781
104.91849
104.69664
104.4472
104.22423
104.12479
104.26823
104.64245
101.35764
101.89148
102.44128
102.97266
103.44939
103.87511
104.24952
104.56902
104.84636
105.05527
105.16496
105.16904
105.07273
104.89283
104.64932
104.37077
104.19111
104.29809
104.70236
89.979738
90.088215
90.344073
90.744655
91.215784
91.889429
92.69088
93.649888
94.731352
95.898591
97.200077
98.604977
100.06008
101.62622
103.22972
104.88388
106.57236
108.2545
109.96838
90.926671
91.034929
91.302592
91.74635
92.302888
92.993878
93.815559
94.78019
95.835849
97.008996
98.290753
99.657499
101.06916
102.57049
104.10438
105.64387
107.22593
108.78764
110.3339
91.866013
91.994718
92.310923
92.766288
93.349997
94.06658
94.909655
95.871193
96.917295
98.091263
99.330091
100.65907
102.05509
103.46957
104.91853
106.37362
107.82774
109.26588
110.65776
92.790691
92.974512
93.295196
93.774018
94.368624
95.105915
95.951921
96.923731
97.963814
99.115943
100.34711
101.62348
102.97826
104.34183
105.69014
107.01868
108.34423
109.66022
110.93375
93.690234
93.911948
94.251935
94.747875
95.371992
96.108203
96.975064
97.936354
98.973175
100.09055
101.28846
102.53741
103.8135
105.09837
106.36822
107.59453
108.77518
109.9449
111.123
94.593475
94.828338
95.233383
95.704162
96.338216
97.092509
97.954502
98.89918
99.927012
101.02948
102.17765
103.35835
104.58091
105.78037
106.96097
108.09377
109.15264
110.2068
111.2597
95.457843
95.718173
96.087422
96.618196
97.266106
98.015263
98.883808
99.813943
100.82054
101.87377
102.99268
104.13133
105.26197
106.39537
107.47233
108.49872
109.47402
110.3995
111.32361
96.29381
96.58721
97.004006
97.515139
98.17019
98.91053
99.769692
100.68734
101.66817
102.6881
103.7319
104.82719
105.90317
106.93171
107.91208
108.8331
109.70752
110.54972
111.36796
97.116995
97.410775
97.834422
98.360131
99.005525
99.754698
100.58395
101.4888
102.43612
103.42906
104.42719
105.43129
106.42763
107.38377
108.27633
109.1179
109.90479
110.64186
111.37393
97.903853
98.218912
98.642265
99.179094
99.815434
100.56267
101.38019
102.26718
103.16913
104.10019
105.04245
105.98419
106.90385
107.78697
108.60136
109.33786
110.0215
110.69212
111.35923
98.648472
98.989185
99.414015
99.954045
100.58489
101.31192
102.10417
102.95087
103.8213
104.70035
105.58702
106.46331
107.31427
108.1161
108.84696
109.51105
110.12093
110.70129
111.28555
99.355498
99.710383
100.14464
100.67233
101.29405
101.99622
102.77357
103.59583
104.43393
105.26748
106.10135
106.90859
107.67084
108.39151
109.05154
109.6491
110.19923
110.69972
111.20423
100.03136
100.38436
100.83059
101.34497
101.97117
102.66292
103.40975
104.19249
104.97909
105.75522
106.51888
107.24651
107.95163
108.61265
109.21428
109.74819
110.23364
110.68341
111.11754
100.67363
101.03068
101.48113
101.99696
102.59643
103.25369
103.95861
104.70318
105.45166
106.18012
106.9
107.58091
108.2292
108.82775
109.35801
109.82505
110.2442
110.63788
111.00931
101.26864
101.62865
102.07532
102.57763
103.15973
103.80214
104.48129
105.19243
105.90624
106.58993
107.24077
107.85298
108.42792
108.95942
109.4328
109.85673
110.22697
110.56419
110.89268
101.82478
102.18681
102.62906
103.12616
103.68916
104.30655
104.94818
105.6184
106.28365
106.91718
107.50378
108.05992
108.59493
109.09432
109.53045
109.91258
110.23603
110.52601
110.80768
102.34197
102.70229
103.13691
103.62518
104.17122
104.75434
105.35893
105.99205
106.6142
107.21253
107.76433
108.27914
108.76053
109.20582
109.59097
109.91062
110.17958
110.42475
110.66784
102.808
103.1672
103.59118
104.0666
104.5826
105.14686
105.73421
106.33923
106.92599
107.47851
107.98536
108.44745
108.87271
109.2623
109.61306
109.91089
110.16621
110.3825
110.591
103.24264
103.59993
104.01445
104.48259
104.99105
105.53535
106.08403
106.64127
107.18473
107.68991
108.15517
108.58218
108.97525
109.33754
109.66405
109.93147
110.14893
110.32741
110.48969
103.62271
103.97648
104.37925
104.83346
105.31635
105.81683
106.36019
106.89557
107.40791
107.88542
108.32073
108.72103
109.08052
109.40042
109.69153
109.92608
110.11499
110.27256
110.41564
103.9801
104.32757
104.72496
105.17088
105.65099
106.15759
106.6638
107.15153
107.62696
108.07112
108.47293
108.8288
109.15697
109.44944
109.71638
109.93759
110.11402
110.26314
110.39345
104.25582
104.60341
104.99707
105.42754