/*--------------------------------*- C++ -*----------------------------------*\
  =========                 |
  \\      /  F ield         | OpenFOAM: The Open Source CFD Toolbox
   \\    /   O peration     | Website:  https://openfoam.org
    \\  /    A nd           | Version:  11
     \\/     M anipulation  |
\*---------------------------------------------------------------------------*/
FoamFile
{
    format      ascii;
    class       volVectorField;
    location    "0.425";
    object      U;
}
// * * * * * * * * * * * * * * * * * * * * * * * * * * * * * * * * * * * * * //

dimensions      [0 1 -1 0 0 0 0];

internalField   nonuniform List<vector> 
4455
(
(99.983093 0.03135113 0)
(99.884 0.030229903 -9.4017014e-19)
(99.698141 0.12107163 3.2405573e-18)
(99.407719 0.067129394 2.5920847e-20)
(98.935363 0.22731334 3.09643e-18)
(98.414092 0.14569915 -1.1751437e-17)
(97.576014 0.44211146 5.2411228e-18)
(96.608616 0.23499769 0)
(95.048731 0.91583582 -3.2921077e-17)
(100.00361 0.078641077 -6.101171e-18)
(99.894062 0.12131805 5.9629365e-18)
(99.695808 0.26669761 -7.3713405e-18)
(99.396305 0.2315566 1.236747e-17)
(98.892097 0.3945981 -2.3888545e-17)
(98.357711 0.28355503 2.6295509e-17)
(97.413501 0.42602834 -2.55932e-18)
(96.461619 0.17441876 3.7352138e-18)
(94.577546 -0.0043948407 1.4357892e-16)
(100.01701 0.10492497 -6.3568514e-18)
(99.926965 0.22650972 8.0706572e-18)
(99.69158 0.39458275 7.2166148e-18)
(99.405169 0.44020321 -7.2107883e-18)
(98.860403 0.58492438 3.1862395e-17)
(98.329991 0.57734217 -1.8169777e-17)
(97.361822 0.69566794 2.3163422e-18)
(96.303929 0.24782892 -5.3327188e-17)
(94.442025 0.559441 -1.0180539e-16)
(100.02046 0.13231221 5.9452883e-20)
(99.952118 0.31242492 -9.3855602e-19)
(99.703208 0.53672269 1.7056127e-17)
(99.413576 0.61080941 2.3608576e-18)
(98.889012 0.84161806 3.8878939e-21)
(98.283848 0.7824382 -3.4669271e-18)
(97.296728 1.1712871 3.918097e-17)
(96.080712 0.50475921 1.0673803e-16)
(94.063186 1.2893632 8.5497464e-17)
(100.03983 0.17182279 1.2285124e-17)
(99.968759 0.37103111 -1.3800798e-17)
(99.731279 0.6793537 1.7573823e-17)
(99.421139 0.76289678 2.9178419e-20)
(98.925562 1.0962701 -2.1776206e-17)
(98.281451 1.0123884 -6.7627047e-18)
(97.23339 1.4273468 -3.0892293e-17)
(95.929899 0.71573339 -5.0255565e-17)
(93.710002 1.5856405 -2.5334225e-16)
(100.04672 0.19219009 0)
(99.994556 0.43455687 0)
(99.763131 0.79651629 -3.0694249e-17)
(99.449256 0.9172126 -3.5461736e-17)
(98.982451 1.3199295 0)
(98.316937 1.3266985 -4.8734625e-17)
(97.174896 1.8482105 -4.1690834e-18)
(95.674815 1.069472 -3.0587196e-18)
(93.165518 2.1691262 3.142756e-16)
(100.07866 0.21793673 0)
(99.993692 0.46438392 -8.2538907e-19)
(99.812845 0.91393574 9.2903708e-19)
(99.484898 1.050595 3.4660424e-17)
(99.03325 1.5051188 -2.5913426e-18)
(98.359857 1.5243877 1.0372182e-16)
(97.212774 2.1207423 0)
(95.54388 1.3290812 0)
(92.753468 2.7203639 1.4650932e-16)
(100.09267 0.23117597 2.2815893e-17)
(100.02175 0.49851967 0)
(99.838743 0.98791039 0)
(99.564036 1.2131938 0)
(99.119717 1.7341648 0)
(98.411284 1.8418861 -5.1762578e-17)
(97.168822 2.5392175 -5.6286763e-17)
(95.357463 1.7337584 8.3672859e-17)
(92.172058 3.415636 2.7204961e-18)
(100.11567 0.23606711 -2.2467107e-17)
(100.03761 0.51653163 -7.8758542e-19)
(99.880369 1.0363908 -9.0443582e-19)
(99.597083 1.2786272 2.0323998e-18)
(99.227165 1.8652709 7.9361168e-17)
(98.520708 2.0100635 9.0736034e-17)
(97.276985 2.8411851 1.7905178e-16)
(95.204645 2.0862206 -8.2101358e-17)
(91.723303 4.0586499 -2.5228038e-16)
(100.1228 0.23570448 0)
(100.13252 0.22612483 4.1112744e-17)
(100.13046 0.21195512 -4.0787068e-17)
(100.12839 0.18982342 3.8765937e-17)
(100.12424 0.16527625 -3.7895068e-17)
(100.11031 0.13552324 7.5202012e-17)
(100.09433 0.10446724 -7.3005801e-17)
(100.07812 0.071155411 0)
(100.03642 0.028827924 0)
(100.07099 0.53500682 0)
(100.08772 0.53573498 7.1652393e-19)
(100.11655 0.5297271 0)
(100.12695 0.50916795 2.0283312e-18)
(100.14475 0.47922097 4.1088013e-17)
(100.1636 0.44167027 -1.2242827e-16)
(100.15883 0.38937364 7.9162835e-17)
(100.18396 0.34206717 -1.2027237e-18)
(100.14378 0.23179898 7.5752929e-17)
(99.930305 1.1067817 5.2705346e-17)
(99.987986 1.1455968 -1.0362103e-16)
(100.04282 1.1627799 9.8459967e-17)
(100.11183 1.1594728 -3.3061539e-18)
(100.1456 1.1290045 -4.6126018e-17)
(100.22743 1.0980547 -1.3978086e-18)
(100.24383 1.0224488 0)
(100.33822 0.97249079 2.6076417e-18)
(100.33548 0.80407197 -1.260417e-18)
(99.685192 1.4113655 5.5457701e-17)
(99.768787 1.5112429 -1.1246819e-16)
(99.853417 1.5780939 1.0644865e-16)
(99.976225 1.634715 -5.1470907e-17)
(100.04648 1.6372431 -3.2130106e-18)
(100.18473 1.6584825 1.527886e-18)
(100.24591 1.6039785 0)
(100.40445 1.5889935 -1.4227398e-18)
(100.42303 1.4247515 8.5313026e-17)
(99.2997 2.0697449 -6.3746182e-17)
(99.478228 2.2740397 0)
(99.55642 2.4157997 -5.8109672e-17)
(99.764333 2.5669316 5.9907901e-17)
(99.855324 2.63474 -5.3508598e-17)
(100.07274 2.7407116 5.5284437e-17)
(100.1773 2.7383545 0)
(100.41277 2.8137558 0)
(100.49855 2.6702946 3.0421903e-18)
(98.584463 2.2903479 -7.9142059e-17)
(98.762294 2.6148711 -7.5055539e-17)
(98.861521 2.8384227 7.2151174e-17)
(99.068388 3.1345327 6.8447106e-17)
(99.213327 3.2754258 -6.598912e-17)
(99.445235 3.5423632 0)
(99.628408 3.5866169 1.1989333e-16)
(99.880878 3.8264653 -1.0630149e-18)
(100.04047 3.7197868 -2.21493e-16)
(97.261608 3.2132486 -9.4808839e-17)
(97.460844 3.806232 0)
(97.561777 4.0787329 0)
(97.83666 4.6006667 2.6291015e-18)
(98.049939 4.7856041 0)
(98.386617 5.3087903 0)
(98.689583 5.4235118 0)
(99.076751 5.9379712 0)
(99.374266 5.9176314 0)
(95.0937 2.559793 3.8995794e-18)
(94.922031 3.5159548 0)
(95.022837 4.1252964 3.5041723e-18)
(95.019448 5.1592512 -6.3542589e-18)
(95.398299 5.6436814 -9.4748987e-17)
(95.613052 6.548938 -8.8513503e-17)
(96.128562 6.8585655 1.712747e-16)
(96.473516 7.6129113 1.6273974e-16)
(97.042007 7.7646832 -1.5400187e-16)
(90.889178 4.9039816 4.8120977e-16)
(90.383971 6.9470831 -2.9757892e-16)
(90.20715 8.2668197 2.7572075e-16)
(90.76041 10.33417 -2.625452e-16)
(91.370425 11.346197 -3.6351777e-16)
(92.432502 12.97008 6.730828e-16)
(93.234249 13.610063 -4.2272473e-16)
(94.441812 14.90138 -1.9401782e-16)
(95.179141 15.153962 1.8254321e-16)
(100.05422 0.045548169 -9.9470164e-20)
(100.08288 0.064083037 1.0196543e-16)
(100.12753 0.089003332 -1.3892142e-19)
(100.18648 0.11697402 -1.0261207e-16)
(100.25855 0.14629482 1.0000943e-19)
(100.34559 0.17646751 1.0272327e-16)
(100.44825 0.20793489 -1.0322337e-16)
(100.56834 0.2400679 -1.0001484e-19)
(100.72009 0.28384838 -5.1468831e-17)
(100.20734 0.26072593 -1.0872168e-16)
(100.24968 0.35307553 1.0915042e-16)
(100.35871 0.36256717 -1.0920112e-16)
(100.43262 0.48458182 0)
(100.58221 0.48108076 1.0932371e-16)
(100.68899 0.62886892 -2.8408307e-19)
(100.87559 0.60892227 -2.4045392e-19)
(101.01762 0.77932443 -1.0919738e-16)
(101.24708 0.73879893 5.4431438e-17)
(100.46827 0.87655739 1.1579581e-16)
(100.50908 1.0485943 -1.1626776e-16)
(100.67546 1.0961556 -1.1646756e-16)
(100.72941 1.2793686 1.1673283e-16)
(100.91885 1.3243587 -1.169873e-16)
(100.99235 1.5332428 1.1658554e-16)
(101.21882 1.5768801 -1.1685383e-16)
(101.31718 1.821597 4.4648424e-19)
(101.58734 1.8579291 1.1652764e-16)
(100.60765 1.543054 -1.2475589e-16)
(100.63723 1.7817165 -4.8791229e-19)
(100.83964 1.8751732 4.9247423e-19)
(100.86722 2.11444 0)
(101.08824 2.2056167 -3.9064269e-21)
(101.13746 2.4756753 -1.2472511e-16)
(101.39925 2.5658586 1.2678885e-16)
(101.47807 2.8794849 4.9205596e-19)
(101.79043 2.9584809 4.9112706e-19)
(100.73919 2.8510911 -5.282306e-19)
(100.759 3.1673763 -1.3600823e-16)
(100.98891 3.3139325 -2.0499809e-20)
(100.98461 3.604724 1.3684483e-16)
(101.22828 3.7435522 1.3690089e-16)
(101.25132 4.0678172 -1.3758646e-16)
(101.54197 4.2039129 -5.3113357e-19)
(101.59944 4.5767404 -5.3055389e-19)
(101.9487 4.6985804 -5.297737e-19)
(100.33743 3.9648297 1.509266e-16)
(100.33256 4.3648733 0)
(100.6072 4.5659597 0)
(100.57666 4.9357685 1.5012809e-16)
(100.87238 5.1231788 -1.5213684e-16)
(100.8786 5.5300264 -1.5130929e-16)
(101.22579 5.7086584 3.0208085e-16)
(101.27234 6.1602505 -1.1010718e-18)
(101.67777 6.3159136 -3.0109148e-16)
(99.745917 6.3597399 -6.7971929e-19)
(99.804038 6.8286648 0)
(100.07122 7.124896 6.7567701e-19)
(100.09904 7.5091136 1.6991468e-16)
(100.39558 7.7678477 -1.709641e-16)
(100.48603 8.1265245 1.6967074e-16)
(100.84157 8.3680791 -1.7004297e-16)
(100.98263 8.7067894 -6.6067187e-19)
(101.36944 8.9246579 1.6786782e-16)
(97.452018 8.3272642 -1.942522e-16)
(97.901083 8.9405792 1.96808e-16)
(98.298101 9.3424083 -1.9392521e-16)
(98.784026 9.8477467 1.9294698e-16)
(99.219864 10.153831 -1.8820276e-16)
(99.736415 10.572842 2.0289751e-18)
(100.19083 10.791227 1.8872338e-16)
(100.70709 11.109692 1.4394691e-18)
(101.13236 11.209848 9.1359633e-17)
(96.315297 16.066517 0)
(96.791613 16.535791 -2.1499721e-16)
(97.841713 17.148505 4.895749e-18)
(98.331789 17.350552 5.6246017e-18)
(99.410858 17.644281 4.1348748e-16)
(99.917353 17.462275 -2.0497548e-16)
(101.12562 17.2355 -1.9826786e-16)
(101.53708 16.467804 1.9919842e-16)
(102.93697 15.423117 9.7629661e-17)
(103.06059 14.167673 -1.138992e-16)
(103.71447 12.853502 0)
(103.58763 12.048593 1.1179336e-16)
(103.72761 11.186249 -1.1178762e-16)
(103.04007 10.640637 0)
(102.70861 9.8747518 0)
(101.65181 9.3815865 0)
(101.12183 8.7523141 -1.2384746e-16)
(99.935834 8.4463082 1.2384837e-16)
(101.55404 11.398364 -1.0406276e-16)
(101.85473 11.511788 0)
(102.1697 11.577395 0)
(102.37654 11.596201 0)
(102.53424 11.574314 0)
(102.58645 11.585573 0)
(102.54585 11.589156 0)
(102.46371 11.664301 1.000842e-16)
(102.24757 11.670884 -2.0164533e-16)
(101.5222 9.2105239 -1.5025643e-18)
(101.88201 9.4856064 -1.8309407e-16)
(102.0132 9.7218323 0)
(102.34877 9.9672393 -8.9468822e-17)
(102.43877 10.188985 8.946874e-17)
(102.73142 10.404499 0)
(102.75633 10.610669 0)
(102.99261 10.824235 0)
(102.93748 11.044995 0)
(101.71893 6.7697885 1.6143752e-16)
(102.14472 6.995588 0)
(102.19125 7.4357635 7.8831858e-17)
(102.6209 7.6525637 -1.5702407e-16)
(102.6686 8.0897482 7.8188382e-17)
(103.0998 8.3064948 0)
(103.13637 8.7478743 0)
(103.56903 8.9806653 0)
(103.58144 9.435919 7.5035799e-17)
(102.01557 5.1078001 0)
(102.40285 5.2549252 1.4136029e-16)
(102.48297 5.6871471 -2.1146474e-16)
(102.90075 5.83226 7.0099933e-17)
(102.99229 6.2816027 6.8855241e-17)
(103.43607 6.4304536 -6.5491551e-19)
(103.53278 6.8983642 -1.3572483e-16)
(104.00269 7.0591025 1.3435675e-16)
(104.09751 7.550279 -6.6829534e-17)
(101.8867 3.3122679 0)
(102.24399 3.4060642 6.3912185e-17)
(102.3643 3.7927295 -6.3914259e-17)
(102.76385 3.8796217 0)
(102.9094 4.2959754 -1.2433882e-16)
(103.35061 4.3777769 1.2434016e-16)
(103.51991 4.8255021 6.0815885e-17)
(104.00586 4.905506 -1.2089701e-16)
(104.19649 5.3886677 6.0079771e-17)
(101.70383 2.1392402 0)
(102.01626 2.1826192 0)
(102.15741 2.4999571 0)
(102.51441 2.5378346 -5.7668687e-17)
(102.68306 2.8909398 1.1478965e-16)
(103.08648 2.9231129 -1.1365569e-16)
(103.28476 3.3137217 5.6533407e-17)
(103.7396 3.3401146 -5.522977e-17)
(103.96918 3.7729377 1.0973731e-16)
(101.41673 0.93565654 -1.1002678e-16)
(101.69244 0.88939309 4.2394279e-19)
(101.89614 1.1205695 5.4399138e-17)
(102.21596 1.0590118 -5.3443289e-17)
(102.45973 1.323301 5.3445889e-17)
(102.82431 1.2427617 0)
(103.10727 1.5362216 5.1710611e-17)
(103.52386 1.4354801 -1.0275981e-16)
(103.84862 1.7615265 5.1046307e-17)
(100.81337 0.31507795 3.0189776e-19)
(101.00868 0.39427995 5.1857865e-17)
(101.21657 0.44265428 5.1183083e-17)
(101.46962 0.47270462 -5.1183088e-17)
(101.65627 0.62382007 0)
(102.00748 0.57741949 0)
(102.2167 0.719802 -4.9430693e-17)
(102.58805 0.75231607 9.8317181e-17)
(102.89695 0.81469388 -4.8886472e-17)
(103.29908 0.90243356 0)
(103.69839 0.99704333 -4.6901593e-17)
(104.18539 1.0072183 7.800786e-19)
(104.58649 1.2128347 8.4846214e-19)
(105.21538 1.201873 9.1532242e-19)
(105.69969 1.2920557 4.4357727e-17)
(106.34263 1.4519795 4.2291043e-17)
(106.95662 1.5587685 -4.2291044e-17)
(107.72055 1.5518839 0)
(104.32509 1.6424968 0)
(104.6967 2.0148058 0)
(105.2402 1.8776583 -4.784798e-17)
(105.66347 2.3000154 9.4806413e-19)
(106.27602 2.1437884 1.0052687e-18)
(106.74917 2.6190722 4.5892333e-17)
(107.45022 2.4458913 4.3655035e-17)
(107.98446 2.9866796 -4.3656364e-17)
(108.76927 2.7930065 0)
(104.48167 3.7947756 -5.4508186e-17)
(104.74334 4.2755823 0)
(105.31946 4.2959823 0)
(105.61479 4.832853 -5.1103236e-17)
(106.26001 4.853016 1.0121096e-16)
(106.59282 5.4518691 -1.0625842e-18)
(107.31715 5.4727444 -1.1340409e-18)
(107.69245 6.1455652 -4.790876e-17)
(108.50451 6.1652792 0)
(104.73109 5.4721807 -5.8486707e-17)
(104.93929 5.9963866 5.848626e-17)
(105.52567 6.0900044 0)
(105.74896 6.663849 0)
(106.39317 6.7736604 5.477105e-17)
(106.63261 7.4092163 -5.4770028e-17)
(107.34554 7.53992 5.2593567e-17)
(107.60447 8.2511695 -2.6889831e-17)
(108.3978 8.4055304 -2.5702608e-17)
(104.59513 7.7329471 -6.5386074e-17)
(104.68173 8.2564818 6.5384233e-17)
(105.2112 8.471729 0)
(105.28534 9.0417248 0)
(105.8557 9.2994227 0)
(105.91629 9.9347306 0)
(106.54189 10.243534 0)
(106.59016 10.965054 0)
(107.28709 11.330653 0)
(104.01576 9.7018324 -7.5035768e-17)
(103.99139 10.181028 7.3852402e-17)
(104.43035 10.501646 -7.384647e-17)
(104.3602 11.021997 7.2716413e-17)
(104.81196 11.412135 -7.2708303e-17)
(104.69145 11.998703 0)
(105.17455 12.467932 0)
(105.00408 13.150179 0)
(105.54414 13.705851 0)
(103.11891 11.30216 0)
(102.98278 11.542879 -8.7209615e-17)
(103.12223 11.885325 8.7179368e-17)
(102.8814 12.183422 0)
(103.01492 12.632651 8.7421873e-17)
(102.66251 13.022114 -8.7429109e-17)
(102.82266 13.602152 0)
(102.35655 14.11802 4.4000955e-17)
(102.57467 14.843322 -8.8093978e-17)
(102.08442 11.863819 1.0131311e-16)
(101.64677 11.988685 1.0319388e-16)
(101.42432 12.273878 -1.0321808e-16)
(100.8085 12.537392 1.0572899e-16)
(100.53787 12.928271 -2.1293368e-16)
(99.759116 13.357979 2.1594088e-16)
(99.4557 13.871368 -2.1915306e-16)
(98.529425 14.497276 1.1039714e-16)
(98.211479 15.149481 0)
(99.319036 8.0282912 -1.3056436e-16)
(98.046315 7.9053696 1.3056513e-16)
(97.363486 7.6674889 0)
(96.011425 7.7262863 0)
(95.258741 7.6557752 0)
(93.801775 7.9082157 0)
(92.980316 8.0175258 0)
(91.396117 8.4816715 -7.8308991e-17)
(90.490143 8.8285498 7.8309127e-17)
(88.76763 9.5626924 8.2446457e-17)
(97.15581 16.012867 0)
(102.00321 15.529672 4.4108017e-17)
(105.33055 14.515094 0)
(107.32827 12.1603 0)
(108.683 9.2081283 0)
(108.92892 6.9179455 2.2009348e-17)
(109.37064 3.4089262 1.9839788e-17)
(108.38868 1.7877635 1.9258788e-17)
(87.758057 10.20739 -8.2444656e-17)
(96.849028 16.828254 0)
(102.2983 16.377889 0)
(105.95789 15.159531 3.4122261e-17)
(108.11589 12.584052 0)
(109.57361 9.3863437 -2.3670592e-17)
(109.84364 6.9384596 -4.32746e-17)
(110.28106 3.1971509 -3.8922697e-17)
(109.26223 1.8841731 -3.7784464e-17)
(85.903541 11.32489 0)
(95.686188 17.97671 0)
(101.6667 17.33252 4.4195799e-17)
(105.7172 16.128309 -3.4123173e-17)
(108.1616 13.544827 0)
(109.89837 10.300634 2.3670431e-17)
(110.329 7.7900764 2.1265674e-17)
(110.92422 3.8774335 1.9082439e-17)
(110.07701 1.9590123 1.8525671e-17)
(84.794606 12.362846 8.87944e-17)
(95.431225 18.978766 0)
(102.03993 18.286281 -8.8315541e-17)
(106.46716 16.85833 0)
(109.06344 14.023151 0)
(110.9076 10.498582 -2.204436e-17)
(111.35639 7.8027753 -1.9612299e-17)
(111.96369 3.7267921 0)
(111.06044 2.0907321 -1.6870403e-17)
(82.828926 14.000316 -8.8794372e-17)
(94.202415 20.466423 -6.0833378e-17)
(101.3892 19.537754 4.4118102e-17)
(106.22585 18.020601 0)
(109.1322 15.137315 0)
(111.28884 11.541871 2.2044409e-17)
(111.91535 8.7580771 1.9611949e-17)
(112.71708 4.366813 0)
(111.98338 2.2975624 1.68704e-17)
(81.66206 15.608257 0)
(94.056488 21.672811 6.0832119e-17)
(101.8747 20.599578 -4.3679546e-17)
(107.11883 18.807155 0)
(110.17179 15.658283 0)
(112.43604 11.749835 -2.0135986e-17)
(113.06984 8.7542295 -1.77021e-17)
(113.87142 4.3230173 0)
(113.11206 2.3790186 -1.4945701e-17)
(79.684531 17.999553 0)
(92.829053 23.571054 0)
(101.25749 22.189441 4.3679496e-17)
(106.95339 20.219369 -1.5507611e-17)
(110.29232 16.946913 -1.2088585e-17)
(112.89422 12.934639 2.966528e-17)
(113.72338 9.8233956 2.6021791e-17)
(114.70204 4.9873957 0)
(114.18715 2.5240362 2.1883121e-17)
(78.660804 20.357243 0)
(92.887797 24.982054 -3.0831233e-17)
(101.90807 23.346588 0)
(107.98574 21.030848 1.5501381e-17)
(111.47006 17.475731 1.2083118e-17)
(114.1933 13.136782 -5.8493667e-19)
(115.00816 9.7871426 -1.6060242e-17)
(116.04829 4.9425073 0)
(115.43161 2.6704613 -6.937421e-18)
(76.993486 23.841862 -4.7764587e-17)
(91.767206 27.424474 3.082376e-17)
(101.39424 25.426359 0)
(107.97324 22.813701 0)
(111.74947 19.077022 0)
(114.78488 14.54522 -1.7246378e-17)
(115.82507 11.026649 6.238701e-19)
(116.94119 5.689642 0)
(116.62487 2.8223583 0)
(118.23018 2.9570802 0)
(118.4472 5.6560626 0)
(117.22631 10.823963 2.5324224e-19)
(116.16815 14.560361 8.6841872e-18)
(113.06853 19.380259 0)
(109.20062 23.435424 -1.9889052e-18)
(102.40254 26.441399 -6.6962702e-19)
(92.363503 28.897052 -2.5356392e-17)
(76.630844 27.044473 8.844336e-17)
(119.73835 3.0494426 -2.2607952e-18)
(119.42721 6.3012608 -3.3550462e-19)
(118.23704 11.998548 3.5779423e-18)
(117.01307 15.901407 -7.6761367e-20)
(113.71827 20.937323 -4.1440428e-18)
(109.57613 25.240996 6.3757904e-18)
(102.45539 28.720415 -2.8214846e-18)
(92.106646 31.893321 3.2290572e-17)
(76.605947 31.784278 -4.4715718e-17)
(121.27583 3.1226941 4.182868e-18)
(121.12493 6.1894824 0)
(119.90973 11.755949 5.3484148e-18)
(118.55847 15.825085 -3.0379929e-18)
(115.31273 21.098874 4.1285617e-18)
(111.22689 25.711799 -1.1749005e-17)
(104.27421 29.5405 -1.1756325e-17)
(94.242521 33.055767 7.1389551e-18)
(79.985922 33.577165 1.6075153e-18)
(122.91422 3.1953186 -1.9214535e-18)
(122.30268 6.7464157 -2.4498431e-19)
(121.0577 12.906533 -2.2309808e-18)
(119.66293 17.276364 3.4943774e-18)
(116.35787 22.809225 1.4627313e-18)
(111.96138 27.681404 6.071925e-18)
(104.829 31.962459 9.1970505e-18)
(94.682493 35.954517 3.9341021e-18)
(80.500441 37.619918 -4.5050893e-18)
(124.66017 3.2711662 2.5627602e-19)
(124.11323 6.6765274 -2.8807857e-19)
(122.9863 12.653587 -2.522064e-19)
(121.3235 17.075135 8.0534776e-19)
(118.12429 22.814074 -1.4182566e-18)
(113.92426 27.958308 -1.8177435e-18)
(107.04465 32.564116 -2.4678852e-18)
(97.206119 36.880187 2.7869568e-18)
(83.415856 38.930722 -5.8361633e-18)
(126.49762 3.3431179 -2.5927426e-19)
(125.50193 7.2293927 2.9154229e-19)
(124.27042 13.782362 -1.9196434e-19)
(122.75209 18.567218 -3.7767098e-20)
(119.48671 24.567879 -3.2065151e-19)
(114.92016 29.995613 1.25888e-18)
(107.86493 35.019452 -2.3148385e-18)
(97.872744 39.739233 2.6203749e-18)
(84.008768 42.505499 0)
(128.41256 3.4020309 1.5412237e-21)
(127.4887 7.2245773 -7.2401823e-20)
(126.35522 13.448053 -4.4906675e-20)
(124.50342 18.237452 -2.2268531e-19)
(121.36232 24.420205 -2.7737944e-19)
(117.04242 30.082726 1.2925769e-18)
(110.20434 35.415765 -3.5901846e-18)
(100.44484 40.43028 5.8793021e-18)
(86.939233 43.386997 -3.9841362e-18)
(130.40181 3.4459782 -2.91722e-19)
(129.03693 7.697978 -2.0230774e-19)
(127.85031 14.548661 1.3518568e-20)
(126.18774 19.726784 2.4678147e-19)
(122.9961 26.165142 8.2969553e-19)
(118.31261 32.148484 -3.3230703e-19)
(111.31736 37.87507 -1.9530854e-18)
(101.42038 43.252035 -1.0264054e-18)
(87.84381 46.640626 -4.7345008e-18)
(132.46042 3.4663981 1.4910135e-18)
(131.12533 7.6549146 2.0483044e-19)
(130.03386 14.051464 8.5328764e-19)
(128.03239 19.236977 -2.174265e-19)
(124.94894 25.845098 4.1243142e-19)
(120.57329 32.014215 1.1486471e-18)
(113.78098 38.027327 -7.5779309e-18)
(104.13268 43.690244 1.984964e-18)
(90.828395 47.195692 8.7317544e-18)
(91.965585 50.241981 -7.9197897e-18)
(105.4171 46.469103 2.7890954e-18)
(115.22726 40.458898 9.4921506e-18)
(122.1517 34.074891 -8.1969046e-19)
(126.88004 27.532175 -7.6625865e-19)
(129.96728 20.693817 -9.2137931e-19)
(131.72284 15.077798 -8.9011901e-19)
(132.8493 8.0952612 9.3079105e-20)
(134.5853 3.4632659 -3.1558358e-18)
(94.94919 50.561914 2.7917618e-17)
(108.2768 46.662686 1.4232012e-18)
(117.82368 40.331207 -1.0487535e-17)
(124.53986 33.680739 3.6092821e-22)
(128.88412 27.022373 2.1470592e-19)
(131.91361 20.004566 8.670021e-19)
(134.00458 14.522543 4.6761088e-18)
(134.99635 7.9971499 0)
(136.76854 3.4371828 1.8804221e-18)
(96.274056 53.48113 -3.5472779e-17)
(109.83785 49.39115 1.4247403e-17)
(119.61021 42.701587 4.5335244e-18)
(126.43669 35.691034 1.3286568e-19)
(131.12827 28.595292 -4.0537339e-18)
(134.06911 21.405156 9.0841601e-20)
(135.87321 15.36299 9.1033659e-19)
(136.87237 8.350951 -5.8038787e-18)
(138.99814 3.3885988 -6.6116614e-18)
(99.227661 53.580812 -6.0693056e-18)
(112.83897 49.359072 -5.8200455e-19)
(122.30533 42.273472 -6.3368146e-19)
(128.91113 35.011769 0)
(133.18387 27.854219 4.2663253e-18)
(136.00187 20.543536 0)
(138.24271 14.666087 -5.7299463e-18)
(139.06137 8.2322513 1.3453499e-17)
(141.25836 3.3135254 -1.4783117e-18)
(100.81351 56.430251 -1.8692759e-18)
(114.62331 51.965395 -6.9281524e-18)
(124.44275 44.544263 2.8592092e-19)
(131.12426 36.916841 0)
(135.70358 29.277714 9.0890329e-18)
(138.40927 21.751071 -9.2381846e-18)
(140.17823 15.334268 -5.1204475e-19)
(141.02748 8.5589693 -1.7054902e-17)
(143.53853 3.2030301 8.2656098e-18)
(103.80819 56.270566 -1.971015e-17)
(117.85723 51.813881 -1.1801341e-18)
(127.18899 43.78843 -7.5084202e-19)
(133.62336 35.936415 7.4121161e-19)
(137.76357 28.287193 2.9329309e-18)
(140.39829 20.745094 2.0988461e-17)
(142.62941 14.559003 -6.2889645e-19)
(143.26956 8.2327416 9.4137112e-18)
(145.81827 3.0605286 0)
(105.7517 59.085559 1.3585158e-17)
(119.87047 54.198097 1.2614056e-18)
(129.69649 45.899558 -7.5271017e-19)
(136.1568 37.669597 1.1039212e-18)
(140.547 29.489157 -1.036263e-17)
(142.88633 21.749271 -1.2347838e-17)
(144.61261 14.969628 -8.0123917e-19)
(145.28491 8.5811532 7.3418085e-19)
(148.07659 2.8802187 0)
(108.83779 58.619625 0)
(123.36182 53.879153 1.1288033e-18)
(132.45635 44.774055 -9.6204598e-19)
(138.61854 36.377039 3.0403481e-17)
(142.56798 28.238623 8.614713e-19)
(144.92953 20.551757 -3.0922662e-17)
(147.0406 14.021676 3.0282368e-17)
(147.51847 8.1482538 -2.9205475e-17)
(150.29187 2.6626709 -2.9830852e-17)
(111.26089 61.420555 8.1666783e-18)
(125.57229 55.98176 -2.6288966e-17)
(135.3597 46.68946 1.4524765e-18)
(141.4531 37.866345 -3.2035484e-17)
(145.56296 29.206698 1.158427e-18)
(147.49137 21.300969 3.1389534e-17)
(148.97189 14.274604 -3.269635e-17)
(149.5249 8.3443045 3.0581772e-17)
(152.45655 2.4050348 -3.1002276e-18)
(154.56999 2.0911449 3.3030917e-17)
(151.72573 7.7724414 -3.59131e-17)
(151.36492 13.198915 0)
(149.54092 19.865849 2.3156745e-18)
(147.48039 27.604456 -4.4715834e-17)
(143.89671 36.181356 -4.2468254e-17)
(138.10866 45.008881 0)
(129.56681 55.381929 -1.0023053e-17)
(114.73214 60.484233 -7.7029747e-18)
(156.46349 1.7441918 0)
(153.67428 7.7429659 3.7155566e-17)
(153.27622 13.110287 0)
(152.16876 20.187243 2.6593621e-18)
(150.81763 28.114537 8.8819249e-17)
(147.22609 37.216413 4.6308267e-17)
(141.79725 46.549401 -5.1431299e-17)
(132.568 57.18406 3.3055432e-17)
(118.66181 63.703118 -1.8330835e-17)
(158.26755 1.3711269 0)
(155.73389 6.8954156 0)
(155.54382 11.863334 4.8149309e-17)
(154.21341 18.496455 0)
(152.69488 26.169264 -4.9756943e-17)
(149.76429 35.109208 5.8387367e-17)
(144.61688 44.244042 4.6850096e-17)
(137.15268 55.996304 3.5390439e-18)
(122.88329 61.876948 -1.4643776e-17)
(159.91707 0.99054656 0)
(157.54722 6.8227072 0)
(157.34301 11.593812 -4.9148809e-17)
(156.67437 18.507623 -5.3496978e-17)
(155.94186 26.297775 -6.2225556e-17)
(153.15554 35.669686 -6.4099511e-17)
(148.39965 45.211975 0)
(140.40785 57.058318 -7.0551705e-17)
(127.96324 64.830413 3.687339e-17)
(161.38133 0.62043816 -7.565994e-19)
(159.3683 5.8648288 8.3166892e-19)
(159.39254 10.118482 0)
(158.55834 16.548884 -4.3913904e-18)
(157.73588 24.02106 1.3697192e-16)
(155.58031 33.211148 -4.5994375e-18)
(151.20972 42.477143 -7.9430209e-17)
(144.79012 55.283666 7.7421899e-17)
(132.54036 62.122299 -8.2815257e-17)
(162.65629 0.25203941 8.1310511e-19)
(160.96376 5.7851298 -8.9526471e-19)
(160.96164 9.6995585 0)
(160.80234 16.304479 6.8231796e-17)
(160.73588 23.776298 -8.0188566e-17)
(158.87143 33.339616 5.156086e-18)
(154.85487 42.877954 8.2155049e-17)
(147.84581 55.579298 0)
(139.01999 64.482438 8.2553966e-17)
(163.73931 -0.1027013 -8.681142e-19)
(162.52343 4.793199 -6.0309346e-17)
(162.75625 8.2028794 2.0445813e-18)
(162.42921 14.164606 -7.1860016e-17)
(162.30227 21.218119 -8.8676763e-17)
(161.10585 30.550827 0)
(157.56914 39.828359 0)
(151.54262 53.154212 1.1165291e-16)
(144.02106 60.591354 0)
(164.67917 -0.47995755 0)
(163.81322 4.6351006 6.2530952e-17)
(163.99854 7.6765256 0)
(164.39725 13.728511 8.0862168e-17)
(164.99154 20.651689 8.0327985e-17)
(164.17646 30.259759 -1.0487416e-16)
(160.96681 39.875313 0)
(153.90842 52.70212 -1.2403617e-16)
(151.42279 62.022299 1.8478549e-16)
(165.17046 -0.64743853 0)
(165.02413 3.5084213 0)
(165.50351 6.1479509 2.3497341e-18)
(165.68381 11.34614 2.6780167e-18)
(166.43719 17.278348 -5.9244639e-18)
(166.49491 26.541584 1.0825169e-16)
(164.23721 35.96282 0)
(156.91859 48.909336 0)
(155.89436 57.489588 -1.8461045e-16)
(165.8154 -1.0376972 2.0048822e-18)
(165.87896 3.350604 -1.3033223e-20)
(166.36508 5.5738367 -7.8264535e-17)
(167.22624 11.020355 0)
(168.36327 17.595378 0)
(168.55778 27.014376 6.6780935e-18)
(167.18952 37.621142 1.2094655e-16)
(157.066 50.503519 -3.8472508e-18)
(161.73798 58.11919 0)
(166.28655 -1.1237454 1.9838179e-18)
(166.82118 2.6521002 3.6991517e-21)
(167.68288 5.0366543 7.0892421e-17)
(168.48256 10.563103 0)
(169.76974 17.073471 0)
(170.91471 27.34702 -6.8818135e-18)
(168.71824 39.344625 -3.7437034e-16)
(157.05192 52.218893 3.8479821e-18)
(155.88406 57.143638 -3.4386044e-16)
(166.35836 -1.3049272 0)
(167.27516 2.2408417 -1.3542348e-16)
(168.24916 4.38887 0)
(169.85401 9.9935104 -5.2601902e-18)
(171.7682 17.14407 5.7429289e-18)
(172.63998 27.672496 7.0498859e-18)
(172.78194 40.719742 5.0883881e-16)
(154.03382 54.224014 -3.8661991e-18)
(139.51236 56.661243 3.2569471e-16)
(166.23881 -1.415823 -1.1788731e-16)
(167.93255 1.3004662 1.2912227e-16)
(169.39053 3.7490071 -1.4737094e-16)
(171.1898 9.2949712 -1.6725267e-16)
(173.10219 16.377665 1.9858245e-16)
(175.09834 27.799039 -2.2644337e-16)
(173.73393 41.764242 -2.6475362e-16)
(150.62907 54.86975 -2.1238623e-16)
(118.86041 66.889654 0)
(165.96876 -1.5438519 2.3247481e-16)
(168.24755 0.76382488 -1.314359e-16)
(169.6933 3.0145088 1.4256256e-16)
(172.44832 8.3514041 -5.5851221e-18)
(175.22261 16.18228 -1.9128713e-16)
(176.51822 28.009873 -4.6806773e-18)
(175.5336 43.481935 0)
(145.78941 59.990923 2.0483832e-16)
(86.24278 77.849915 0)
(165.52533 -1.675338 -2.2320212e-16)
(168.78878 -0.22938613 1.2559839e-16)
(170.5468 2.2219971 -1.4700679e-16)
(173.85973 7.3389221 1.662235e-16)
(176.47605 15.222892 6.205608e-18)
(178.94276 28.003797 2.129292e-16)
(174.96081 45.403601 -2.701169e-16)
(136.10875 59.143698 -2.2578643e-16)
(29.615826 29.348722 2.4282965e-16)
(164.89826 -1.8009277 1.1085728e-16)
(168.99401 -0.83962117 -3.9048164e-18)
(170.53388 1.5071348 1.4018605e-16)
(174.93423 6.0742535 -5.3218951e-18)
(178.59777 14.779416 5.7410387e-18)
(180.05009 28.122948 2.3435262e-16)
(173.10537 45.665742 5.3662687e-16)
(114.48339 53.877486 2.1169919e-16)
(-1.9537041 14.43718 -2.3019061e-16)
(164.10537 -1.9195793 1.7110054e-18)
(169.29949 -1.940135 -1.844736e-18)
(171.05794 0.62867385 -1.3610656e-16)
(176.22383 4.7785692 -1.648808e-16)
(179.66157 13.689967 1.9490117e-16)
(181.81543 27.439802 -4.6351674e-16)
(169.21641 46.184427 -5.4303015e-16)
(88.230585 49.708249 -2.1986053e-16)
(-4.1521896 25.491782 2.2834863e-16)
(163.15023 -2.0250044 -9.8295472e-17)
(169.06406 -2.7072812 1.9171711e-18)
(170.77991 -0.11652603 -2.4739615e-18)
(176.98837 3.3529507 1.5989486e-16)
(181.50219 12.929683 -1.8220527e-16)
(182.1838 27.121263 2.3032823e-16)
(161.39116 46.302171 2.631494e-16)
(63.81125 38.834665 2.0660126e-16)
(-10.003985 29.407803 -2.1754695e-16)
(-13.59728 30.163949 -3.6978397e-16)
(38.134424 26.098183 -2.4534529e-18)
(155.23142 46.546754 5.6648468e-18)
(182.42783 26.091757 -4.8441969e-18)
(182.06143 11.828974 0)
(177.90499 1.9609664 2.6540096e-18)
(171.07848 -1.0087948 2.7698488e-16)
(168.93423 -3.7964578 1.2620846e-16)
(162.04397 -2.1178607 1.9216402e-16)
(-15.212449 30.204235 3.5875676e-16)
(22.719842 16.050316 0)
(148.33457 45.977499 0)
(183.30009 24.230018 6.2909902e-16)
(183.38952 9.8125556 0)
(178.23875 -0.017044188 -3.6286394e-16)
(170.54494 -2.0301387 -4.1927544e-16)
(168.33511 -4.5866672 -1.1962415e-16)
(160.80616 -2.1830315 8.8293807e-17)
(-16.641831 30.078004 2.9195039e-18)
(12.953427 15.730119 -2.3510878e-18)
(138.56902 44.035911 0)
(182.71029 23.30206 -6.1489561e-16)
(183.52254 8.7370753 0)
(178.76038 -1.4192647 3.592114e-16)
(170.56618 -2.942767 2.6991547e-16)
(167.87056 -5.5512089 2.7348589e-18)
(159.44991 -2.2158815 -1.8070299e-16)
(-17.294694 30.359561 6.7503823e-16)
(15.504832 25.418306 -6.5329544e-16)
(131.36328 42.399851 4.9146675e-18)
(182.47469 21.165386 0)
(184.36686 6.5976978 -4.6320842e-16)
(178.72424 -3.2775544 0)
(169.70058 -3.9727975 -2.0215476e-18)
(167.02252 -6.1501005 2.656057e-18)
(157.99962 -2.2273958 -7.3626009e-19)
(-18.577215 31.130882 -6.4844166e-16)
(18.856679 36.608496 -2.5359327e-17)
(123.33238 41.163159 7.4969408e-16)
(180.93948 20.309501 -4.9487063e-18)
(184.11175 5.4486188 -6.4268336e-18)
(178.88547 -4.6641965 0)
(169.48259 -4.8169009 -2.5657225e-16)
(166.21356 -7.0895804 0)
(156.46836 -2.2202087 0)
(-18.790446 32.304129 2.7540845e-18)
(19.538969 42.611979 6.2588552e-16)
(118.58327 40.170878 -1.465258e-15)
(180.0571 17.909663 6.4950594e-16)
(184.55258 3.0823283 4.5253818e-16)
(178.44996 -6.4509358 3.4916461e-16)
(168.37534 -5.8091975 2.4866264e-16)
(165.13225 -7.599083 2.4818895e-18)
(154.86874 -2.1985601 -1.4798452e-16)
(-18.955432 33.706516 2.7186029e-18)
(18.606915 48.210033 -6.5523354e-16)
(111.12916 38.856889 7.314725e-16)
(177.89803 17.149388 -6.3556182e-16)