/*--------------------------------*- C++ -*----------------------------------*\
  =========                 |
  \\      /  F ield         | OpenFOAM: The Open Source CFD Toolbox
   \\    /   O peration     | Website:  https://openfoam.org
    \\  /    A nd           | Version:  11
     \\/     M anipulation  |
\*---------------------------------------------------------------------------*/
FoamFile
{
    format      ascii;
    class       volScalarField;
    location    "0.3592363";
    object      Ma;
}
// * * * * * * * * * * * * * * * * * * * * * * * * * * * * * * * * * * * * * //

dimensions      [0 0 0 0 0 0 0];

internalField   nonuniform List<scalar> 
880
(
1.118016635923817
1.118016634793396
1.117913276770088
1.101702504724298
1.118016635922823
1.118016632481563
1.117870539156483
1.096269017435814
1.118016635905756
1.118016621504525
1.117737696422541
1.089039185788016
1.118016635824109
1.118016566726553
1.117400360780028
1.069555131540264
1.118016636535325
1.118016634945924
1.118016603634472
1.118016146180794
1.118016282140353
1.118014695886106
1.118008386316151
1.118021818276506
1.116457617256091
1.115369365029675
1.113824355724922
1.113109227444684
1.031318452055854
0.9943407426926733
0.9723374989708133
0.970077260586716
1.118010992328153
1.117995259626217
1.117968927355162
1.117859300263716
1.117902555720777
1.117468091223142
1.1167709093417
1.11550764489856
1.10443403898132
1.097435465968177
1.088274566046358
1.079903937673735
0.9590691122439754
0.9591349524370676
0.9575134714840666
0.9810534810555573
1.040053008984164
1.075624177030204
1.089969145599658
1.104393046742669
1.06563156237038
1.065218924706571
1.069326139333443
1.077707283917611
1.111149008087725
1.105552575131544
1.100432685923639
1.097673032000986
1.117316745756473
1.116401031670746
1.115078563241883
1.113440641305276
1.111890056502761
1.110735889802825
1.109985294305212
1.109839900325363
1.097061333462673
1.098712017178801
1.102514732980848
1.107802439349659
1.086124753719803
1.096163904862507
1.105646919289373
1.113536395494044
1.111645889642864
1.119220141857792
1.123416398526434
1.12638946165993
1.128791756405604
1.120906461099243
1.113436825872588
1.109951884947735
1.079489072954162
1.125822955054487
1.120187604950136
1.110313875286924
0.8046108840308447
1.115050512277924
1.125647128270422
1.11138605915005
0.5734028977742566
1.037970994213092
1.125572435631312
1.113023960020731
1.113322246365116
1.121409743399423
0.9542274543188668
0.5177895675427411
1.108802818977887
1.10887435680273
0.8848686386317722
0.5549425724279403
1.106524011903204
1.080246017588364
0.8075041264206116
0.574616098939437
1.100895491039096
1.033509268919386
0.7627568613578217
0.6140859728814418
0.6624721106488863
0.7509874459509396
0.9748984925789183
1.089463447600454
0.7143565415214606
0.7749389024633356
0.9219144289938372
1.069247612203441
0.7674917147848407
0.8176036331632625
0.9053477605629836
1.037925578125068
0.8151715019804656
0.874682323300535
0.9234562718431086
1.006074733148792
0.9854182861489192
0.9755969414790744
0.9503708137600622
0.8753676417113588
1.009919097806405
1.039760919839601
1.036596303221215
0.9571064655856706
1.038620099864818
1.101927508491502
1.127949871717513
1.064399467674789
1.064422730339913
1.149828269180099
1.216003213365853
1.193061098060343
1.084293429737958
1.191061350616061
1.305726970592691
1.394838233427942
1.10906726183603
1.221506374116794
1.366103895663038
1.585975415214043
1.124974505010742
1.226892474229493
1.41159979480992
1.774901276795177
1.134437032302364
1.212808645170437
1.386973364988642
1.945081685239361
1.717466911937042
1.321800979485385
1.201073421131648
1.140474537285536
1.181732694188549
1.275075180891503
1.188874693920485
1.140461897304172
1.027535087197175
1.252846394641913
1.179569873931129
1.136956708199953
0.878871497047933
1.215798705360048
1.16545712717125
1.132923221943748
0.8055046084774171
1.162029967549609
1.142392547077752
1.125675129980103
0.7301837387198752
1.092242904874648
1.117139765905796
1.118953314005782
0.6969526977441188
1.04187923685226
1.105959189614343
1.117614323010667
0.680708809550689
1.033195324423422
1.106960122241137
1.117614703272102
0.650003812073656
0.9389519899730661
1.069465428536117
1.113028281678075
0.6571830142914605
0.9372236559720614
1.069604822090316
1.112891582585434
0.6852848125393302
0.936257342370527
1.070400841666116
1.112842162542088
0.7090138318926793
0.9439661829603111
1.073784390119142
1.113118099076086
0.6807088095508754
1.033195324424836
1.106960122246019
1.117614703277316
0.6969526977442108
1.041879236856986
1.105959189617255
1.117614323016368
0.7301837387220562
1.092242904876584
1.117139765906742
1.118953314008212
0.8055046084785162
1.162029967556153
1.14239254707902
1.125675129980173
1.140474537283776
1.201073421131913
1.321800979486079
1.71746691193676
1.140461897304541
1.188874693920774
1.275075180893659
1.18173269419353
1.136956708197042
1.179569873928674
1.252846394647406
1.027535087194525
1.132923221939791
1.165457127167565
1.215798705362219
0.8788714970507632
1.945081685238032
1.386973364988185
1.212808645171132
1.13443703230122
1.77490127679608
1.41159979481146
1.226892474230597
1.124974505010706
1.585975415214652
1.366103895658312
1.221506374117721
1.109067261830025
1.3948382334248
1.305726970594552
1.191061350621426
1.084293429732306
0.9854182861448771
0.9755969414760549
0.9503708137579151
0.8753676417118386
1.009919097806188
1.039760919840031
1.036596303218501
0.9571064655858986
1.038620099867617
1.101927508493233
1.127949871715541
1.064399467674076
1.064422730338582
1.149828269183378
1.216003213366635
1.193061098058015
0.8151715019810004
0.8746823233013193
0.9234562718412438
1.006074733142022
0.7674917147861773
0.817603633164616
0.9053477605622479
1.03792557812379
0.714356541521786
0.7749389024655492
0.921914428994703
1.069247612199381
0.6624721106497573
0.750987445950359
0.9748984925746611
1.08946344759987
1.113322246366892
1.121409743400124
0.9542274543196742
0.5177895675444867
1.108802818972769
1.108874356801715
0.8848686386327677
0.5549425724297166
1.106524011895196
1.080246017581506
0.8075041264217888
0.5746160989406975
1.100895491036894
1.033509268919594
0.7627568613597862
0.6140859728817446
1.113023960019929
1.111386059151394
1.110313875282824
1.109951884947173
1.125572435635616
1.125647128273772
1.120187604946353
1.113436825872151
1.03797099421814
1.115050512278904
1.125822955057733
1.120906461100495
0.5734028977769006
0.8046108840338849
1.079489072952132
1.128791756405336
1.109839900322499
1.107802439346397
1.113536395493104
1.1263894616618
1.109985294308355
1.102514732979024
1.105646919291288
1.123416398527287
1.110735889802397
1.098712017178261
1.09616390486391
1.119220141860776
1.111890056505613
1.097061333464446
1.086124753720103
1.111645889643412
1.117316745757089
1.111149008092609
1.065631562370642
1.040053008983654
1.116401031672479
1.105552575135667
1.065218924707221
1.075624177032624
1.115078563236867
1.100432685929916
1.069326139335181
1.089969145606373
1.113440641306923
1.097673032001681
1.077707283921197
1.104393046745401
0.98105348105648
1.079903937672842
1.11550764490226
1.117859300261913
0.9575134714852021
1.088274566045762
1.116770909344498
1.117968927356848
0.9591349524387895
1.097435465970687
1.117468091231465
1.117995259626247
0.9590691122431972
1.104434038984787
1.117902555724624
1.118010992328074
0.9700772605858617
1.113109227444158
1.118021818277647
1.118016146178652
0.9723374989689848
1.113824355725413
1.118008386318394
1.118016603632059
0.9943407426866213
1.115369365030909
1.118014695887794
1.118016634947369
1.031318452046269
1.116457617259269
1.118016282146219
1.118016636532614
1.118016635923625
1.118016634792657
1.117913276769906
1.101702504723219
1.118016635921967
1.118016632485307
1.117870539155275
1.096269017427479
1.118016635905015
1.118016621508175
1.117737696423065
1.089039185771904
1.118016635822624
1.118016566728772
1.117400360780177
1.069555131527502
1.090021766797163
1.079809169554796
1.058234513757045
1.008455843603274
1.079809169563847
1.064150312174133
1.027796046645217
0.9529330223335671
1.058234513776324
1.027796046660577
0.9622078417389528
0.8591091156826964
1.008455843620719
0.9529330223572612
0.8591091156944843
0.751544955582709
0.7259578344276607
0.763472673494988
0.8354131276602554
0.9069056228167162
0.780883794730227
0.7857143488735419
0.8156862356302877
0.861003371578918
0.7683368524898035
0.8085907814584323
0.8384374720271341
0.8598145357259017
0.8035044683844063
0.8475335851455792
0.8694714069452584
0.8807780158281061
0.8966518347199792
0.909515650996632
0.929624623669514
0.9684914973089016
0.8949918901021416
0.9106168482973654
0.9352851259689952
0.9903471594789058
0.8839068841976432
0.9081221050032404
0.9365981929450595
1.054092834558191
0.8334667020919422
0.860997024564718
0.8995069887046215
1.141561309012593
1.149102517764221
1.190190919825532
1.162244708283321
1.155848561565014
1.270484016470192
1.298132356661664
1.245480073418741
1.213594585267215
1.425516299504712
1.363578660462904
1.297061786119325
1.251312261430474
1.160550745836704
1.10103607407825
1.087576949324028
1.089678504619525
1.158622088953961
1.159546373482379
1.157141343328602
1.153222235499635
1.1976795387536
1.182975301000452
1.168754054120245
1.156243908992514
1.223635815753169
1.198458424217245
1.17510281052758
1.153896649386418
1.08893511909552
1.078627936877062
1.068265549821533
1.050980649937608
1.122113206582606
0.8700094627194824
0.5643540279937365
0.3648329336268472
1.09091824363802
0.6976094024079675
0.3661628451738556
0.1741350793957271
1.032833584751375
0.5043346789284753
0.147541047097502
0.03135615152875915
0.8517560896505385
0.3004597707355116
0.02332773441824932
0.1011548055598672
0.3408970302535126
0.4415097536264923
0.5060771144721801
0.5696198361351741
0.2433975941627105
0.3991280500412152
0.4925652843804741
0.5666270977230905
0.1101839803816888
0.3087574446842306
0.4557144414838882
0.5501829557647129
0.009858394963092857
0.1609767836371461
0.3251019270516295
0.4612703745183198
0.6437902356736885
0.7091237861177789
0.7653465009767411
0.8044258568034872
0.637207462863551
0.7038033581425597
0.759963267275328
0.7996774034874145
0.6207889967016064
0.6914816671516866
0.7536165215550323
0.7976353044978162
0.5749313909281727
0.6673097099842016
0.7485515984861663
0.7963444004642556
0.8505506525637918
0.9213131091380158
1.016684191932812
1.130832508602922
0.8424439825393082
0.9072174847700155
0.9950903831005713
1.146748974946181
0.8386702502387555
0.895581800226655
1.009277047732363
1.465247865563681
0.8366966598319018
0.8901272323157449
1.035239458344599
2.043034924603208
1.358004540127059
1.502748295332083
0.7467011067354682
1.540928437907146
1.440689166878163
1.291889398436173
1.120957689811092
1.900701366800251
1.484631145305258
0.9245288074033126
1.364565537007784
1.930167318296223
1.143592150367019
0.4372442373261055
1.650013934127497
1.864185243797131
1.320043090862809
0.8907091723687826
0.68609378928856
0.4518946012798448
1.399964395368109
0.9917589760211838
0.7130716932797313
0.3512409078711584
1.338000790559673
0.9695925439682275
0.6147480819157589
0.2354620612083358
1.275455793821489
0.9266902286520277
0.5551674878953764
0.179007385296153
0.31298345760938
0.09001918778958883
0.1519508847457473
0.3539374136829948
0.3575700038312167
0.2740393826206529
0.06743299903219965
0.2737565653539519
0.3253565237864984
0.3765553920221665
0.2087398238725513
0.1802082107218249
0.2563818493349811
0.37707476188695
0.2875003049472777
0.05460535494707874
0.330360795070881
0.3633318245231422
0.3674644802559514
0.3665545710726701
0.3127509988032069
0.2977543232307501
0.3017564587883694
0.2879400758955316
0.2125397818153491
0.1577235916569398
0.1531282201094304
0.1300861939324541
0.1153235315015422
0.06703209030319687
0.08520676366639483
0.08051768895003046
0.06427366618573838
0.06053914481701967
0.05568826223567001
0.04946367229107387
0.08590580181755816
0.03554163782253975
0.01249096806694566
0.03216434034777882
0.234344459355604
0.1729342319589225
0.1018686453981392
0.04156804497911711
0.326318980723345
0.2781445699649874
0.2179005535723496
0.1782792804773585
0.04946367229082541
0.03216434034780168
0.04156804497893947
0.1782792804772245
0.05568826223500523
0.01249096806708577
0.1018686453981686
0.2179005535731118
0.06053914481643101
0.03554163782270235
0.1729342319589265
0.2781445699657448
0.06427366618530261
0.08590580181781429
0.2343444593555923
0.3263189807235878
0.3665545710712918
0.3674644802556042
0.3633318245225927
0.3303607950705353
0.2879400758955024
0.3017564587882763
0.2977543232304316
0.3127509988028047
0.1300861939324853
0.1531282201092766
0.1577235916569918
0.2125397818151321
0.08051768895007404
0.08520676366677193
0.0670320903037223
0.1153235315020619
0.05460535494674978
0.2875003049449991
0.377074761884427
0.2563818493333529
0.1802082107217189
0.2087398238713026
0.376555392019108
0.3253565237828232
0.2737565653538247
0.06743299903151846
0.2740393826171775
0.357570003827672
0.3539374136830779
0.1519508847471505
0.09001918778564057
0.3129834576038167
0.4518946012750486
0.686093789289042
0.8907091723835958
1.320043090849295
0.3512409078682915
0.7130716932782503
0.9917589760269
1.399964395367913
0.2354620612071222
0.6147480819141741
0.969592543970326
1.338000790560897
0.1790073852963035
0.5551674878958477
0.9266902286519469
1.275455793822813
1.540928437865039
0.7467011067316611
1.502748295329742
1.358004540126582
1.900701366786175
1.120957689820098
1.291889398437702
1.440689166875862
1.930167318300376
1.364565537015136
0.9245288074000023
1.484631145301734
1.864185243801012
1.650013934137647
0.4372442373266988
1.143592150366177
1.130832508601755
1.016684191931812
0.9213131091389865
0.850550652563148
1.146748974946743
0.9950903831008235
0.9072174847696357
0.8424439825410257
1.465247865561563
1.009277047731879
0.8955818002232088
0.8386702502387745
2.043034924598494
1.035239458345528
0.8901272323130325
0.8366966598325437
0.8044258568046789
0.7653465009780209
0.7091237861172631
0.6437902356746485
0.7996774034880656
0.7599632672751988
0.7038033581436858
0.6372074628639888
0.7976353044966383
0.7536165215558441
0.691481667151616
0.6207889967017627
0.7963444004656021
0.7485515984861263
0.6673097099841174
0.5749313909276181
0.5696198361361005
0.5060771144739169
0.441509753626352
0.3408970302539545
0.5666270977233562
0.4925652843823982
0.3991280500421867
0.2433975941634889
0.5501829557648634
0.455714441484625
0.3087574446848264
0.1101839803825135
0.4612703745176365
0.3251019270507061
0.1609767836374986
0.009858394963306134
0.3648329336278377
0.5643540279962733
0.870009462720252
1.122113206580402
0.1741350793965998
0.3661628451763107
0.6976094024104392
1.090918243636059
0.03135615152816284
0.1475410470991247
0.5043346789310154
1.03283358474923
0.1011548055597984
0.02332773441835729
0.3004597707363368
0.8517560896474236
1.153222235498501
1.157141343332844
1.159546373488519
1.158622088959491
1.156243908990494
1.168754054120882
1.182975301005492
1.197679538757087
1.15389664938396
1.175102810527245
1.198458424222
1.223635815757012
1.050980649933313
1.06826554982277
1.078627936880006
1.088935119100263
1.155848561569911
1.16224470829027
1.190190919824149
1.149102517763216
1.213594585273468
1.245480073425682
1.298132356660524
1.270484016469769
1.251312261437062
1.297061786126222
1.363578660461269
1.425516299505269
1.089678504620209
1.087576949329573
1.101036074077287
1.160550745839131
0.9684914973091522
0.929624623669558
0.9095156509934956
0.8966518347181163
0.9903471594782207
0.9352851259661922
0.9106168482948683
0.894991890099502
1.054092834559593
0.9365981929447819
0.9081221049985968
0.8839068841931124
1.141561309011887
0.8995069887019523
0.8609970245617117
0.8334667020879117
0.8807780158262608
0.8598145357242863
0.8610033715741298
0.9069056228048462
0.8694714069438608
0.8384374720211496
0.8156862356239958
0.8354131276477167
0.8475335851402812
0.8085907814509259
0.7857143488650797
0.7634726734859938
0.8035044683800879
0.7683368524828879
0.7808837947223786
0.7259578344241376
0.6232859922518722
1.002705182560253
1.099020530722105
1.116673336097009
0.6574122603532797
0.9785212183136968
1.091855114224919
1.115850680755184
0.6902735125106555
0.9705191570839374
1.085819238184702
1.114840375941105
0.7062592206772054
0.9574424089844191
1.079432739271537
1.113852823112514
1.113028281676495
1.069465428535362
0.9389519899726497
0.6500038120708376
1.112891582585984
1.069604822090684
0.9372236559725158
0.6571830142924274
1.112842162543038
1.070400841666747
0.9362573423709286
0.6852848125390492
1.113118099078409
1.073784390121176
0.943966182960702
0.7090138318910874
1.113852823114558
1.114840375938195
1.115850680758033
1.116673336102246
1.079432739275308
1.085819238186426
1.09185511423057
1.099020530728639
0.957442408983833
0.9705191570866417
0.9785212183144316
1.002705182559695
0.7062592206767093
0.6902735125110685
0.6574122603531247
0.6232859922510146
)
;

boundaryField
{
    back
    {
        type            empty;
    }
    inlet
    {
        type            calculated;
        value           nonuniform List<scalar> 
16
(
1.118016635923817
1.118016635923327
1.118016635921991
1.118016635900154
1.118016636034887
1.118016635839496
1.118016624557795
1.118016452907914
1.118016452907097
1.11801662455725
1.118016635839877
1.118016636034292
1.118016635923624
1.118016635923231
1.118016635921705
1.118016635899328
)
;
    }
    front
    {
        type            empty;
    }
    top
    {
        type            calculated;
        value           uniform 0;
    }
    outlet
    {
        type            calculated;
        value           nonuniform List<scalar> 
16
(
1.111558738017171
1.111422041925034
1.111388477245452
1.1117636269664
1.116097239201115
1.115120018633034
1.113890178349995
1.112672721185499
1.111558738015114
1.111422041925162
1.111388477246376
1.111763626968718
1.112672721187238
1.113890178346973
1.115120018636045
1.116097239206438
)
;
    }
    bottom
    {
        type            calculated;
        value           uniform 0;
    }
    wall
    {
        type            calculated;
        value           uniform 0;
    }
}


// ************************************************************************* //
