/*--------------------------------*- C++ -*----------------------------------*\
  =========                 |
  \\      /  F ield         | OpenFOAM: The Open Source CFD Toolbox
   \\    /   O peration     | Website:  https://openfoam.org
    \\  /    A nd           | Version:  11
     \\/     M anipulation  |
\*---------------------------------------------------------------------------*/
FoamFile
{
    format      ascii;
    class       volScalarField;
    location    "0.3592363";
    object      T;
}
// * * * * * * * * * * * * * * * * * * * * * * * * * * * * * * * * * * * * * //

dimensions      [0 0 0 1 0 0 0];

internalField   nonuniform List<scalar> 
880
(
500.0000000000027
500.000000292371
500.0240606967789
503.3408006841848
500.0000000004407
500.0000008570672
500.0298643736105
504.8871310894789
500.0000000016358
500.0000033381324
500.0553415091774
506.7156498801855
500.0000000211684
500.0000146206644
500.1147617720825
509.4283987379341
499.9999999006574
500.000000075423
500.0000101662398
500.0001636969839
500.0000671578647
500.0002570912221
500.0016144276314
500.0023566116344
500.2633629400793
500.4347006253652
500.7186536918859
500.9607584392172
514.9178231297516
521.1125498517457
526.3742594827373
529.0291866508491
500.0004089507365
500.0033846885248
500.0128251375177
500.0397780864214
500.0227914574962
500.0985661782691
500.2005078906669
500.4220205905534
502.4155777239818
503.6983894161916
505.2861482409758
507.2307159984418
531.2573007773789
533.8983936998635
534.392583028115
533.1640161217462
522.8401823685899
517.6388977053434
515.4439802002917
513.9695443443117
511.0475081611985
512.6641742860216
513.5779399815265
513.7075583565884
501.1772367768201
502.0603067602792
503.0083144441862
503.7665777522416
500.1411464718336
500.3405986712921
500.6412547427798
501.0639184415605
501.5574423324528
502.0498916417154
502.535600148267
502.887238595232
504.3928307193385
504.7490070165289
504.9504655535163
504.900573209304
513.0678934149807
512.1692306376776
510.9866150674374
509.7491175462958
512.221923164125
511.0323371075984
510.2808463419548
509.5129917154425
508.9400032294423
508.8784205738239
504.7597759927963
503.0953001497882
519.1986754425214
508.0402794889142
504.3860271112
503.0560678479054
571.3184090098116
510.4333373602401
503.9291939364169
502.6034234667246
620.3437735399805
523.8956417866144
504.7805007583553
502.4448765688925
502.3965336727009
506.0674079963635
539.6772669936682
637.4092156469806
501.5158511125638
508.5903123491305
556.3027910340211
635.1891455932081
501.8918315438072
514.4421507586246
576.6103577037121
636.1937805341283
503.3246112613332
524.8673097414527
594.7477502318674
633.4377889274731
628.3168029511698
604.8052501604487
539.8155324689156
506.4864379872753
621.8130848079464
607.4543997028868
554.9978942705267
512.1639307023214
614.4987015124125
605.2839222125194
566.994590734965
521.159024775027
606.6428265409868
594.2587717287622
569.0866616798329
532.0894680031884
541.2919833988861
563.5993114713468
579.7592256432838
597.1536343905516
539.8327218693713
552.0558913608509
562.8277708082329
582.2094033267713
535.8351622555131
540.3214244447685
544.5106058447517
560.5778547534693
530.6370995591692
529.8355411885763
525.3122891988157
530.4062903727798
526.7522499964906
520.4504638084559
508.4952305337671
495.5316999614237
520.591062717904
511.2779677138493
491.9682160154893
459.8351055626293
515.7629267621866
506.0172354689824
477.9303923890452
425.1203528232536
511.5881855970562
504.58316531651
477.6783093214183
399.8644213675317
410.5413463421309
486.8263720028775
503.2609298685163
507.7683622809649
477.9404615609502
493.0371416035948
502.4041466295825
505.1697829663253
517.2613648361819
495.7346167207698
500.8734841806139
503.3598625494245
530.1724671814393
500.4061525522222
500.2272604734529
502.2904849390496
539.002935043898
504.3270489968821
498.9655239951477
500.3929310487823
533.7937060520916
504.2973786262403
497.6634666223799
499.2219069405463
525.7948924979311
503.4849353554665
497.2753772105111
499.1942453314371
517.7068111187278
499.1155144389327
497.079406620359
499.4039057456718
479.7735416929792
469.4022714293027
488.9354936657676
498.6805604514896
474.2556637197158
471.2942434160838
489.4246381294489
498.680401181272
465.230306406582
473.4182845161325
490.3269423210645
498.6945715355506
459.5023408350909
476.2501688909867
491.3790954290436
498.7839133765585
517.7068111187832
499.1155144385637
497.0794066206586
499.4039057454103
525.794892498
503.484935354796
497.2753772104289
499.194245330508
533.7937060521227
504.2973786256298
497.6634666212242
499.2219069396709
539.0029350439911
504.327048995954
498.9655239949175
500.3929310482919
507.7683622811857
503.2609298688349
486.8263720030496
410.5413463411642
505.1697829661845
502.4041466296328
493.0371416039952
477.9404615599404
503.3598625494943
500.8734841808533
495.7346167199301
517.2613648360402
502.2904849389838
500.2272604738757
500.4061525516239
530.1724671817839
399.864421370016
477.6783093214524
504.5831653166982
511.5881855972435
425.1203528231816
477.9303923890244
506.017235469409
515.7629267620785
459.8351055626246
491.9682160162744
511.2779677139154
520.5910627181463
495.5316999619243
508.4952305334886
520.4504638078121
526.7522499966175
541.2919833989785
563.599311471954
579.7592256439262
597.1536343910388
539.8327218689135
552.0558913605192
562.8277708084503
582.2094033273727
535.8351622547671
540.3214244444863
544.5106058447136
560.5778547538235
530.6370995589342
529.8355411881357
525.3122891985161
530.4062903732214
606.6428265413626
594.2587717292309
569.0866616801247
532.0894680041281
614.4987015129467
605.283922212981
566.9945907350711
521.159024774956
621.8130848084712
607.4543997032953
554.9978942702068
512.1639307023902
628.3168029516884
604.8052501608084
539.8155324693535
506.4864379871583
502.3965336725017
506.0674079963022
539.6772669935432
637.4092156471106
501.515851113293
508.5903123495133
556.302791034122
635.1891455934305
501.8918315448038
514.4421507596948
576.6103577041679
636.1937805341058
503.3246112613423
524.8673097413357
594.7477502324791
633.4377889276726
502.444876568723
502.603423466532
503.0560678484763
503.0953001499353
504.7805007576455
503.92919393607
504.3860271113129
504.7597759926234
523.8956417858669
510.4333373601724
508.0402794883641
508.8784205736838
620.3437735398985
571.3184090094114
519.1986754426753
508.9400032293123
502.8872385957469
504.9005732096602
509.7491175466705
509.5129917157332
502.5356001480719
504.950465553841
510.9866150676337
510.2808463421387
502.0498916417113
504.7490070167394
512.1692306377497
511.0323371069794
501.5574423320271
504.3928307191033
513.0678934151761
512.221923164288
500.1411464713004
501.1772367764843
511.047508161599
522.8401823689396
500.3405986707153
502.0603067598659
512.6641742865328
517.638897705353
500.6412547432562
503.0083144437335
513.5779399819495
515.4439801994462
501.0639184411197
503.7665777521791
513.7075583567538
513.9695443438661
533.1640161217807
507.2307159986655
500.4220205904631
500.0397780867615
534.3925830282203
505.2861482411287
500.200507890402
500.0128251373742
533.8983937002206
503.6983894160552
500.0985661770483
500.0033846881133
531.2573007776035
502.4155777236252
500.0227914571154
500.0004089512444
529.0291866506115
500.9607584395639
500.0023566118422
500.0001636977145
526.3742594822476
500.7186536919229
500.0016144273825
500.0000101667276
521.1125498511279
500.4347006253185
500.0002570909471
500.0000000750825
514.917823129264
500.2633629399156
500.0000671572724
499.999999901189
500.0000000001753
500.0000002925185
500.0240606967075
503.3408006839584
500.0000000005271
500.0000008567644
500.0298643736791
504.8871310894194
500.0000000018922
500.0000033379117
500.0553415092418
506.7156498806719
500.0000000219067
500.0000146204946
500.1147617721735
509.4283987382372
506.2254271803442
508.9278528898539
513.2491859540152
521.8955372771117
508.9278528903041
512.3867435849138
518.7555178238417
531.3320609769869
513.2491859543086
518.7555178238954
528.8805715132353
544.0768121389139
521.8955372772094
531.3320609768152
544.0768121394868
560.2595109415266
577.2416214006666
564.2359318236436
557.3544525202911
544.9498474305929
575.4561269876284
571.5456318476807
570.3314348244619
564.6288493149378
575.3921748563159
574.3217447156346
573.761372505614
572.0573450527289
571.9799602861868
571.5450638392176
571.6839755568977
570.9796879770826
567.8988603669716
565.5535416933021
560.4612880981555
553.2864659201718
567.5583332081708
565.1532500446147
560.2395038301634
553.9644437998703
567.5747314507345
564.9925003530711
559.9824150640708
554.5583769158081
567.6370637340192
564.7358977089242
560.1859916674898
550.9724954090367
512.3813740758175
492.8099011418685
489.9499512408857
490.4503197045658
501.8264805509618
488.7084403062373
489.9704909043809
491.0967727711264
491.5798246441237
488.8778088603337
491.559362075368
492.8374087592048
469.9267061178413
484.1233570907647
489.901317821725
491.5987591564016
490.7931848187372
491.8105013202717
493.3327554491284
494.8470090234673
491.0039064280433
491.4808093136858
492.8627225330484
494.8616059009464
492.3164376430978
492.338629697534
493.2673291731176
494.7357303086023
491.2483060569539
491.4195025561214
492.7258554878273
494.8404142954102
505.0243302333215
567.6797693588318
639.3619233570275
664.5433215668473
510.9450210413785
581.1660605513794
642.007995515426
660.2510473123606
516.4242790886263
589.4971146662956
641.9780604401968
660.9494000473326
520.233462964071
597.7648973079433
642.1826267639343
661.362395226693
694.300751731394
681.4452519084242
670.1399079745195
656.8750551969853
702.7508872779764
690.0068043214955
676.8982074447929
662.5492714657743
708.7285427744326
697.4718352624739
683.0150113456796
668.040634342346
706.652316462434
701.2939203364976
687.1940570605374
671.8351424904896
643.6160859072146
633.027063865641
623.2182272097521
618.9683205298247
648.7145614287491
637.1077229824027
625.9496235616465
621.0677483108691
653.8779988815204
640.6180680243385
629.5060604840386
623.1776890328982
658.2966867438448
643.692469661024
632.996814869272
625.5984451910589
615.0674015104129
607.646271778412
590.9805870098446
565.007987468239
616.8448330433079
609.2347785003643
593.7784204548605
592.6504797467358
617.8389757747325
610.1545392194204
602.7703043811812
620.415625601081
619.7334423020287
614.0057256446619
616.3505065418598
603.9811711921087
522.528995435337
460.1974162203103
422.6671063141009
426.5673693617857
512.0671555545573
421.9834294322518
305.5285821610067
252.9710298265319
468.7318168346295
368.101230137464
252.1784328657017
231.8540365222576
368.0076686529445
282.585926231358
227.8297937609343
239.5912435803444
376.1245595039754
403.9271036346477
471.0876799434951
522.9244091644076
306.4932869722264
380.3611250216538
441.8188927091088
491.7073231247359
291.6674234499865
350.9021784074683
404.4013103563628
445.1310294268907
298.9377703214603
351.4328659173123
402.1235149380095
431.1499435968973
487.0604470044602
510.3456231203427
509.2794655824137
509.6869034834232
435.7732208354368
473.9286771288942
492.6748871895215
510.5671052635571
407.353088898587
432.9142150342554
470.5545786549989
514.1742947831033
392.4920965766177
408.273867833546
445.0625637255797
512.9338777509363
491.8260949231232
470.6133023383659
459.3926103199695
459.7032033262921
495.1783040295076
486.0219716040395
482.0171057881357
475.8952812882438
504.2370688476233
507.4084137164455
501.610302870795
488.6176855331498
503.6015893170618
508.6045604560603
498.7249599791226
484.0920450512182
465.9311729748715
450.6272799141203
442.2371903219807
439.8954715466438
471.5290424496048
455.6886023761288
444.4202378667129
441.0563822865101
469.7954009539548
461.295704914797
452.6149324330883
448.9984781702365
462.8006934324
460.2204141961829
455.4796067044661
452.3449530637774
439.8954715466081
441.05638228648
448.9984781702611
452.3449530638692
442.2371903218131
444.4202378665631
452.6149324330867
455.479606704721
450.6272799138436
455.6886023758451
461.2957049146964
460.2204141963749
465.9311729744462
471.5290424494106
469.7954009538675
462.8006934325529
459.7032033264152
459.3926103199914
470.6133023386705
491.82609492334
475.8952812882766
482.0171057882296
486.021971604332
495.1783040297291
488.6176855329631
501.6103028706435
507.4084137165179
504.2370688476881
484.0920450509904
498.7249599790325
508.6045604559862
503.6015893170295
512.9338777510355
445.0625637259998
408.2738678341577
392.4920965772258
514.1742947832078
470.5545786554523
432.9142150348464
407.3530888992937
510.5671052637275
492.6748871898374
473.9286771294391
435.7732208363258
509.6869034835601
509.2794655826041
510.3456231208441
487.0604470051124
522.9244091642003
471.0876799434388
403.9271036331359
376.1245595130124
491.7073231247266
441.8188927093602
380.361125020999
306.4932869725957
445.1310294271863
404.4013103569623
350.902178407168
291.6674234497855
431.1499435972848
402.1235149385496
351.4328659176348
298.9377703214845
426.5673693835557
422.6671063160153
460.1974162203036
522.5289954356691
252.9710298300332
305.5285821609054
421.9834294318808
512.0671555548801
231.854036522476
252.1784328653572
368.1012301381421
468.731816835305
239.5912435804963
227.829793760378
282.5859262319611
368.0076686535472
565.0079874686127
590.980587010245
607.6462717789436
615.0674015107013
592.6504797470774
593.7784204550561
609.2347785006135
616.8448330437827
620.4156256013863
602.7703043811897
610.15453921925
617.838975774954
603.9811711929316
616.3505065418188
614.0057256444318
619.7334423022878
618.9683205304298
623.2182272101614
633.027063865482
643.6160859072535
621.0677483113915
625.9496235616704
637.1077229821306
648.7145614284785
623.177689033101
629.5060604842117
640.6180680239129
653.8779988812248
625.5984451914698
632.9968148694771
643.6924696608717
658.296686743518
656.8750551968063
670.139907974114
681.4452519080814
694.3007517311469
662.5492714655179
676.8982074447694
690.0068043213927
702.7508872775655
668.0406343419966
683.0150113453852
697.4718352618345
708.7285427744771
671.8351424901641
687.1940570603496
701.2939203364408
706.6523164618648
664.5433215668335
639.3619233567671
567.6797693587931
505.024330233783
660.2510473122153
642.0079955151432
581.1660605512833
510.9450210419382
660.9494000471024
641.978060439858
589.4971146660953
516.4242790891977
661.3623952269519
642.1826267635995
597.7648973077187
520.2334629646332
494.8470090241186
493.3327554490244
491.8105013195411
490.7931848182712
494.8616059015931
492.8627225329198
491.4808093127197
491.003906427629
494.7357303092453
493.2673291727998
492.3386296965459
492.3164376425686
494.8404142960482
492.7258554874548
491.4195025550692
491.2483060561483
490.4503197037757
489.9499512402606
492.8099011422725
512.3813740761872
491.0967727703701
489.9704909035343
488.708440306761
501.8264805512507
492.8374087584315
491.5593620743983
488.8778088607869
491.579824644336
491.5987591555974
489.901317820562
484.123357091138
469.9267061180619
553.2864659203348
560.4612880983782
565.5535416939673
567.8988603668245
553.9644438000986
560.2395038302931
565.1532500452241
567.5583332079465
554.5583769156116
559.9824150640745
564.9925003535174
567.5747314504416
550.9724954090443
560.1859916675767
564.7358977090938
567.6370637337923
570.9796879761727
572.0573450516315
564.6288493140042
544.9498474307102
571.6839755559314
573.7613725040891
570.3314348227602
557.3544525197991
571.5450638381213
574.3217447138816
571.5456318448482
564.2359318217917
571.9799602852488
575.3921748544492
575.4561269841981
577.2416213969963
505.1314648487245
497.2538191251976
496.8135848558618
499.484228492111
485.4159959846885
492.0361717307784
495.3926660269738
499.3454116084216
470.3698404474508
486.3989796569407
493.9791505956371
499.1480460550705
460.1373125138508
480.4285022732621
492.4955498747346
498.9410838156873
498.6805604510598
488.935493665797
469.4022714292317
479.7735416930645
498.6804011808946
489.4246381295752
471.2942434159331
474.2556637200683
498.6945715355288
490.3269423214771
473.4182845158409
465.2303064068922
498.7839133765555
491.3790954292627
476.2501688907548
459.5023408352354
498.9410838154153
499.1480460549673
499.3454116085687
499.4842284921896
492.4955498744774
493.9791505954443
495.3926660264195
496.8135848557259
480.4285022734629
486.3989796572135
492.0361717313295
497.2538191256212
460.1373125136736
470.369840447199
485.4159959846967
505.1314648488085
)
;

boundaryField
{
    back
    {
        type            empty;
    }
    inlet
    {
        type            zeroGradient;
    }
    front
    {
        type            empty;
    }
    top
    {
        type            zeroGradient;
    }
    outlet
    {
        type            fixedValue;
        value           uniform 500;
    }
    bottom
    {
        type            zeroGradient;
    }
    wall
    {
        type            zeroGradient;
    }
}


// ************************************************************************* //
