/*--------------------------------*- C++ -*----------------------------------*\
  =========                 |
  \\      /  F ield         | OpenFOAM: The Open Source CFD Toolbox
   \\    /   O peration     | Website:  https://openfoam.org
    \\  /    A nd           | Version:  11
     \\/     M anipulation  |
\*---------------------------------------------------------------------------*/
FoamFile
{
    format      ascii;
    class       volScalarField;
    location    "0.089";
    object      T;
}
// * * * * * * * * * * * * * * * * * * * * * * * * * * * * * * * * * * * * * //

dimensions      [0 0 0 1 0 0 0];

internalField   nonuniform List<scalar> 
880
(
300
300
300
300.0000764441743
300
300
300.0000000003668
300.0006350741269
300
300
299.9999999997596
300.0029787153166
300.0000000000001
300
300.0000000007671
299.9999292381896
300
300
299.9999999999999
300.0000000004537
300
300
299.9999999999997
300
299.9999996368766
300.0000075633093
300.0171761688119
299.9576992390922
300.7434356556453
303.5064075086415
306.0385309358084
307.2606254815127
300.0000023769038
300.0000056590225
300.0000065215446
300.0000031128673
300.0000722703036
300.0001675554508
300.0002710025954
300.0001493211185
300.0619929978836
300.0990138837801
300.1313787621784
300.1180657137648
308.713416775682
310.1606043463707
311.1984157473053
312.3549472122087
311.3724814242418
308.9304431824832
306.455090422379
304.3828371117772
300.2198316521179
300.3306083286883
300.3896255106665
300.3049206562366
300.0005800503034
300.0011609846249
300.0017285963158
300.0014727542449
300.0000179712561
300.0000324798217
300.0000424652328
300.0000325132542
300.0000123216291
300.000001852909
300.0000000754364
300.0000000004828
300.0007683163346
300.0002091305149
300.0000226772232
300.0000006966213
300.1584085234275
300.0538242921623
300.0094710557293
300.0005380189331
302.6910172627572
301.3459098685596
300.4273543283456
300.0604557978702
300.0025117849138
300.0000062575529
300.0000000011827
300.0000000003298
300.000234968314
300.0000025414133
299.999999981652
299.9999999981391
299.9971569271458
299.9999058916715
300.0000018198521
300.0000003875835
301.5261628577056
300.0010419109018
299.9996267720247
299.999987067303
299.9999819339154
299.9998289483891
300.0363356158335
316.3993226329789
299.999997618462
300.0001697764613
300.2095305931679
330.2775557207285
300.0000285280673
300.0009910939983
300.5046885090828
339.8970240862225
300.0000578769163
300.0022479212209
300.9053848157476
349.1429682541095
355.6321846234795
301.1540007642894
300.0028041495674
300.000075619577
360.5596450744521
301.5227874389528
300.0044360748029
300.0001132070017
363.0783498610239
301.6831126247327
300.0047550561571
300.0001298996498
366.0405671671212
302.1833685592553
300.0080701123142
300.0002248483142
300.0002282838874
300.0081825757744
302.5333493986482
370.3350135093891
300.0003197126838
300.0116720235076
303.2075537882216
372.1097864262719
300.0004891306272
300.0156404045823
303.4639396111105
367.2369979425686
300.0000411410578
300.0029055994073
301.7858789018147
348.42311209958
300.0009889377303
300.0416122404455
302.9903386853538
329.6584086205033
299.999810017388
300.049274235356
302.3666234610001
314.6971540614025
299.9989282367863
299.9930643274658
301.1216763153886
309.0760208180827
299.9994963612941
299.9307215967056
299.5230730090545
305.9799193808073
298.8846137076131
298.7842934122555
299.9524103572809
299.9998711259317
291.7302439411687
298.6894399276941
299.9731157311268
299.9999118899045
285.6602171800044
298.7890044312886
299.9862948697319
299.9999640634452
286.6239763081993
298.8907814771168
299.9863281401445
299.9999623465106
286.8886768951868
299.5488027550128
299.9964217528544
299.9999889403151
287.4861806101783
299.813965320753
299.9991376901051
299.9999978879044
289.8343404040724
299.9025788539431
299.9996874461197
299.999999422041
294.2105178740891
299.9569200778137
299.9998633083349
299.9999995601853
297.4146844689646
299.844798210534
299.997339588025
299.9999850532013
297.6388837078359
299.8464519018644
299.9973324515913
299.9999850547939
297.8638866805991
299.8444314778271
299.9973012227931
299.9999850103683
298.8735387952692
299.8553013165375
299.9972437402893
299.9999851272227
294.2105178734155
299.956920077237
299.9998633073622
299.9999995614684
289.834340403596
299.9025788532878
299.9996874441871
299.9999994222573
287.4861806101121
299.8139653214979
299.9991376903798
299.999997887985
286.8886768955679
299.5488027569452
299.9964217530072
299.999988939725
299.9998711261044
299.9524103594642
298.7842934121905
298.884613707335
299.9999118917579
299.9731157312803
298.6894399279015
291.7302439411063
299.9999640624522
299.9862948709282
298.789004430671
285.6602171808931
299.9999623466073
299.9863281408294
298.8907814790474
286.623976307806
305.9799193798416
299.5230730080842
299.9307215946209
299.9994963602769
309.0760208167843
301.1216763142097
299.99306432585
299.9989282338934
314.6971540613436
302.3666234599064
300.0492742357976
299.9998100178819
329.6584086208632
302.9903386850733
300.0416122395328
300.0009889405174
300.0002282830478
300.0081825776384
302.5333493994683
370.3350135101063
300.0003197127371
300.0116720247139
303.2075537887614
372.1097864264063
300.0004891319188
300.0156404046159
303.4639396101293
367.2369979426586
300.000041143424
300.002905599549
301.7858789009081
348.4231120993957
366.0405671683211
302.1833685585229
300.0080701144993
300.0002248482073
363.0783498623005
301.6831126298135
300.0047550551554
300.0001299000652
360.559645073648
301.5227874377792
300.0044360789026
300.0001132064462
355.6321846239438
301.1540007607763
300.0028041475505
300.0000756190974
299.9999819350417
299.9998289493511
300.0363356159795
316.3993226320129
299.9999976177662
300.0001697751899
300.2095305935457
330.2775557205206
300.0000285273226
300.0009910932163
300.5046885090278
339.8970240862404
300.0000578759837
300.0022479228113
300.9053848176246
349.1429682550232
299.9999870670907
300.0000003880879
299.9999999981533
300.0000000002237
299.9996267709543
300.0000018198713
299.9999999826861
300.0000000006973
300.001041911237
299.9999058919394
300.0000025407169
300.0000062572125
301.5261628577895
299.9971569274319
300.0002349683654
300.0025117849394
299.9999999997339
300.0000006966815
300.0005380199268
300.0604557984237
300.000000075138
300.0000226767641
300.0094710582466
300.4273543282326
300.0000018537093
300.0002091307121
300.0538242903883
301.3459098683961
300.0000123219041
300.0007683163399
300.1584085249428
302.6910172620713
300.0000179697534
300.0005800490537
300.219831652355
311.3724814239885
300.0000324783547
300.0011609845816
300.3306083288776
308.9304431815794
300.0000424645245
300.0017285975678
300.3896255104423
306.4550904219597
300.0000325126629
300.0014727551546
300.304920655926
304.3828371110671
312.3549472125737
300.1180657166287
300.0001493203897
300.0000031121679
311.198415747971
300.1313787644905
300.0002710023743
300.000006521792
310.1606043476544
300.0990138812006
300.0001675560576
300.000005658646
308.7134167752408
300.0619929930636
300.0000722695897
300.0000023773915
307.2606254821483
299.9576992447143
300
300.0000000005995
306.0385309352164
300.0171761636774
300
300.0000000000001
303.5064075091308
300.000007562992
300
300
300.7434356555048
299.9999996365391
300
299.9999999999999
300
299.9999999999999
300
300.0000764446463
300.0000000000002
300
300.000000000325
300.0006350655221
300
300
299.9999999999129
300.0029787144449
300
300
300.0000000002247
299.9999292381813
300.0001204820525
300.000634761984
300.0042400677178
300.1676347781388
300.0006347723726
300.000569806435
300.0005721642707
300.6889082619779
300.0042400624881
300.000572138131
300.2480296251056
305.0849861143022
300.1676347795194
300.6889082662888
305.0849861963868
324.0997209968725
353.1385449103169
333.5330116565773
320.4172317119185
309.0448637696495
349.1117707767648
344.2178087899625
339.6339652973211
330.6564856346479
345.7405897170032
343.8377397389026
341.9605908936862
337.8757003273932
344.1167012903805
342.8318115812626
342.0794140131202
340.1944000359692
343.284409484334
344.9180014559745
345.6956785791857
348.1489708628379
343.1671661335461
344.4977726721819
345.312827525742
348.5556221126544
343.0070854265837
343.6952827544355
344.7643168762281
346.7537623714362
342.9696344559678
343.0902943853519
344.4035858142751
342.6225005978824
331.6349832809599
315.1424128648629
306.7223804598989
303.4427572859596
322.9471404550732
307.3262475613204
304.7264296216658
304.1517937788622
312.7623757887703
301.0520735199209
304.9121958819739
304.9302873233078
288.2717278113033
292.0656444069056
302.5100598723799
303.9009462147412
303.3188407680042
302.3941713652485
300.9734914507462
300.2381540765998
303.5469312274343
302.4406622840496
301.0276053286482
300.284012133059
304.1197358138499
302.8549928149683
301.2919167411112
300.3878580834389
303.3687606961028
302.5485118388331
300.8660976473791
300.1314139278106
300.025546539945
300.0006619305844
299.999485466099
324.1726535493032
300.0374511338957
300.0013609506084
299.9995418461191
339.6115758468492
300.0553660178509
300.0020099694315
299.9999767314341
348.8613893763189
299.9988332834942
299.9981002057235
299.9999962964535
352.0142877113192
397.9841218081104
412.1960400728836
418.1034119134719
424.9800302758986
414.8338748812044
417.7715518421342
417.6679942611516
421.1600896404174
420.8135440907914
414.6906739512852
414.9243923901536
415.9779779836862
431.2193854831442
419.2839770702059
413.5634283929489
414.0424228531272
430.7423491302068
435.1575141448828
435.9121126060726
436.2858823890911
424.784577309835
428.2816158041351
429.0070429988953
429.282901312954
417.9852672387947
420.8475454655481
421.9456291913799
422.2078207863015
415.5425720385744
418.0738750667171
419.3005881053636
419.5615464658184
435.7407765740163
432.3023677740991
421.6874999738532
400.1306926911257
428.7536358153502
425.4953982541365
416.4897581297765
414.3139526830821
421.7958313236677
418.9147949164824
413.4992756311002
424.1544689591739
419.033035866176
417.3220851981033
416.2489470058011
405.6820056792076
358.414561279057
302.0147832137174
227.0642375644289
212.3697334558455
345.7330918739891
264.3471461640328
208.3781185465694
187.5400977188027
308.9604837152513
227.2237242475437
180.5466189540155
162.1012096286242
239.2454469277364
171.6579227981694
176.7508819373697
152.6779601899706
213.8514423287978
213.7552438622174
212.6530603894014
207.6850624011112
186.0323070296325
183.7356350426466
183.1732736598963
185.0416673402955
157.0922480386774
155.3022301458018
160.2815225585449
189.7908458354019
144.7844447305932
143.3514869534462
150.4172467775411
194.3273075138
256.2346773819634
258.7273749913358
260.8883169104953
271.1445315627576
273.1135720478454
268.3504210656265
261.8842329965253
273.9212085724278
267.3375060184873
284.7811899987504
278.3493980966222
284.2338310637798
241.4355009293438
273.718050237572
285.1184638755924
295.3701009881258
248.7288050780367
216.0701646212223
180.919449944926
198.546999449155
247.0193761437912
214.2994059677729
171.4464571087834
131.6554704890865
240.4809575485836
192.0682026223581
127.6809936715236
104.7345833360681
207.6996752835961
134.1625434183627
85.85092882684268
93.29153603319962
112.743235547975
149.0334953365104
178.1495421176463
195.296901549277
128.0330571664077
166.6235786681511
194.8869155339106
211.3481474341151
156.1490340003201
196.9614749952373
223.1551358152869
236.9316859291194
242.1543917679836
256.8979804943234
266.1933578334667
270.1315072837623
195.2969015493541
211.3481474340948
236.9316859290612
270.1315072836792
178.1495421179305
194.8869155338576
223.1551358152666
266.1933578333038
149.0334953366816
166.623578668254
196.9614749950403
256.8979804939087
112.7432355480259
128.033057166554
156.1490340000312
242.1543917666724
198.5469994480975
180.9194499445051
216.0701646206138
248.7288050771309
131.6554704890822
171.4464571090735
214.2994059680353
247.0193761433441
104.7345833362188
127.6809936712274
192.0682026218576
240.4809575484058
93.29153603320233
85.85092882678637
134.1625434182151
207.6996752833336
295.3701009878618
285.1184638754583
273.7180502374478
241.4355009282319
284.2338310636233
278.3493980966688
284.7811899989487
267.3375060176625
273.9212085721886
261.8842329964973
268.3504210657688
273.1135720475738
271.1445315623088
260.8883169103293
258.7273749911407
256.2346773816088
207.6850624008115
212.6530603904596
213.7552438621926
213.851442328396
185.0416673402777
183.1732736609528
183.7356350430948
186.0323070292842
189.7908458355817
160.2815225591941
155.3022301462728
157.0922480385613
194.3273075137381
150.4172467779313
143.3514869537321
144.784444730713
212.369733454778
227.0642375629984
302.0147832136112
358.4145612791678
187.5400977173449
208.3781185452721
264.3471461636394
345.7330918733442
162.1012096275697
180.5466189527982
227.2237242478989
308.9604837152485
152.677960189595
176.7508819360015
171.6579227975357
239.2454469276735
400.1306926910931
421.6874999740332
432.3023677741999
435.7407765740909
414.3139526830977
416.4897581297741
425.495398254336
428.753635815741
424.1544689591747
413.4992756311706
418.9147949169392
421.7958313243492
405.6820056792185
416.2489470062857
417.3220851986658
419.0330358670253
436.2858823889042
435.9121126050656
435.1575141462747
430.7423491302328
429.2829013131964
429.0070429984093
428.2816158046849
424.7845773097539
422.2078207869205
421.9456291913633
420.8475454653586
417.9852672391
419.5615464667134
419.3005881055442
418.0738750660269
415.5425720389299
424.9800302765685
418.1034119127685
412.1960400724702
397.9841218075143
421.160089641883
417.6679942599963
417.7715518425546
414.83387488073
415.9779779852696
414.9243923887666
414.6906739516058
420.8135440902343
414.0424228547167
413.5634283913709
419.2839770707769
431.2193854824125
324.1726535488121
299.9994854629071
300.0006619310203
300.0255465401439
339.6115758462133
299.9995418444242
300.0013609510802
300.0374511341905
348.8613893755553
299.9999767305901
300.0020099697671
300.0553660181999
352.0142877104677
299.9999962962233
299.9981002060287
299.9988332840496
300.2381540766556
300.9734914502056
302.3941713653195
303.3188407673265
300.2840121329803
301.0276053283873
302.4406622837993
303.546931226744
300.3878580833156
301.2919167411388
302.8549928143918
304.1197358132861
300.1314139274922
300.8660976473254
302.5485118382428
303.3687606955522
303.4427572857247
306.7223804595259
315.1424128642095
331.6349832804886
304.1517937784806
304.7264296213546
307.3262475606932
322.9471404547601
304.9302873228124
304.9121958816339
301.0520735193062
312.7623757885804
303.9009462139992
302.5100598720444
292.0656444060868
288.2717278110843
348.1489708617245
345.695678578829
344.9180014576293
343.284409486625
348.5556221117624
345.3128275258402
344.4977726736926
343.1671661350011
346.7537623707917
344.7643168761145
343.6952827550916
343.0070854274163
342.6225005973774
344.4035858140226
343.0902943858421
342.969634456561
340.1944000338347
337.8757003275603
330.6564856355114
309.0448637704765
342.0794140125612
341.960590893869
339.6339652993206
320.4172317096373
342.8318115811799
343.8377397393143
344.2178087916452
333.5330116495231
344.1167012902127
345.7405897161703
349.1117707762835
353.1385449137661
296.8657080239036
299.9503310361375
299.9996525094998
299.9999987451581
296.6528709733794
299.9314064690411
299.9993452536837
299.9999970044942
298.4539153202822
299.9155943134367
299.9987859716064
299.9999938027149
299.1777231527087
299.8763753069244
299.997704258542
299.9999882062824
299.9999850540667
299.9973395879014
299.8447982101661
297.4146844686107
299.9999850554233
299.9973324525212
299.8464519006502
297.6388837080742
299.9999850093842
299.9973012239065
299.8444314769257
297.86388667951
299.9999851244323
299.9972437415808
299.855301313447
298.873538794503
299.9999882056197
299.9999938017421
299.9999970009804
299.9999987419419
299.9977042588824
299.9987859715809
299.9993452532349
299.9996525082609
299.8763753068811
299.9155943125799
299.9314064700158
299.9503310352578
299.1777231521123
298.4539153190516
296.6528709730515
296.8657080240636
)
;

boundaryField
{
    back
    {
        type            empty;
    }
    inlet
    {
        type            zeroGradient;
    }
    front
    {
        type            empty;
    }
    top
    {
        type            zeroGradient;
    }
    outlet
    {
        type            fixedValue;
        value           uniform 300;
    }
    bottom
    {
        type            zeroGradient;
    }
    wall
    {
        type            zeroGradient;
    }
}


// ************************************************************************* //
