/*--------------------------------*- C++ -*----------------------------------*\
  =========                 |
  \\      /  F ield         | OpenFOAM: The Open Source CFD Toolbox
   \\    /   O peration     | Website:  https://openfoam.org
    \\  /    A nd           | Version:  11
     \\/     M anipulation  |
\*---------------------------------------------------------------------------*/
FoamFile
{
    format      ascii;
    class       volScalarField;
    location    "0.081";
    object      rho;
}
// * * * * * * * * * * * * * * * * * * * * * * * * * * * * * * * * * * * * * //

dimensions      [0 0 0 0 0 0 0];

internalField   nonuniform List<scalar> 
880
(
0.3733250556165154
0.3733250556165154
0.3733250556165154
0.3733251681712294
0.3733250556165154
0.3733250556165154
0.3733250556165152
0.3733262368939875
0.3733250556165154
0.3733250556165153
0.3733250556165995
0.3733320361827646
0.3733250556165154
0.3733250556165154
0.3733250556267609
0.3733331243700303
0.3733250556165154
0.3733250556165155
0.3733250556165152
0.3733250556165428
0.3733250556165154
0.3733250556165154
0.3733250556165151
0.3733250556165154
0.3733250555546473
0.3733250517282787
0.3733560840652653
0.3732483243491087
0.375062277592249
0.3806772085032114
0.3855078788824753
0.3880925880265322
0.3733250602058183
0.3733250645101077
0.3733250658811281
0.3733250600503225
0.3733251881386053
0.3733253302698251
0.3733254695232902
0.3733252695821415
0.3734328554669718
0.3734821380983024
0.3735354487706819
0.3735012284258502
0.3903176884429979
0.392999402708849
0.3960583908895278
0.3974884378349237
0.3952153935403104
0.3901092152771861
0.3860360839815647
0.3826280272207147
0.3736653259139276
0.3739745853320904
0.374117014865786
0.3738997262345387
0.3733259497217087
0.3733269800548475
0.373327800427576
0.3733271221247319
0.3733250857991882
0.3733251017665271
0.3733251067703546
0.3733250887987768
0.373325065188759
0.3733250565779895
0.3733250556369715
0.3733250556165155
0.3733258808059801
0.3733252063093372
0.3733250648427633
0.3733250557351415
0.3735746044961775
0.3733843274005691
0.3733306617678743
0.3733251916907686
0.3789966433549067
0.3756287927258933
0.3737779573410353
0.373354382619891
0.3733254566056632
0.3733250555092806
0.3733250555959185
0.3733250556165151
0.3733251009280283
0.3733250553835883
0.3733250555537517
0.3733250556128945
0.3733212451918491
0.3733250047555537
0.3733250625849932
0.3733250566278643
0.3759952148961042
0.3733179416125115
0.3733237229996907
0.3733250414504142
0.373325022235533
0.373324542064119
0.3733942145267511
0.4033107718752723
0.3733250527215177
0.3733253726094782
0.3736780747299743
0.4281111299093251
0.373325106900509
0.3733266289824591
0.3740464048536328
0.4394499262927099
0.3733251456516141
0.3733280530965858
0.3744834452659321
0.4522650164538097
0.4613847562677164
0.3747248835888313
0.3733287506800521
0.3733251720040068
0.4712048670566489
0.3751609204129906
0.3733305961933314
0.3733252214690814
0.4765045576492227
0.3753822325078434
0.3733312730934696
0.3733252541776035
0.4849943453770326
0.3760130655612269
0.3733351188520774
0.3733253845341473
0.3733253841773765
0.3733351311098976
0.376408564067636
0.4953970805099079
0.3733254979931142
0.3733387390133786
0.3771454583669539
0.5020691433750167
0.3733256886458799
0.3733431849096392
0.377545218182668
0.492712664963904
0.3733251707687145
0.3733311058771323
0.3755363832894946
0.4511291437744593
0.3733258876317284
0.3733764860673194
0.3762592052741411
0.3917376935499763
0.373324739858876
0.3733389672820699
0.3729865444800883
0.3223772810796112
0.3733249002605614
0.373285611405844
0.3696679546899198
0.2784647565817625
0.3733248318114684
0.3732349351222616
0.3655437123602159
0.2457839619174524
0.2401548248414318
0.3656080544581251
0.3732619012002395
0.3733248893132051
0.2359041097673976
0.3655331136420466
0.3732635208059609
0.3733249123281687
0.2428921791846425
0.3676755696765531
0.3732941187483635
0.3733249931683948
0.2381289358097094
0.3673108338266833
0.3732915024754728
0.3733249878745015
0.27972218370199
0.3709032779854203
0.3733150351304492
0.3733250345100536
0.3211275895943574
0.3726639747734296
0.373323116897166
0.3733250521627183
0.346689507200107
0.3731367066671703
0.3733245782589666
0.3733250548748935
0.3618100750265844
0.3732523151236294
0.3733248356545695
0.3733250549526719
0.3485069863672524
0.3725974824720723
0.3733185652418976
0.3733250290179194
0.3488489254382721
0.3726110764173229
0.373318602545864
0.3733250290315835
0.3498287689566034
0.3726224182544443
0.3733186148061879
0.3733250289408909
0.352263165837774
0.3726607777184653
0.3733188210603492
0.3733250295708355
0.3618100750263666
0.3732523151229108
0.3733248356536276
0.3733250549533656
0.3466895071987238
0.3731367066660793
0.3733245782562313
0.3733250548752229
0.3211275895934388
0.3726639747736656
0.3733231168968035
0.3733250521631016
0.2797221837027606
0.3709032779872918
0.3733150351305243
0.3733250345094374
0.3733248893142101
0.3732619012024402
0.3656080544590226
0.240154824841063
0.3733249123293608
0.3732635208073513
0.3655331136423116
0.2359041097677455
0.3733249931667766
0.3732941187501094
0.3676755696763937
0.2428921791854684
0.3733249878750592
0.373291502475561
0.3673108338297907
0.2381289358087042
0.245783961915469
0.3655437123594131
0.3732349351213935
0.3733248318113473
0.278464756579335
0.3696679546883548
0.3732856114031633
0.3733249002567213
0.3223772810789319
0.3729865444780036
0.3733389672822454
0.3733247398580367
0.3917376935504296
0.3762592052735228
0.3733764860665244
0.3733258876345102
0.3733253841765196
0.3733351311119234
0.3764085640696669
0.4953970805121338
0.3733254979937613
0.3733387390133812
0.3771454583664718
0.5020691433745804
0.3733256886475271
0.3733431849096717
0.3775452181809725
0.492712664963674
0.3733251707720295
0.3733311058769399
0.3755363832884736
0.4511291437740753
0.4849943453813746
0.3760130655581491
0.3733351188548994
0.3733253845338528
0.4765045576531468
0.3753822325090933
0.3733312730949206
0.373325254178345
0.4712048670551306
0.3751609204205631
0.3733305961941553
0.3733252214684836
0.4613847562673493
0.3747248835865699
0.373328750682219
0.3733251720033782
0.3733250222372521
0.3733245420658867
0.373394214527096
0.4033107718722341
0.3733250527197889
0.3733253726075885
0.3736780747294094
0.4281111299104139
0.3733251068995259
0.373326628982959
0.3740464048575559
0.4394499262920855
0.3733251456504916
0.3733280530956711
0.3744834452600725
0.4522650164584531
0.3733250414500084
0.3733250566286243
0.3733250556128764
0.3733250556165151
0.3733237229973726
0.3733250625846755
0.373325055555673
0.3733250555953136
0.3733179416129764
0.3733250047565925
0.3733250553824805
0.3733250555085175
0.3759952148961942
0.3733212451922364
0.3733251009280185
0.3733254566055154
0.3733250556154556
0.3733250557351293
0.3733251916911166
0.3733543826204201
0.3733250556367449
0.3733250648422519
0.3733306617713236
0.3737779573413831
0.37332505657865
0.3733252063092458
0.3733843273990479
0.375628792726302
0.3733250651893821
0.3733258808053626
0.3735746044975398
0.3789966433544031
0.373325085796983
0.373325949719526
0.3736653259127148
0.3952153935396389
0.3733251017647776
0.3733269800555142
0.3739745853324511
0.3901092152752899
0.373325106769863
0.3733278004303925
0.3741170148655651
0.3860360839809757
0.3733250887982658
0.3733271221262655
0.373899726234753
0.3826280272197479
0.3974884378355197
0.373501228427935
0.373325269580523
0.3733250600492037
0.3960583908892775
0.3735354487736222
0.3733254695228132
0.3733250658814791
0.3929994027113048
0.3734821380969535
0.3733253302706543
0.3733250645095879
0.3903176884428706
0.373432855464772
0.3733251881376185
0.3733250602064439
0.3880925880270932
0.3732483243539936
0.3733250556165154
0.373325055616552
0.3855078788814801
0.3733560840585186
0.3733250556165154
0.3733250556165154
0.3806772085042109
0.3733250517278899
0.3733250556165154
0.3733250556165153
0.3750622775931
0.3733250555538771
0.3733250556165154
0.3733250556165151
0.3733250556165154
0.3733250556165154
0.3733250556165154
0.3733251681820007
0.3733250556165152
0.3733250556165155
0.3733250556165153
0.3733262368736552
0.3733250556165154
0.3733250556165154
0.3733250556165723
0.3733320361716644
0.3733250556165154
0.3733250556165154
0.3733250556260989
0.3733331243699459
0.3733251799503201
0.3733261365322314
0.3733345432461962
0.3737675712057791
0.3733261365750175
0.3733256249848171
0.3733258196074044
0.3751321281814403
0.373334543155635
0.3733258194234193
0.3739738916870181
0.3864803644791584
0.3737675712257303
0.3751321281606257
0.3864803646077676
0.437113127830997
0.5209439690426231
0.4612930923910679
0.4309521446894002
0.3990182498432738
0.5097378144404962
0.4966377625559749
0.4910045756280106
0.464122833121966
0.5060950328850813
0.5018450673395504
0.5008495011787173
0.4893682798532181
0.5067109318247017
0.503887565271272
0.50385818399439
0.4972598071024459
0.5028132235354679
0.5065571801864245
0.508844446369984
0.5155972841175359
0.5079561868595689
0.5119746718027384
0.5144961203165843
0.5253628421351635
0.5081944104830591
0.5131193430108894
0.5165346236157875
0.5260295094652272
0.5083806605566802
0.513186537028795
0.5174530157200228
0.5264266441638991
0.4555213278387687
0.39403084627662
0.3771690832945331
0.3784932870310363
0.4262963904572908
0.3741797222390359
0.3722597835860204
0.3773575205049139
0.397182190628242
0.367491866039778
0.3736449404390192
0.3793829940154971
0.3405430775915027
0.3461328967272164
0.366751641909254
0.3772662573863604
0.3799459154662669
0.37784196220939
0.3747918016760362
0.3735271149112513
0.3793632509250002
0.3777202014953042
0.3750523272263533
0.3736245141064364
0.3806983317020464
0.3787769666865324
0.3756318828867405
0.3737635771543852
0.3796321802389854
0.3775494040228504
0.3744325123496008
0.3733729486845407
0.3733334111505499
0.3733251138542617
0.3733240980373818
0.4233389200083972
0.3733405600172797
0.3733251586647809
0.37332501783538
0.4491937498315843
0.3733498836942226
0.3733252289171193
0.3733254560219989
0.4624610861102495
0.3733143102527632
0.3733245600593758
0.3733255987326254
0.4646770161317016
0.655859103760271
0.6705254037210031
0.6728986094692426
0.6816512047455062
0.7158910272038964
0.7043518364985014
0.6976576401176188
0.7057607158969508
0.707552729147623
0.6928348268095428
0.7046168881088949
0.7144849440653368
0.736401608883351
0.7090305621082004
0.7093608004297105
0.7192082402667801
0.690904119539232
0.7008429703991902
0.7023481348927283
0.7045944558356709
0.7148902895362574
0.7249053905210356
0.727054285633421
0.727769438455839
0.7278976544837346
0.739658038025074
0.7430453472867906
0.7434977325462716
0.7335659685244021
0.7460189388442197
0.7500571577116066
0.7505214751779474
0.704702153086068
0.6967013859661432
0.6631024218103678
0.5770548587609299
0.7253382091157163
0.7160696994545456
0.6807392392698509
0.6035669565309546
0.7418273069537511
0.7306787053338747
0.6900940315992907
0.6322174846888726
0.7486335131905492
0.7370960384818435
0.6914730610145541
0.7355251409052337
0.3969621985027765
0.1144874991378858
0.05342069019186822
0.05114955252068036
0.3238627959232684
0.07652190770265881
0.05659802466610006
0.05774073698275026
0.243769794681035
0.05675500491309852
0.06071515378460949
0.07467849244774383
0.1774594856185723
0.04046452413068711
0.07489825736408526
0.0896697246816013
0.05690996970780924
0.06156876313399389
0.06497747565052657
0.05534438334149332
0.06033679935530063
0.06455194358402964
0.06300775217775775
0.04711838926461424
0.07863277503568857
0.0816479099467215
0.0729565492010963
0.05279203793830087
0.09523538600608275
0.0957096755162367
0.07848416209217121
0.05968395053566131
0.1292174888027827
0.2071818732856545
0.249398216776049
0.2923750630333618
0.1085508755550766
0.1771469773676332
0.2193614509008914
0.2756032320255543
0.1045791695616549
0.1681779194856584
0.2137219861351419
0.2603219671758749
0.08648138494352854
0.1427652446253717
0.1944920614332716
0.2441995642956368
0.2300786619055785
0.1498398535929127
0.1039024280276321
0.1291040043730797
0.1986963636631378
0.1279797695853445
0.06663101722064443
0.06039304377371212
0.1643906918858182
0.09393216059549016
0.04549063286014035
0.04731820625703432
0.1183806084912913
0.06310378947653178
0.03652359743185144
0.04384823801799793
0.06504976489012508
0.09969589877114074
0.1512977847647724
0.1886344251899421
0.06210567265552146
0.09445343805236504
0.152029169550501
0.1933906322185749
0.07901615948327947
0.1050553941380047
0.1592515282235441
0.2036210640606069
0.1484098466295657
0.1484263126360301
0.1793918765494854
0.2115442079695455
0.1886344251898552
0.1933906322185523
0.2036210640606149
0.2115442079697299
0.1512977847646174
0.1520291695503844
0.1592515282238149
0.1793918765497355
0.09969589877098642
0.09445343805218656
0.1050553941377745
0.1484263126356787
0.06504976489014257
0.06210567265551054
0.07901615948303514
0.1484098466288367
0.1291040043721911
0.1039024280271596
0.14983985359275
0.2300786619045481
0.0603930437736146
0.06663101722055612
0.1279797695851586
0.1986963636628367
0.04731820625710387
0.04549063286018282
0.09393216059538288
0.1643906918857329
0.0438482380180634
0.03652359743188986
0.0631037894765812
0.1183806084913162
0.2441995642957656
0.194492061433672
0.1427652446254804
0.0864813849430079
0.2603219671758539
0.213721986135344
0.1681779194857503
0.1045791695612561
0.2756032320254251
0.2193614509004981
0.1771469773675205
0.1085508755550076
0.2923750630330892
0.2493982167752348
0.2071818732851284
0.1292174888023499
0.0553443833408269
0.06497747565108468
0.06156876313414544
0.05690996970740411
0.04711838926431031
0.06300775217800682
0.06455194358421511
0.06033679935525241
0.05279203793810079
0.07295654920136996
0.08164790994693188
0.07863277503558656
0.0596839505354899
0.0784841620923668
0.0957096755164339
0.09523538600575908
0.05114955252009319
0.0534206901906427
0.1144874991372357
0.3969621985025184
0.05774073698250862
0.05659802466565402
0.07652190770234882
0.3238627959220497
0.07467849244719491
0.0607151537842474
0.05675500491314195
0.243769794680463
0.08966972468059352
0.07489825736352046
0.04046452413065325
0.1774594856184876
0.5770548587599834
0.6631024218110523
0.6967013859660698
0.7047021530873303
0.6035669565300013
0.6807392392693815
0.7160696994547273
0.7253382091175974
0.6322174846881511
0.6900940315981862
0.7306787053346041
0.7418273069552889
0.7355251409055521
0.6914730610142398
0.7370960384826927
0.7486335131922106
0.704594455839288
0.7023481348973858
0.7008429703955715
0.6909041195354758
0.7277694384587513
0.7270542856367156
0.7249053905183918
0.7148902895335277
0.7434977325476158
0.7430453472886647
0.7396580380235392
0.7278976544827783
0.7505214751794121
0.7500571577130379
0.7460189388425488
0.7335659685233606
0.6816512047551897
0.6728986094655661
0.67052540372337
0.6558591037584531
0.7057607159065532
0.6976576401137811
0.7043518365006823
0.7158910272026884
0.7144849440728375
0.7046168881052967
0.6928348268105413
0.7075527291462554
0.7192082402705001
0.7093608004262565
0.7090305621094956
0.7364016088817874
0.4233389200068955
0.3733240980323582
0.3733251138540619
0.3733334111507207
0.4491937498296564
0.3733250178322434
0.3733251586646285
0.3733405600180326
0.4624610861086716
0.3733254560203128
0.3733252289168923
0.3733498836953597
0.4646770161311071
0.3733255987329439
0.3733245600588395
0.3733143102546924
0.3735271149113714
0.3747918016759967
0.3778419622102026
0.3799459154652142
0.3736245141057815
0.375052327226378
0.3777202014955805
0.3793632509233395
0.3737635771531271
0.375631882887487
0.3787769666861153
0.3806983317006682
0.3733729486827777
0.3744325123505497
0.3775494040222212
0.3796321802374795
0.3784932870303972
0.3771690832942122
0.3940308462767019
0.4555213278396651
0.3773575205042422
0.3722597835856903
0.3741797222388083
0.4262963904580833
0.3793829940146611
0.3736449404386125
0.3674918660390931
0.3971821906291695
0.3772662573849342
0.3667516419085113
0.3461328967260196
0.3405430775920624
0.5155972841177574
0.5088444463668741
0.5065571801844095
0.5028132235357231
0.5253628421343182
0.5144961203154499
0.5119746718037668
0.507956186862023
0.5260295094639083
0.5165346236153442
0.5131193430126078
0.5081944104861854
0.5264266441631327
0.5174530157197342
0.5131865370301698
0.508380660558764
0.4972598071033217
0.4893682798525425
0.4641228331241531
0.3990182498440887
0.5038581839949166
0.5008495011785027
0.4910045756305203
0.4309521446902389
0.5038875652717715
0.5018450673398995
0.4966377625623615
0.4612930923874973
0.5067109318250713
0.5060950328844023
0.5097378144426661
0.5209439690574039
0.3631595334683781
0.3732004093676793
0.3733243594826675
0.3733250534419826
0.3589844316022537
0.3731094415304748
0.3733235674795922
0.3733250500653645
0.357093468563441
0.3729817732609093
0.3733221950997395
0.3733250440070152
0.3523372896061736
0.3727459031361104
0.3733198120093317
0.3733250340542852
0.3733250290189553
0.3733185652419806
0.3725974824708223
0.3485069863653781
0.3733250290322463
0.3733186025470515
0.372611076415349
0.3488489254380082
0.3733250289398896
0.3733186148071338
0.3726224182541905
0.3498287689550952
0.3733250295676132
0.3733188210617258
0.3726607777152783
0.3522631658364588
0.3733250340533646
0.3733250440062989
0.3733250500618838
0.3733250534379539
0.3733198120098278
0.3733221950996733
0.373323567479031
0.3733243594811042
0.3727459031363569
0.3729817732593388
0.373109441531999
0.3732004093668941
0.3523372896060364
0.3570934685616042
0.3589844316018518
0.3631595334691554
)
;

boundaryField
{
    back
    {
        type            empty;
    }
    inlet
    {
        type            calculated;
        value           nonuniform List<scalar> 
16
(
0.3733250556165154
0.3733250556165154
0.3733250556165154
0.3733250556165154
0.3733250556165154
0.3733250556165155
0.3733250556165152
0.3733250556165428
0.373325055616552
0.3733250556165154
0.3733250556165154
0.3733250556165151
0.3733250556165154
0.3733250556165152
0.3733250556165154
0.3733250556165154
)
;
    }
    front
    {
        type            empty;
    }
    top
    {
        type            calculated;
        value           nonuniform List<scalar> 
40
(
0.3733250602058182
0.3733250645101077
0.3733250658811281
0.3733250600503225
0.3733250857991882
0.3733251017665271
0.3733251067703546
0.3733250887987768
0.373325065188759
0.3733250565779895
0.3733250556369715
0.3733250556165155
0.3733250556165151
0.3733250556128945
0.3733250566278643
0.3733250414504142
0.373325022235533
0.3733250527215177
0.373325106900509
0.3733251456516141
0.3733251720040068
0.3733252214690814
0.3733252541776035
0.3733253845341473
0.3733253841773765
0.3733254979931142
0.3733256886458799
0.3733251707687146
0.3733258876317284
0.373324739858876
0.3733249002605614
0.3733248318114685
0.3733248893132051
0.3733249123281687
0.3733249931683948
0.3733249878745015
0.3733250345100536
0.3733250521627183
0.3733250548748935
0.373325054952672
)
;
    }
    outlet
    {
        type            calculated;
        value           uniform 0.3733250556165154;
    }
    bottom
    {
        type            calculated;
        value           nonuniform List<scalar> 
40
(
0.3733250549533656
0.3733250548752229
0.3733250521631016
0.3733250345094374
0.3733248893142102
0.3733249123293608
0.3733249931667766
0.3733249878750592
0.3733248318113473
0.3733249002567213
0.3733247398580367
0.3733258876345102
0.3733253841765197
0.3733254979937613
0.3733256886475271
0.3733251707720295
0.3733253845338528
0.373325254178345
0.3733252214684836
0.3733251720033782
0.3733250222372521
0.3733250527197889
0.3733251068995259
0.3733251456504915
0.3733250414500084
0.3733250566286243
0.3733250556128764
0.3733250556165151
0.3733250556154556
0.3733250556367449
0.37332505657865
0.3733250651893821
0.373325085796983
0.3733251017647776
0.373325106769863
0.3733250887982657
0.3733250600492037
0.3733250658814791
0.3733250645095879
0.3733250602064439
)
;
    }
    wall
    {
        type            calculated;
        value           nonuniform List<scalar> 
104
(
0.5209439690426231
0.5097378144404962
0.5060950328850813
0.5067109318247017
0.5083806605566802
0.513186537028795
0.5174530157200228
0.5264266441638991
0.3405430775915027
0.3461328967272165
0.366751641909254
0.3772662573863604
0.3796321802389854
0.3775494040228504
0.3744325123496008
0.3733729486845407
0.3733143102527632
0.3733245600593758
0.3733255987326254
0.4646770161317016
0.736401608883351
0.7090305621082004
0.7093608004297105
0.7192082402667801
0.7335659685244021
0.7460189388442197
0.7500571577116066
0.7505214751779474
0.7486335131905492
0.7370960384818435
0.6914730610145541
0.7355251409052337
0.1774594856185723
0.04046452413068711
0.07489825736408526
0.0896697246816013
0.09523538600608275
0.0957096755162367
0.07848416209217121
0.05968395053566131
0.08648138494352854
0.1427652446253717
0.1944920614332716
0.2441995642956368
0.1183806084912913
0.06310378947653178
0.03652359743185144
0.04384823801799793
0.06504976489012508
0.09969589877114074
0.1512977847647724
0.1886344251899421
0.1886344251898552
0.1512977847646174
0.0996958987709864
0.06504976489014257
0.0438482380180634
0.03652359743188986
0.0631037894765812
0.1183806084913162
0.2441995642957656
0.194492061433672
0.1427652446254804
0.0864813849430079
0.0596839505354899
0.0784841620923668
0.09570967551643389
0.09523538600575908
0.0896697246805935
0.07489825736352046
0.04046452413065325
0.1774594856184876
0.7355251409055521
0.6914730610142398
0.7370960384826927
0.7486335131922106
0.7505214751794121
0.7500571577130379
0.7460189388425488
0.7335659685233606
0.7192082402705001
0.7093608004262565
0.7090305621094956
0.7364016088817874
0.4646770161311071
0.3733255987329439
0.3733245600588395
0.3733143102546924
0.3733729486827777
0.3744325123505497
0.3775494040222212
0.3796321802374795
0.3772662573849342
0.3667516419085113
0.3461328967260196
0.3405430775920624
0.5264266441631327
0.5174530157197342
0.5131865370301698
0.508380660558764
0.5067109318250713
0.5060950328844023
0.5097378144426661
0.5209439690574039
)
;
    }
}


// ************************************************************************* //
