/*--------------------------------*- C++ -*----------------------------------*\
  =========                 |
  \\      /  F ield         | OpenFOAM: The Open Source CFD Toolbox
   \\    /   O peration     | Website:  https://openfoam.org
    \\  /    A nd           | Version:  11
     \\/     M anipulation  |
\*---------------------------------------------------------------------------*/
FoamFile
{
    format      ascii;
    class       volScalarField;
    location    "0.3591";
    object      p;
}
// * * * * * * * * * * * * * * * * * * * * * * * * * * * * * * * * * * * * * //

dimensions      [0 2 -2 0 0 0 0];

internalField   nonuniform List<scalar> 
880
(
80.00000000000041
80.00000016319331
80.01342903931985
81.87891480329714
80.00000000017725
80.00000047949612
80.01666464480772
82.76205803327095
80.00000000090168
80.00000187123659
80.03085428814001
83.820376747045
80.00000001201565
80.00000822097603
80.06373835493409
85.40490598020618
79.9999999446938
80.00000002734666
80.00000610000214
80.00009432586745
80.00003790706964
80.00014560122676
80.00091028718819
80.0013448392631
80.14445635238461
80.23437091090155
80.3851874654486
80.5372355139949
88.34137236043698
91.39229148402063
93.99690845788054
95.23097778907488
80.00023350490324
80.00190071678952
80.00717728130786
80.02225277249833
80.01261220869614
80.05401182838632
80.10835025498341
80.22848489588026
81.26972932713342
81.90661385964516
82.71331965097822
83.76309845459964
96.38122492727054
97.94738235777606
98.27037236690816
97.50662444767249
90.98555727166776
87.50929935939409
85.83828052095207
84.74378853109231
85.68942060764346
86.36890415011629
86.77147633641674
86.80630830944776
80.63819079728383
81.1224679623041
81.63760633661529
82.02163708060024
80.0789897546521
80.19107895889525
80.36080893532917
80.5991103975519
80.87692783718742
81.15596615389022
81.43214609763312
81.63818246670417
82.31105805984932
82.47892249964268
82.56583829758699
82.57169123534071
86.44715606742334
85.94840782686542
85.29414752540511
84.61611673921649
83.58757142145735
82.90035355023686
82.50784148993834
82.0813011015095
82.08425725135186
84.14402075427587
82.51897390264551
81.76396116247365
87.72710454977987
83.86354385442837
82.36864847715844
81.7440050144256
120.4961626888588
85.25867783372756
82.18617746231854
81.49190042415248
158.310441704644
93.04413377810069
82.66791562488133
81.39980686150722
81.36884778081883
83.38918934668985
102.7524147025032
175.0635258232275
80.86964897808102
84.74472031291647
113.7057004618682
174.2719756662028
81.08177702618089
87.88834411513172
128.3354035165412
176.1404629256949
81.88624885671874
93.5621099893652
142.2364444188434
173.423652189478
167.7219449196098
149.9322798700589
102.2056713308613
83.65880606492762
160.7549315898569
151.1901157628553
111.7911811264917
86.82529115388625
153.3594476860085
148.9260900944614
120.0936381031441
91.91939340203477
145.6416697969113
138.9155164412535
121.4365889554616
98.28049309302705
103.9182124029472
117.3582109493641
126.5733526350508
136.6070301836837
103.1110145705467
109.2069817572426
113.4332753368543
123.662074948771
100.8148561918978
101.4790561967999
100.6872551873522
107.3254621087434
97.82866481566951
95.2205479493077
89.18092022167691
88.30906145871984
95.45406969942253
89.32550047862442
78.73089750015659
66.39851710394746
91.67496427511226
83.95960523677429
69.94195374319848
43.06658595832771
88.79627802224029
81.54223333904579
63.25756306394563
26.39294653820483
86.34936717259552
80.46209564556878
59.01554065895341
14.84085938375788
15.63824470893218
60.59158086204707
79.58709283363191
84.16753675023564
24.7887028356579
61.38097787360819
78.99573287542535
82.70057835518588
27.34964796498891
61.05978579722475
78.13864752313989
81.70964836341398
25.8469095260969
60.45379055501085
77.53276949875942
81.17176159470046
31.27432673191222
63.07822652934464
77.20465355406151
80.23788055444598
36.96449210297835
65.61676192045833
77.11838355018926
79.68621028624872
43.59850456831253
68.85542048810559
77.31685754163442
79.66648216422125
51.42236163907388
71.10131522066807
77.70175490104531
79.7398237832644
53.26522570989224
58.94705941629773
73.29961998518608
79.26315332794736
51.9175365613659
60.15098937136811
73.52384310085628
79.25484774184783
49.47635449198977
61.86861008725516
74.02253679961838
79.25654821744199
47.16528372364009
63.8274784400638
74.73803778347151
79.31470781728555
51.42236163907989
71.10131522055107
77.70175490109558
79.73982378294527
43.59850456833156
68.85542048781183
77.31685754154501
79.66648216381161
36.96449210299478
65.6167619202087
77.11838354978786
79.68621028573868
31.27432673196635
63.07822652913411
77.20465355393526
80.23788055412214
84.16753675037033
79.58709283370352
60.5915808620894
15.63824470866245
82.70057835516242
78.99573287541
61.38097787362133
24.78870283540718
81.70964836341139
78.13864752319184
61.05978579679184
27.34964796488436
81.17176159458842
77.53276949893609
60.45379055484766
25.84690952611764
14.84085938375597
59.01554065881224
80.46209564549045
86.34936717269674
26.39294653811653
63.25756306393967
81.5422333392291
88.79627802226142
43.06658595827113
69.9419537433848
83.95960523685895
91.67496427532414
66.39851710399289
78.73089750005278
89.32550047842966
95.45406969961954
103.9182124031843
117.3582109499942
126.5733526355125
136.6070301837034
103.1110145704319
109.2069817571872
113.4332753370253
123.6620749489361
100.8148561914309
101.4790561967153
100.6872551873433
107.3254621088009
97.82866481560443
95.22054794917588
89.1809202216125
88.30906145880647
145.6416697969469
138.9155164414192
121.436588955835
98.28049309387426
153.3594476860425
148.9260900946493
120.0936381032308
91.91939340210016
160.7549315899176
151.1901157629168
111.7911811263633
86.82529115402833
167.7219449195053
149.9322798702937
102.2056713312053
83.65880606501931
81.36884778081154
83.38918934662155
102.7524147023805
175.0635258230144
80.86964897859585
84.74472031319918
113.7057004618661
174.2719756659666
81.08177702691016
87.88834411580258
128.3354035167101
176.1404629255331
81.8862488568744
93.56210998924944
142.2364444189996
173.4236521893752
81.39980686144099
81.49190042408968
81.74400501471581
81.76396116253152
82.66791562438996
82.18617746217323
82.36864847706948
82.5189739024993
93.04413377760041
85.25867783369605
83.8635438540813
84.14402075411164
158.3104417042369
120.4961626884812
87.72710454980346
82.0842572513578
81.63818246690249
82.5716912354947
84.61611673947685
82.08130110173401
81.43214609746131
82.56583829773814
85.29414752565035
82.50784149000381
81.15596615386218
82.47892249965213
85.94840782684348
82.90035354981048
80.87692783690221
82.31105805964333
86.44715606767819
83.58757142154171
80.07898975447604
80.63819079693059
85.68942060799647
90.98555727189469
80.19107895858677
81.12246796200158
86.3689041504591
87.50929935942212
80.36080893551268
81.63760633639613
86.77147633647971
85.8382805205011
80.59911039731884
82.02163708040379
86.80630830980927
84.74378853072595
97.50662444761002
83.76309845470605
80.22848489573038
80.02225277279369
98.27037236685342
82.71331965109538
80.10835025474721
80.00717728126969
97.94738235792239
81.90661385959274
80.05401182769059
80.00190071651993
96.38122492728307
81.2697293269256
80.01261220844036
80.00023350530428
95.23097778887148
80.537235514104
80.00134483934566
80.00009432628596
93.99690845743308
80.38518746539258
80.00091028693325
80.00000610024684
91.39229148354515
80.23437091081293
80.00014560102724
80.00000002724029
88.34137236003249
80.14445635232849
80.00003790702272
79.99999994538972
80.00000000002807
80.00000016327098
80.01342903934672
81.8789148031979
80.00000000026191
80.00000047931326
80.01666464482389
82.76205803332802
80.00000000110964
80.00000187113923
80.03085428816996
83.82037674735204
80.00000001233573
80.00000822082463
80.06373835491701
85.40490598030077
83.52147553952389
85.09208505745269
87.63956950927671
92.78163386221084
85.09208505773019
87.14671233948664
90.9923244027817
98.68504261082286
87.63956950942027
90.99232440282472
97.30616749611463
106.8146062506403
92.7816338622962
98.68504261068941
106.8146062509078
117.1762590015528
127.9876422698831
119.0197360442865
115.095406550105
106.8594953012047
126.2745274939265
123.6403472482065
123.5987502950966
119.524405915257
126.3159732269221
125.4903166994189
125.0464265534588
123.6353497105757
123.7339105647687
123.3267405629372
123.2398615398718
122.3890173597594
119.6732874675389
117.8543954000296
114.2506477027644
109.3407012879484
119.9394853779792
118.0380066345258
114.3857500577305
109.8054928165588
120.2752111186356
118.2198457505719
114.3680605028787
110.240232945886
120.4500703877489
118.1113179890776
114.5195150324047
108.5598915271798
82.83147739292342
71.90665506089525
70.60770681662686
70.98829709649192
75.82164387091677
69.03193569415039
69.66003549244684
70.38475099345285
69.99788801833176
68.89727275390551
70.23241495852956
70.932931332088
60.73678428794451
66.59953268107071
69.24093602986747
70.20155450528117
70.93427217235491
71.29729409945715
72.11211276507473
73.05543300212199
70.47708604568801
70.85606442860285
71.74010381700461
72.93337423942063
70.90895615823594
71.13946697448361
71.87724644067443
72.81181201522487
70.30138480865654
70.62326408863606
71.55813724431582
72.8514086575823
78.65767017857705
113.9812881684404
165.0147526266067
181.4251218793337
81.33910326093716
121.4736485991921
162.5001910848485
173.2815952819353
83.46682909415637
125.2506761354686
161.2728687198489
171.9796754855439
84.83182512139595
130.6675694486059
161.6261797014574
171.9493671269354
218.1734284225025
209.3636892979876
201.8317108419908
190.5726233372229
219.3401655308699
212.1424662104794
203.9763478991802
192.4110689531342
218.3355833779019
213.6731431438144
205.0708443253024
193.526314787951
213.2155727614212
215.5976777387846
206.987804667299
195.2593784008667
178.192017682329
167.9313681799466
158.2908752105205
153.3856674178309
180.1986119012616
169.3405645313373
158.987056536042
153.7586752634204
181.3451128353894
169.5500102445611
159.5394484670837
153.7257989628177
183.7495807048435
170.9545378094161
161.1945607597984
154.8262828118297
148.5638474401316
140.6543521983398
126.7750855498714
105.8854188413393
149.255628017248
142.1765159354167
128.8947141784619
114.3614155968918
149.1995252202847
142.6025424139522
130.6868301977853
119.6689544004151
150.3621072247628
144.9459323961472
134.0387432399062
134.5831887011095
64.62471700644932
16.55133231824476
2.69159650330834
1.282582277661319
49.95373874072604
10.39602735757827
2.243074931125357
1.465037856806365
34.73949071264401
6.5734910195771
1.964843213906307
1.622153071198198
19.55134617085251
3.06253250852569
1.727615163938622
1.814983738826808
1.928598584682976
4.161179160237201
6.790867626035111
10.67621124947974
2.738428076055201
5.09367873106507
7.805326228893779
11.94832507444832
3.202678183621848
5.477870549880622
8.648958980851656
12.64874405681355
3.756872657176689
6.203210581566763
10.09446326428125
13.79360958250905
12.51866732266475
18.94465386312642
26.03577821959908
34.74551575819101
12.1317035077906
17.88256649314034
24.72277612490144
33.2350959843307
12.44241669552444
16.35541792252785
22.87910066381837
32.24368394494157
11.69836808456331
14.46641174767425
19.06511643017988
30.29388172175106
35.0434420425035
33.21535039959702
32.55154912982693
33.17340468938528
31.86878268156421
31.78753959298156
32.24787325905022
32.35170499237022
31.01176258554269
32.65905446045345
32.98925755041581
33.02351607799116
29.22905086607523
31.45804258041403
31.77689635574287
32.50519826093151
32.92597157019518
33.24108337468903
33.50388633256502
33.63206643756314
32.98054849298082
32.94051387556639
32.85108590379392
32.95925006462082
32.92718256403538
33.39909520177501
33.83957588371726
34.09986681488137
34.74539975731472
35.79830531330703
36.5409884613534
36.54704706858197
33.63206643756517
32.95925006462593
34.09986681488299
36.54704706858624
33.50388633256539
32.85108590379355
33.83957588373029
36.54098846137681
33.24108337469114
32.94051387557081
33.3990952017955
35.79830531333482
32.92597157021077
32.98054849299759
32.92718256406999
34.7453997573556
33.17340468945217
32.55154912986472
33.21535039965683
35.04344204253212
32.35170499240427
32.24787325909838
31.78753959304891
31.86878268160723
33.02351607801608
32.9892575504582
32.65905446050106
31.01176258559988
32.5051982609561
31.77689635577151
31.45804258045385
29.22905086612592
30.29388172183713
19.0651164302882
14.46641174777524
11.69836808464915
32.24368394501927
22.87910066391679
16.35541792263462
12.44241669561796
33.23509598440837
24.72277612500296
17.88256649325388
12.1317035078953
34.74551575825341
26.03577821970953
18.94465386323295
12.51866732279023
10.67621124953456
6.79086762606582
4.161179160200106
1.928598584709991
11.94832507450539
7.805326228932425
5.093678731051869
2.738428076056688
12.64874405687807
8.648958980903153
5.477870549879841
3.202678183616439
13.79360958257121
10.09446326434226
6.203210581585967
3.756872657171604
1.282582277696284
2.691596503270215
16.55133231813651
64.6247170064985
1.465037856820977
2.243074931114928
10.39602735754056
49.95373874064796
1.622153071197832
1.964843213894468
6.573491019565348
34.73949071263195
1.814983738821689
1.727615163926645
3.062532508525222
19.55134617084181
105.8854188413316
126.7750855497768
140.6543521982557
148.5638474400391
114.3614155968594
128.8947141783749
142.1765159353023
149.2556280171898
119.6689544003354
130.6868301976752
142.6025424138608
149.1995252202251
134.5831887010451
134.0387432397752
144.9459323960674
150.362107224736
153.3856674178137
158.2908752103168
167.931368179518
178.1920176818002
153.7586752633595
158.9870565358165
169.3405645305903
180.1986119006492
153.725798962827
159.5394484668439
169.5500102438371
181.3451128348667
154.8262828117845
161.1945607596219
170.9545378090718
183.749580704354
190.5726233367792
201.8317108415579
209.3636892977385
218.173428422511
192.4110689527702
203.9763478990764
212.1424662101641
219.340165530845
193.5263147877743
205.0708443251404
213.6731431434671
218.3355833778858
195.2593784007106
206.9878046672304
215.597677738434
213.2155727614385
181.4251218793338
165.0147526263473
113.9812881685016
78.65767017886201
173.2815952818474
162.5001910846726
121.4736485992299
81.33910326123519
171.9796754854554
161.2728687197025
125.2506761354577
83.46682909447181
171.9493671267998
161.6261797013152
130.6675694485918
84.83182512172014
73.05543300234341
72.11211276491909
71.29729409894284
70.93427217210969
72.93337423967705
71.74010381680058
70.85606442807696
70.477086045467
72.81181201550304
71.87724644039703
71.13946697397586
70.90895615801516
72.85140865785654
71.55813724408674
70.62326408810974
70.3013848084269
70.98829709604821
70.60770681628213
71.9066550610228
82.8314773930604
70.38475099302423
69.66003549203182
69.03193569436964
75.82164387100407
70.93293133166051
70.23241495809887
68.89727275416058
69.99788801838149
70.20155450484766
69.240936029352
66.59953268130965
60.73678428802432
109.340701287956
114.2506477027698
117.8543954003338
119.6732874674219
109.8054928164896
114.3857500578035
118.0380066348026
119.9394853778686
110.240232945824
114.3680605029931
118.2198457507657
120.2752111184449
108.5598915270687
114.5195150324688
118.1113179892401
120.4500703875921
122.3890173591175
123.6353497096503
119.5244059143043
106.8594953011508
123.2398615391203
125.0464265524187
123.5987502936966
115.0954065497342
123.3267405622874
125.4903166983639
123.6403472466059
119.019736043184
123.733910564082
126.3159732258939
126.2745274920415
127.9876422677049
54.1057192820973
71.27521047524674
77.56672641931716
79.76006670992177
50.83787790772234
69.89842661182077
76.93891636304971
79.66681201980533
48.2388096593271
68.24318576784624
76.32534229950821
79.5508583496446
46.40537820416919
65.93967864379258
75.50901034422331
79.42222557738351
79.26315332783577
73.2996199851506
58.94705941630877
53.26522570991845
79.25484774173165
73.52384310088668
60.15098937140904
51.91753656139797
79.25654821742479
74.02253679965987
61.86861008724239
49.4763544920396
79.31470781729956
74.7380377834351
63.82747844002107
47.16528372367466
79.42222557725852
79.5508583494782
79.66681201977224
79.76006670966383
75.50901034403192
76.32534229939456
76.93891636284633
77.56672641929774
65.93967864378564
68.24318576786605
69.89842661194724
71.27521047536219
46.40537820415327
48.23880965927881
50.83787790771628
54.10571928211347
)
;

boundaryField
{
    back
    {
        type            empty;
    }
    inlet
    {
        type            zeroGradient;
    }
    front
    {
        type            empty;
    }
    top
    {
        type            zeroGradient;
    }
    outlet
    {
        type            fixedValue;
        value           uniform 80;
    }
    bottom
    {
        type            zeroGradient;
    }
    wall
    {
        type            zeroGradient;
    }
}


// ************************************************************************* //
