/*--------------------------------*- C++ -*----------------------------------*\
  =========                 |
  \\      /  F ield         | OpenFOAM: The Open Source CFD Toolbox
   \\    /   O peration     | Website:  https://openfoam.org
    \\  /    A nd           | Version:  11
     \\/     M anipulation  |
\*---------------------------------------------------------------------------*/
FoamFile
{
    format      ascii;
    class       volScalarField;
    location    "0.0265";
    object      rho;
}
// * * * * * * * * * * * * * * * * * * * * * * * * * * * * * * * * * * * * * //

dimensions      [0 0 0 0 0 0 0];

internalField   nonuniform List<scalar> 
880
(
0.3733250556165154
0.3733250556165154
0.3733250556165154
0.3733250555387718
0.3733250556165154
0.3733250556165154
0.3733250556165152
0.3733250556756296
0.3733250556165154
0.3733250556165153
0.3733250556165154
0.3733250547625055
0.3733250556165154
0.3733250556165154
0.3733250556165154
0.3733250421877349
0.3733250556165154
0.3733250556165155
0.3733250556165152
0.3733250556165154
0.3733250556165154
0.3733250556165154
0.3733250556165151
0.3733250556165154
0.3733250556165154
0.3733250556165154
0.3733250572839983
0.3733250380404081
0.3733927482274164
0.3736167864107036
0.3737278017943582
0.3737033671333111
0.3733250556165199
0.373325055616557
0.3733250556165719
0.3733250556165154
0.3733250556559073
0.3733250556655555
0.3733250556706016
0.3733250556282633
0.3733252131527939
0.3733252315224952
0.3733252426494741
0.373325152512546
0.3737371517704789
0.3737785514905696
0.3737921274604994
0.3737352588485218
0.3740352027250798
0.3736546724091827
0.3733817923168987
0.3733274869156892
0.3733256867437403
0.3733254102629666
0.3733251301858631
0.3733250596445257
0.3733250559163077
0.3733250557992859
0.3733250556569492
0.3733250556184442
0.3733250556183766
0.3733250556177147
0.3733250556165156
0.3733250556165154
0.3733250556165152
0.3733250556165152
0.3733250556165154
0.3733250556165155
0.3733250556165154
0.3733250556165155
0.3733250556165154
0.3733250556165155
0.3733250556264329
0.373325055612849
0.3733250556157874
0.3733250556165154
0.3733250454299948
0.3733250502745296
0.373325055024573
0.3733250556100075
0.3733250556165163
0.3733250556165154
0.3733250556165154
0.3733250556165154
0.3733250550420052
0.3733250556087592
0.3733250556165154
0.3733250556165153
0.3733255137873259
0.3733250618541559
0.3733250556197418
0.3733250556165154
0.3728852622861681
0.3733246225112541
0.3733250554033066
0.3733250556165153
0.3733250556165152
0.3733250556182753
0.3733250758799339
0.3734768094555123
0.3733250556165355
0.3733250556568889
0.3733252619338965
0.3742212427486504
0.3733250556165855
0.3733250556699083
0.3733253136150461
0.37435342102
0.37332505561661
0.373325055681232
0.3733253494268846
0.3743986636492692
0.3744515616581342
0.3733253935582513
0.3733250556965514
0.3733250556167066
0.3745126307153221
0.3733254480343602
0.373325055716441
0.3733250556167508
0.3745781052422734
0.3733255128895269
0.3733250557417893
0.3733250556168722
0.3746838187433515
0.3733256153631151
0.3733250557847135
0.3733250556171755
0.3733250556167487
0.3733250557059935
0.3733253981461092
0.3743607830127791
0.3733250556168361
0.3733250556975351
0.3733253451923637
0.3741371029422227
0.3733250556415599
0.3733250556949165
0.3733253135337217
0.3739727734555168
0.3733250555155245
0.3733250556977913
0.3733251732865538
0.3735647557417542
0.3733250560284465
0.3733249811476717
0.3732813687763792
0.3697548246265714
0.3733250560031288
0.3733249083881695
0.3731883679533896
0.3528871554199589
0.3733250559115703
0.3733249157146458
0.3731650149259873
0.3430272827457546
0.373325055849297
0.3733249515630369
0.3731656029748491
0.3407369741240376
0.3490675498913073
0.3732359118891557
0.3733249720163421
0.3733250557669672
0.3501649434912841
0.3732479065812722
0.373324991556437
0.3733250557593879
0.3523733510279986
0.3732656691760424
0.3733250105662326
0.3733250557454965
0.3470963398767123
0.3732473189794287
0.3733249994398605
0.3733250556812185
0.3683743240459085
0.373317780354412
0.3733250510842607
0.3733250556280057
0.3731143500106083
0.3733249177431242
0.3733250556173837
0.3733250556183305
0.3733085388936344
0.373325035358757
0.3733250556062135
0.3733250556165154
0.3732075930998267
0.3733248883315462
0.3733250554827676
0.3733250556158953
0.3724097580751744
0.373323045721018
0.3733250607854983
0.3733250557952292
0.3724111781317558
0.3733230423180466
0.3733250607154891
0.3733250557946842
0.3724123914185095
0.3733229972962276
0.3733250599564372
0.3733250557816027
0.3724213273411305
0.3733229113946074
0.373325058273938
0.3733250557477369
0.3732075930995317
0.3733248883312689
0.3733250554824189
0.3733250556159682
0.3733085388931183
0.3733250353584391
0.3733250556055598
0.3733250556165154
0.3731143500103863
0.3733249177431426
0.3733250556173699
0.3733250556183848
0.3683743240464686
0.3733177803551074
0.373325051084307
0.3733250556278809
0.373325055767546
0.3733249720171631
0.3732359118895107
0.3490675498915818
0.373325055759652
0.3733249915565772
0.373247906581558
0.3501649434913098
0.3733250557450308
0.3733250105666835
0.3732656691760402
0.352373351028806
0.3733250556813453
0.3733249994399478
0.3732473189802564
0.3470963398760665
0.340736974123251
0.373165602974507
0.3733249515628127
0.3733250558492131
0.3430272827448094
0.3731650149255314
0.3733249157138342
0.3733250559108315
0.3528871554195935
0.3731883679526969
0.3733249083881333
0.3733250560023979
0.3697548246267912
0.3732813687761215
0.3733249811473899
0.3733250560293273
0.3733250556167256
0.3733250557063071
0.3733253981465107
0.3743607830133596
0.3733250556168539
0.3733250556976306
0.3733253451923513
0.3741371029419855
0.3733250556419571
0.3733250556949322
0.3733253135332893
0.3739727734554312
0.3733250555162114
0.3733250556977816
0.3733251732862155
0.3735647557417703
0.3746838187445353
0.3733256153626421
0.3733250557851586
0.373325055617122
0.3745781052432706
0.3733255128901298
0.3733250557419526
0.3733250556168921
0.374512630715438
0.3733254480351874
0.3733250557168016
0.3733250556167381
0.3744515616585579
0.3733253935578946
0.3733250556965891
0.3733250556166783
0.3733250556165154
0.3733250556185163
0.3733250758798931
0.3734768094546381
0.3733250556165155
0.3733250556566366
0.3733252619341682
0.3742212427487429
0.3733250556165628
0.3733250556699215
0.3733253136151432
0.3743534210204236
0.373325055616594
0.3733250556813404
0.3733253494264062
0.3743986636494429
0.3733250556165154
0.3733250556165154
0.3733250556165154
0.3733250556165154
0.3733250554026617
0.3733250556196751
0.3733250556165154
0.3733250556165153
0.3733246225113306
0.3733250618546197
0.3733250556085072
0.3733250556165154
0.3728852622860921
0.373325513787343
0.373325055042036
0.3733250556165163
0.3733250556165152
0.3733250556165154
0.3733250556165151
0.3733250556100883
0.3733250556165154
0.3733250556165153
0.3733250556161176
0.3733250550245766
0.3733250556165154
0.3733250556165154
0.3733250556126922
0.3733250502745724
0.3733250556165154
0.3733250556165153
0.3733250556267378
0.3733250454298887
0.3733250556181646
0.3733250559157399
0.3733256867433082
0.3740352027249261
0.3733250556174109
0.3733250557995144
0.3733254102630499
0.3736546724085726
0.3733250556165154
0.3733250556576116
0.373325130185647
0.3733817923168504
0.3733250556165154
0.3733250556185206
0.3733250596445951
0.3733274869152771
0.3737352588487868
0.373325152513159
0.3733250556280311
0.3733250556165154
0.3737921274602585
0.3733252426506332
0.373325055670456
0.3733250556165771
0.3737785514911773
0.3733252315230673
0.3733250556656229
0.3733250556165539
0.3737371517703446
0.3733252131514428
0.3733250556558315
0.3733250556165199
0.3737033671336791
0.3733250380404171
0.3733250556165154
0.3733250556165154
0.3737278017941615
0.3733250572833436
0.3733250556165154
0.3733250556165154
0.3736167864111129
0.3733250556165155
0.3733250556165154
0.3733250556165153
0.3733927482273434
0.3733250556165154
0.3733250556165154
0.3733250556165151
0.3733250556165154
0.3733250556165154
0.3733250556165154
0.3733250555468163
0.3733250556165152
0.3733250556165155
0.3733250556165153
0.3733250556758721
0.3733250556165154
0.3733250556165154
0.3733250556165154
0.3733250547624843
0.3733250556165154
0.3733250556165154
0.3733250556165151
0.3733250421874677
0.3733250488319377
0.3733249477977437
0.3733236365241943
0.3733447144933855
0.3733249477977139
0.3733240541271088
0.3733043596810915
0.3732156273633904
0.3733236365242465
0.3733043596812399
0.3733316449619866
0.376783066590609
0.3733447144936186
0.373215627363562
0.376783066591006
0.413016741032397
0.5035939912289643
0.4284755601013159
0.401705218401424
0.3786238689871523
0.5321381514003449
0.482947429569483
0.4578445497157806
0.3996855984907818
0.5435917493073216
0.5041440938811641
0.4833224283490182
0.4128585642012117
0.5463879537956243
0.5075164557453423
0.4867884162887666
0.4139596421926989
0.4168963118738729
0.4187577622692071
0.4192135663332987
0.4211327871593207
0.4892502863899306
0.4905911252224509
0.4910293886958797
0.5088991097675898
0.5090088781999668
0.5095395031752755
0.5098625695320268
0.5305454513482276
0.5482614935788792
0.5481207018134002
0.548222855061403
0.5780604851990809
0.4101090362531687
0.3845772872155648
0.3745727683627347
0.3733540309304205
0.4401538601477882
0.3882965071399551
0.374704779259436
0.3733200074879461
0.4190826933107883
0.3818592458327017
0.373945622252611
0.3732879335496541
0.3648679000920431
0.3678689859277772
0.3726261553390841
0.3731958790835306
0.3733234708476516
0.3733247958635446
0.3733250457684622
0.3733250555784247
0.3733215760811562
0.3733249534188375
0.3733250546436176
0.3733250556740934
0.3733209860568614
0.3733250503229619
0.3733250560821483
0.3733250556793756
0.3733073764883442
0.3733242713048879
0.3733250493856233
0.3733250556347257
0.3733250556202229
0.3733250556336952
0.3733250664553897
0.35393342634724
0.3733250556403531
0.3733250556216043
0.37332506026199
0.3408750828774543
0.3733250556445306
0.3733250556204527
0.3733250561735888
0.3519096550118608
0.3733250556457969
0.3733250556222128
0.3733250557024165
0.4278314771159767
0.4264081594238286
0.5049307328070317
0.513086719506302
0.5128979951485905
0.5961520272925831
0.7037284684679851
0.7126695762377523
0.7124132111057151
0.6747114975167163
0.7461655549304349
0.7558916812900734
0.7560181515644627
0.7343006899661949
0.7870143114369454
0.7982149755051314
0.7987828817059573
0.5128705057812333
0.5130074161112964
0.5131810661102797
0.5145454118477815
0.7122235899036434
0.7122242679963303
0.7122733292155132
0.7122643400326319
0.7559021709363025
0.7558507024013933
0.7558486626308204
0.7555382472017583
0.7987087401280928
0.798603077223754
0.7985894167497491
0.7982178022281439
0.4897152161760942
0.4718461360487175
0.4566352571941575
0.4136989312319591
0.6970760895913729
0.6834694302560218
0.6669060892489733
0.6041299135255201
0.7500546695000537
0.7442763929103217
0.7303779685123131
0.6973854797011932
0.7982606882245292
0.8011769865388223
0.7895125191278918
0.8140182843073559
0.3465749668695811
0.2085221295534558
0.1122840305426069
0.104264763671842
0.3280562000751192
0.1509996497150789
0.08482355877623653
0.07766628913580409
0.2868346335602184
0.09508523933045723
0.06583960138882175
0.06222087868671231
0.2167496710514472
0.04515465234583002
0.04571566883126207
0.04514782653425066
0.102736397046309
0.1033727192164917
0.1040945077468217
0.08712951198329259
0.07792740527238184
0.07849420433882157
0.08268788106666319
0.07421301226823154
0.06038513204634669
0.06106627743944669
0.0675864677665937
0.06685052063169766
0.0421695499046266
0.04224888053442863
0.04976904105712627
0.05254431933269752
0.2578881582009915
0.3597047232792336
0.3718762976606256
0.3649893061634555
0.198305245396532
0.3300628227821077
0.3646034820911555
0.3574747456646773
0.1702394804099386
0.2959574722441741
0.3471307430811008
0.3549403776557203
0.131774959278909
0.2634134305561446
0.3276540139418074
0.354898697140936
0.3586336655386712
0.3350452884683246
0.3026011570456719
0.2850269118131172
0.3124458027792625
0.2723486587070609
0.2159964347245066
0.1747654079135717
0.2368269512721362
0.2054915006377712
0.1615822680182631
0.1050674130797775
0.1726204572428907
0.1216542384074858
0.110514140058816
0.07288904518774575
0.05370823482413575
0.05275531273859152
0.0522022801256808
0.05162110636168574
0.08999924681039866
0.08820891926041097
0.086502689149648
0.08517174496600041
0.1647625688769133
0.1632839074014973
0.1619000125595996
0.160973307014539
0.2769841034085087
0.2758841194212674
0.275125986388942
0.2747700535119988
0.05162110636168077
0.08517174496612315
0.1609733070145061
0.2747700535146383
0.05220228012559816
0.0865026891499249
0.1619000125594774
0.2751259863888624
0.05275531273850229
0.08820891926044264
0.1632839074013944
0.275884119421289
0.05370823482429907
0.08999924681024489
0.1647625688766145
0.2769841034081711
0.2850269118129276
0.3026011570453149
0.3350452884678971
0.3586336655380034
0.1747654079133327
0.2159964347246002
0.2723486587073249
0.3124458027789607
0.1050674130797901
0.1615822680183751
0.2054915006377481
0.2368269512719568
0.07288904518784847
0.1105141400588149
0.1216542384074618
0.1726204572428211
0.3548986971406991
0.3276540139413963
0.2634134305562106
0.1317749592788615
0.3549403776555996
0.3471307430810298
0.2959574722441449
0.1702394804099538
0.3574747456647046
0.3646034820907783
0.3300628227819286
0.1983052453966415
0.3649893061633022
0.3718762976603122
0.359704723279119
0.2578881582011618
0.08712951198318718
0.1040945077467596
0.1033727192163428
0.1027363970460303
0.07421301226814947
0.08268788106660707
0.07849420433883605
0.07792740527233852
0.06685052063175624
0.06758646776668038
0.06106627743958599
0.06038513204644774
0.05254431933269881
0.04976904105727129
0.04224888053453243
0.04216954990470909
0.1042647636712908
0.112284030542401
0.2085221295532074
0.346574966869496
0.07766628913580582
0.08482355877619283
0.1509996497148345
0.3280562000744755
0.06222087868687222
0.06583960138877946
0.09508523933043396
0.2868346335597063
0.04514782653440513
0.04571566883119066
0.04515465234571177
0.2167496710512095
0.4136989312314951
0.4566352571942394
0.4718461360482754
0.4897152161756866
0.6041299135243748
0.666906089248869
0.6834694302558857
0.6970760895912365
0.6973854797006143
0.7303779685121037
0.744276392910355
0.7500546694997412
0.8140182843072483
0.7895125191277682
0.8011769865388383
0.7982606882245268
0.5145454118469818
0.5131810661107885
0.513007416111531
0.512870505781028
0.7122643400318456
0.7122733292159077
0.7122242679966772
0.7122235899035277
0.7555382472008251
0.7558486626308958
0.7558507024014046
0.7559021709360804
0.7982178022274423
0.7985894167498018
0.7986030772235976
0.7987087401279697
0.5128979951480968
0.513086719506856
0.5049307328066507
0.4264081594247977
0.7124132111053725
0.7126695762382252
0.7037284684674849
0.5961520272934135
0.7560181515642197
0.7558916812903699
0.7461655549301102
0.6747114975169888
0.7987828817058537
0.7982149755053473
0.7870143114365005
0.7343006899662046
0.3539334263472004
0.3733250664553641
0.3733250556336584
0.3733250556202202
0.3408750828775272
0.373325060261978
0.3733250556215885
0.3733250556403477
0.3519096550119925
0.3733250561735824
0.3733250556204512
0.3733250556445239
0.4278314771160913
0.3733250557024165
0.3733250556222109
0.3733250556457833
0.3733250555784288
0.3733250457685329
0.3733247958635501
0.3733234708476541
0.3733250556740771
0.3733250546435979
0.3733249534189176
0.373321576081068
0.3733250556793282
0.3733250560821428
0.3733250503230938
0.373320986056822
0.3733250556347013
0.3733250493856362
0.3733242713050082
0.3733073764884794
0.3733540309302803
0.3745727683626925
0.3845772872152921
0.4101090362529135
0.3733200074878469
0.3747047792594311
0.388296507139811
0.440153860147796
0.3732879335495717
0.3739456222526155
0.3818592458326122
0.4190826933108961
0.3731958790832701
0.3726261553391373
0.3678689859276719
0.3648679000921457
0.4211327871590423
0.419213566333017
0.4187577622688421
0.4168963118742546
0.5088991097670093
0.491029388695581
0.4905911252220581
0.4892502863903034
0.5305454513478456
0.5098625695316847
0.5095395031744652
0.5090088782002116
0.5780604851989583
0.5482228550610829
0.5481207018127082
0.5482614935791542
0.4139596421926443
0.4128585642006862
0.3996855984911288
0.3786238689875124
0.4867884162886131
0.4833224283483741
0.4578445497158024
0.4017052184014982
0.5075164557456021
0.5041440938803539
0.4829474295693428
0.4284755601010841
0.5463879537961528
0.5435917493072902
0.5321381514002632
0.5035939912290783
0.3731305447389748
0.3733246555515637
0.3733250560018039
0.3733250556407572
0.3727494557526622
0.3733238324425872
0.3733250568316968
0.373325055692059
0.3722581778508098
0.3733227723985985
0.3733250561716069
0.3733250556998127
0.3719940698964095
0.3733223098254702
0.3733250564940687
0.373325055718342
0.3733250557954445
0.3733250607853156
0.3733230457211448
0.3724097580752521
0.3733250557948274
0.3733250607158937
0.37332304231742
0.3724111781319608
0.373325055781446
0.37332505995681
0.3733229972963396
0.3724123914179171
0.373325055747152
0.3733250582743706
0.3733229113929784
0.3724213273411444
0.3733250557182591
0.373325055699756
0.3733250556914516
0.3733250556400825
0.3733250564941908
0.3733250561716013
0.3733250568315331
0.3733250560012957
0.3733223098260028
0.3733227723978248
0.3733238324433445
0.373324655551096
0.3719940698958393
0.3722581778500758
0.372749455752842
0.3731305447391456
)
;

boundaryField
{
    back
    {
        type            empty;
    }
    inlet
    {
        type            calculated;
        value           nonuniform List<scalar> 
16
(
0.3733250556165154
0.3733250556165154
0.3733250556165154
0.3733250556165154
0.3733250556165154
0.3733250556165155
0.3733250556165152
0.3733250556165154
0.3733250556165154
0.3733250556165154
0.3733250556165154
0.3733250556165151
0.3733250556165154
0.3733250556165152
0.3733250556165154
0.3733250556165154
)
;
    }
    front
    {
        type            empty;
    }
    top
    {
        type            calculated;
        value           nonuniform List<scalar> 
40
(
0.3733250556165199
0.373325055616557
0.3733250556165719
0.3733250556165154
0.3733250556183766
0.3733250556177147
0.3733250556165156
0.3733250556165154
0.3733250556165152
0.3733250556165152
0.3733250556165154
0.3733250556165155
0.3733250556165154
0.3733250556165154
0.3733250556165154
0.3733250556165153
0.3733250556165152
0.3733250556165355
0.3733250556165855
0.37332505561661
0.3733250556167066
0.3733250556167508
0.3733250556168722
0.3733250556171755
0.3733250556167487
0.3733250556168361
0.3733250556415599
0.3733250555155245
0.3733250560284464
0.3733250560031288
0.3733250559115703
0.373325055849297
0.3733250557669672
0.3733250557593879
0.3733250557454965
0.3733250556812186
0.3733250556280057
0.3733250556183305
0.3733250556165154
0.3733250556158952
)
;
    }
    outlet
    {
        type            calculated;
        value           uniform 0.3733250556165154;
    }
    bottom
    {
        type            calculated;
        value           nonuniform List<scalar> 
40
(
0.3733250556159682
0.3733250556165154
0.3733250556183848
0.3733250556278809
0.373325055767546
0.3733250557596519
0.3733250557450308
0.3733250556813453
0.3733250558492131
0.3733250559108315
0.3733250560023978
0.3733250560293273
0.3733250556167256
0.3733250556168539
0.3733250556419572
0.3733250555162114
0.373325055617122
0.3733250556168921
0.3733250556167381
0.3733250556166783
0.3733250556165154
0.3733250556165155
0.3733250556165628
0.373325055616594
0.3733250556165154
0.3733250556165154
0.3733250556165154
0.3733250556165154
0.3733250556165152
0.3733250556165154
0.3733250556165154
0.3733250556165154
0.3733250556181646
0.3733250556174109
0.3733250556165154
0.3733250556165154
0.3733250556165154
0.3733250556165771
0.3733250556165539
0.3733250556165199
)
;
    }
    wall
    {
        type            calculated;
        value           nonuniform List<scalar> 
104
(
0.5035939912289643
0.5321381514003449
0.5435917493073216
0.5463879537956243
0.5482614935788792
0.5481207018134002
0.548222855061403
0.5780604851990809
0.3648679000920431
0.3678689859277772
0.3726261553390841
0.3731958790835306
0.3733073764883442
0.3733242713048879
0.3733250493856233
0.3733250556347257
0.3733250556457969
0.3733250556222128
0.3733250557024165
0.4278314771159767
0.7343006899661949
0.7870143114369454
0.7982149755051314
0.7987828817059573
0.7987087401280928
0.798603077223754
0.7985894167497491
0.7982178022281439
0.7982606882245292
0.8011769865388223
0.7895125191278918
0.8140182843073559
0.2167496710514472
0.04515465234583002
0.04571566883126207
0.04514782653425066
0.0421695499046266
0.04224888053442863
0.04976904105712627
0.05254431933269752
0.131774959278909
0.2634134305561446
0.3276540139418074
0.354898697140936
0.1726204572428907
0.1216542384074858
0.110514140058816
0.07288904518774575
0.05370823482413575
0.05275531273859152
0.0522022801256808
0.05162110636168574
0.05162110636168078
0.05220228012559816
0.05275531273850229
0.05370823482429907
0.07288904518784847
0.1105141400588149
0.1216542384074618
0.1726204572428211
0.3548986971406991
0.3276540139413963
0.2634134305562106
0.1317749592788615
0.05254431933269881
0.04976904105727129
0.04224888053453243
0.04216954990470909
0.04514782653440513
0.04571566883119066
0.04515465234571177
0.2167496710512095
0.8140182843072483
0.7895125191277682
0.8011769865388383
0.7982606882245268
0.7982178022274423
0.7985894167498018
0.7986030772235976
0.7987087401279697
0.7987828817058537
0.7982149755053473
0.7870143114365005
0.7343006899662046
0.4278314771160913
0.3733250557024165
0.373325055622211
0.3733250556457833
0.3733250556347013
0.3733250493856362
0.3733242713050082
0.3733073764884794
0.3731958790832701
0.3726261553391373
0.3678689859276719
0.3648679000921457
0.5780604851989583
0.5482228550610829
0.5481207018127082
0.5482614935791542
0.5463879537961528
0.5435917493072902
0.5321381514002632
0.5035939912290783
)
;
    }
}


// ************************************************************************* //
