/*--------------------------------*- C++ -*----------------------------------*\
  =========                 |
  \\      /  F ield         | OpenFOAM: The Open Source CFD Toolbox
   \\    /   O peration     | Website:  https://openfoam.org
    \\  /    A nd           | Version:  11
     \\/     M anipulation  |
\*---------------------------------------------------------------------------*/
FoamFile
{
    format      ascii;
    class       volScalarField;
    location    "0.0265";
    object      T;
}
// * * * * * * * * * * * * * * * * * * * * * * * * * * * * * * * * * * * * * //

dimensions      [0 0 0 1 0 0 0];

internalField   nonuniform List<scalar> 
880
(
300
300
300
299.9999999749594
300
300
299.9999999999998
300.0000000204168
300
300
300
299.9999996830883
300.0000000000001
300
300
299.9999961383224
300
300
299.9999999999999
300
300
300
299.9999999999997
300
300
299.9999999999597
300.0000005413886
299.9999942061493
300.022314301658
300.1041507168121
300.1483938100172
300.1397405984704
299.9999999999265
299.9999999999281
299.9999999999212
300
300.0000000128928
300.0000000159887
300.0000000177045
300.0000000039374
300.0000534922335
300.0000598955034
300.0000636901448
300.0000344225579
300.1536639615596
300.169861085168
300.1750413905236
300.1583822626865
300.2538626186498
300.1113149582446
300.0183641757006
300.0007759187137
300.0002101213395
300.0001156805849
300.0000239235241
300.0000012852954
300.0000000975332
300.000000058956
300.0000000128549
300.0000000005384
300.0000000005965
300.0000000004056
299.999999999869
300
300
300.0000000000001
300
299.9999999999999
300.0000000000187
300
300.0000000000001
300
300.0000000030283
299.9999999989007
299.9999999997021
300
299.99999694165
299.999998329744
299.9999998096601
299.9999999979005
299.9999999997185
300
300.0000000000001
300
299.9999998287481
299.9999999976928
300.0000000000737
300
300.0001348402686
300.0000019117485
300.0000000008511
300.0000000000001
299.8668529017057
299.9998672538845
299.999999933175
300.0000000000002
299.9999999999998
300.0000000004775
300.000007318083
300.0653036783213
299.9999999999853
300.0000000143323
300.0000822388546
300.4715924764919
300.000000000013
300.000000018951
300.0001038805447
300.552875789595
299.9999999999847
300.0000000228235
300.0001181431617
300.575750079877
300.602601975738
300.0001357239863
300.0000000282487
300.0000000000214
300.6339015142995
300.0001574422793
300.0000000352316
300.0000000000131
300.6670248282188
300.00018319114
300.0000000440995
300.000000000082
300.7228633528371
300.0002243652826
300.0000000592323
300.0000000002287
300.0000000000603
300.0000000313381
300.0001346318232
300.5271808743631
300.0000000001214
300.0000000279793
300.0001109671479
300.3949877316954
300.0000000080876
300.0000000277055
300.0000970105818
300.3030958155709
299.9999999674536
300.0000000231166
300.0000422770525
300.1015877877638
300.0000001187571
299.9998731143672
299.9833193699014
300.1786657896418
300.0000001260672
299.9999587190058
299.9693548375016
297.5122733382206
300.0000000975616
299.9999653609115
299.9712172569149
296.5516218412805
300.0000000763397
299.9999740350549
299.9698339860212
295.8874305128007
297.4612302801958
299.9843186679965
299.9999799887746
300.0000000501601
297.4460758488229
299.9861732623608
299.9999847680307
300.0000000474972
297.8727092414895
299.9896819888884
299.999989446338
300.0000000428842
297.4055812477437
299.98726608685
299.9999872591039
300.0000000222921
299.2215857748729
299.9987129897878
299.999999054422
300.0000000038761
299.9504029646146
299.999967335426
300.0000000066836
300.0000000004877
299.9945059467054
299.9999933470793
299.999999996963
300
299.96128783585
299.9999452096191
299.9999999570106
299.9999999998474
299.8358007765639
299.9995765907892
300.0000018351459
300.0000000523687
299.8356339058232
299.9995746297375
300.0000018122271
300.0000000524522
299.8339790983323
299.9995558863739
300.0000015598228
300.0000000490188
299.8318823833704
299.9995158268671
300.000000994275
300.0000000397837
299.9612878355334
299.9999452094034
299.9999999567203
299.9999999998832
299.9945059463499
299.9999933468544
299.999999996389
299.9999999999997
299.9504029645435
299.9999673354854
300.0000000066831
300.0000000005239
299.2215857753479
299.9987129903752
299.9999990544333
300.0000000037178
300.0000000504989
299.9999799894019
299.9843186682493
297.4612302804332
300.0000000477364
299.9999847681353
299.9861732626386
297.4460758487335
300.0000000425919
299.9999894467078
299.9896819889041
297.872709242186
300.0000000223296
299.9999872592347
299.987266087355
297.4055812474556
295.8874305122559
299.9698339856157
299.9999740347845
300.0000000762282
296.5516218408262
299.9712172565848
299.999965360292
300.0000000970004
297.5122733381374
299.9693548370087
299.999958719021
300.0000001256402
300.1786657897762
299.9833193697412
299.9998731141525
300.0000001194404
300.0000000000397
300.0000000315907
300.0001346320205
300.527180874875
300.0000000001306
300.0000000280897
300.0001109671683
300.3949877316585
300.000000008382
300.0000000276137
300.0000970103363
300.303095815515
299.999999967962
300.0000000230909
300.0000422768668
300.1015877877414
300.7228633537353
300.0002243649377
300.000000059593
300.0000000001859
300.6670248289367
300.0001831917973
300.0000000441767
300.0000000000618
300.6339015140326
300.0001574428798
300.0000000354917
300.00000000003
300.6026019761777
300.0001357234378
300.0000000282627
300.0000000000209
300
300.0000000006352
300.0000073180287
300.0653036775703
299.9999999999785
300.0000000141184
300.0000822390535
300.4715924764782
299.9999999999956
300.0000000189707
300.0001038806628
300.5528757899905
299.9999999999935
300.0000000228826
300.0001181429081
300.5757500798865
300
300
300
300
299.9999999328192
300.0000000008591
299.9999999999877
300.0000000000002
299.9998672540027
300.0000019120395
299.9999999975153
300
299.8668529017973
300.0001348402901
299.9999998287674
299.9999999997315
299.9999999999999
300
299.9999999999999
299.9999999979679
300
300
299.9999999999044
299.9999998096624
300
300
299.9999999987681
299.9999983297756
300
300.0000000000557
300.000000003245
299.9999969415891
300.0000000004661
300.0000000971575
300.0002101210133
300.2538626185744
300.0000000001603
300.0000000589521
300.0001156805552
300.1113149578644
299.9999999998765
300.0000000132348
300.0000239233818
300.0183641756566
300
300.0000000005724
300.0000012853388
300.000775918371
300.1583822628431
300.0000344232122
300.0000000038264
300.0000000000001
300.1750413903498
300.0000636910534
300.0000000176628
299.9999999999279
300.1698610858163
300.0000598958734
300.0000000160486
299.9999999999258
300.153663961362
300.0000534908926
300.0000000127642
299.9999999999245
300.1397405987581
299.999994206338
300
300
300.1483938098352
300.0000005409079
300
300.0000000000001
300.1041507170711
299.9999999998831
300
300
300.0223143015688
300
300
299.9999999999999
300
299.9999999999999
300
299.9999999777103
300.0000000000002
300
300
300.0000000206034
300
300
300
299.9999996830275
300
300
299.9999999999999
299.9999961381117
299.999997821344
299.9999657883183
299.9995520129746
300.0061822446157
299.9999657882345
299.9996764984169
299.9934248060725
299.9664002649801
299.999552012986
299.9934248061195
300.0021529661294
301.2664828857283
300.0061822448292
299.9664002651384
301.266482885861
315.5787102496784
343.8521441442134
319.8660032045966
309.4705451281301
301.7367295514388
349.9330438874322
335.2224247857824
327.2256887699262
309.2091809702836
352.0700105771064
340.2931613360451
334.5650971504094
313.9078761518681
352.6537561227502
341.0613769115906
335.5130111586624
314.3047338938189
315.3577328444283
316.0114156647749
316.1637424359268
317.2299310465577
336.3181375858632
336.7829134209391
336.9222441602992
342.1475570468482
341.6301065031977
341.9256591873145
342.0413540934468
346.5097633684017
353.2711364782837
353.4168436718842
353.478523734284
357.8112251689062
312.7042554591112
303.8364402865588
300.4177816786305
300.0095057668846
322.5037610328799
305.450645992703
300.4905431039322
299.9986490797081
319.029622043951
303.93764611501
300.280162715187
299.9880228127974
300.010853518492
298.766681350385
299.8760820876878
299.9593329975966
299.9995366160488
299.9999229050071
299.9999969093984
299.999999987472
299.9988812218718
299.9999584994106
299.9999996055562
300.0000000165389
299.9979419467111
299.9999569613134
299.9999998449988
300.0000000113272
299.9915305790611
299.9996140252408
299.9999974800727
300.0000000033338
300.0000000011826
300.0000000033825
300.0000067293192
293.2336185200093
300.0000000080117
300.0000000015568
300.0000016990398
286.75158397818
300.0000000105528
300.0000000018711
300.0000001476022
287.4064912131489
300.00000000983
300.0000000021854
300.0000000271266
308.5167956266678
323.3109557170199
355.7545696413508
359.0554024201588
358.9494683403431
377.6067606513777
407.0231908256198
409.0507140760055
408.9288746285739
398.8826884316718
414.6978439184309
416.1074941487961
415.9819519179835
413.3017305728868
426.0680186844843
427.6446290687248
427.5529185670842
358.8816236130223
358.8939257676809
358.9141975254568
359.2381600406466
408.8444489922466
408.8450459891425
408.8593633862718
408.8508408285786
415.8956969256575
415.8856909058634
415.8862861578219
415.8484984474544
427.4572070238426
427.4339770147355
427.4318752385711
427.376816422901
349.8951357147733
342.8738198550066
336.7343175395194
317.8026589812329
404.3322828854938
400.1954023751115
395.4964401062672
381.0459129337789
413.6970961593328
411.452163629483
407.8532369077582
407.9045573423767
426.6673328710708
426.7238763824683
424.5394208669711
419.1371298659028
310.7777667863693
285.5040837148672
219.2168840195155
208.4676218635047
326.7625266179412
275.3979208666246
174.7668181170042
157.0242131344355
331.0094071184743
240.2471978582197
131.4613120756181
116.8141518626514
284.2459062357422
176.7910563683074
93.78000295703471
85.89144262199697
209.3847578923463
210.3969767383076
211.0651690744174
196.2207157708784
157.4503775553174
157.7638588901139
161.0664708370979
158.4542637949778
113.5316008089851
113.3691273684023
117.5726493078276
137.057561938197
81.71476070143147
81.23381694244499
85.36800646631679
108.4449617226142
283.0573237320505
297.8540213832516
299.534659995574
297.1684040374662
265.3439871561616
292.7369974452544
297.4489157707743
295.3647937755317
252.460174393746
287.2038543588545
292.6234394625982
297.3115787307618
212.9947478164638
275.256848457012
287.6530532023312
280.3530893501211
296.4393838442722
291.4271725717159
284.9164467346467
281.5259501606323
279.7507356399001
264.6627859256012
244.4930242426966
227.548895785835
238.7238322730798
218.740526364445
194.6386730686054
159.7314911724415
188.6042559749659
151.5285013446592
139.0797149067285
108.8747434174884
87.16813454390316
85.11857379343064
84.35582037242052
83.95177209046156
145.9618025426937
143.6298708014811
142.0971071581618
141.1459300631088
223.9123161248074
223.4474732360893
222.9597342342063
222.5474382901922
280.4504178416333
280.4407260618001
280.3996886330044
280.355156317326
83.95177209047797
141.1459300630748
222.5474382901709
280.3551563184296
84.35582037262401
142.0971071582159
222.9597342341836
280.3996886330132
85.11857379347596
143.6298708016315
223.4474732360214
280.440726061848
87.16813454398476
145.9618025428193
223.9123161247983
280.4504178414284
281.525950160482
284.9164467344991
291.4271725714527
296.4393838438277
227.5488957856452
244.4930242428065
264.6627859259901
279.7507356397089
159.7314911725727
194.6386730687583
218.7405263644004
238.7238322730533
108.8747434175291
139.0797149067657
151.5285013447208
188.6042559749779
280.3530893500044
287.6530532021168
275.2568484571359
212.9947478164693
297.3115787306214
292.6234394624522
287.2038543589069
252.4601743937833
295.3647937754179
297.4489157704243
292.7369974452228
265.3439871563035
297.1684040373218
299.53465999535
297.8540213832012
283.0573237322687
196.220715770737
211.0651690743275
210.396976738195
209.3847578920934
158.4542637950886
161.0664708371002
157.7638588903451
157.4503775554667
137.0575619386875
117.572649307876
113.3691273686772
113.5316008092886
108.4449617228047
85.36800646635677
81.23381694250749
81.71476070172362
208.4676218629218
219.2168840193239
285.5040837149227
310.777766786351
157.024213134702
174.7668181168169
275.3979208661983
326.7625266177069
116.8141518631217
131.4613120753141
240.247197858
331.0094071182268
85.89144262271242
93.78000295644112
176.7910563677318
284.2459062356152
317.802658981009
336.7343175394759
342.8738198548971
349.8951357149181
381.0459129334532
395.4964401061865
400.1954023750889
404.3322828856923
407.9045573422118
407.853236907696
411.4521636294883
413.6970961593482
419.1371298657899
424.539420866975
426.7238763825023
426.6673328711336
359.2381600407095
358.9141975257226
358.8939257676103
358.8816236131341
408.8508408286099
408.8593633864002
408.8450459891593
408.8444489923579
415.8484984473521
415.8862861578744
415.885690905882
415.8956969256577
427.3768164228666
427.431875238651
427.4339770147506
427.4572070238428
358.9494683401795
359.0554024204788
355.7545696411211
323.3109557171009
408.9288746284516
409.0507140761991
407.0231908254558
377.606760651432
415.9819519179003
416.1074941488554
414.697843918361
398.8826884317479
427.5529185670457
427.6446290687577
426.0680186844437
413.3017305729456
293.2336185200244
300.0000067293007
300.000000003364
300.0000000011781
286.7515839782114
300.0000016990314
300.0000000015494
300.000000008013
287.4064912132177
300.0000001475979
300.0000000018728
300.000000010559
308.516795626768
300.0000000271308
300.0000000021863
300.000000009831
299.9999999874844
299.9999969095235
299.9999229050174
299.999536616112
300.0000000165593
299.9999996057604
299.999958499371
299.9988812218556
300.0000000113268
299.9999998452324
299.9999569612309
299.9979419466215
300.0000000033368
299.999997480212
299.9996140251646
299.9915305788813
300.0095057666804
300.4177816786095
303.8364402863959
312.704255459032
299.9986490796453
300.4905431039204
305.4506459926341
322.5037610328423
299.988022812788
300.2801627151745
303.9376461149741
319.0296220438809
299.9593329975704
299.8760820877014
298.7666813503421
300.0108535183993
317.2299310464631
316.1637424357937
316.0114156649344
315.3577328446175
342.147557046583
336.9222441601765
336.7829134209704
336.3181375861497
346.5097633681285
342.0413540932641
341.9256591869866
341.6301065033981
357.8112251686961
353.478523734087
353.4168436715296
353.2711364784458
314.304733893902
313.9078761516358
309.2091809705419
301.7367295515575
335.5130111586259
334.5650971502177
327.2256887700054
309.4705451281306
341.0613769116111
340.29316133563
335.2224247857583
319.8660032045006
352.6537561227703
352.0700105768057
349.9330438874225
343.8521441442595
299.9527807818907
299.9998959812277
300.0000001353897
300.0000000074369
299.8728778619674
299.9996921278657
300.0000004450243
300.0000000234503
299.7813519319599
299.9994339626251
300.0000002792653
300.0000000260203
299.734795624637
299.9993290244605
300.0000004043762
300.0000000317291
300.0000000525188
300.0000018350155
299.9995765909123
299.8358007765938
300.0000000525601
300.000001812512
299.9995746292636
299.8356339060618
300.0000000488933
300.0000015601426
299.9995558864026
299.833979097847
300.0000000393752
300.0000009946077
299.9995158256105
299.8318823833538
300.0000000316762
300.000000025966
300.0000000229982
300.0000000068976
300.0000004044431
300.0000002792623
300.000000444895
300.0000001350327
299.999329024838
299.999433962084
299.9996921284444
299.9998959808256
299.7347956241589
299.7813519314419
299.8728778621959
299.95278078194
)
;

boundaryField
{
    back
    {
        type            empty;
    }
    inlet
    {
        type            zeroGradient;
    }
    front
    {
        type            empty;
    }
    top
    {
        type            zeroGradient;
    }
    outlet
    {
        type            fixedValue;
        value           uniform 300;
    }
    bottom
    {
        type            zeroGradient;
    }
    wall
    {
        type            zeroGradient;
    }
}


// ************************************************************************* //
