/*--------------------------------*- C++ -*----------------------------------*\
  =========                 |
  \\      /  F ield         | OpenFOAM: The Open Source CFD Toolbox
   \\    /   O peration     | Website:  https://openfoam.org
    \\  /    A nd           | Version:  11
     \\/     M anipulation  |
\*---------------------------------------------------------------------------*/
FoamFile
{
    format      ascii;
    class       volVectorField;
    location    "0.108";
    object      U;
}
// * * * * * * * * * * * * * * * * * * * * * * * * * * * * * * * * * * * * * //

dimensions      [0 1 -1 0 0 0 0];

internalField   nonuniform List<vector> 
880
(
(25 -7.768126373978579e-16 0)
(25 -2.449151398359413e-17 0)
(25 -3.476253510540663e-12 0)
(24.999997509159 -8.494636940743626e-06 0)
(25 1.210301178234613e-15 0)
(25 -2.576598680909502e-15 0)
(25.00000000009065 -6.974399647730759e-11 0)
(24.99991190928219 -0.0002335961113773403 0)
(25 0 0)
(25.00000000000001 2.535613030115412e-15 0)
(25.00000000104208 -1.252117084069547e-09 0)
(24.99997187770766 -0.0004938481726861554 0)
(25 0 0)
(25 -1.532949367023038e-15 0)
(25.00000004003505 -2.446492515077591e-08 0)
(24.99890938749193 -0.0049447717085814 0)
(25 -5.26900058478425e-16 0)
(25 -1.257661422378456e-15 0)
(25.00000000000001 -2.599906302538444e-12 0)
(24.9999999998396 9.554833911257147e-10 0)
(25 -5.7457217454196e-15 0)
(25 8.997209009989548e-15 0)
(25.00000000000003 1.62537149877873e-13 0)
(25 -1.299111232650984e-12 0)
(25.00000255902489 -2.030136910899488e-06 0)
(24.99998853682045 9.788697595579357e-06 0)
(25.00088295634552 0.004522971634044007 0)
(25.00048834689623 -0.01005442465079554 0)
(24.88058473854758 0.05389899071927378 0)
(24.58266619860865 0.322799070356574 0)
(24.42221813728763 0.6686034349920096 0)
(24.38676775858908 0.8989135314083466 0)
(24.99999964612594 -7.043417089672281e-07 0)
(24.99999877633713 -1.38903584654931e-06 0)
(24.99999532255073 -4.83118015690812e-06 0)
(24.99999715948807 -1.795709728804573e-06 0)
(24.99998425467153 8.839837983348935e-06 0)
(24.99997151045083 4.308733177649753e-05 0)
(24.99998274014025 0.0001081984050162825 0)
(24.99998097214801 6.408776340044179e-05 0)
(24.99033534923407 0.007110684883865809 0)
(24.98934755523902 0.01724803495897049 0)
(24.99159516246396 0.02890278475529753 0)
(24.98969658988767 0.02663863897261046 0)
(24.39026114171665 1.104133365245004 0)
(24.35325053487014 1.376540258493034 0)
(24.4837021855512 1.50907179439862 0)
(24.33752542658144 1.76114255688574 0)
(24.72109202415588 1.89905092442569 0)
(25.11538934133724 1.748525562032975 0)
(25.42383529467654 1.336809525147063 0)
(25.53165042426835 0.8481467905634057 0)
(24.98466053540666 0.04825474086996973 0)
(24.95271096528503 0.0916272020088095 0)
(24.99434701683824 0.1320335392040176 0)
(25.01972511019361 0.120775922834442 0)
(24.99993682794113 0.0002063077926411884 0)
(24.99973016425525 0.0005370169702944817 0)
(24.99968128534926 0.001166569119575564 0)
(24.99998444582885 0.00125843651790562 0)
(24.99999235456954 -6.806145885916558e-06 0)
(24.99998254986727 -1.64059512155938e-05 0)
(24.99996208123475 -3.143939512372127e-05 0)
(24.99995661270555 -3.193629682719053e-05 0)
(24.99996399352432 -2.253848580938302e-05 0)
(24.99998262118807 -8.817845433469565e-06 0)
(24.99999609420062 -1.746669989568639e-06 0)
(24.99999965098563 -1.429513494065595e-07 0)
(25.00017806166877 0.001017095957765519 0)
(25.00020236266279 0.0004857489256772591 0)
(25.00007091698382 0.0001072292401302712 0)
(25.0000079928278 9.767175749470424e-06 0)
(25.03353604821709 0.08946704086359264 0)
(25.0277211362585 0.04884748588092262 0)
(25.01223034506463 0.01567369327667873 0)
(25.00261382520476 0.002650545788191544 0)
(25.47611936252347 0.5116148646208298 0)
(25.36012855127996 0.3088975656004714 0)
(25.22381113144876 0.1678800172841963 0)
(25.09825939913721 0.06449213799419243 0)
(25.0229258648335 0.01318371940759301 0)
(25.00021513578159 0.0001977689196478818 0)
(25.00000028334572 3.417029354580341e-07 0)
(24.99999999009837 -3.747614931393898e-09 0)
(25.00207200533395 0.001814981148185337 0)
(25.00001303657384 2.1516238275051e-05 0)
(25.00000002214792 3.176145668610437e-08 0)
(24.99999999926927 -4.465120487294626e-10 0)
(25.00041483058982 -0.0007357255059955666 0)
(25.0000107899444 -4.530386031836747e-05 0)
(24.99999987061442 -2.371688976498044e-07 0)
(24.99999995730722 4.326158710098623e-09 0)
(24.79339201149621 0.2047469949461471 0)
(24.99947928870621 0.001311595691507768 0)
(25.00003470291781 -2.098559705421854e-05 0)
(25.00000322375034 -3.226585003873427e-06 0)
(24.99999999505902 -4.49035678835425e-06 0)
(25.00001151514423 -4.111410197849319e-05 0)
(24.9921220576735 0.002344132294176516 0)
(22.95416047955699 0.7771160817768457 0)
(24.99999918415304 -1.670119319571241e-06 0)
(24.99990305468476 1.581085739356701e-05 0)
(24.95691132258201 0.02160794357795875 0)
(21.612346330388 1.97279638816682 0)
(24.99999369432905 -1.020387264492489e-05 0)
(24.99971140984034 0.0002427080854612925 0)
(24.9103596794368 0.06979369547538314 0)
(20.84754833288104 3.353939804590166 0)
(24.99997018099215 -2.709386528047408e-05 0)
(24.99969045272414 0.0006926652036114478 0)
(24.88417581994378 0.1331412610252705 0)
(20.64706134555997 4.577558933947221 0)
(20.54453487841531 5.663364838607529 0)
(24.84757578640538 0.2150838532694407 0)
(24.99941589485143 0.001043285251397163 0)
(24.99996413696397 -4.138148320751608e-05 0)
(20.73298007355954 6.193430909601902 0)
(24.84269011416569 0.2864841402423673 0)
(24.99952510678693 0.001883706619779287 0)
(24.99992337756846 -6.859075997898963e-05 0)
(20.62603430540364 6.708924215268237 0)
(24.7914903352704 0.3484259596588709 0)
(24.99904960603417 0.001963875341087742 0)
(24.99992495784193 -7.89132980497478e-05 0)
(20.56871551438856 6.980791311296484 0)
(24.75281365568604 0.4477720136423436 0)
(24.99899781225237 0.003545471247261952 0)
(24.99985184505034 -0.000133476207700559 0)
(24.99983708329347 -0.000158571451215628 0)
(24.99861989982271 0.003758128907911136 0)
(24.68346965354829 0.5331768072086404 0)
(20.0687826663731 7.518607702551812 0)
(24.9997728863962 -0.0002302394231133609 0)
(24.99757551842393 0.005862600408721563 0)
(24.59744285252481 0.7111028465328773 0)
(20.30062613196202 7.84046859411073 0)
(24.99969795818275 -0.0004263914637287889 0)
(24.99771539041599 0.008329200947992471 0)
(24.64110763213287 0.763988903238118 0)
(21.08594644073509 7.394957280853972 0)
(24.99981788617067 -7.072024708319682e-07 0)
(24.99581964059965 0.003790004222411822 0)
(24.69938952469314 0.5247843862992413 0)
(22.89010187225658 5.97574348188325 0)
(24.99926294438319 -0.0004130852344068048 0)
(25.00356244318349 0.02142184857194837 0)
(25.16144161040884 0.6717857751005133 0)
(25.93779876807179 3.678406106898847 0)
(24.99864117153205 -0.000103952217619349 0)
(25.0240912256299 0.01746285062684411 0)
(25.33802142489143 0.2397208320073194 0)
(27.43428951036591 1.084741475174291 0)
(24.99998032869844 -7.652065860942116e-05 0)
(25.01238616636414 -6.714557449342241e-05 0)
(25.20142575672911 -0.1331084715869778 0)
(25.95138424945518 -1.669356241549974 0)
(24.9999338802058 -0.0001880418428748634 0)
(24.99510991110717 -0.01124640018013738 0)
(24.7949642091925 -0.3768258438016103 0)
(22.6270311260053 -3.014156026629289 0)
(20.34278136393776 -3.106667506170382 0)
(24.60686475158158 -0.3947646417627713 0)
(24.99186677585726 -0.01182105866699277 0)
(24.99996144663345 -6.082782095914953e-05 0)
(19.20343417692401 -2.672302865301383 0)
(24.47439433613165 -0.3679898226672108 0)
(24.98879186975233 -0.01009366905598374 0)
(24.99995677355798 -5.253028043066557e-05 0)
(18.9288376700664 -1.459049640085394 0)
(24.47539271757284 -0.2581516206145865 0)
(24.99326764846388 -0.00570537069018077 0)
(24.99998861272849 -2.129878339950642e-05 0)
(18.02837818988331 -0.5478401222295833 0)
(24.40312188294275 -0.2157258441573884 0)
(24.99252211339904 -0.005481699097319379 0)
(24.99998444539554 -2.146151778695322e-05 0)
(19.68251104089662 0.3835745480610832 0)
(24.64985059989053 -0.09301129052663527 0)
(24.99699554527047 -0.00180732819707693 0)
(24.99999380713658 -6.740341478529171e-06 0)
(21.66055763495583 0.7676855403116413 0)
(24.84951702899117 -0.04470774668533082 0)
(24.99922048884347 -0.0005060533436426665 0)
(24.99999859324283 -1.513110333340025e-06 0)
(23.15527054939871 0.6149077175125101 0)
(24.94307301482137 -0.02349899480672797 0)
(24.99980744788557 -0.0001675312579752699 0)
(24.99999974088136 -4.425761598431036e-07 0)
(24.25203399487641 0.2956720724869571 0)
(24.99233965304688 -0.02129189674727331 0)
(25.00002297066924 -0.0001181076171216121 0)
(24.99999996533325 -3.207532774735144e-07 0)
(23.66370218881055 -0.07380683655474241 0)
(24.92520103393815 -0.001802011696778276 0)
(24.99866168946972 -1.253623125926055e-05 0)
(24.99999117179179 -3.250484817713393e-08 0)
(23.7191568161557 -0.262328719796968 0)
(24.92726298007586 -0.005087441661277786 0)
(24.99867614307565 -3.149343773216723e-05 0)
(24.99999121052226 -7.578318593885745e-08 0)
(23.68991471494387 -0.555855281411916 0)
(24.92579049517084 -0.0114302454528527 0)
(24.99866388134321 -6.609859866563595e-05 0)
(24.99999118051567 -1.652046603729456e-07 0)
(23.68059666802592 -0.614564519911845 0)
(24.92848282356878 -0.01788696107993668 0)
(24.99865775029679 -0.000149777479228342 0)
(24.99999137201731 -5.471615903461404e-07 0)
(24.2520339949738 -0.2956720725349686 0)
(24.99233965310654 0.0212918967689078 0)
(25.00002297076962 0.0001181076697895285 0)
(24.99999996519693 3.209132262784216e-07 0)
(23.15527054945428 -0.6149077174037402 0)
(24.94307301490435 0.02349899480543798 0)
(24.99980744809066 0.0001675313153329564 0)
(24.99999974085832 4.425316055012686e-07 0)
(21.66055763491924 -0.7676855401330512 0)
(24.84951702893501 0.04470774683478956 0)
(24.9992204888295 0.0005060534616789493 0)
(24.99999859323313 1.51310289307332e-06 0)
(19.68251104078814 -0.3835745481671412 0)
(24.64985059970918 0.0930112904613301 0)
(24.99699554523562 0.001807328153058447 0)
(24.99999380719097 6.740329311163197e-06 0)
(24.99996144639879 6.082767041145972e-05 0)
(24.9918667755969 0.01182105868828084 0)
(24.60686475155707 0.3947646416701743 0)
(20.34278136391486 3.106667506090832 0)
(24.99995677338495 5.253041323444311e-05 0)
(24.98879186963537 0.01009366915335006 0)
(24.4743943360899 0.3679898226215869 0)
(19.20343417689617 2.67230286515894 0)
(24.99998861284668 2.129880726481764e-05 0)
(24.99326764834374 0.005705370627076199 0)
(24.47539271752592 0.2581516206250617 0)
(18.92883766994796 1.459049640001835 0)
(24.99998444540148 2.146148179331954e-05 0)
(24.99252211334114 0.005481699128717287 0)
(24.40312188276619 0.2157258440295561 0)
(18.02837818988508 0.5478401223691106 0)
(22.62703112610305 3.014156026708161 0)
(24.79496420931267 0.3768258438074576 0)
(24.99510991138685 0.01124639984642197 0)
(24.99993388038571 0.0001880418035962824 0)
(25.95138424959103 1.669356241695593 0)
(25.20142575686185 0.1331084715982239 0)
(25.01238616654233 6.714571457786896e-05 0)
(24.99998032893326 7.652050388883592e-05 0)
(27.43428951036899 -1.084741475198979 0)
(25.33802142503962 -0.2397208319572052 0)
(25.02409122563087 -0.01746285061297724 0)
(24.99864117170213 0.0001039526347130096 0)
(25.93779876804751 -3.678406106904965 0)
(25.16144161047482 -0.6717857751327868 0)
(25.00356244326569 -0.02142184843064593 0)
(24.99926294405966 0.0004130851749905708 0)
(24.99983708337463 0.0001585714515330267 0)
(24.99861989972304 -0.003758128979040482 0)
(24.6834696535364 -0.5331768071345945 0)
(20.06878266626873 -7.518607702482937 0)
(24.99977288638965 0.0002302393925250577 0)
(24.99757551826675 -0.005862600470811961 0)
(24.59744285245174 -0.7111028465076852 0)
(20.30062613195558 -7.84046859408395 0)
(24.99969795798815 0.0004263914255490695 0)
(24.99771539039927 -0.00832920088564067 0)
(24.64110763222984 -0.7639889031804288 0)
(21.08594644073861 -7.394957280843296 0)
(24.99981788600743 7.071614796068471e-07 0)
(24.99581964059399 -0.003790004111169461 0)
(24.69938952476079 -0.5247843862449078 0)
(22.89010187226907 -5.975743481888435 0)
(20.56871551418616 -6.98079131129523 0)
(24.75281365565865 -0.4477720135720286 0)
(24.99899781195697 -0.0035454713418573 0)
(24.99985184504652 0.0001334762473262403 0)
(20.6260343051825 -6.708924215237901 0)
(24.79149033486664 -0.3484259597451165 0)
(24.99904960597669 -0.001963875379802768 0)
(24.99992495779263 7.891329497071358e-05 0)
(20.73298007351609 -6.193430909648768 0)
(24.84269011415778 -0.2864841402235545 0)
(24.99952510664647 -0.001883706662741284 0)
(24.99992337763836 6.859075471416443e-05 0)
(20.54453487838342 -5.663364838656212 0)
(24.84757578672246 -0.2150838532600369 0)
(24.99941589498078 -0.001043285256259846 0)
(24.99996413700408 4.138148265623357e-05 0)
(24.99999999494137 4.490368305556502e-06 0)
(25.00001151503315 4.11140993784417e-05 0)
(24.99212205776101 -0.002344132255845381 0)
(22.95416047961895 -0.7771160817881018 0)
(24.99999918424355 1.670114193584509e-06 0)
(24.99990305483264 -1.581085871009466e-05 0)
(24.95691132237098 -0.02160794368797331 0)
(21.612346330613 -1.972796388150027 0)
(24.99999369443925 1.020386987069954e-05 0)
(24.99971140988299 -0.0002427080251732781 0)
(24.91035967940718 -0.06979369528776665 0)
(20.8475483325985 -3.353939804728788 0)
(24.99997018112194 2.709386669790827e-05 0)
(24.99969045253195 -0.0006926652862049991 0)
(24.88417581992876 -0.1331412612119341 0)
(20.64706134568861 -4.577558933752778 0)
(25.0000032237472 3.226583169803364e-06 0)
(24.99999995724043 -4.319912011544237e-09 0)
(24.99999999925886 4.400508416772928e-10 0)
(24.99999999011455 3.759156000924364e-09 0)
(25.00003470305321 2.098561419706604e-05 0)
(24.99999987060299 2.371542914499012e-07 0)
(25.00000002200568 -3.175410657497497e-08 0)
(25.00000028340975 -3.416755933695771e-07 0)
(24.99947928866722 -0.001311595703106257 0)
(25.00001078991103 4.53038817427266e-05 0)
(25.00001303667957 -2.151622174166004e-05 0)
(25.00021513583804 -0.0001977689727696787 0)
(24.79339201149736 -0.2047469949232173 0)
(25.00041483063582 0.0007357255794883521 0)
(25.002072005267 -0.001814981204210419 0)
(25.02292586484598 -0.01318371940774984 0)
(24.99999965107158 1.429492775726184e-07 0)
(25.00000799283957 -9.767213377240174e-06 0)
(25.00261382509399 -0.002650545883289753 0)
(25.09825939908623 -0.06449213794458078 0)
(24.99999609426856 1.746657952003563e-06 0)
(25.00007091702546 -0.0001072292230905983 0)
(25.01223034479172 -0.01567369321770625 0)
(25.22381113144931 -0.1678800172102967 0)
(24.99998262107519 8.817837059794658e-06 0)
(25.00020236267843 -0.0004857489296048694 0)
(25.02772113638439 -0.04884748583499902 0)
(25.36012855129034 -0.3088975656113854 0)
(24.99996399349025 2.253853040644159e-05 0)
(25.00017806167573 -0.001017096035216893 0)
(25.03353604810152 -0.08946704088034642 0)
(25.47611936260409 -0.5116148645436666 0)
(24.99999235475204 6.806080540814528e-06 0)
(24.99993682807044 -0.0002063078443581294 0)
(24.98466053527014 -0.04825474109736774 0)
(24.72109202414785 -1.899050924484379 0)
(24.99998255003946 1.64059309243396e-05 0)
(24.99973016428073 -0.0005370168918710671 0)
(24.95271096531753 -0.09162720203509189 0)
(25.1153893414217 -1.748525562087529 0)
(24.99996208130017 3.143941568525179e-05 0)
(24.99968128517289 -0.001166569068578589 0)
(24.99434701690731 -0.1320335391926983 0)
(25.42383529474719 -1.336809525140372 0)
(24.99995661276226 3.193631735916815e-05 0)
(24.99998444568938 -0.001258436574344472 0)
(25.01972511023798 -0.1207759227841287 0)
(25.5316504243307 -0.8481467906244623 0)
(24.33752542657286 -1.761142556802178 0)
(24.98969658953389 -0.02663863896682989 0)
(24.99998097225957 -6.408780342787222e-05 0)
(24.99999715956977 1.795647305837552e-06 0)
(24.48370218550663 -1.50907179447182 0)
(24.99159516209804 -0.02890278460047326 0)
(24.99998274018599 -0.000108198427391182 0)
(24.99999532247951 4.831292391631897e-06 0)
(24.35325053474044 -1.376540258427041 0)
(24.98934755546092 -0.01724803456124326 0)
(24.99997151041348 -4.308736725297777e-05 0)
(24.99999877640796 1.388975696847687e-06 0)
(24.39026114173556 -1.104133365296798 0)
(24.99033535010265 -0.007110684913610915 0)
(24.99998425469903 -8.839781629832005e-06 0)
(24.9999996460774 7.043410829765455e-07 0)
(24.38676775853239 -0.8989135314309284 0)
(25.0004883464191 0.01005442409201916 0)
(25 1.457282508286587e-12 0)
(24.99999999981451 -9.488630754224888e-10 0)
(24.42221813729635 -0.6686034350118499 0)
(25.00088295663879 -0.004522971228709646 0)
(25 -1.60120620107961e-13 0)
(25.00000000000001 2.648192147118024e-12 0)
(24.58266619850607 -0.3227990703215118 0)
(24.99998853686946 -9.788693534689549e-06 0)
(25 -1.16502263111108e-15 0)
(25.00000000000001 1.199568131277939e-15 0)
(24.88058473847805 -0.05389899070177021 0)
(25.00000255905375 2.030135043072739e-06 0)
(25 -1.986043000611352e-15 0)
(25.00000000000002 -6.986416081476552e-15 0)
(25 1.420908939734042e-15 0)
(25 2.18745770087966e-15 0)
(25.00000000000006 2.997848959925713e-12 0)
(24.9999975101507 8.495120395417669e-06 0)
(24.99999999999999 -2.843418720158383e-19 0)
(25 3.356945442764602e-15 0)
(25.00000000009104 7.09261865309498e-11 0)
(24.99991191011453 0.0002335954891181781 0)
(25 -1.366459512028481e-15 0)
(25 -2.775846959151798e-15 0)
(25.00000000103223 1.249211768755254e-09 0)
(24.99997187766999 0.0004938480119305213 0)
(25 -2.411334322057663e-15 0)
(25 -1.159344302259447e-15 0)
(25.00000004011226 2.444572079131532e-08 0)
(24.99890938757791 0.004944771846857272 0)
(24.99999075781432 -7.119256134902142e-11 0)
(24.9999232227732 0.0002108922586401216 0)
(24.99943127261445 0.0005460624479913766 0)
(24.98182352214935 0.001349253056289952 0)
(24.99992322091223 -0.0002108983953672579 0)
(24.99993627613033 -4.908726448811719e-09 0)
(24.99934443750603 -0.001613349216966063 0)
(24.8881307305967 -0.05439633943247107 0)
(24.99943127189372 -0.0005460603751299423 0)
(24.99934443490775 0.001613348536699854 0)
(24.95346376451436 6.841120202401724e-09 0)
(24.26560574377362 -0.1668389877215326 0)
(24.98182352125577 -0.001349253501941472 0)
(24.88813073083976 0.05439633514927372 0)
(24.26560574999706 0.1668389996552236 0)
(21.7810388707653 -4.840091137849156e-09 0)
(19.40790005895127 2.479032416173691 0)
(20.43483223027853 3.130245908796534 0)
(22.91880048090553 2.25057219882481 0)
(24.16122976975372 1.026518380644961 0)
(19.89692122004482 4.482304158014251 0)
(20.16802830215214 4.630086417014721 0)
(21.24164741345787 4.39856948798765 0)
(22.47560204215573 3.580089259280254 0)
(20.52229136153538 5.555181370207853 0)
(21.0755332739549 4.928485037749061 0)
(21.76181161708087 5.08799263859738 0)
(22.62313835338457 4.800592850505378 0)
(21.08507603596019 6.015953736652781 0)
(21.7815853742836 5.235654248715992 0)
(22.37858732026967 5.360558240803794 0)
(22.98194425226425 5.114345750137774 0)
(23.15408484705077 5.158347452661329 0)
(23.22022309084551 5.377916898518606 0)
(23.38028036617594 5.499842199991454 0)
(23.30169651771099 5.815635774809859 0)
(22.89826568565949 5.415136299182378 0)
(23.14682672342892 5.537362264822976 0)
(23.30304796682522 5.621933842172786 0)
(23.71589799694102 6.114938277997373 0)
(22.5237838821166 5.474680228302457 0)
(23.01479791117447 5.615803815900425 0)
(23.18574448649383 5.692695853410901 0)
(25.20754786951408 6.47326819973242 0)
(21.10633289006371 5.770598981333605 0)
(21.4929035176358 5.574514298278435 0)
(21.71164835446934 5.509353922286532 0)
(27.0144025568649 7.611600194336642 0)
(25.31877715295484 4.26905161688019 0)
(27.36019398403888 1.737189819869985 0)
(26.84598519877645 0.4421171362825286 0)
(26.14103686123398 0.124637683208921 0)
(26.79088234736613 3.430395377645841 0)
(28.56763674544468 0.7327492789125521 0)
(27.67493534170415 -0.04280586792172331 0)
(26.81302802768513 0.02640880952903216 0)
(29.65267749806247 2.700796871615927 0)
(29.97047941207971 0.09218535273199882 0)
(28.24099121659063 -0.17786009495369 0)
(27.10868209364765 -0.1493286368528399 0)
(21.53285689531425 1.916447856170312 0)
(22.03653651270952 0.424991936270138 0)
(21.93388021842826 0.1564872765267815 0)
(22.3878929013674 -0.002656232269972108 0)
(25.75110824502087 0.08687375969914506 0)
(25.53307060019846 0.07861474418857539 0)
(25.42548778502954 0.04244225069835886 0)
(25.25903886971983 0.05754728502372083 0)
(26.211122093722 0.03721088645027971 0)
(25.83563093643632 0.03454510439240294 0)
(25.6240815752057 0.01519220697060363 0)
(25.38486515086961 0.01528847245466324 0)
(26.4809484796285 -0.1525746065230238 0)
(26.08020123149527 -0.0937776314944989 0)
(25.79024634017543 -0.04859289631307066 0)
(25.5012820280786 -0.04021047443522055 0)
(23.23393653603383 -0.3508288447213417 0)
(24.10216639329339 -0.4258921109892505 0)
(24.60709726806883 -0.3032238683519909 0)
(24.76186352779535 -0.2386560990705714 0)
(25.09242181427024 0.03388701221045362 0)
(25.01666146482896 0.007116142847718327 0)
(25.00068251959013 0.001124906777387894 0)
(22.70964567835062 2.558890960010014 0)
(25.15508147378822 0.01805216008759832 0)
(25.03247931191608 0.006777508745187848 0)
(25.00241184224351 -0.0001207210437734387 0)
(20.50973469589066 2.995539227495414 0)
(25.22232176220301 -0.02415726522296586 0)
(25.0521792132158 -0.00707361277460306 0)
(25.00558058910279 -0.005633150054017374 0)
(18.25990953967167 2.103937923847907 0)
(24.90246129129379 -0.1215049802981581 0)
(24.97613340284265 -0.02923235383339647 0)
(24.99900835353749 -0.00168362466377554 0)
(13.76448774389327 0.6854803087945821 0)
(15.5312843113972 7.63043403762827 0)
(15.80956648128377 8.026581621673612 0)
(16.02346309059051 9.094615022260452 0)
(16.3777193829475 10.11323240256954 0)
(13.05129458520851 7.833787703347936 0)
(14.76075314907215 8.331489245863164 0)
(15.63693017511707 9.474857642720565 0)
(16.169702772917 10.27698358110128 0)
(10.66293100932031 6.795128757010344 0)
(13.08308965490107 8.094809720828609 0)
(14.80480028847068 9.504314131456086 0)
(15.83816653710264 10.20897840005374 0)
(8.17448365402579 3.019574294112247 0)
(11.31805175916907 5.04464809958636 0)
(12.57235894316779 7.498707004671386 0)
(13.81003929451289 9.440839151603369 0)
(16.5381844824583 10.90603326505751 0)
(16.78180296725553 11.20709191357611 0)
(16.86201980855802 11.49148780076751 0)
(16.96363794178229 11.48735274519859 0)
(16.44170617869 10.88809171528645 0)
(16.7372725883803 11.11101738815016 0)
(16.91999715371339 11.35869713361186 0)
(17.07063719465078 11.35514629340013 0)
(16.29910137382584 10.73113733461775 0)
(16.60010969821673 10.99382939746683 0)
(16.85019802622658 11.23951109912597 0)
(17.01008131671068 11.29859975020762 0)
(14.7494293812201 10.37745961062888 0)
(15.2435479557419 10.76388309215263 0)
(15.68086233672328 10.79952463781039 0)
(15.78683819294779 10.7884783816436 0)
(16.95921594189782 11.51898602353528 0)
(17.46230388999811 11.42561316948322 0)
(18.64382390002311 10.87685135583049 0)
(20.97284078738589 9.759085932337406 0)
(17.11105435664727 11.35238126359633 0)
(17.55469259684125 11.25871386905481 0)
(18.79526033166784 10.90819638204957 0)
(21.91133178720603 11.45491588598401 0)
(17.06257837532674 11.34237599559363 0)
(17.39087809690684 11.28900772904188 0)
(19.14958369208573 11.42771997961053 0)
(26.92243922546218 16.62633879893767 0)
(16.12156916956784 10.87299205040672 0)
(16.64927545337835 10.74944565588653 0)
(19.31654695693702 11.74409990171765 0)
(36.81803761690712 21.90734927955611 0)
(25.81923231299137 5.228007334974144 0)
(28.76979452662392 -2.178799774605999 0)
(8.148725236676119 -5.081198247425691 0)
(4.875554813263066 -1.430935502944268 0)
(27.02660528822536 4.613607643608627 0)
(23.78650398247289 -1.911724761322255 0)
(4.026975551049896 -5.774400590117679 0)
(2.059545350956236 -1.10549978684535 0)
(26.71597840260475 3.693687903313014 0)
(15.98855895941957 -5.170068839290642 0)
(1.843881378438495 -3.196793009960909 0)
(1.229638927211463 -0.6949148628695583 0)
(17.15826286066607 -6.685158747513124 0)
(5.593506175764861 -4.762798012989125 0)
(-0.4954966832591609 -1.121759825443888 0)
(0.4462302168729154 -0.9140766575547642 0)
(2.574982297041239 -0.6292374413734909 0)
(1.377209115861908 -0.210387817360766 0)
(0.8503384879709326 0.1204397610995333 0)
(-0.3863219245361926 1.304092131589671 0)
(0.6765860036322472 0.5937861096193248 0)
(-0.1032981710314438 1.305256264440598 0)
(-0.4315398611166794 1.492071010949867 0)
(0.2875451451506437 3.062071259067134 0)
(0.5775778849517672 0.4201633502695505 0)
(0.09892399347341696 1.477505125538046 0)
(0.3910528009236621 2.620918518526631 0)
(-0.1363878322785726 4.986556031157216 0)
(0.2567217826539882 0.1361889192464064 0)
(0.5058934710515968 1.356668299232948 0)
(0.4120927919514826 3.498801319277115 0)
(-1.08852103052963 5.442806864162763 0)
(10.22973970446852 -4.405103828979352 0)
(17.42784542177421 -4.79023008462141 0)
(21.4093952851107 -4.748945517205047 0)
(23.58411564153298 -3.635817162763674 0)
(5.669637269810175 -1.141155894239373 0)
(13.70632838054903 -2.800657054296987 0)
(19.02301941626242 -4.33374373925421 0)
(22.22066659568519 -4.130353246666132 0)
(0.01121609282998791 -1.090433214196346 0)
(6.492499017593807 -2.228841836688829 0)
(13.85200468833803 -3.708255025650824 0)
(21.51554060494482 -3.046994232759423 0)
(-1.920192449816107 1.710306333666724 0)
(2.061469733549049 1.571624702586252 0)
(9.787357718754691 1.949047685874221 0)
(24.19476808973207 -1.248493804270831 0)
(24.69951500917751 -7.745781760936947 0)
(24.79172156113889 -13.67832600197832 0)
(28.00363177076332 -21.20540149459313 0)
(22.88131902899607 -23.14373948086339 0)
(23.60685036123696 -9.272556385579792 0)
(24.1089992567983 -14.07770697050137 0)
(26.24182028805015 -23.58264814815026 0)
(16.40976144282443 -16.53884860972381 0)
(23.3693229630962 -9.549134274051676 0)
(22.3943729570443 -17.7953276020069 0)
(18.20154231209718 -23.35083261094768 0)
(9.423274969851928 -4.292297709372635 0)
(15.86596848042015 -13.33619547955629 0)
(12.63838112101379 -12.76227655314208 0)
(2.352315395654119 -11.71092947371627 0)
(0.6173905749257099 2.713170654274637 0)
(-0.3575099169586936 6.008278287744783 0)
(-1.50209713258445 6.866128641524362 0)
(-2.619685513968486 4.717902362634935 0)
(-2.780460177430074 1.451724504198998 0)
(2.715067987146344 4.163439159585243 0)
(-1.184185083310705 5.403225801007529 0)
(-2.856455981818533 3.59356573187144 0)
(-2.888834086759383 1.127509710093433 0)
(9.491233116441212 -2.793495245376509 0)
(1.73094202484095 -0.3977438630246375 0)
(-1.557750405783778 -0.08334117708336057 0)
(-1.623013367400456 -0.01556031751163564 0)
(17.77872641524249 -10.69151682833548 0)
(10.03097762477074 -5.745782549096002 0)
(5.883776098933398 -3.90180018474845 0)
(5.140055949239619 -1.249007415882847 0)
(-2.780460177424404 -1.451724504199607 0)
(-2.888834086749993 -1.127509710120849 0)
(-1.623013367397523 0.01556031746554114 0)
(5.140055949199822 1.249007415772713 0)
(-2.61968551395469 -4.717902362630999 0)
(-2.8564559818131 -3.593565731893042 0)
(-1.55775040577619 0.08334117702999104 0)
(5.883776098936652 3.901800184647581 0)
(-1.502097132578047 -6.86612864153471 0)
(-1.1841850833147 -5.403225801013833 0)
(1.730942024852718 0.3977438629885711 0)
(10.03097762478418 5.745782549009466 0)
(-0.3575099169598308 -6.008278287755242 0)
(2.715067987138823 -4.163439159584061 0)
(9.491233116438298 2.79349524538383 0)
(17.77872641527409 10.69151682827232 0)
(22.881319029048 23.14373948082201 0)
(28.00363177088945 21.2054014945605 0)
(24.79172156126196 13.67832600195874 0)
(24.6995150092961 7.74578176094756 0)
(16.40976144283766 16.5388486096993 0)
(26.24182028807632 23.58264814813718 0)
(24.10899925686701 14.07770697044079 0)
(23.60685036131956 9.272556385579927 0)
(9.423274969884977 4.29229770936352 0)
(18.20154231204205 23.35083261098301 0)
(22.39437295710083 17.79532760200773 0)
(23.36932296313841 9.549134274035829 0)
(0.6173905749221139 -2.713170654294623 0)
(2.352315395652842 11.71092947367035 0)
(12.63838112101294 12.76227655314094 0)
(15.86596848043243 13.33619547955758 0)
(24.19476808977619 1.24849380426153 0)
(9.787357718745655 -1.949047685886087 0)
(2.061469733527631 -1.57162470261275 0)
(-1.920192449838255 -1.710306333708405 0)
(21.51554060498982 3.04699423274976 0)
(13.85200468834863 3.708255025658313 0)
(6.492499017520739 2.228841836662507 0)
(0.01121609277191499 1.090433214134093 0)
(22.22066659574825 4.130353246641169 0)
(19.02301941626376 4.333743739291123 0)
(13.70632838046526 2.800657054237155 0)
(5.669637269725793 1.141155894093892 0)
(23.58411564161345 3.635817162735763 0)
(21.40939528508225 4.748945517294959 0)
(17.42784542169362 4.790230084645984 0)
(10.2297397044193 4.405103828810941 0)
(-0.3863219244739842 -1.304092131544737 0)
(0.8503384878838504 -0.1204397610582628 0)
(1.377209115812347 0.2103878172584907 0)
(2.574982297020139 0.6292374412437813 0)
(0.2875451452312584 -3.062071259067559 0)
(-0.4315398611655041 -1.492071010897427 0)
(-0.1032981710690459 -1.305256264495744 0)
(0.676586003660116 -0.5937861097394211 0)
(-0.1363878322317813 -4.986556031137185 0)
(0.3910528008977288 -2.620918518477958 0)
(0.09892399344493424 -1.477505125589339 0)
(0.5775778849512463 -0.4201633503662038 0)
(-1.088521030505575 -5.442806864149015 0)
(0.4120927919576888 -3.498801319233427 0)
(0.5058934710295355 -1.356668299289247 0)
(0.2567217826476152 -0.1361889193295751 0)
(4.875554813327371 1.43093550290598 0)
(8.148725236610906 5.081198247478232 0)
(28.76979452660957 2.178799774634119 0)
(25.81923231300345 -5.228007334988543 0)
(2.059545351052031 1.10549978676591 0)
(4.026975551072321 5.774400590119653 0)
(23.78650398248216 1.91172476128404 0)
(27.02660528829971 -4.613607643642716 0)
(1.229638927247249 0.6949148627549266 0)
(1.84388137845962 3.196793009961451 0)
(15.98855895942554 5.170068839320434 0)
(26.71597840267037 -3.693687903405691 0)
(0.4462302168629464 0.9140766574585703 0)
(-0.4954966832408672 1.121759825423942 0)
(5.593506175826403 4.762798013032438 0)
(17.15826286075161 6.685158747491145 0)
(20.97284078739928 -9.75908593232452 0)
(18.64382389999753 -10.87685135581871 0)
(17.46230388995986 -11.42561316946535 0)