/*--------------------------------*- C++ -*----------------------------------*\
  =========                 |
  \\      /  F ield         | OpenFOAM: The Open Source CFD Toolbox
   \\    /   O peration     | Website:  https://openfoam.org
    \\  /    A nd           | Version:  11
     \\/     M anipulation  |
\*---------------------------------------------------------------------------*/
FoamFile
{
    format      ascii;
    class       volScalarField;
    location    "6.2";
    object      p;
}
// * * * * * * * * * * * * * * * * * * * * * * * * * * * * * * * * * * * * * //

dimensions      [0 2 -2 0 0 0 0];

internalField   nonuniform List<scalar> 
5472
(
108.51818
106.72446
104.92661
103.16823
101.44614
99.771035
98.114474
96.542002
95.073325
93.672598
92.373921
91.203533
90.161646
89.239402
88.465333
87.85837
87.367634
86.991976
86.794044
108.85285
107.22028
105.60062
103.93283
102.29281
100.7072
99.13397
97.612805
96.161547
94.789583
93.506163
92.337071
91.298778
90.379226
89.57657
88.925883
88.38514
88.009887
87.821135
109.19392
107.68086
106.18932
104.67213
103.12954
101.61114
100.11583
98.651643
97.228342
95.886998
94.622458
93.462912
92.421422
91.478398
90.666651
89.989216
89.430031
89.04885
88.823957
109.44316
108.11826
106.72712
105.3015
103.88949
102.46939
101.05438
99.632819
98.251152
96.94532
95.696922
94.557
93.504631
92.559566
91.737623
91.041275
90.488652
90.076699
89.816204
109.67177
108.44969
107.15911
105.87985
104.59832
103.26462
101.92482
100.56079
99.222682
97.947587
96.725341
95.592949
94.544469
93.611745
92.774572
92.071231
91.499945
91.075389
90.803849
109.77992
108.69353
107.55044
106.38221
105.21157
103.99207
102.72095
101.41165
100.14113
98.901908
97.717862
96.598334
95.568011
94.637227
93.800478
93.099025
92.503641
92.070191
91.779051
109.91479
108.89653
107.86062
106.81958
105.76561
104.61847
103.42575
102.21142
100.99149
99.793509
98.645499
97.557605
96.550344
95.613683
94.78757
94.063763
93.47681
93.039741
92.731546
109.95604
109.06792
108.14181
107.19276
106.20113
105.17977
104.09185
102.94691
101.78517
100.63442
99.537082
98.475549
97.478838
96.568444
95.74983
95.025319
94.44797
93.985996
93.669545
109.95955
109.17222
108.35436
107.49287
106.61696
105.68255
104.6542
103.60621
102.51165
101.4149
100.357
99.33267
98.373265
97.475136
96.657393
95.925524
95.346631
94.895611
94.576248
109.98359
109.26306
108.51085
107.74798
106.94523
106.09206
105.17848
104.19503
103.15772
102.13856
101.12473
100.14965
99.206456
98.335574
97.555485
96.844382
96.265695
95.792575
95.460941
109.939
109.31126
108.65442
107.96326
107.23815
106.46058
105.61595
104.71417
103.76834
102.81183
101.84265
100.9026
99.987732
99.146813
98.344905
97.656429
97.091237
96.628737
96.298608
109.87555
109.312
108.73811
108.14195
107.49828
106.7873
106.01349
105.1789
104.29738
103.39873
102.50264
101.60992
100.73864
99.925426
99.15732
98.491194
97.904415
97.451343
97.107768
109.80068
109.3077
108.81321
108.277
107.69511
107.05659
106.35417
105.59205
104.77733
103.9389
103.09637
102.2388
101.40863
100.61488
99.874689
99.229385
98.666657
98.224979
97.876877
109.724
109.298
108.84261
108.36435
107.85238
107.27924
106.64703
105.95164
105.20577
104.43611
103.65162
102.84372
102.05548
101.28362
100.5724
99.934803
99.390398
98.939122
98.593326
109.63409
109.27258
108.8812
108.46115
107.99736
107.47523
106.88974
106.25004
105.5666
104.85514
104.12659
103.37563
102.63042
101.8972
101.21735
100.60152
100.06942
99.619083
99.281868
109.52353
109.20131
108.86331
108.50641
108.10659
107.64718
107.11802
106.53791
105.91031
105.25457
104.57103
103.86007
103.14632
102.44806
101.79892
101.209
100.69109
100.25002
99.913221
109.45842
109.18314
108.8819
108.54508
108.17481
107.76116
107.28195
106.75681
106.18903
105.5975
104.96919
104.30719
103.63042
102.96633
102.34051
101.77459
101.27101
100.84029
100.50322
109.36906
109.12707
108.87545
108.59669
108.27288
107.88838
107.4467
106.96069
106.43803
105.89101
105.30622
104.69232
104.05937
103.43629
102.8373
102.28953
101.79893
101.37931
101.04228
109.28619
109.07436
108.853
108.60549
108.31517
107.97736
107.58641
107.1444
106.67031
106.15914
105.6122
105.03286
104.43955
103.8541
103.2847
102.7605
102.28337
101.87287
101.54043
109.26007
109.06876
108.86514
108.63626
108.36953
108.0589
107.69292
107.29245
106.86553
106.39971
105.89405
105.34156
104.77477
104.21874
103.67636
103.17354
102.71462
102.30986
101.98155
109.20647
109.04712
108.87276
108.67234
108.43284
108.14519
107.80781
107.43496
107.03277
106.60079
106.13679
105.63705
105.10999
104.57264
104.0469
103.55629
103.10792
102.71291
102.38926
109.19904
109.04483
108.88089
108.69731
108.48192
108.22177
107.91782
107.57787
107.19958
106.78495
106.33151
105.84457
105.34435
104.84366
104.34678
103.8738
103.43322
103.04499
102.71915
109.19497
109.06299
108.91631
108.74537
108.54398
108.30147
108.01806
107.70577
107.36247
106.98647
106.57227
106.11868
105.64105
105.14601
104.65721
104.19025
103.75845
103.37508
103.04892
109.20966
109.09345
108.9597
108.80476
108.62078
108.39573
108.12767
107.82415
107.48569
107.11399
106.70236
106.25757
105.78958
105.3183
104.84879
104.39088
103.96751
103.58803
103.26286
109.23415
109.13889
109.01572
108.87285
108.70849
108.51063
108.27391
107.99765
107.69233
107.35487
106.98022
106.56629
106.11055
105.62573
105.13586
104.66461
104.22954
103.83991
103.50398
109.26377
109.19369
109.09008
108.95826
108.79711
108.60125
108.36595
108.0883
107.77031
107.41468
107.02787
106.60838
106.1615
105.69648
105.21774
104.75368
104.32013
103.94273
103.61042
109.28611
109.25471
109.19416
109.10361
108.98184
108.82817
108.63692
108.40274
108.12456
107.79976
107.43355
107.0293
106.56815
106.04469
105.498
104.96714
104.50216
104.10014
103.73656
86.727453
86.813754
87.052618
87.377326
87.851643
88.40467
89.054844
89.803473
90.65941
91.599198
92.653224
93.792863
95.039012
96.387965
97.889741
99.52025
101.26338
103.13225
105.09864
87.713389
87.812139
88.049821
88.392971
88.914077
89.529966
90.271878
91.122224
92.062445
93.097874
94.242149
95.459604
96.772171
98.159639
99.650883
101.21435
102.87138
104.59347
106.3973
88.703089
88.806112
89.018375
89.421417
89.976231
90.653995
91.492602
92.423446
93.460388
94.598333
95.80677
97.087808
98.443088
99.842826
101.28541
102.76709
104.27909
105.81858
107.3454
89.696452
89.764512
89.990899
90.443613
91.020144
91.78372
92.673014
93.667926
94.78109
95.96661
97.197394
98.504163
99.838233
101.17411
102.51085
103.84075
105.09836
106.3056
107.3699
90.666751
90.711648
90.977608
91.437197
92.05763
92.875141
93.795162
94.846303
95.985225
97.162202
98.379892
99.636654
100.87739
102.09662
103.2678
104.31105
105.21116
105.91949
106.37028
91.623271
91.659111
91.946717
92.409752
93.090041
93.919916
94.873353
95.950873
97.076622
98.232406
99.405889
100.57186
101.69672
102.69996
103.61556
104.30021
104.79041
104.96143
104.80196
92.556897
92.593862
92.879149
93.360394
94.07259
94.909567
95.902919
96.96999
98.062736
99.168051
100.27812
101.3216
102.27997
103.03851
103.65304
104.00081
104.10986
103.90136
103.38942
93.475982
93.514242
93.793979
94.3032
95.011889
95.859221
96.855912
97.887234
98.950592
99.986985
100.99774
101.88583
102.64397
103.1774
103.51302
103.61617
103.46911
103.13393
102.6247
94.358178
94.403141
94.669054
95.191413
95.893214
96.755647
97.730519
98.718293
99.738583
100.67738
101.57176
102.29368
102.85723
103.20575
103.32454
103.2797
103.0742
102.81656
102.48922
95.225679
95.257696
95.50535
96.037971
96.7281
97.597034
98.527192
99.470506
100.41461
101.25648
102.00594
102.58071
102.97754
103.18541
103.20978
103.14755
103.02379
102.88115
102.75872
96.064763
96.06569
96.306997
96.842277
97.526537
98.371714
99.248504
100.14663
100.97695
101.73928
102.34164
102.80052
103.07549
103.22192
103.24481
103.23872
103.21842
103.21958
103.23905
96.864608
96.820327
97.07926
97.598377
98.268932
99.080327
99.909213
100.73861
101.47189
102.13329
102.62077
102.99514
103.20491
103.35895
103.42244
103.48558
103.5718
103.67388
103.76561
97.624951
97.541812
97.828445
98.30667
98.960825
99.720344
100.49451
101.25432
101.90587
102.46555
102.87812
103.19218
103.38755
103.56617
103.68904
103.83576
103.9803
104.13991
104.28751
98.315174
98.25191
98.528171
98.953682
99.606354
100.30712
101.02601
101.70573
102.2818
102.7668
103.12868
103.41768
103.63447
103.83623
104.00561
104.20209
104.38659
104.58695
104.74886
98.977888
98.931882
99.147686
99.561751
100.1799
100.81935
101.5181
102.10255
102.6207
103.05066
103.38583
103.6694
103.89879
104.12645
104.33832
104.56041
104.76361
104.93782
105.03902
99.602433
99.55129
99.718598
100.14113
100.6891
101.29044
101.93611
102.45934
102.94748
103.31825
103.64086
103.92887
104.18068
104.42224
104.64597
104.86759
105.04696
105.19334
105.28126
100.18993
100.10822
100.25704
100.66616
101.15283
101.7415
102.29666
102.78816
103.23444
103.57882
103.91837
104.19189
104.44736
104.69168
104.91085
105.10114
105.2594
105.41081
105.52726
100.72776
100.61536
100.75659
101.12135
101.57511
102.1277
102.62009
103.08134
103.47447
103.83487
104.15947
104.41832
104.68868
104.90412
105.10069
105.2605
105.40842
105.55029
105.64547
101.22023
101.08691
101.21985
101.54065
101.97733
102.47551
102.93117
103.39324
103.77377
104.10891
104.38115
104.63966
104.88021
105.06201
105.24041
105.36038
105.46924
105.54446
105.54918
101.65436
101.50165
101.61301
101.90662
102.30504
102.73215
103.17671
103.58442
103.92537
104.25275
104.53198
104.79372
104.98748
105.14395
105.2686
105.32832
105.34914
105.26805
105.13026
102.05838
101.90081
101.97935
102.26672
102.61595
103.02514
103.46662
103.8414
104.179
104.4682
104.70482
104.9109
105.04753
105.1483
105.17559
105.13258
105.00378
104.76935
104.50333
102.37968
102.20277
102.25099
102.4445
102.81947
103.22354
103.61545
103.95419
104.28283
104.5536
104.7686
104.92924
105.01839
105.03371
104.96195
104.81412
104.56611
104.28591
104.01592
102.70038
102.5048
102.5243
102.72419
103.07637
103.47282
103.8492
104.192
104.46484
104.66923
104.8243
104.89734
104.88958
104.79714
104.62805
104.39292
104.13328
103.89768
103.66055
102.9122
102.71633
102.71991
102.90399
103.2271
103.58873
103.94013
104.24812
104.49844
104.69059
104.80001
104.8201
104.75647
104.60068
104.38433
104.13817
103.88976
103.61839
103.3415
103.13069
102.91044
102.91144
103.09001
103.42475
103.80609
104.1541
104.41851
104.60175
104.69588
104.69549
104.601
104.42512
104.19228
103.94284
103.69898
103.44914
103.20248
102.93068
103.23616
103.03878
102.99934
103.1704
103.4997
103.86378
104.19349
104.44566
104.61194
104.68881
104.66367
104.55543
104.38067
104.16351
103.89452
103.61281
103.29961
102.91433
102.46648
103.33471
103.09501
103.07837
103.31386
103.69325
104.10293
104.41142
104.56971
104.61776
104.56632
104.41231
104.16834
103.87222
103.5326
103.15872
102.75837
102.35017
101.92729
101.52451
107.23714
109.4941
111.96356
114.56689
117.39567
120.35135
123.22077
125.71516
124.28458
120.52918
114.40525
106.21958
96.972147
87.39798
79.037744
72.347799
67.457767
64.85692
64.294882
108.25369
110.231
112.33736
114.63063
117.01878
119.50246
121.57977
121.79849
118.25293
112.51811
104.58269
95.087197
84.937962
75.437383
67.733162
62.274415
59.403432
58.821881
60.190678
108.8458
110.42427
112.01933
113.68126
115.07846
116.07738
115.87127
113.14598
108.70534
101.71792
91.482497
79.683225
67.583129
57.268188
50.294707
46.480725
45.827778
48.098255
52.374581
108.33981
109.20349
109.94492
110.39531
110.30851
109.2868
106.8439
102.23394
97.309253
85.469558
71.195957
57.796058
43.83801
30.453191
21.513895
17.600936
19.569796
26.566857
36.307744
106.5492
106.57889
106.39991
105.72827
104.30377
101.70011
97.590039
90.954858
81.816889
71.303506
58.312816
41.810591
24.370098
3.9819915
-3.6612114
-4.8961921
1.0858364
12.631752
26.507747
104.28104
103.72979
102.94891
101.68688
99.622819
96.571492
92.134239
85.686349
77.066111
66.2724
53.351985
39.124636
25.401188
14.058295
8.0310624
7.772451
12.834173
22.221998
33.900838
102.6229
101.91384
101.05785
99.775557
97.85845
95.251927
91.668592
87.107604
81.213635
73.959271
65.708699
56.810894
48.266011
41.039724
36.516422
35.07217
37.064594
42.335959
49.671863
101.98595
101.38963
100.68815
99.60574
98.127127
96.1421
93.743644
90.852308
87.281966
83.210564
78.497522
73.514421
68.483987
64.214443
60.748258
58.639346
58.868976
61.149234
64.92755
102.05393
101.67986
101.13563
100.30116
99.200788
97.811563
96.251342
94.332462
92.15688
89.629026
86.668409
83.496386
80.277257
77.382484
75.308742
74.624275
74.606343
75.10624
76.642673
102.58108
102.34835
101.8948
101.26642
100.43613
99.501363
98.434644
97.178874
95.746312
94.068481
92.189834
90.227547
88.281429
86.371676
84.733404
83.454178
83.038476
83.473393
84.283959
103.21297
103.05555
102.73586
102.26506
101.6748
101.07051
100.35866
99.529721
98.576792
97.466762
96.134375
94.720571
93.197026
91.633734
90.183712
88.969757
87.892697
86.912285
86.494096
103.82459
103.77122
103.55919
103.21996
102.8318
102.435
101.97202
101.39954
100.70165
99.812499
98.781468
97.694846
96.388376
94.839645
93.310443
91.687379
89.825585
88.160115
86.93377
104.43115
104.43392
104.25442
104.01322
103.74396
103.45833
103.10742
102.63445
102.05076
101.34364
100.53999
99.463966
98.018557
96.287418
94.52927
92.278663
89.638171
86.965262
84.412985
104.87358
104.86034
104.72925
104.55637
104.33272
104.07367
103.75219
103.29895
102.72156
101.96827
101.07807
99.877166
98.034817
95.933271
93.365774
89.7812
85.261332
80.171454
74.686552
105.17551
105.20155
105.13171
104.99
104.79655
104.5836
104.2677
103.79601
103.16883
102.43198
101.55206
100.13901
97.911278
95.436865
92.206033
87.35489
80.750665
72.530609
62.829827
105.48982
105.57439
105.55312
105.47637
105.41375
105.30095
105.06657
104.71117
104.36977
103.98288
102.95619
101.24439
99.846254
97.969384
95.005164
90.613843
84.826655
77.741587
69.539223
105.75936
105.86834
105.88807
105.90823
105.93243
105.8738
105.76699
105.43024
104.50631
103.68178
103.97752
103.49933
101.78359
99.425503
96.522977
92.885394
88.547902
83.766033
78.89954
105.82294
105.90774
105.94553
106.02968
106.06463
106.02523
105.68426
105.36241
104.85649
103.84733
102.6457
101.1965
99.419992
97.284327
94.920513
92.396808
89.78982
87.331721
85.287221
105.5844
105.64038
105.77727
105.90072
105.94697
105.88579
105.55329
105.08141
103.96859
101.53551
99.184328
97.125534
95.344332
93.782847
92.103958
90.51685
89.16974
88.288148
88.09087
104.93528
104.98911
105.11217
105.21055
105.22705
105.18503
105.04645
104.72056
103.88477
101.67234
97.889051
92.139266
86.997443
83.905422
82.015954
81.396487
82.056299
83.644817
85.756868
104.17982
104.16801
104.17826
104.12603
103.94207
103.65817
103.21778
102.53005
101.22937
98.651228
95.069569
91.109798
86.980317
82.756586
79.015102
76.600593
75.787691
76.648743
79.071093
103.77117
103.71446
103.67485
103.56795
103.35993
103.08721
102.67083
102.06847
101.06915
99.524591
97.122034
93.87628
89.997336
85.78425
81.941433
79.444547
78.623114
79.397281
81.683392
103.51975
103.52268
103.57405
103.58184
103.54758
103.52464
103.41843
103.29429
103.04021
102.61055
101.83445
100.58748
98.889186
96.863397
94.911773
93.08998
91.345773
90.15807
90.065739
103.27897
103.31909
103.37701
103.44507
103.5207
103.60362
103.70299
103.84515
103.92313
103.92766
103.96055
103.86348
103.29393
102.37764
101.25699
99.749957
98.081269
96.48365
95.114017
102.79456
102.82513
102.93909
103.04127
103.13555
103.23753
103.40663
103.51447
103.59019
103.51386
102.97507
102.14147
101.78513
101.32009
100.2867
98.928944
97.52601
95.99788
94.249443
102.03294
102.10445
102.26516
102.35467
102.44145
102.55049
102.59668
102.67935
102.72289
102.73543
102.68788
101.82027
101.80615
101.87631
101.43648
100.56247
99.362088
97.890739
96.262592
101.05644
101.11407
101.18217
101.17746
101.18818
101.24005
101.31359
101.53495
101.79765
102.16916
102.73566
103.44641
103.67967
102.93318
102.28025
101.56473
100.82482
100.0843
99.393169
64.543799
65.729584
67.957948
70.726636
73.502831
76.322213
78.528574
80.212045
81.934557
83.254566
83.921348
84.383832
84.677422
84.630368
84.362601
84.017206
83.431198
82.713456
81.896368
62.967339
66.378795
69.949993
73.750949
77.277908
80.362586
82.993236
85.13302
86.748408
87.847123
88.558026
88.850886
88.938377
88.751763
88.367546
87.975218
87.350198
86.637577
85.775297
57.811427
63.729802
69.401678
74.720318
79.573563
83.779569
86.926225
89.155214
91.066128
92.326812
92.956578
93.196241
93.19305
92.849255
92.381805
91.943325
91.293825
90.487801
89.560095
47.123317
57.600833
66.710774
74.38193
80.668824
85.872362
90.078354
92.876199
94.838919
96.21814
96.965923
97.232668
97.075377
96.680752
96.141721
95.562428
94.940578
94.07511
93.039626
40.494736
53.459394
64.529231
73.610664
81.07392
87.25029
92.313047
95.981041
98.247308
99.673984
100.36228
100.60436
100.43931
99.95553
99.339179
98.708856
98.037092
97.244082
96.145493
45.961668
57.308061
67.439307
75.903238
83.049183
88.860677
94.030772
98.478907
101.15907
102.62452
103.33983
103.44032
103.18925
102.69407
101.9862
101.29977
100.60349
99.850519
98.807393
57.765336
65.775897
73.329391
80.106947
86.059708
91.302803
95.978552
100.243
103.19936
104.6946
105.41358
105.59382
105.29781
104.74284
104.03196
103.27921
102.57591
101.84887
100.92006
69.599502
74.866647
80.334704
85.514247
90.324525
94.773675
98.648699
102.00182
104.31212
105.63833
106.29979
106.51556
106.33424
105.85575
105.23501
104.53179
103.88291
103.20996
102.41188
79.333474
82.719054
86.368513
90.206888
94.13039
97.758281
100.86424
103.34596
104.92318
105.77373
106.20774
106.37584
106.30165
105.99378
105.56718
105.01334
104.49417
103.94219
103.29046
85.458805
87.175878
89.626488
92.575926
95.592178
98.429864
101.12655
103.30828
104.80811
105.61135
105.88986
105.8327
105.81526
105.66146
105.40822
105.03167
104.63528
104.22472
103.70377
86.864762
87.974385
89.697382
91.707093
93.914098
96.539781
99.29197
101.70788
103.62893
104.78931
105.27765
105.42398
105.53336
105.45337
105.25699
104.97763
104.64411
104.32252
103.90847
86.084415
85.654809
85.855863
86.884264
88.719383
91.358118
94.471831
97.650525
100.45279
102.54513
103.77344
104.26473
104.51212
104.88161
104.95561
104.83465
104.59572
104.3435
104.0171
81.930555
79.908085
78.773078
78.690928
79.815803
82.023868
85.42385
89.555595
93.590153
97.028714
99.963581
102.25282
103.53335
104.35326
104.61437
104.6578
104.49323
104.26479
104.02696
68.99588
63.924215
60.767871
60.425749
63.255601
67.757294
72.887966
78.871868
85.302521
91.361977
96.967846
101.05181
102.83682
103.81541
104.1692
104.24979
104.1377
103.89572
103.73691
52.684347
44.063793
39.3419
40.000895
45.584317
53.931946
63.773249
74.231233
83.878778
91.788461
97.191236
100.23446
101.70822
102.60556
103.08013
103.27791
103.28659
103.1456
103.05624
60.804745
52.992433
48.326116
47.947632
51.398449
57.588062
65.842339
74.618176
82.838797
89.648998
94.627222
97.728588
99.600739
100.83177
101.62058
102.09486
102.31845
102.3466
102.3737
74.377782
70.861735
69.2943
70.102401
72.646239
76.520026
81.324047
86.137313
90.513607
94.135757
96.771578
98.582898
99.859118
100.73513
101.35093
101.75326
102.0044
102.09552
102.12834
83.761199
82.90115
83.126105
84.622737
86.938661
89.522157
92.155785
94.636424
96.733626
98.408222
99.648309
100.53606
101.19528
101.62659
101.93807
102.15798
102.26749
102.34203
102.32097
88.558652
89.542276
90.653014
92.05882
93.877393
95.748184
97.470216
98.923894
100.07782
100.98563
101.61651
102.05612
102.37891
102.53188
102.63517
102.69751
102.71568
102.7133
102.646
88.187409
90.776548
93.276823
95.513442
97.45278
99.011351
100.37555
101.51628
102.24764
102.76535
103.12554
103.30961
103.4021
103.37499
103.29326
103.19637
103.14805
103.07181
102.92327
82.634126
86.808886
91.005249
94.596335
97.444722
99.521561
100.67439
101.24625
102.23931
103.45646
103.95597
103.90017
103.86552
103.80282
103.62533
103.46393
103.30746
103.20717
103.05285
85.105942
88.893538
92.513345
95.682215
98.205651
100.1135
101.41092
102.27375
102.96971
103.35717
103.6162
103.79258
103.84748
103.7085
103.56282
103.40067
103.21544
103.07809
102.94565
90.887303
92.229216
93.814929
95.467694
97.118501
98.667121
99.976324
100.71289
101.50853
102.7317
103.14187
103.25463
103.3267
103.18967
103.09059
102.94041
102.79308
102.60125
102.48717
93.834244
92.819654
92.255123
92.143397
92.514294
93.571877
95.447721
98.202768
100.72658
101.97232
102.06784
102.21704
102.30289
102.26426
102.22783
102.12452
102.01823
101.89169
101.83277
92.784904
91.883415
91.633418
92.274059
93.770064
95.490139
96.883528
97.915411
98.850317
99.976539
100.71009
101.00077
101.11859
101.1631
101.21168
101.23739
101.20789
101.17236
101.18877
94.778752
93.646772
93.054547
93.188011
94.060842
95.40424
96.851465
97.929024
98.657899
99.331259
99.630532
99.815292
100.0292
100.18754
100.32005
100.45087
100.51239
100.54924
100.65378
98.777217
98.226493
97.73514
97.307628
96.956842
96.688794
96.645161
97.290423
98.158118
98.76465
99.220697
99.543183
99.756468
99.912415
100.0314
100.12018
100.20136
100.22942
100.22566
80.943229
79.917948
78.846308
77.684585
76.493351
75.314453
74.205572
73.081344
72.059909
71.035
70.155618
69.293083
68.584465
67.944315
67.35458
67.024667
66.815273
66.800434
67.058338
84.768184
83.615453
82.408491
81.127894
79.805769
78.468251
77.182951
75.916215
74.701488
73.506662
72.428651
71.44923
70.548425
69.819754
69.162906
68.702524
68.476638
68.365572
68.49022
88.39435
87.143808
85.781064
84.402509
82.961086
81.523442
80.074805
78.667414
77.290404
75.960434
74.706579
73.599726
72.561519
71.672979
70.971594
70.410729
70.099688
70.00848
70.111429
91.746083
90.361752
88.899081
87.404264
85.878673
84.33492
82.803297
81.285143
79.787311
78.349021
76.964235
75.71008
74.573364
73.54693
72.740762
72.111381
71.710826
71.594632
71.707821
94.787737
93.297519
91.753552
90.182552
88.586401
86.973257
85.36376
83.77301
82.181311
80.63476
79.158128
77.778321
76.537988
75.412067
74.496969
73.790934
73.321284
73.15963
73.243398
97.441002
95.949542
94.367232
92.758216
91.118344
89.454426
87.782606
86.126988
84.479096
82.858074
81.294725
79.81618
78.449919
77.248881
76.230185
75.462795
74.929511
74.741568
74.851934
99.626742
98.201931
96.656671
95.065482
93.425511
91.746189
90.047639
88.34327
86.639646
84.971183
83.327814
81.790598
80.325423
79.046111
77.936184
77.079575
76.500061
76.242373
76.313289
101.29484
100.02356
98.592726
97.074875
95.488249
93.838626
92.141759
90.430245
88.68896
86.982205
85.28798
83.683109
82.156043
80.791839
79.610463
78.687664
78.059838
77.783726
77.865941
102.40543
101.33997
100.10545
98.730303
97.238794
95.670629
94.019098
92.329868
90.594072
88.86324
87.13724
85.481517
83.906991
82.475151
81.236047
80.223898
79.565745
79.212712
79.285346
103.05412
102.22193
101.19877
100.03331
98.698202
97.246218
95.68497
94.053444
92.349232
90.628863
88.897087
87.189311
85.592592
84.089386
82.816893
81.745098
81.039892
80.682288
80.706361
103.37404
102.76042
101.95551
100.98328
99.834615
98.539389
97.097689
95.555643
93.925485
92.221758
90.52471
88.796961
87.168545
85.633835
84.312483
83.215936
82.444047
82.064662
82.074346
103.57724
103.09232
102.45092
101.66327
100.69737
99.566093
98.27789
96.845634
95.323544
93.680541
92.018173
90.315361
88.665019
87.109943
85.733066
84.618137
83.812352
83.395798
83.384208
103.6874
103.29359
102.76877
102.12083
101.33344
100.3646
99.237774
97.929903
96.515228
94.968154
93.35636
91.699199
90.055138
88.503699
87.087328
85.947374
85.124273
84.68369
84.645666
103.56876
103.31052
102.93189
102.40405
101.77509
100.95404
99.984733
98.826094
97.528788
96.092725
94.558077
92.964172
91.338883
89.804176
88.372263
87.196985
86.35308
85.904623
85.847495
103.15218
103.07257
102.88782
102.51413
102.03999
101.37958
100.55284
99.548823
98.380293
97.05732
95.608319
94.094097
92.514048
90.997931
89.578342
88.384116
87.516194
87.051327
86.987251
102.6195
102.68799
102.64558
102.44283
102.11789
101.6266
100.94561
100.09231
99.060917
97.868925
96.520174
95.090605
93.579429
92.086495
90.69399
89.498067
88.61242
88.12743
88.070041
102.29555
102.35393
102.36442
102.27913
102.07521
101.73785
101.20927
100.50353
99.606569
98.548451
97.310267
95.964495
94.539459
93.085216
91.713088
90.526193
89.647684
89.134108
89.071244
102.2919
102.22261
102.19432
102.13611
101.98648
101.74446
101.3488
100.77786
100.00871
99.080999
97.964995
96.705024
95.361116
93.975424
92.638602
91.460359
90.596657
90.078916
90.002212
102.46183
102.32158
102.21372
102.11028
101.95787
101.75025
101.44159
100.98088
100.33643
99.526185
98.536349
97.372592
96.110542
94.784161
93.496422
92.327576
91.453687
90.95322
90.865011
102.64481
102.4949
102.33882
102.18492
101.99618
101.79045
101.52115
101.12812
100.58019
99.859974
98.977326
97.919541
96.733432
95.474388
94.222605
93.097099
92.226533
91.728165
91.647305
102.79155
102.6721
102.50459
102.33346
102.12056
101.89588
101.638
101.28569
100.81519
100.1725
99.373586
98.414979
97.315932
96.133288
94.922017
93.817045
92.956196
92.449947
92.362657
102.8281
102.79241
102.65642
102.48979
102.28453
102.04392
101.77939
101.43734
101.0156
100.44294
99.704756
98.804747
97.755546
96.60504
95.470155
94.392643
93.557386
93.061134
92.968632
102.57998
102.65962
102.64256
102.55425
102.41686
102.2085
101.9504
101.63497
101.23438
100.72817
100.06962
99.235109
98.261294
97.187021
96.060169
94.999391
94.143627
93.641637
93.527777
102.10324
102.34597
102.50564
102.53652
102.49674
102.37463
102.15287
101.85536
101.45609
100.95125
100.32082
99.537177
98.585196
97.510993
96.418888
95.385632
94.554866
94.066906
93.966046
101.48368
101.7707
102.05093
102.2444
102.3166
102.3086
102.21176
102.01637
101.71132
101.28969
100.72308
99.9962
99.110195
98.10497
97.004975
95.934703
95.035512
94.485966
94.362645
100.98025
101.35771
101.71717
102.03761
102.2591
102.35382
102.32253
102.1729
101.90406
101.49795
100.94197
100.2237
99.312065
98.246732
97.152937
96.105786
95.245321
94.707518
94.586627
100.42049
100.70025
101.03069
101.37093
101.69787
101.96342
102.13464
102.18929
102.0888
101.85411
101.46006
100.86416
100.05474
99.047941
97.877042
96.687357
95.646977
94.95283
94.749869
67.339254
67.828857
68.501447
69.322629
70.390381
71.615809
72.994405
74.52656
76.177591
77.961076
79.848547
81.846193
83.941394
86.112454
88.367786
90.652572
92.958977
95.299625
97.642535
68.884286
69.396283
70.132086
70.976772
72.042556
73.273406
74.647462
76.176546
77.818034
79.579405
81.435336
83.39318
85.427375
87.52103
89.681595
91.859491
94.033568
96.217024
98.388193
70.491195
71.005029
71.734525
72.618544
73.669716
74.903962
76.277983
77.791487
79.427976
81.162388
83.009147
84.908846
86.881964
88.903507
90.958968
93.023351
95.074722
97.095364
99.077396
72.066947
72.604389
73.317198
74.210728
75.273438
76.50465
77.882369
79.385505
81.021458
82.731399
84.525537
86.380777
88.282254
90.208481
92.174268
94.126157
96.036418
97.896834
99.688795
73.638727
74.182149
74.899816
75.791991
76.846074
78.077755
79.442324
80.939552
82.550832
84.22649
85.971721
87.754546
89.582098
91.433174
93.287746
95.124729
96.898457
98.624601
100.2665
75.218403
75.74862
76.450048
77.345151
78.3913
79.608155
80.962507
82.432426
84.011024
85.655913
87.362638
89.085458
90.819768
92.582129
94.331107
96.039515
97.676785
99.267559
100.7797
76.702893
77.251814
77.96545
78.855535
79.898877
81.098393
82.429513
83.873314
85.418057
87.02854
88.674112
90.328325
91.971742
93.630538
95.268942
96.864024
98.3767
99.824703
101.21275
78.235004
78.764314
79.457666
80.331882
81.355637
82.528447
83.838443
85.260836
86.77023
88.333214
89.898083
91.472715
93.04075
94.603736
96.121708
97.5874
98.986205
100.31907
101.60229
79.671419
80.194495
80.879105
81.7396
82.761018
83.914438
85.200639
86.591159
88.039952
89.540615
91.041382
92.543998
94.028303
95.483843
96.895162
98.255893
99.564974
100.77688
101.92109
81.081266
81.595876
82.281466
83.128705
84.128666
85.253029
86.486477
87.834858
89.238067
90.680752
92.129563
93.550419
94.935236
96.281872
97.604677
98.859915
100.05237
101.14874
102.17417
82.442903
82.946129
83.618186
84.446054
85.411982
86.512335
87.717782
89.017322
90.37982
91.751175
93.125368
94.454091
95.750429
97.00502
98.226497
99.38182
100.48485
101.51069
102.44173
83.746581
84.241889
84.899734
85.70762
86.658404
87.717196
88.888894
90.139268
91.432062
92.730743
94.037558
95.30088
96.513046
97.672944
98.803894
99.891995
100.89154
101.8088
102.64591
85.002249
85.478682
86.120387
86.901435
87.829929
88.855955
89.988821
91.185614
92.415908
93.659024
94.885224
96.070746
97.198468
98.282631
99.314021
100.29846
101.21162
102.05262
102.82864
86.191512
86.649992
87.27783
88.042477
88.939827
89.935062
91.012324
92.151667
93.315275
94.489725
95.648318
96.76266
97.80928
98.816576
99.775468
100.68959
101.53713
102.30168
102.98974
87.327958
87.777628
88.37899
89.118208
89.97757
90.933593
91.961397
93.049563
94.159899
95.280155
96.369927
97.407731
98.378112
99.306337
100.20133
101.03756
101.79088
102.46761
103.11082
88.395562
88.822288
89.390444
90.10878
90.938262
91.861637
92.851269
93.882494
94.935309
95.986901
97.006381
97.971409
98.880921
99.742008
100.56799
101.32963
102.03568
102.67323
103.25011
89.382727
89.798584
90.355204
91.048065
91.850977
92.735815
93.680257
94.651072
95.644716
96.627542
97.588416
98.496435
99.355129
100.14973
100.90205
101.60499
102.25122
102.82981
103.33673
90.318505
90.719638
91.25343
91.909699
92.682393
93.526434
94.426814
95.347572
96.285561
97.215826
98.119087
98.972856
99.771271
100.50726
101.1977
101.85031
102.44985
102.98522
103.45543
91.174642
91.552653
92.060645
92.6979
93.443239
94.255934
95.112073
95.989904
96.878338
97.757673
98.609968
99.409637
100.15255
100.83819
101.48009
102.08917
102.64506
103.13265
103.54979
91.941545
92.305158
92.813624
93.439082
94.148823
94.921514
95.740038
96.576007
97.421382
98.249194
99.04712
99.797069
100.48745
101.13327
101.73851
102.30124
102.81197
103.26329
103.65225
92.674957
93.040133
93.522223
94.098844
94.768242
95.510072
96.296653
97.095437
97.904411
98.692923
99.443939
100.15741
100.81085
101.42656
101.99989
102.52349
102.99296
103.40581
103.75867
93.256371
93.591573