/*--------------------------------*- C++ -*----------------------------------*\
  =========                 |
  \\      /  F ield         | OpenFOAM: The Open Source CFD Toolbox
   \\    /   O peration     | Website:  https://openfoam.org
    \\  /    A nd           | Version:  11
     \\/     M anipulation  |
\*---------------------------------------------------------------------------*/
FoamFile
{
    format      ascii;
    class       volScalarField;
    location    "0.1515";
    object      p;
}
// * * * * * * * * * * * * * * * * * * * * * * * * * * * * * * * * * * * * * //

dimensions      [0 2 -2 0 0 0 0];

internalField   nonuniform List<scalar> 
880
(
80
80
80.0000000025471
80.00081067899518
80
80
80.00000001524474
80.00321767734327
80
79.99999999999999
80.00000012123908
80.01689973364411
80
80
80.00000205995367
80.04718482724334
80
80.00000000000001
79.99999999999994
79.99999999805078
79.99999999999999
80
79.99999999999983
80
79.99998057497415
80.00006476578807
80.04151213027762
79.94830350647874
81.47843295541513
84.85331812216231
87.34167481382235
88.34692181435108
80.00000771963307
80.00008597461095
80.00013953258498
80.00012790085617
80.00025243913691
80.00061433549097
80.00218335176849
80.00220638317514
80.09773095591648
80.20250148282328
80.36250564976561
80.47565548158519
89.59231944352707
91.20037412284368
92.76257570051416
94.75468707741719
94.20933315466931
91.30441437812159
88.82794252975279
87.77890222030236
80.86867644509366
81.76641858202102
82.13250205511881
82.16291497118779
80.00654197922252
80.02350426435088
80.04764549853535
80.06362385477416
80.00038579990947
80.00118577396292
80.00290216226719
80.00385118797031
80.0036179809356
80.00277386410677
80.00152613613886
80.00052019366795
80.06507016778846
80.05759683435717
80.04442459611333
80.02653419782305
81.95750110986199
81.6661483124107
81.32319541958266
80.93524772515389
87.19196811956711
86.25384625026747
85.11752203634195
83.97416732257841
82.85689251217023
80.52844785707462
80.00981534596114
80.00007309451746
81.84804169333462
80.19713231448158
80.00172872374036
80.00000378237988
80.68499779791975
80.02531126149405
80.00007273817309
79.99999607028388
83.81010851765917
80.04008443001884
79.99998551866233
80.00001346215312
79.99994002510617
79.99995809930473
80.1630766235638
103.84764380422
80.00003124656219
80.00316834250205
80.85059471717034
122.18070684096
80.0003211051293
80.00765712296972
81.7677314437105
132.9392778275074
80.00125111006925
80.02437091180691
83.15265983183551
142.1465949294885
148.4604691276882
84.85764495199788
80.04138562717804
80.00235606517892
155.8663796269943
87.01820286024416
80.08641276185196
80.00515703796484
163.134152098494
89.65603006601374
80.13268243917175
80.00679508666418
172.6168249423045
92.59322115874691
80.20660018531655
80.01201288227082
80.01581589963314
80.30596653452419
96.53318879732413
180.4405555773595
80.02556069475389
80.46658692291044
100.0623585889703
180.0840619713774
80.0589625351345
80.59217610763957
98.55293570885587
162.7661353013844
79.9905791964961
80.342919458503
92.29854607680257
134.6866223888298
80.07675709532735
80.9919919086406
90.38282343894987
101.2721214671809
80.10175824849411
80.96786193819381
83.38246926784977
68.88662937489757
80.04490287387169
80.45758945385693
80.60822722627549
50.25583229469244
79.99958506606809
80.11640070662236
78.22921386620672
43.53139988223138
43.88323405916932
76.5839225536381
79.8540390817214
79.99552528142604
42.99773457999169
75.17973915447624
79.74635989510448
79.99468180758137
42.41349618870987
74.29495285711292
79.72406414969275
79.99670347503098
39.83696494192487
73.35926523488898
79.70829214656557
79.99764181488491
44.12699610986402
74.97283957025506
79.86223508724193
79.99916612424332
47.85935602193174
76.89520685555104
79.95212474003756
79.99977810962518
51.83234461901328
78.14107853629596
79.98074032821708
79.99992683830591
57.22379895894211
79.31899257992166
79.99635182536804
79.99997308413357
69.95639477522207
78.64836266653293
79.94320884038586
79.99934104724639
69.56729362271921
78.7184069222656
79.944314470744
79.99932818984821
68.86855619778298
78.7481613660179
79.94668011002994
79.99931341723287
69.29427317820435
78.89318800854733
79.95046152209888
79.99930063984331
57.22379895875167
79.31899257949338
79.99635182476717
79.99997308491815
51.83234461868724
78.14107853601656
79.98074032612374
79.99992683788773
47.85935602146563
76.89520685585018
79.95212473981285
79.99977811013028
44.12699610992318
74.97283957132368
79.86223508716101
79.99916612372878
79.99552528273408
79.8540390830314
76.58392255374271
43.88323405904971
79.99468180749578
79.74635989573653
75.17973915507473
42.99773458017563
79.99670347401674
79.72406415109187
74.29495285705083
42.41349618874722
79.99764181529865
79.70829214715275
73.35926523677094
39.83696494175781
43.53139988119925
78.22921386502128
80.11640070554013
79.99958506572924
50.25583229366148
80.60822722521951
80.45758945306872
80.04490287184697
68.88662937495424
83.38246926675045
80.96786193843081
80.10175824689792
101.2721214673564
90.38282343872814
80.99199190763461
80.07675709784985
80.01581589919715
80.30596653797519
96.53318879735835
180.4405555780906
80.02556069498272
80.46658692360843
100.0623585890979
180.0840619714747
80.05896253274449
80.59217610718299
98.55293570783722
162.7661353013731
79.99057920305302
80.34291945827876
92.29854607600551
134.6866223887736
172.61682494453
92.59322115791396
80.20660018483571
80.01201288229136
163.13415210292
89.6560300718473
80.13268244273218
80.00679508702272
155.8663796274655
87.01820286032266
80.08641276373778
80.00515703746402
148.4604691274107
84.85764494905513
80.04138562532042
80.00235606471034
79.99994002671691
79.99995809968672
80.16307662363887
103.8476438027359
80.00003124622646
80.0031683419671
80.85059471747567
122.1807068403445
80.00032110421267
80.00765712217516
81.76773144447435
132.9392778294642
80.00125110899185
80.02437091279842
83.15265983219865
142.1465949296428
80.00001346120821
79.99999607090245
80.00000378228668
80.00007309417559
79.99998551716163
80.00007273867371
80.00172872523652
80.00981534491901
80.04008443038452
80.02531126194265
80.19713231329908
80.52844785683379
83.81010851769703
80.68499779804164
81.84804169314567
82.85689251224233
80.00052019219761
80.02653419793064
80.93524772609234
83.97416732319131
80.00152613583366
80.04442459577901
81.32319542110348
85.11752203672337
80.00277386512312
80.05759683437482
81.66614831186918
86.25384625006119
80.00361798126931
80.06507016789408
81.95750111058766
87.19196811929434
80.00038579841447
80.00654197792086
80.86867644491542
94.20933315461208
80.00118577251986
80.0235042643132
81.76641858144259
91.30441437722823
80.00290216161653
80.04764549998676
82.13250205484232
88.82794252938487
80.00385118744495
80.06362385581403
82.16291497132188
87.77890221955643
94.75468707810452
80.47565548431091
80.00220638228789
80.00012790008725
92.76257570087277
80.36250565364931
80.00218335132696
80.00013952953465
91.20037412385342
80.20250148454014
80.00061433543262
80.00008597757163
89.5923194420636
80.09773095294958
80.00025243895644
80.00000772014096
88.34692181364791
79.94830350404935
80
79.99999999854711
87.34167481323422
80.04151212897558
80
79.99999999999999
84.85331812242245
80.00006476543851
80
79.99999999999999
81.47843295526178
79.99998057445161
80
79.99999999999989
80
79.99999999999997
80.00000000285878
80.00081068449285
80.00000000000003
80.00000000000001
80.00000001539321
80.00321767895258
80
80
80.00000012127481
80.01689973372579
80
80
80.00000205901766
80.04718482617938
80.00227558479472
80.0085010713364
80.02978415053794
80.3164759409468
80.00850108391209
80.01307082815093
80.04856845147047
81.12207337265008
80.02978415580712
80.04856844602297
80.47780533035333
86.34724473441548
80.3164758665847
81.12207325091255
86.34724479507312
104.8739436505867
134.7699770014742
114.1443191462124
102.6649416355664
91.09208440259273
129.7807464438687
125.2644821444394
123.2218973207465
114.345268759121
127.5115809158208
126.07609133325
125.5909549085077
121.5596064362424
127.0066084112912
126.0995489434351
126.142898012003
123.6305757522649
124.833996909151
124.6011816744114
125.0317850744723
126.3303751515287
126.4609870235386
125.4147771882068
125.7029924243589
127.0823957489799
126.8983068447546
125.9407851472687
125.9496654122076
126.9250600075411
127.4159510415328
126.2037053061794
125.9930192905209
123.9855819337155
105.5048065228995
84.05035353256646
77.48841357516697
78.77280151980021
96.0646746226991
76.9933369331236
75.60888990050719
78.39526736758691
86.5629627540194
74.37338243068589
76.30583390945016
79.31288065670583
68.90162182023093
69.66743560741976
75.25777574506392
78.61116964365993
80.61327918553778
81.58630815767566
81.84702670789811
81.89278814394493
80.4701260720456
81.33466153937827
81.51598266047642
81.53062366198799
80.96733853217481
81.49518137819908
81.5923207348833
81.5760383507628
80.20147478682844
80.92699952509359
81.27694603329935
81.27485248620697
81.80727994862855
81.77289773520603
81.52313001319857
114.1834764660824
81.65700570705307
81.63721326839259
81.97955145736387
129.2237657212682
81.76397355667541
81.75625247712759
82.76826145195719
136.416088329479
81.3977308405356
81.72243928108587
83.82298313475216
141.5509248735487
209.7136557428382
220.3458335198671
219.6515981794395
218.2386673429739
227.9833038869131
226.8625833622474
222.2541181169251
219.6326255547723
224.3014358011987
223.1100553287469
222.106733951032
220.8635263625121
233.0818190076803
227.1028534345061
224.0067414861955
221.5107971592837
211.719905634765
209.2428799109934
208.6966169723325
212.3307640109801
212.6612234679013
209.7764277681461
208.6673811946418
211.8308453369706
213.5377643347928
209.9244269502635
208.8870557988735
211.5248062757293
215.281676373336
210.3051056827329
208.8446886807563
211.1549497062141
214.9347296740764
209.9713736098039
193.1167961821513
160.6002802167476
214.4775506451236
210.8298508201434
193.5680900007701
171.2870966709449
214.2560052185769
211.6614376884893
196.5940188384591
181.7584542225769
213.9225593863144
212.6277493806121
200.6091171160689
202.2946858577897
94.54614748885407
18.65079928316568
3.392699761449973
4.705757724143868
74.7887391212425
10.91057035830759
4.149510638595898
4.844369139896773
51.2016650462111
5.636007490652302
3.532073724768571
5.401205331797999
28.19420507259827
2.138167393950308
3.864961854616042
5.671211413139027
7.427881713909899
9.674831504464075
11.52376891943316
11.15250136849516
7.304129970421982
9.89641776581162
11.62707273195574
11.46497712645319
7.990118355889187
10.52455088006896
11.88996170098061
12.23986921264185
8.327397376597128
11.26300272737516
12.51402035451133
13.60156744555331
20.01738207115701
24.33977758838718
28.15631477887024
34.14394100598599
18.89996748234769
23.36045560306282
26.1904722709583
32.52479916107018
17.06501444479161
21.8673278433087
24.84358517905298
30.45750159225612
15.04870548043018
19.63833773288112
22.64251545553182
30.4475959680163
24.30117740857872
13.85467876038483
12.13670716243208
12.98772658588577
22.23263289011342
13.50564784298046
15.80910885446529
14.00700533825997
17.83558349389831
15.91466316966081
16.66397706358497
13.70564763831847
13.94751030361564
17.01908944063952
16.24174686115474
14.9029973926087
13.29979406862708
12.57968969550583
12.85720049940283
12.97335273570265
11.32595646052613
10.85414796308689
11.20646190124842
11.46891870266264
11.37484666723556
11.708394805532
12.14305909328272
12.60427229256605
15.8595471235159
17.24014345748813
17.1566007648683
17.24126700884572
12.9733527357066
11.46891870266744
12.60427229258538
17.24126700886194
12.85720049941565
11.20646190124837
12.14305909330803
17.15660076482895
12.57968969550505
10.85414796310268
11.70839480554076
17.24014345741259
13.29979406861758
11.32595646053867
11.37484666726856
15.85954712348958
12.98772658585546
12.13670716236395
13.8546787602537
24.30117740830113
14.00700533825823
15.80910885446698
13.5056478429798
22.23263288994846
13.70564763831391
16.66397706357719
15.91466316965347
17.83558349383255
14.90299739259028
16.24174686115549
17.01908944063703
13.94751030359132
30.44759596789988
22.64251545529752
19.63833773246284
15.04870548014782
30.45750159214282
24.84358517892096
21.8673278429292
17.06501444445752
32.52479916092013
26.1904722708595
23.36045560272555
18.89996748204464
34.14394100580439
28.15631477876692
24.3397775880838
20.017382070886
11.15250136830501
11.52376891942168
9.674831504492095
7.427881713874013
11.46497712628703
11.62707273189199
9.896417765829707
7.304129970397683
12.23986921248617
11.88996170090391
10.52455088005128
7.990118355887526
13.60156744534978
12.5140203544049
11.26300272734229
8.327397376584591
4.705757724143778
3.392699761241595
18.65079928294478
94.5461474885481
4.844369139850214
4.149510638504042
10.910570358172
74.78873912077009
5.401205331737129
3.532073724667607
5.636007490591625
51.20166504602199
5.671211413101918
3.864961854547576
2.138167393888949
28.19420507246991
160.600280216446
193.1167961827466
209.9713736104449
214.9347296758745
171.2870966707837
193.5680900012568
210.8298508208831
214.4775506470888
181.758454222465
196.5940188388626
211.6614376894785
214.2560052205942
202.2946858576644
200.6091171166007
212.6277493817947
213.9225593884593
212.3307640138954
208.6966169740537
209.2428799111465
211.7199056351757
211.8308453398633
208.6673811961346
209.7764277684993
212.6612234682941
211.5248062784524
208.8870558002269
209.9244269506222
213.537764335082
211.1549497089912
208.8446886820639
210.3051056831536
215.2816763735134
218.2386673430451
219.6515981803264
220.3458335189734
209.7136557407465
219.6326255550325
222.2541181179045
226.8625833617359
227.9833038857154
220.8635263627852
222.1067339519396
223.1100553285998
224.3014358005226
221.5107971592822
224.0067414875394
227.102853434112
233.081819006995
114.1834764646341
81.5231300127501
81.77289773595481
81.80727994918603
129.2237657187761
81.97955145643813
81.63721326949542
81.65700570793064
136.4160883263945
82.76826145064992
81.75625247842564
81.76397355748475
141.550924870931
83.82298313309924
81.72243928234579
81.3977308416364
81.8927881445321
81.84702670825317
81.58630815760242
80.61327918525308
81.53062366240188
81.51598266076087
81.33466153928342
80.47012607169636
81.57603835095981
81.59232073509298
81.49518137808651
80.96733853178661
81.27485248632081
81.27694603370102
80.92699952489284
80.20147478648344
78.77280151902546
77.48841357460705
84.05035353202277
105.5048065231445
78.39526736667396
75.60888989987878
76.9933369325865
96.06467462323249
79.3128806557511
76.30583390889862
74.37338243012526
86.56296275472495
78.61116964260322
75.25777574441362
69.66743560666512
68.90162182071971
126.3303751516373
125.0317850739586
124.6011816758746
124.8339969091787
127.0823957488197
125.7029924241037
125.4147771897071
126.4609870229157
126.9250600071848
125.9496654117761
125.9407851486464
126.8983068448535
123.9855819340775
125.9930192899818
126.2037053072933
127.4159510414794
123.6305757521027
121.5596064345097
114.3452687598107
91.09208442472143
126.1428980107167
125.5909549065169
123.221897320463
102.664941621704
126.0995489430879
126.0760913327166
125.2644821373951
114.1443190911834
127.0066084106556
127.5115809153082
129.7807464359707
134.7699769873905
58.98424012238658
78.93837193428088
79.98418374695913
79.99991603528872
59.55075364987928
78.89959046588507
79.98181131512933
79.99987131429074
63.19160079400825
78.98056449143911
79.97819331854208
79.99980712962733
66.6727159786648
78.96408923904842
79.96625452905874
79.99958605437672
79.99934104758877
79.94320884130822
78.64836266514564
69.95639477426934
79.99932819036405
79.94431447174351
78.71840692127317
69.56729362148909
79.99931341618272
79.94668011052842
78.748161365992
68.8685561971361
79.99930063734347
79.95046152299797
78.89318800725918
69.29427317779331
79.99958605297056
79.9998071282163
79.99987131108655
79.99991603225443
79.9662545297069
79.97819331860977
79.98181131490644
79.98418374619951
78.96408923844669
78.98056448987562
78.8995904666146
78.93837193401168
66.67271597830123
63.19160079296012
59.55075364925536
58.9842401229412
)
;

boundaryField
{
    back
    {
        type            empty;
    }
    inlet
    {
        type            zeroGradient;
    }
    front
    {
        type            empty;
    }
    top
    {
        type            zeroGradient;
    }
    outlet
    {
        type            fixedValue;
        value           uniform 80;
    }
    bottom
    {
        type            zeroGradient;
    }
    wall
    {
        type            zeroGradient;
    }
}


// ************************************************************************* //
