/*--------------------------------*- C++ -*----------------------------------*\
  =========                 |
  \\      /  F ield         | OpenFOAM: The Open Source CFD Toolbox
   \\    /   O peration     | Website:  https://openfoam.org
    \\  /    A nd           | Version:  11
     \\/     M anipulation  |
\*---------------------------------------------------------------------------*/
FoamFile
{
    format      ascii;
    class       surfaceScalarField;
    location    "0.1515";
    object      phi;
}
// * * * * * * * * * * * * * * * * * * * * * * * * * * * * * * * * * * * * * //

dimensions      [0 3 -1 0 0 0 0];

internalField   nonuniform List<scalar> 
1652
(
2.843686947071611
0.8895636090847481
0
1.954123337988149
0.8895636090834615
-2.220446049250313e-16
1.064559728936274
0.8895636087426502
-7.169820293029261e-13
0.8895530155993363
1.207367539279858e-11
0.1749975872713984
2.843686947076741
1.779127218162428
1.954123337998014
1.779127218162188
1.064559729093813
1.779127216061444
1.779035216476239
0.1750254124512488
2.843686947090741
2.668690827246526
1.954123338008367
2.668690827244562
1.064559730430549
2.668690810357798
2.668287376924523
0.1751498827886048
2.843686947092868
3.558254436328659
1.954123338013008
3.55825443632442
1.064559751987413
3.558254166824155
3.55644394574488
0.1753781993327753
4.418652025448567
2.872852967045247
5.279049614570361
2.872852967043177
6.139447203697148
2.872852967042473
2.872852967040014
6.999844792141634
4.418652025437517
2.012455377932159
5.279049614550999
2.012455377929711
6.139447203662606
2.012455377929166
2.012455377926368
6.999844792776297
4.418652368398669
1.152059581832521
5.279050436406409
1.152052749115121
6.139403751302551
1.15199787588012
1.152632248716262
6.998629388133482
4.438130470894281
0.2489243803044722
5.429737153714957
0.1083449937242489
6.469152510477549
0.04413453198622019
7.519897343020742
0.03260614893480462
6.941512702900971
0.05833198679186269
6.883173821948691
0.05833131549096005
6.824845943285459
0.05831675929492175
0.05831831986886316
6.766514149746603
6.941520066216373
0.1166431178986003
6.883235932250639
0.11658484643599
6.825004931511386
0.1164595716044804
0.1163990802312973
6.76680285521389
6.946191414977598
0.1655358056449766
6.897418289639927
0.1602579749927311
6.851843061405627
0.15577711276756
0.1500599989187448
6.806498696150223
7.603494453045416
0.01928224515250576
7.677615044007689
0.01302847330169415
7.733504120176671
0.01403426869388025
7.793016812106714
0.0038371490890311
7.857210218585932
0.05540745361211669
-0.1753664372928644
7.750384960330782
0.1128893994470944
-0.05527026107839622
7.638435590853339
0.09626430115569262
-0.01212367333081904
0.07912590361318422
7.560715802781952
-0.00910280204935332
6.837778403894281
0.0008000223547854901
6.908465880732504
0.003092484948969076
6.946446839733642
0.006140829732470099
0.007240086075932517
6.953401277941074
6.767161159378174
4.071081832168755e-05
6.768503295294264
0.0001395665110393018
6.770715029519371
0.0003504450195825903
0.0005136311822128148
6.772162668507346
6.766516397401274
6.766524927620025
6.766521108771212
6.766507079164023
6.766475898893938
-0.0005067556310491828
6.766457008009786
-0.0004543533772249919
6.766461353358062
-0.0003301290494757136
-0.0001776656308728475
6.766484545244114
6.772285316700017
-0.006625531196265966
6.771662104482053
-0.005568747285271125
6.770219243613425
-0.004131915311538892
-0.002542471168610949
6.768322672977778
6.941667632063873
-0.06123764002663773
6.916733620480518
-0.0453343449234529
6.881931845195044
-0.03309345045523565
-0.02387854420189256
6.841260319275118
7.471795851281098
-0.006773803968240399
7.363942564457073
-0.003348037702454232
7.248002233417397
-0.001413770579269169
7.128998464296238
-0.00158827573913245
0.01657384777795812
7.012492241456915
-0.002434922196930145
0.00110612804564314
6.80123707631017
5.831439070169697e-05
6.766953330466843
6.766508402484773
0.009999975898021929
6.902847834654384
-0.0002937223055112237
0.0002552846606157511
6.774788164765476
9.447646076798932e-06
6.76655140014226
6.766515787967343
0.001270077730772035
6.837128775627883
-0.002795190494822575
1.536160292014976e-05
6.768404682764825
3.175560163715119e-07
6.766522745205346
6.766517636998736
0.0028579819374146
6.90678178393068
-0.1663083903654991
1.868009839312013e-05
6.768251756231453
7.509461728005817e-07
6.766515676092416
6.76651208005043
0.1555530405751773
6.610960194465281
0.3110644330996011
6.610994057457708
0.453326482838886
6.619611847941562
6.981470187334173
0.1241160584528681
0.1555439021932582
6.455408780907152
0.310820897889566
6.455528593214184
0.4257768614818143
6.47917169344049
6.906545003834393
0.1460890770806725
0.15550879485356
6.299872487998003
0.3102099815258582
6.300286365572984
0.3875011413787103
6.343981501142255
6.803772050097887
0.1024069802720934
0.1554322942892673
6.144333621923709
0.3090726917083275
6.145084075389947
0.3419314803116034
6.21295633425203
6.621518353057451
0.07665547263010164
-0.2803097134651173
6.389145876852847
0.03779010803153882
-0.3068596405877283
6.084345941027205
-0.1552671631720016
5.990421264592153
5.988831115421421
-0.2175087291894049
6.158063620856105
0.01338808526272162
-0.303494273069175
5.966784511069367
-0.1549653837116909
5.836216026588089
5.833328051658073
-0.1439494214994598
5.912332840952647
-0.0009803009507415306
-0.2986424334893009
5.836483429008549
-0.1546767810060549
5.68152521673564
5.677835138484455
-0.05715512187431537
5.63597222362882
-0.001562273788331958
-0.2918123497917173
5.705195646713011
-0.1539981541383744
5.528058555034367
5.52243778207107
0.1972858288658156
5.323208849781888
0.3705568961639805
5.329325906432324
0.0717903243869269
5.51080202309783
5.363353177758518
0.02311810484636534
0.1958539501744864
5.124298602904569
0.3561079101207617
5.131970345273836
0.03889601553252997
5.267158581724084
5.057928426826777
0.06447476470364522
0.1947758620046167
4.921998114544727
0.3543307218549532
4.931797727235595
0.1672880454088825
5.050968180409418
4.906437873704452
0.1824152244922562
0.1965943286668824
4.727245943251582
0.3697434264856876
4.732604641542289
0.3346491830803856
4.81459515856006
4.782901349927716
0.3639049385009457
-0.3434023053405346
5.063164419213042
-0.7479150457926443
5.081921515486936
-1.29388283646343
5.192015920426687
4.871071785291477
-1.428632308341149
-0.3459922271434537
5.398050182336076
-0.7470624727948422
5.433849418871436
-1.064510628765853
5.475183685994182
4.312800433571581
-0.4444496963227778
-0.3412342905140988
5.73245204389992
-0.6908328993535107
5.755714293860193
-0.9483370565990855
5.754538872358885
3.636544127664132
-0.05306861618825636
-0.3353437182562405
6.067023621474387
-0.6665554621952823
6.073605716271263
-0.7972361719750066
5.950497342961712
3.241092929409352
-0.03760714416994265
0.3400773037368608
3.168229545736427
-0.01609258206337431
0.3377975692463122
6.024204908876564
0.1747551236114915
6.236625729403954
6.241711036968963
0.3010099482190616
3.080205067017411
-0.009501946350811481
0.3332627502198008
6.07724857905407
0.1746492184183883
6.40600517683189
6.416436510841589
0.2928367555570729
2.980526781553521
-0.002567045038751714
0.3326721597614095
6.142316195570546
0.1747276276995504
6.579205546238583
6.591432466889779
0.2723326231146536
2.875038171484103
0.009818200713109168
0.3306114768740968
6.232228254882433
0.1747257563342491
6.75259271219797
6.766447697662714
-0.1990187208000949
3.239565802551821
0.08196268498594457
-0.0189866150683935
6.37780518658456
-0.0002421664029073067
6.7606040978213
6.766496335014603
-0.1402408572044415
3.635831581311135
0.1097498816872235
-0.008378406314728526
6.541404557228781
-7.375623249172847e-05
6.764621983834834
6.766511712279244
-0.09954218360108147
4.171969804236589
0.1123837575894218
-0.003725957882751985
6.673744793629722
-2.588963679284184e-05
6.766290757061519
6.766515937724058
-0.0719120236673586
0.1165544742289997
4.735385198197664
-0.001591535599268168
6.699472501773372
-9.495426004590968e-06
6.765478679590746
6.766516118531521
1.004329229259578
-0.9379743650408154
-0.008222349050627017
7.542855229303314e-11
1.972940747459407
-0.8687536525523694
4.25384172331178e-11
2.858026698010133
-0.8744299353199385
6.925215956243846e-11
-0.8749728791669171
-4.421973898161013e-11
1.006718503182932
-1.758689298849602
-0.01002014913490122
1.97368181962016
-1.733932797273969
2.858032473104181
-1.748811833526533
-1.749945037285693
0.9992520543572979
-2.488314452929646
-0.01833585294332816
1.97383921552055
-2.604336040048377
2.858041598129612
-2.623625546297724
-2.624919849745246
1.000729496265907
-0.03690163897622793
-3.155475702898122
1.975089565749502
-3.477696189273863
2.858074910579464
-3.499115604455557
-3.499909152619769
-0.07191202366771443
-4.17196980425197
0.1165544742279161
4.735385198216372
-0.001591535612150752
-6.673744793650649
6.699472501775285
-9.495483421551043e-06
-6.766290757077913
6.765478679627586
-6.766515937771665
6.766516118640741
-0.09954218360840261
-3.635831581334519
0.1123837575916984
-0.003725957894884946
-6.5414045572489
-2.58896081306581e-05
-6.764621983863365
-6.766511712223584
-0.1402408572242905
-3.239565802548596
0.1097498816853005
-0.008378406343979128
-6.377805186563504
-7.375624120165014e-05
-6.760604097827631
-6.766496335036411
-0.199018720800807
-2.875038171471715
0.08196268498376671
-0.01898661505085775
-6.232228254872751
-0.0002421663970064714
-6.752592712185727
-6.766447697662099
-0.1747551236136642
6.241711037009107
-6.067023621534306
-0.3377975692404262
6.236625729440789
-6.073605716303801
-0.3400773037299016
6.024204908827497
-5.950497342906563
3.168229545702225
-3.241092929367467
-0.01609258206355916
-0.1746492183924574
6.416436510838273
-0.3332627502011538
6.406005176869409
-0.301009948214471
6.07724857902517
3.080205066989823
-0.009501946350052443
-0.1747276276936035
6.591432466905851
-0.3326721597409519
6.579205546256793
-0.2928367555511069
6.142316195559121
2.980526781537196
-0.00256704503799321
-0.174725756322118
-0.3306114768496856
-0.2723326231052586
0.009818200711510447
0.7972361719765046
-3.636544127621317
-0.03760714417066507
0.6665554622243076
-5.754538872330835
0.335343718275604
-5.755714293922273
-5.732452043932985
0.9483370566044875
-4.312800433542765
-0.05306861618549456
0.690832899374022
-5.475183685975971
0.3412342905203808
-5.433849418936418
-5.398050182327681
1.064510628777398
-4.871071785283303
-0.4444496963203219
0.7470624728198131
-5.192015920427144
0.3459922271526421
-5.081921515533371
-5.063164419181951
1.29388283647844
-4.782901349929457
-1.428632308345148
0.747915045812602
-4.814595158574409
0.3434023053279922
-4.732604641523194
-4.727245943266555
0.1972858288817101
5.323208849810852
-5.522437782131071
0.3705568962036863
5.329325906442958
-5.52805855503948
0.07179032438838284
5.510802023037636
-5.705195646574722
5.363353177722878
-5.63597222357704
0.02311810485021515
0.1958539501674353
5.124298602935405
0.356107910114718
5.131970345240332
0.03889601555072264
5.267158581683213
5.057928426813442
0.06447476470747215
0.1947758620084311
4.921998114979854
0.3543307218721221
4.931797727217185
0.1672880454157853
5.050968180381061
4.906437873700821
0.1824152244936538
0.196594328681042
0.3697434265087274
0.3346491830824843
0.3639049385016586
-0.05715512183679805
-5.912332840977601
-0.001562273781876011
-0.2918123497381902
-5.836483429057526
-0.1539981541036692
-5.681525216723935
-5.677835138497684
-0.1439494215274721
-6.15806362087391
-0.000980300951291535
-0.2986424335082098
-5.966784511201569
-0.154676781015974
-5.836216026835816
-5.833328051680326
-0.2175087291971486
-6.38914587681046
0.01338808526546287
-0.3034942730226157
-6.084345940949555
-0.1549653836821964
-5.990421264586478
-5.988831115437634
-0.2803097134017779
-6.621518353024597
0.0377901080349512
-0.3068596405814001
-6.212956334186664
-0.155267163168314
-6.145084075376525
-6.144333621938074
0.1555530405739751
6.610960194540663
-6.766512080126439
0.3110644330997501
6.610994057456298
-6.766515676066241
0.4533264828467574
6.619611847947179
-6.768251756237722
6.98147018732309
-6.90678178392368
0.1241160584459184
0.1555439021964911
6.455408780912943
0.3108208978929698
6.455528593229905
0.4257768614763142
6.479171693439946
6.906545003872334
0.1460890770898892
0.1555087948608598
6.299872487995892
0.3102099815382011
6.300286365575346
0.3875011413816135
6.343981501182686
6.803772050129679
0.1024069802787717
0.1554322942796181
0.3090726916877763
0.3419314803159998
0.07665547263170736
-6.766517636995519
-7.509444206466043e-07
-6.766515787967871
-3.175558442869431e-07
-6.766508402481178
-9.447645633819945e-06
-5.831438674019918e-05
-6.766484545245669
-6.766522745154365
-1.868010042693768e-05
-6.766551400156009
-1.536160280024568e-05
-6.766953330467777
-0.0002552846554875199
-0.001106128044669141
-6.768322672987011
-6.768404682773067
-0.002857981937726017
-6.774788164762716
-0.001270077728442398
-6.801237076287733
-0.009999975912477477
-0.01657384777872334
-6.841260319260519
-6.837128775620402
-0.1663083903567776
-6.902847834646334
-0.002795190493052047
-7.012492241450272
-0.0002937223120742516
-7.128998464300301
-0.002434922192317335
-0.0001776656375319652
-6.76646135335332
-0.002542471176644079
-6.770219243606139
-0.02387854419882496
-6.881931845219862
-7.248002233432421
-0.001588275738221345
-0.0003301290505325349
-6.766457008003958
-0.004131915313883461
-6.771662104482524
-0.033093450440487
-6.916733620487402
-7.363942564465194
-0.001413770575650564
-0.0004543533773404551
-6.766475898905217
-0.005568747288195119
-6.772285316705085
-0.04533434492806671
-6.941667632070901
-7.471795851291445
-0.003348037703958362
-0.0005067556345255131
-6.766507079156426
-0.006625531206148283
-6.772162668527336
-0.06123764001923732
-6.953401277944357
-7.560715802794029
-0.006773803966861336
-4.071083248224916e-05
6.766516397397411
-6.766514149748046
-0.0008000223738492407
6.767161159359627
-6.766802855192149
-0.05540745363439531
6.837778403834675
-6.806498696223809
7.857210218612622
-7.793016812154808
-0.1753664372932535
-0.0001395665163599347
6.766524927623873
-0.003092484952321728
6.768503295298865
-0.1128893994602285
6.908465880667896
7.750384960347877
-0.05527026108352012
-0.0003504450193975162
6.766521108771558
-0.006140829730120978
6.770715029530898
-0.09626430116749268
6.94644683971547
7.638435590870707
-0.01212367333259756
-0.0005136311876464683
-0.007240086084210229
-0.07912590361808175
-0.009102802051248304
-0.150059998930432
-7.733504120217424
0.003837149095492376
-0.1163990802449978
-6.851843061633399
-0.05831831986936609
-6.825004931507089
-6.824845943291253
-0.1557771127990209
-7.677615044023505
0.01403426869440233
-0.116459571618836
-6.897418289875979
-0.05831675930455349
-6.883235932235874
-6.883173821463432
-0.1602579750276695
-7.603494453000857
0.013028473312585
-0.116584846459454
-6.946191415100577
-0.05833131547712533
-6.941520066235285
-6.941512702895093
-0.1655358056290557
-7.519897342935466
0.01928224514893861
-0.116643117921104
-6.998629387986228
-0.05833198679748164
-6.999844792819401
-6.999844792139534
-1.152632248650299
-6.469152510459409
0.0326061489482109
-2.012455377911127
-6.139403751122297
-2.872852967039998
-6.139447203690545
-6.139447203694221
-1.151997875907903
-5.429737153698781
0.04413453200565065
-2.0124553779164
-5.279050436395008
-2.872852967042229
-5.279049614566467
-5.279049614567257
-1.152052749115368
-4.438130470840698
0.1083449937256369
-2.012455377921992
-4.418652368390801
-2.872852967044603
-4.418652025443839
-4.418652025446893
-1.152059581829818
-3.556443945510889
0.2489243801635443
-2.012455377927508
-3.55825416682882
-2.872852967046921
-3.558254436324423
-3.558254436328661
2.843686947076677
0.8895636090796828
1.954123337995112
0.8895636090815646
1.064559728942094
0.8895636087449337
0.8895530156271647
0.17499758726471
2.843686947077599
1.7791272181565
1.954123337999196
1.779127218159969
1.064559729094722
1.779127216065471
1.77903521650804
0.1750254123645118
2.843686947089469
2.668690827241873
1.95412333800662
2.668690827242819
1.064559730428374
2.668690810369255
2.668287376868731
0.1751498826565716
2.843686947088214
1.954123338006611
1.064559751980118
0.1753781995959566
0.1749964135295231
0.1749964134719727
0.1749886232439316
0.175025447510635
0.1749912730515869
0.1751288567736095
0.175386061820459
0.1748877499297485
0.1750254476763169
0.1749886231198859
0.17501901513423
0.1750190149157024
0.175019069930683
0.1750927906841362
0.1745696944479891
0.1756410306529148
0.1751288569253766
0.1749912729336595
0.1750927908101361
0.1750190696962851
0.1750371156262089
0.1750371159334009
0.1718947528233637
0.1771691844035321
0.1753860615453022
0.1748877498308708
0.1745696941454109
0.175641030486221
0.1718947526280173
0.1771691849562872
0.1715319210604543
0.171531921237823
-0.07299396394948865
0.2432066022164973
-0.135066185668534
0.2375366320992154
-0.2011863258928331
0.2399885545383844
0.2210825112205219
-0.01280936744539207
0.2545892419953965
-0.0322854086966895
0.2556842813993445
-0.06081211606801085
0.2665653495724675
0.2664042724073997
-0.005044599502935787
0.2581664142348624
-0.01759829905318688
0.2665359529745933
-0.02902170748297805
0.2761785150289534
0.279347145603892
-0.007265108787643748
0.2628371913341799
-0.01814083134509648
0.2749105907543599
-0.0256101815209353
0.2816853373960597
0.284101574715532
0.2865442041028567
0.01571058666344871
0.2882323528582069
0.01060469538294079
0.2903730409794145
0.01168317560751142
0.003519559645760229
0.2912875075780506
0.2856906757237449
0.01045171334314471
0.2883654662438556
0.007553527279508754
0.2920525287358552
0.00819137718547297
-0.002653849335905789
0.2994989468782565
0.281545083451805
0.00286789051554126
0.2869584412754733
0.002027529513769
0.2919846499369469
0.003335985314092405
-0.02839970378652251
0.3188357930255329
0.2651556930565087
0.2669915847548007
0.2703804106677289
0.2445778666564949
0.2696063786547127
-0.1519520698722913
0.2433170778951589
-0.02745018019353307
0.2373173793711612
-0.003470554900316725
-0.007426063176862785
0.2392506645046846
0.2635004401182394
-0.1142209554838682
0.2453406871450426
-0.008278614571277931
0.2430461853724195
0.001591373753185021
-0.005540452031872312
0.2449836517206604
0.269675182777685
-0.06360172694022964
0.2543140157388351
0.007967328880232383
0.2502955654186046
0.008233213407326023
9.339588995799231e-05
0.2489249710880597
0.1813635556695734
0.190464677017638
0.201357782155521
0.205834297252066
0.2428036833035095
-0.006828343354543409
0.2437064533158759
-0.002653134646231514
0.2435297404316485
2.754957344291986e-05
0.0002113937438267266
0.2423505811604629
0.2453624512853149
-0.003648294023053611
0.2452678051264063
-0.0005957122868199827
0.2440977978416345
0.002515009807113999
0.002260286261741462
0.2427906849282628
0.2476298135893557
0.001341658321874273
0.2462320584710935
0.003410158066197821
0.2450416991778157
0.005206269755190285
0.004418318686659817
0.2439266546941354
0.2108048884941917
0.217104036631559
0.2235548938445181
0.228402696663303
0.2410584221765731
-0.001113855831802069
0.240318489418988
0.0003943117988559064
0.2384941589660814
-0.00341759154250687
-0.1817700563443663
0.245197140143172
0.2418875945156988
0.0009771343645000319
0.2412116676698773
0.001109979213589851
0.2402700987643795
-0.005879073730663709
-0.1649749020722061
0.2138742929418064
0.2431601743507096
0.003130743043293693
0.242400765553261
0.001971678941788402
0.2405177502609112
-0.007287142499088073
-0.1047463937352575
0.1701043154685904
0.2328139896655534
0.2348162325576145
0.2236124525055672
0.1071538629379882
0.2655437631469416
0.0930853093930667
0.2683277050545959
0.1353391989975929
0.2720970339990606
0.09327427103982777
0.06400588275923036
0.2778096558278599
0.2400378091518544
0.05901290572946094
0.2631965017920916
0.106344480258478
0.2719967819573499
0.08045182160701814
0.05128057448370738
0.2798325658984273
0.1978897351513568
0.0232997137590284
0.2374807428603093
0.05930662824073385
0.2633866844016496
0.05030770262155615
0.03342307600725392
0.277932165297412
0.1244369968484991
0.1778320780118042
0.2235644077805341
0.2543045263335657
0.2765693150780381
0.03000714265231441
0.277465352268952
0.00898020358842111
0.2797114155762605
-0.002566004810800604
-0.002315882870786989
0.2853293260988044
0.2792442400415195
0.02315130084589134
0.2795539097475013
0.00632115167885583
0.2808205117814276
-0.002212471064750421
-0.002539517597042518
0.2867600067038906
0.2792348899491931
0.01548260293546322
0.2803759959726381
0.004214806706540286
0.2823078375765697
-0.001320256307114409
-0.001716483648558254
0.2878991142838335
0.2635464357226805
0.2666098228227988
0.2682494286464177
0.2735722703996626
0.3015844959144094
0.01810607716261248
0.3220541180282026
0.05070568595379688
0.3569699469937645
0.1543808860143302
0.2985623076321646
0.426325383267034
0.3044420164507979
0.01215188695862846
0.3241153886536937
0.03880185516167911
0.3580146658295269
0.1264553717074254
0.1985046668566407
0.4611742123901177
0.3046226910224293
0.006967244888781421
0.3254209331689989
0.02759448720470359
0.3670395944468897
0.09078005486764396
0.04675265422724706
0.523519851187155
0.2918420367936473
0.3305469774599686
0.4288167856119134
0.4803580050343825
0.2170686326629447
-1.213903752104175
0.02197008772421587
-0.2479505728347996
0.003810432984657748
-0.02939888652139623
-0.02712258602538956
-0.0007829086362790057
0.1524949185054538
-0.9026823354319187
0.01075618879193961
-0.1052942456288983
0.001528490321944659
-0.01471082401141717
-0.01561499062939711
-0.003925919414144764
0.0768628841274568
-0.4543002566526956
0.003560109701284036
-0.03068982070015579
-0.002587429441882149
-0.004084513093564519
-0.007166907266060604
-0.00434515565148082
0.02683843534324736
-0.002139287171509821
-0.002448104693597685
-0.003542055024043648
0.0007795093945425491
-0.01411181695589386
0.0009953972391012339
-0.007263281049766278
-0.0001965338280922151
-0.0004122621371072943
0.005767857242026789
0.003870056138310863
-0.00342517056100097
-0.01102030089988879
-0.003516648101188269
-0.006047983794528443
-0.003535428971241985
-0.0006751498674301415
0.003843709431043257
-0.00273749912086927
-0.004900567056020835
-0.006083068812616478
-0.004919633728149502
-0.00432210362322917
-0.004806568509550656
-0.0005665633141741372
0.00305397198726854
-0.006481786770620186
-0.005377922998285102
-0.006810288983995183
-0.007473422580334952
-0.006891998337490622
0.04393738740363017
0.04396559861845946
0.08091264892712245
0.07954226726696809
0.1161902903084312
0.08934844487363629
0.103158599497514
0.1476594839197647
0.02212989846805445
0.01831945753298843
0.05884700053171846
0.04694601870374771
0.09533826420126357
0.06184988050869762
0.0781161873068936
0.1351888608097336
0.005574829042789185
0.003868676150934419
0.03595372368823263
0.01778667955001317
0.07195070444520643
0.03215736704717009
0.04753059750416011
0.1138829733519945
-0.006929021386720385
0.008663127318211949
0.04398048620967902
0.09975383210513912
0.1163280590650268
-0.130751430625632
0.1712748497772346
0.09102332808431818
-0.08650918344630112
0.1194293251506575
0.07261932802980213
-0.08173668390015271
0.09659976625310267
-0.06223136144963434
0.04147886807947689
0.09083866075414401
0.1022282005596633
-0.09134934365692804
0.07945080591722495
-0.0657184109044347
0.04956100886286166
-0.0560856149348531
-0.03059968708418002
0.01791040601426825
0.08298055672952789
-0.05670351404035819
0.04703709931631827
-0.03647529858526725
0.01687190194406516
-0.02183571018952359
-0.009517140412822835
-0.001996661851809519
0.04308648770308698
0.008547776003643676
-0.007150027896276702
-0.01198770466619611
-0.01215911381793871
0.002083705429382687
-0.01038880987949036
-0.001612830193965633
-0.005754216350208487
-0.004413715707410133
-0.006533785502447251
-7.472494845117694e-14
-0.007986482285311413
0.007648160468017287
-0.007483193389728898
-0.001000561589423691
-0.00387318573491692
-0.006061443445899067
-0.008193230309587783
4.100886297209172e-15
0.006137123893674584
0.0186768778191033
0.0008918934787476192
0.005279954251605773
7.886181476666337e-05
-0.001024488249621175
-0.002435994983234244
1.578598363138894e-13
0.02215448762543409
0.01144263722673913
0.005434800415174697
5.148312332003968e-13
-0.006533785502456011
0.00575421635006209
-0.008193230309613504
0.003873185734940096
-0.002435994983327319
-7.886181441489615e-05
-0.005434800413855391
0.008222349050010007
-0.004413715707451813
0.0103888098794963
-0.006061443445929758
0.007483193389748819
-0.001024488249634432
-0.0008918934783479285
-0.01144263722614475
0.01002014913545352
-0.001612830193994353
0.0121591138180317
-0.001000561589461048
0.007986482285409647
0.005279954251579642
-0.006137123893359891
-0.02215448762504562
0.01833585294351233
0.00208370542934249
0.01198770466632754
0.007648160467935827
0.001996661851994489
0.0186768778190145
-0.01791040601400436
-0.04147886807901326
0.03690163897610726
-0.07261932802926768
-0.06223136144958565
0.09083866075407399
-0.09102332808370842
-0.08173668390003087
0.09659976625291815
-0.1163280590644234
-0.08650918344618462
0.1194293251503951
-0.130751430625225
-0.1476594839193106
0.1712748497768019
-0.04956100886270189
-0.03059968708408276
-0.07945080591687163
-0.05608561493476
-0.1022282005592619
-0.06571841090434873
-0.09134934365664447
-0.1351888608093471
-0.0168719019438973
-0.009517140412775092
-0.04703709931611099
-0.02183571018947807
-0.08298055672924123
-0.03647529858523348
-0.05670351404016114
-0.1138829733515902
0.007150027896352579
-0.008547776003560541
-0.04308648770286107
-0.09975383210467545
-0.04398048620921453
-0.04753059750400068
-0.008663127317781842
-0.03215736704691241
0.006929021386476174
-0.01778667954908379
-0.003868676150859382
0.006891998337271159
-0.07195070444487849
-0.07811618730655565
-0.03595372368721263
-0.06184988050904623
-0.005574829042469594
-0.04694601870197582
-0.01831945753245316
0.006481786770448059
-0.09533826420118871
-0.1031585994967914
-0.05884700053062972
-0.08934844487521452
-0.02212989846721846
-0.07954226726488389
-0.04396559861707802
0.002737499120715716
-0.1161902903082124
-0.08091264892626053
-0.04393738740254617
-0.003870056138024672
0.0001965338276935479
0.005767857241210705
-0.000995397239010919
-0.0004122621368202947
-0.0007795093942983243
-0.007263281049126727
-0.01411181695580931
0.0007829086361582482
0.003535428970892132
0.003843709430556667
0.003516648101180516
-0.0006751498674163886
0.003425170561251689
-0.006047983794015485
-0.01102030089982665
0.003925919414375606
0.004806568509336244
0.003053971987054052
0.004919633728064992
-0.0005665633141997417
0.004900567056266162
-0.004322103622938618
-0.006083068812668013
0.004345155651828679
0.007473422580058266
0.006810288983820023
0.005377922998494362
0.003542055024285007
-0.003810432984249162
-0.02712258602541357
-0.02197008772301429
-0.029398886521098
-0.2170686326610729
-0.2479505728330723
-1.213903752106479
-0.4263253832670097
-0.001528490321779151
-0.01561499062954117
-0.0107561887917098
-0.0147108240114921
-0.1524949185041685
-0.1052942456281438
-0.9026823354334513
-0.4611742123900918
0.002587429441962694
-0.007166907266143267
-0.003560109701120226
-0.00408451309367424
-0.07686288412678517
-0.03068982069984029
-0.4543002566531316
-0.52351985118787
0.002448104693756435
0.002139287171559914
-0.0268384353429514
-0.4803580050346741
-0.3569699469943769
0.2985623076332411
-0.3220541180283445
0.1543808860163365
-0.3015844959151546
0.05070568595721592
0.01810607716628887
-0.2853293261012655
-0.358014665830127
0.198504666857376
-0.3241153886541323
0.1264553717096745
-0.304442016451638
0.03880185516463064
0.01215188696211655
-0.2867600067064745
-0.3670395944484189
0.04675265422739672
-0.3254209331693856
0.09078005486758101
-0.3046226910234098
0.02759448720721946
0.006967244891143753
-0.2878991142861902
-0.4288167856137851
-0.3305469774638875
-0.2918420367972777
-0.2735722704031499
-0.2797114155780124
-0.00231588286561335
-0.2774653522696269
-0.002566004811563993
-0.2765693150774964
0.008980203589688318
0.03000714265694671
-0.2778096558257835
-0.2808205117832729
-0.002539517593360463
-0.2795539097485812
-0.002212471065186516
-0.2792442400415968
0.00632115168044356
0.02315130085098038
-0.2798325658966354
-0.282307837578624
-0.001716483646367672
-0.2803759959740119
-0.001320256307415835
-0.2792348899493472
0.004214806708112473
0.01548260294043735
-0.2779321652955338
-0.2682494286490832
-0.2666098228258487
-0.2635464357225838
-0.2543045263265727
-0.2720970339997579
0.06400588276094066
-0.2683277050558828
0.09327427104460262
-0.2655437631478202
0.135339199006508
0.0930853093863161
-0.2451971401442118
-0.2719967819574254
0.05128057448474255
-0.2631965017923996
0.08045182160963305
-0.2400378091519915
0.1063444802618521
0.05901290572808071
-0.2138742929433479
-0.2633866844007615
0.03342307600635364
-0.2374807428595742
0.05030770262223472
-0.1978897351504113
0.05930662824281174
0.02329971375570938
-0.1701043154680964
-0.2235644077777426
-0.1778320780098214
-0.1244369968455808
-0.1071538629423084
-0.2384941589651482
-0.181770056333132
-0.2403184894180313
-0.003417591540096465
-0.2410584221772451
0.0003943117973741472
-0.001113855827758525
-0.2423505811611394
-0.2402700987631103
-0.1649749020619792
-0.2412116676699403
-0.005879073727400264
-0.2418875945176437
0.001109979213940127
0.0009771343674960797
-0.2427906849290898
-0.2405177502585431
-0.1047463937296737
-0.2424007655540249
-0.007287142495426058
-0.2431601743524869
0.001971678942950528
0.003130743044639617
-0.2439266546949202
-0.2236124525095422
-0.2348162325598111
-0.2328139896667996
-0.2284026966644019
-0.2435297404326171
0.0002113937447163483
-0.2437064533164487
2.754957633865907e-05
-0.2428036833040721
-0.002653134647257915
-0.006828343353702804
-0.2392506645040831
-0.2440977978420693
0.00226028626259106
-0.245267805126772
0.00251500980920305
-0.2453624512854682
-0.0005957122875042686
-0.003648294022332466
-0.2449836517200136
-0.2450416991778638
0.004418318687258782
-0.2462320584713728
0.005206269756909132
-0.2476298135893349
0.003410158065402957
0.00134165832246258
-0.2489249710873687