/*--------------------------------*- C++ -*----------------------------------*\
  =========                 |
  \\      /  F ield         | OpenFOAM: The Open Source CFD Toolbox
   \\    /   O peration     | Website:  https://openfoam.org
    \\  /    A nd           | Version:  11
     \\/     M anipulation  |
\*---------------------------------------------------------------------------*/
FoamFile
{
    format      ascii;
    class       volScalarField;
    location    "0.087";
    object      p;
}
// * * * * * * * * * * * * * * * * * * * * * * * * * * * * * * * * * * * * * //

dimensions      [0 2 -2 0 0 0 0];

internalField   nonuniform List<scalar> 
880
(
80
80
80
80.00006066796684
80
80
80.00000000007972
80.00049845326853
80
79.99999999999999
80.00000000010142
80.00266092169767
80
80
80.00000000458112
80.00258408809063
80
80.00000000000001
79.99999999999994
80.00000000022874
79.99999999999999
80
79.99999999999983
80
79.99999989113492
80.00000032918959
80.01318872819023
79.9689550314594
80.61470403318278
82.66123084776275
84.45181666756447
85.36686040175161
80.0000019878527
80.00000449180585
80.00000516637293
80.00000240448649
80.00005395549891
80.00012238519665
80.00019999561496
80.00011026114292
80.04211508454846
80.06697529736623
80.09211948226483
80.08112210047477
86.29352761622516
87.34078288690939
88.41729333034834
89.18129082254111
88.34179698026915
86.41415338099677
84.77013176015538
83.47712781614324
80.14964965802486
80.2648378371865
80.32929346525631
80.25868386776379
80.00041526682706
80.0009281670509
80.00146138407533
80.00121613099719
80.00001446597402
80.00002522109668
80.00003173474535
80.00002341330327
80.0000083045082
80.00000113767879
80.00000003988275
80.0000000001808
80.00059022501482
80.00014134248666
80.00001306945532
80.00000033258164
80.13587820876181
80.04134557863168
80.00605839181384
80.00027857101922
82.25667039850336
81.11833530677814
80.32279109782759
80.03809807609032
80.00122443343155
80.00000241254111
79.99999999729226
80.00000000010465
80.0001137724266
80.00000126496236
79.99999998153287
79.9999999984548
79.99821034116061
79.99994317454089
80.00000179293075
80.00000035052474
81.10092803658769
79.99980206264985
79.99963150281864
79.99999078088481
79.99998506439027
79.99984100368232
80.02911015504354
91.83375332297361
79.99999822325618
80.0001397423666
80.15065936058137
102.2394162410034
80.00002341606958
80.00070433531974
80.3225951724707
108.0609491302579
80.00004568880424
80.00151190045317
80.55131772926876
114.3113108250086
119.0430745332331
80.68742623115743
80.00187180792612
80.00005957668343
123.6713757746318
80.91385775092012
80.00293078792005
80.00008768279255
126.1499441138964
81.01778161385168
80.00321298741611
80.00010230561894
129.6883739575079
81.32705330489344
80.00532429233698
80.0001741589208
80.0001769078907
80.00544012887329
81.54470941109361
134.2458764609215
80.00024506037614
80.00760422490752
81.94012474059676
136.8089141535116
80.00036847789688
80.01020040377649
82.11831167423624
132.0335663486474
80.00003734733711
80.00287647269883
81.12014805084821
114.1056150798995
80.00067707740833
80.02772653519234
81.60817066376057
92.69485972559019
80.00003613386235
80.02300948262339
80.55820136047232
71.72763574810934
79.9996746390273
79.9885424788545
79.41551934140736
60.29963564449874
79.99981953604087
79.95777144745288
78.00130557141642
52.60251104026078
50.07189560233961
77.73695939992831
79.96991546379512
79.99991407080223
47.76824503146739
77.65082641197161
79.97396315679812
79.99992688475265
47.72919812956009
78.14989486078014
79.98652592927355
79.99996941967137
46.84338290215931
78.08311010437181
79.98588345001127
79.9999675216602
55.25417515209304
79.1874699533877
79.9957996966406
79.99998977945212
64.12152967182632
79.74494912850636
79.99909463171892
79.99999814542252
70.34874128459563
79.91168986297187
79.99974427131573
79.99999955615154
75.2217760779919
79.96691549123483
79.99989593811873
79.99999966307895
73.49410302924919
79.75931306728086
79.99730580096062
79.99998714769033
73.62087481079459
79.76407914933158
79.99732218150203
79.99998716859413
73.89758379351075
79.76788642058156
79.99732583652373
79.99998714691782
74.77079655437299
79.78354318814863
79.99740345709228
79.99998748362177
75.22177607777596
79.96691549092152
79.99989593765703
79.99999966356373
70.34874128418426
79.91168986254554
79.9997442701759
79.99999955627979
64.12152967161209
79.74494912875535
79.99909463169607
79.99999814553077
55.25417515232125
79.18746995431042
79.99579969669112
79.99998977915706
79.99991407096992
79.96991546522069
77.73695940020741
50.07189560222262
79.99992688555723
79.97396315689264
77.65082641211006
47.76824503154302
79.99996941903588
79.98652592999645
78.14989486057554
47.72919812987173
79.99996752181704
79.98588345021396
78.083110105552
46.84338290187721
52.60251103963824
78.00130557092754
79.95777144664484
79.999819535779
60.29963564369135
79.41551934072905
79.9885424778238
79.99967463740349
71.72763574793727
80.55820135970384
80.02300948279338
80.0000361337803
92.69485972579999
81.6081706635624
80.02772653474979
80.00067707882327
80.00017690747644
80.00544012986479
81.544709411822
134.2458764618654
80.00024506053991
80.00760422518431
81.94012474060783
136.8089141534516
80.00036847861803
80.01020040378475
82.11831167357309
132.0335663486208
80.00003734872743
80.00287647267608
81.12014805037053
114.1056150797403
129.6883739591488
81.32705330383506
80.00532429357364
80.00017415882303
126.1499441153262
81.01778161553666
80.0032129872917
80.00010230590604
123.6713757738264
80.91385775260814
80.00293078933426
80.00008768250676
119.0430745336198
80.6874262294982
80.0018718080582
80.00005957641216
79.99998506509297
79.99984100433589
80.02911015519219
91.83375332194062
79.99999822267816
80.00013974157559
80.15065936047795
102.2394162412468
80.00002341563473
80.00070433530334
80.32259517340178
108.0609491301075
80.00004568829638
80.0015119004923
80.55131772844453
114.3113108263519
79.99999078072236
80.00000035083863
79.99999999846536
80.00000000006554
79.99963150202041
80.00000179286964
79.99999998225152
79.9999999970112
79.99980206286266
79.99994317482935
80.00000126451711
80.0000024122668
81.10092803663883
79.99821034136043
80.00011377242996
80.00122443339357
79.99999999970002
80.00000033259531
80.000278571349
80.03809807636227
80.00000003974971
80.00001306920947
80.00605839329607
80.32279109790029
80.00000113805257
80.00014134251751
80.04134557779103
81.11833530682323
80.0000083047363
80.00059022487861
80.13587820949064
82.25667039819481
80.00001446506333
80.00041526599705
80.14964965776591
88.3417969800343
80.00002522030958
80.0009281671831
80.26483783730281
86.41415338030778
80.00003173444657
80.00146138505259
80.32929346517103
84.77013175990358
80.00002341302877
80.00121613159348
80.25868386774053
83.47712781571757
89.1812908227671
80.08112210165397
80.00011026058318
80.00000240403284
88.41729333052074
80.09211948346194
80.0001999954609
80.0000051665084
87.340782887869
80.06697529650975
80.00012238552566
80.00000449160669
86.29352761605743
80.04211508308056
80.0000539550887
80.00000198811927
85.36686040202383
79.96895503379508
80
80.00000000028571
84.45181666720099
80.01318872535126
80
79.99999999999999
82.66123084819317
80.00000032901447
80
79.99999999999999
80.61470403343546
79.99999989086228
80
79.99999999999989
80
79.99999999999997
80
80.00006066932185
80.00000000000003
80.00000000000001
80.00000000006929
80.00049844586601
80
80
80.00000000014444
80.00266091891977
80
80
80.00000000426479
80.0025840876897
80.00008694886328
80.00051335812229
80.00393821612714
80.14987433051579
80.00051336748389
80.00044514449459
80.00069661883269
80.60775044578588
80.00393820102668
80.00069657889999
80.22054005107198
84.37743381240085
80.14987433152403
80.60775044118434
84.37743387957714
101.4786795480544
131.6709407688614
110.2378980635369
98.94962876976676
88.31121877027206
127.0613520412238
122.2018052647684
119.3637083744714
110.0095984733263
124.8195414883071
123.2701840466292
122.5928980415161
118.3005539161277
124.6834307806227
123.4052822679623
123.0523810691863
120.6855328629446
123.0644465076444
124.5085444827415
125.4713768915885
128.114185516564
124.3662206165062
125.8884384101553
126.8869261154516
130.6949068479802
124.4371357647595
125.8136094813436
127.1387656009435
130.2267974835682
124.480687248221
125.3040795857363
126.8732896426832
128.4185561611211
107.7460153067272
88.94338869657838
82.7161231891284
81.77586120647501
98.15691473364743
82.02328697549306
80.9605829301877
81.77613801234456
88.57415558013221
78.5124793101312
81.28678445978854
82.49890646402989
69.96084610975163
71.71096448801727
78.81864089604043
81.57266493100462
82.26558257158109
81.86742695164682
80.81459360315849
80.17922739859958
82.28529014015598
81.80758631168412
80.85932038564799
80.22726086922422
82.72151253279176
82.13724828615143
81.07402915253797
80.31072241943043
82.17508636769134
81.83125074339962
80.68064575568262
80.09915154955539
80.01513553637201
80.000335839342
79.99923241706728
98.94918703084652
80.02404941287965
80.00064421134073
79.99965286945702
110.2472675214272
80.03602725892939
80.00095927683408
80.00004496306683
116.4548715172416
79.99737379104933
79.99907188564208
80.00011986038675
118.1620693046727
187.5178469196232
199.20084905402
201.785629547315
206.614104079561
212.6686781634226
211.1270238579999
208.3125333965679
211.3864288677419
212.5902176049301
205.4682038191908
209.1229245965833
211.8985478644992
226.3693829615379
212.4754429592906
210.0198437095171
212.4344304953303
212.0405091797788
218.0174008699906
219.2527872884708
220.4029094866549
215.5320939511953
220.9123868011273
222.3384278554012
222.9311801374703
216.077775386888
221.4449195097822
223.5448606037956
224.0129600366362
216.4654775737548
221.6274405571614
223.9671529672773
224.4342548235295
220.0086807319373
215.5369810280729
200.1150985603839
165.1288828818145
221.8236397431659
216.7871884871462
201.4163063877368
177.6203278095516
223.1316359852492
217.6599506077206
202.2710323088097
189.5129287332199
223.5395015479075
218.9222742197333
204.2066372973208
210.6227417937357
101.2855243823603
23.82037799117288
8.107362905510398
7.910730106163426
79.33694129250921
13.95887024179388
8.319625394268689
8.02290705578997
53.28268786252254
8.790264713050599
7.595276425509224
8.745196876840499
29.92533484916291
4.708814681059057
8.996441896031479
9.561004144840579
8.889527125905239
9.695329139214039
10.01426656415824
8.302591962048016
8.490673932833296
8.889338160475308
8.404953569748688
6.30267727938101
9.135601177416694
9.201694028307321
8.256879715519275
7.140478442262642
9.802475088324218
9.509485853489869
8.043779180952688
8.262919471638444
22.5630035640068
36.32002083264387
44.58268258381236
55.44049480822572
21.18579153302199
32.83224118232544
39.53323275374149
52.9980986653822
19.82600385525206
33.20441571101862
41.28842388093065
50.8672181228546
14.80919229253716
27.22959682349163
38.46155961491615
50.20366721828027
39.78376337736673
22.95503108740578
11.41324918215014
15.77494146668561
34.39384840135262
19.20266498143596
8.019256792708168
5.361610527141449
27.09490447283348
12.5002685273648
4.287513058141733
3.484529500191756
16.97769975820286
5.610610741815121
2.428133130407863
3.021110220569306
5.165663586219368
12.05044868190289
20.28203247649231
26.70687207865777
5.820332992188689
12.91425343565574
21.15550174098073
27.34405083772106
8.472551263506592
15.42652153446221
24.52935877472955
30.82151381624312
24.60105082311366
27.47690991821261
34.45912219705922
39.22757188309124
26.70687207865627
27.34405083770949
30.8215138162216
39.22757188310922
20.28203247651341
21.15550174095335
24.52935877474198
34.45912219707405
12.05044868190511
12.91425343565001
15.42652153443547
27.47690991812519
5.165663586221275
5.820332992192665
8.472551263462336
24.60105082284208
15.77494146648416
11.41324918207757
22.95503108730596
39.78376337704437
5.361610527138221
8.01925679270505
19.20266498143042
34.39384840123308
3.484529500205889
4.287513058138599
12.50026852731333
27.09490447279342
3.021110220572774
2.428133130409126
5.610610741811792
16.97769975817899
50.20366721824256
38.46155961494959
27.22959682344604
14.80919229234586
50.86721812281311
41.28842388097009
33.2044157110366
19.82600385509421
52.99809866530482
39.53323275366968
32.8322411823256
21.18579153297916
55.44049480807912
44.58268258364269
36.32002083252912
22.56300356393339
8.302591961945394
10.01426656429442
9.695329139231852
8.889527125836135
6.302677279350457
8.40495356983171
8.889338160516649
8.490673932804336
7.140478442249376
8.256879715585351
9.201694028357299
9.135601177387752
8.262919471611623
8.043779180998852
9.509485853529702
9.802475088290825
7.910730106053383
8.107362905304027
23.82037799101332
101.2855243823133
8.022907055689952
8.319625394131409
13.95887024170144
79.33694129204102
8.745196876710272
7.595276425392816
8.790264713065591
53.28268786241359
9.561004144703396
8.996441895883949
4.708814681029393
29.92533484915099
165.1288828815035
200.1150985603492
215.5369810280991
220.008680732509
177.6203278092612
201.4163063871679
216.7871884872554
221.8236397440027
189.5129287330109
202.2710323084918
217.6599506081628
223.13163598615
210.6227417939411
204.2066372979825
218.9222742203281
223.5395015489324
220.4029094878306
219.2527872893415
218.0174008691397
212.0405091793707
222.9311801385235
222.3384278561041
220.9123868003206
215.5320939509151
224.0129600375093
223.5448606042798
221.4449195089145
216.0777753870998
224.4342548246736
223.9671529677267
221.6274405557503
216.4654775737579
206.6141040829352
201.7856295455337
199.2008490546706
187.5178469187579
211.3864288715382
208.3125333944318
211.1270238590321
212.6686781627588
211.8985478678489
209.1229245943744
205.4682038198069
212.5902176042079
212.4344304978096
210.0198437074404
212.4754429602335
226.3693829605459
98.94918703022297
79.99923241437465
80.00033583964127
80.0151355364506
110.2472675206535
79.99965286785543
80.00064421167271
80.02404941311174
116.4548715165752
80.00004496226921
80.00095927700308
80.03602725924902
118.1620693040288
80.00011986024906
79.99907188569519
79.99737379160268
80.17922739866717
80.81459360303246
81.8674269517964
82.26558257120233
80.22726086907132
80.85932038561093
81.80758631163528
82.28529013963761
80.31072241914458
81.07402915269095
82.13724828587964
82.72151253235515
80.09915154908515
80.68064575582179
81.83125074306889
82.17508636729914
81.77586120625723
82.71612318894886
88.94338869650568
107.7460153068114
81.77613801206863
80.96058293001262
82.02328697529535
98.15691473376154
82.49890646368547
81.28678445960416
78.51247930980749
88.57415558027351
81.57266493044311
78.81864089582112
71.71096448752131
69.96084610980854
128.1141855161686
125.4713768905627
124.5085444827598
123.0644465087445
130.694906847378
126.8869261151532
125.8884384109906
124.3662206177534
130.2267974829053
127.1387656007893
125.8136094820978
124.4371357658157
128.4185561606714
126.8732896425386
125.3040795864826
124.4806872489839
120.6855328625103
118.3005539160518
110.0095984737891
88.31121877130103
123.0523810691164
122.5928980414851
119.363708375988
98.94962876980894
123.4052822680299
123.270184047077
122.2018052677427
110.2378980584361
124.6834307805758
124.8195414877727
127.0613520420176
131.6709407756845
76.57397253983487
79.95033723673646
79.99969032532881
79.99999894859283
75.52302471400354
79.9213545827586
79.99938080984052
79.99999742659787
75.57834752239651
79.88581508248804
79.99884668518322
79.99999469195527
74.92212462287848
79.81730381515696
79.99788291352984
79.99999001122342
79.99998714814193
79.99730580097764
79.75931306687804
73.49410302881775
79.9999871689099
79.99732218202375
79.76407914855986
73.62087481080033
79.99998714642824
79.99732583701736
79.76788642029463
73.89758379285649
79.99998748215579
79.99740345773677
79.78354318666423
74.77079655393004
79.99999001082132
79.99999469152823
79.9999974248759
79.99999894681842
79.99788291373639
79.99884668516023
79.99938080959572
79.99969032465297
79.81730381516219
79.88581508189304
79.92135458335805
79.95033723634511
74.92212462271233
75.57834752167453
75.52302471381726
76.5739725400561
)
;

boundaryField
{
    back
    {
        type            empty;
    }
    inlet
    {
        type            zeroGradient;
    }
    front
    {
        type            empty;
    }
    top
    {
        type            zeroGradient;
    }
    outlet
    {
        type            fixedValue;
        value           uniform 80;
    }
    bottom
    {
        type            zeroGradient;
    }
    wall
    {
        type            zeroGradient;
    }
}


// ************************************************************************* //
