/*--------------------------------*- C++ -*----------------------------------*\
  =========                 |
  \\      /  F ield         | OpenFOAM: The Open Source CFD Toolbox
   \\    /   O peration     | Website:  https://openfoam.org
    \\  /    A nd           | Version:  11
     \\/     M anipulation  |
\*---------------------------------------------------------------------------*/
FoamFile
{
    format      ascii;
    class       volScalarField;
    location    "5.25";
    object      p;
}
// * * * * * * * * * * * * * * * * * * * * * * * * * * * * * * * * * * * * * //

dimensions      [0 2 -2 0 0 0 0];

internalField   nonuniform List<scalar> 
4455
(
5791.2341
5800.9629
5821.7619
5852.9333
5896.0724
5951.2791
6029.6812
6132.7655
6283.3786
5760.5923
5773.8077
5797.2462
5831.5948
5877.1201
5933.7976
6017.4158
6128.5858
6325.8649
5726.2735
5742.6467
5769.9508
5807.6846
5854.5925
5912.1754
5998.4345
6113.7755
6351.5552
5688.7007
5709.0643
5740.8069
5781.1262
5828.2662
5887.4561
5974.604
6095.3717
6375.2519
5648.9624
5674.5129
5709.6751
5751.8589
5799.6243
5859.5463
5946.6037
6072.5262
6402.8647
5608.7384
5638.8072
5676.9035
5721.0389
5768.8597
5829.6017
5916.1215
6042.5439
6429.2769
5568.6284
5602.6747
5643.5814
5688.6428
5736.2162
5797.9696
5883.6008
6006.603
6452.0863
5529.6648
5566.8252
5609.9043
5655.2109
5702.5334
5765.538
5849.3412
5962.6512
6469.883
5492.5392
5531.909
5575.9221
5621.5281
5668.7242
5732.2934
5815.1772
5912.5324
6473.8534
5457.6522
5425.5557
5396.8872
5371.8305
5350.0991
5331.9132
5317.2331
5306.5758
5301.1737
5498.1352
5465.665
5435.0654
5406.5534
5380.7067
5357.6701
5337.4439
5319.6612
5303.7581
5541.8716
5507.997
5475.3526
5444.5621
5415.6294
5388.1175
5362.9872
5340.6509
5321.8505
5587.0861
5551.7675
5517.113
5483.5821
5450.8622
5419.2374
5388.4243
5357.4586
5324.1347
5633.3618
5595.9596
5558.858
5522.2831
5486.9407
5452.9825
5422.4286
5396.7604
5374.0626
5696.4687
5656.7544
5616.1027
5574.7529
5532.5957
5489.7511
5445.6123
5400.3654
5349.3486
5778.8554
5737.919
5697.0366
5656.7218
5618.0078
5583.1839
5551.3157
5522.512
5492.0709
5851.7286
5775.5793
5695.1435
5614.7165
5536.7878
5461.2775
5392.6205
5331.5487
5271.9854
6455.7836
6336.6648
6130.2235
5962.9702
5816.6816
5674.8809
5533.2815
5394.0056
5264.9736
5301.5142
5299.6908
5295.0178
5288.9749
5281.2672
5272.6874
5261.9366
5250.1729
5235.8684
5293.2063
5284.8517
5275.6107
5264.6881
5251.412
5235.9803
5218.537
5199.4338
5178.5766
5311.327
5300.5469
5286.918
5271.4155
5254.9869
5237.7748
5219.2254
5198.9684
5176.7856
5300.1307
5283.6346
5268.3944
5252.4447
5234.7005
5215.0541
5193.6752
5170.9093
5146.8492
5358.216
5341.0226
5319.7962
5296.0886
5271.6606
5247.6773
5223.0108
5196.99
5169.7939
5311.7177
5286.4354
5265.3626
5244.4421
5221.2461
5196.1781
5169.9385
5142.1713
5113.3245
5459.2645
5423.5292
5383.1976
5341.9146
5302.6222
5265.5377
5229.575
5194.5485
5162.0385
5225.1886
5185.3408
5141.791
5095.0013
5047.2936
4998.8563
4952.0948
4909.2533
4871.972
5152.5519
5054.6958
4970.5725
4896.8246
4835.6369
4787.9043
4745.4256
4703.0168
4674.7954
4677.3326
4679.3493
4693.8318
4738.8083
4815.7553
4918.4338
5030.3161
5151.6231
5281.9332
4843.7613
4819.7853
4799.7368
4784.5444
4778.8364
4785.8761
4803.1527
4831.4808
4870.7677
5133.3824
5107.0105
5082.8014
5061.9076
5044.8634
5031.957
5023.3783
5018.2497
5016.7439
5084.675
5056.1304
5026.4755
4996.4152
4966.4562
4937.5587
4910.8567
4886.5858
4864.6664
5141.3077
5112.6039
5083.2881
5053.9514
5024.2492
4993.3626
4962.7144
4931.7719
4900.4031
5121.9861
5095.142
5066.3945
5036.6521
5004.3313
4971.0566
4937.3008
4902.2573
4866.0309
5153.0752
5128.0426
5101.5372
5073.6441
5043.9313
5011.9788
4978.7257
4944.2471
4906.6098
5156.0673
5131.6996
5105.3679
5076.9387
5046.4251
5013.7704
4979.0307
4942.0847
4902.5896
5217.3002
5193.9969
5170.231
5146.2459
5121.7245
5095.4745
5066.6434
5034.8103
4999.6677
4961.2445
4919.2999
4874.6461
4826.2322
4774.8308
4719.5817
4659.6987
4595.2477
4525.599
4861.4005
4816.5859
4769.2266
4719.3853
4665.9428
4609.6047
4549.2603
4484.9793
4416.7139
4868.4438
4827.8904
4783.3791
4738.3708
4689.6207
4637.4941
4584.2187
4525.8649
4464.7445
4827.6826
4788.9072
4747.4142
4705.0162
4660.3466
4613.2896
4564.404
4512.7175
4457.0708
4869.651
4838.9388
4807.1229
4775.3944
4742.6848
4709.0167
4675.2023
4639.1256
4601.0231
4845.3857
4828.591
4813.5871
4799.2541
4785.3086
4771.3756
4757.9984
4744.4182
4729.7948
5019.9948
5026.8085
5036.9567
5049.4933
5063.7128
5079.9042
5098.6771
5120.3196
5143.13
4918.865
4974.3502
5036.4324
5102.8348
5172.6558
5247.5621
5326.2982
5404.3466
5481.8305
5410.9611
5539.6508
5670.5548
5804.1196
5939.1902
6075.7256
6215.4568
6358.4829
6503.8622
6650.7981
5559.1612
5163.9259
4713.1891
4562.1704
4398.5958
4399.7728
4343.4003
4450.5904
6799.3356
5636.1443
5182.0534
4691.779
4518.2572
4335.696
4328.5724
4265.2466
4369.6899
6946.2107
5710.1885
5196.7591
4667.1997
4470.7426
4266.7968
4254.2465
4181.5539
4282.4488
7091.0789
5779.2623
5207.5094
4636.9555
4419.3383
4194.2396
4173.9537
4091.7656
4188.1868
7234.3776
5840.6203
5211.595
4597.689
4360.8967
4114.3801
4086.9706
3995.3865
4086.5903
7369.9046
5893.0107
5207.761
4551.7348
4296.7315
4025.2027
3993.453
3892.3657
3977.0987
7485.5377
5932.5577
5193.7954
4495.4713
4224.3322
3929.1654
3893.7591
3782.0305
3859.8968
7583.2214
5954.708
5167.3646
4426.604
4143.9217
3823.8234
3784.092
3664.0253
3734.2912
7631.4019
5953.8944
5124.2618
4344.9166
4052.5712
3709.5526
3667.4334
3538.1026
3600.299
3461.3535
3404.8113
3537.8437
3583.9757
3944.5967
4245.1595
5054.7468
5918.3599
7597.2377
3322.2442
3261.7112
3392.8932
3448.151
3813.3771
4119.1307
4937.396
5806.8689
7353.5466
3168.3821
3109.3715
3236.656
3297.5837
3660.2885
3964.4665
4773.0684
5626.4818
7062.2344
2991.088
2946.2604
3067.4833
3134.5171
3487.9856
3786.345
4579.216
5413.9281
6791.3225
2792.6705
2771.1634
2885.8926
2955.6029
3295.3537
3588.7988
4364.2937
5186.7499
6525.1065
2584.8542
2585.9669
2693.9566
2764.663
3090.805
3375.8349
4133.5127
4948.2019
6253.921
2369.9873
2389.5034
2492.3739
2559.9287
2868.7318
3147.2871
3885.956
4694.1207
5977.4208
2150.5032
2184.5278
2278.2756
2344.1548
2634.723
2904.4039
3621.8995
4423.1967
5690.9326
1922.7993
1971.8492
2055.9611
2117.7362
2385.1609
2643.6993
3338.371
4133.6536
5399.9738
5096.5228
3825.7157
3035.5436
2368.4266
2123.6793
1880.167
1825.8875
1752.276
1689.4534
4789.5046
3498.2335
2711.0147
2074.7182
1852.2681
1634.6863
1587.9609
1526.8609
1451.7873
4469.725
3150.4845
2367.9268
1767.4901
1565.3374
1380.99
1343.0518
1297.3119
1214.2371
4145.1358
2781.3857
2005.3971
1443.9707
1268.8296
1119.4762
1097.4589
1064.3885
973.66465
3800.3355
2389.6625
1624.8781
1108.4664
965.17311
854.71814
849.92524
831.31201
730.97581
3445.5124
1973.5424
1225.0873
760.22435
658.736
586.30881
601.5785
600.16784
493.55004
3064.7254
1530.4171
811.16344
403.44988
348.38425
320.85853
358.30547
374.36643
266.54723
2665.2434
1060.403
380.10068
40.752556
38.090115
56.354616
121.11384
156.29291
54.187068
2233.0266
560.36777
-61.554553
-320.7214
-265.43368
-199.72204
-105.35886
-51.992395
-142.58458
-318.11104
-246.17541
-322.81005
-449.90221
-572.56349
-692.8683
-538.22427
-5.0330604
1731.8693
-473.59014
-424.4459
-524.59261
-689.16916
-869.66106
-1066.8965
-1037.6408
-654.8683
1097.1923
-600.49605
-580.71145
-704.72673
-907.02758
-1150.2212
-1423.9949
-1529.0526
-1337.6565
390.69509
-695.5842
-712.78559
-859.15171
-1100.0765
-1402.5175
-1755.7297
-1996.4559
-2028.2047
-397.34818
-766.44564
-813.23544
-986.7941
-1263.637
-1623.8779
-2056.1683
-2428.3992
-2711.3352
-1274.9768
-802.76187
-885.73712
-1084.8511
-1394.2232
-1808.1154
-2318.1439
-2812.5546
-3350.6002
-2263.9228
-805.30025
-937.1873
-1152.4369
-1494.2154
-1949.2495
-2534.5431
-3135.8109
-3914.6704
-3395.6471
-781.63654
-970.47291
-1186.8609
-1566.3498
-2050.9593
-2698.8887
-3377.89
-4342.3079
-4693.4318
-733.89309
-983.30912
-1194.7217
-1614.1593
-2117.0966
-2819.6531
-3542.047
-4588.441
-5920.3707
-682.98497
-977.3583
-1176.1973
-1657.121
-2175.7702
-2955.4497
-3800.5586
-4857.4373
-7138.9716
-623.2113
-964.14179
-1152.0645
-1713.307
-2280.6892
-3185.696
-4245.5714
-5429.5663
-8030.3166
-539.45709
-945.79618
-1135.842
-1793.5976
-2430.5988
-3493.1254
-4846.7168
-6168.5751
-8174.0366
-431.59457
-918.12795
-1117.9994
-1877.3923
-2601.5145
-3834.3914
-5503.0029
-7042.4403
-6860.4333
-315.83501
-875.77729
-1090.6221
-1948.7612
-2756.1861
-4171.366
-6161.8929
-8048.422
-5841.1186
-189.65709
-815.41892
-1047.1472
-2007.6515
-2909.6351
-4494.9241
-6837.3461
-9131.1153
-7308.6023
-63.169638
-738.09446
-987.16133
-2040.7497
-3042.0254
-4815.0698
-7547.7353
-9820.5993
-7881.5653
68.838757
-648.74293
-916.17346
-2054.1829
-3166.2265
-5125.0865
-8268.3742
-9966.1596
-7930.728
222.5909
-546.42663
-831.96665
-2042.2118
-3279.9744
-5406.4224
-8964.793
-10492.715
-8252.1062
-8496.4238
-11037.154
-9468.2912
-5619.8539
-3370.4668
-2009.9914
-745.22991
-433.56561
393.78923
-8667.8095
-11428.173
-9827.4703
-5760.255
-3422.4064
-1952.8395
-655.14411
-310.85116
554.60774
-8824.1009
-11778.425
-10128.819
-5860.3583
-3442.5364
-1868.8644
-554.02026
-178.30137
696.04222
-8990.9704
-12079.671
-10377.895
-5937.8305
-3441.6659
-1762.9464
-446.11206
-43.43338
815.83396
-9165.7383
-12370.023
-10586.735
-6003.2642
-3415.832
-1645.5565
-332.7985
89.004208
925.10581
-9360.3769
-12579.949
-10747.79
-6065.8165
-3380.4063
-1524.0388
-219.31976
216.81568
1027.9209
-9600.3344
-12783.823
-10862.628
-6118.3195
-3326.7503
-1399.4137
-107.84197
339.404
1126.0859
-9962.4368
-12891.056
-10922.572
-6154.071
-3257.2709
-1271.6583
1.5520578
458.61838
1214.7579
-10161.53
-13033.154
-10939.097
-6156.479
-3167.8772
-1138.4967
108.53481
576.85048
1294.7062
-10151.225
-13021.675
-10623.939
-6008.0874
-2933.4315
-875.02168
295.38325
772.99128
1414.4263
-10208.073
-13495.928
-10335.969
-5708.231
-2520.7371
-500.2811
538.48096
1004.8286
1548.5342
-10096.264
-13504.943
-9975.1952
-5281.2086
-2016.9116
-110.98014
759.32034
1230.2464
1640.3441
-9751.4609
-13590.505
-9562.3359
-4742.9903
-1485.8912
239.91762
956.60743
1426.5488
1714.1056
-9336.1762
-13653.131
-9125.0961
-4148.5424
-970.2464
537.71557
1093.4345
1587.445
1767.8368
-9149.5023
-13630.616
-8690.1135
-3496.4798
-515.45947
748.8578
1163.2285
1730.6548
1829.9886
-9176.0861
-13426.329
-8270.5871
-2803.6472
-161.34921
870.6587
1264.4044
1908.1401
1855.5006
-9193.4917
-13066.962
-7872.2093
-2097.1154
109.30294
1001.0865
1420.4362
1969.9975
1866.3669
-9157.0953
-12564.144
-7472.5799
-1427.7789
272.95569
1077.8351
1577.8762
1997.8879
1760.2047
-9875.4732
-9024.1245
-8392.183
-4818.6703
-3789.2072
-3539.484
-3306.0433
-2294.3455
-248.80315
-9864.2216
-9255.173
-8554.4176
-4884.097
-3514.223
-3179.8874
-2817.4904
-2019.4017
-87.549437
-9853.949
-9477.0281
-8688.9355
-4919.0338
-3209.4154
-2826.3415
-2322.3022
-1725.1173
88.126783
-9841.2298
-9688.855
-8787.852
-4918.2886
-2891.351
-2480.8505
-1869.0053
-1424.4777
274.37223
-9826.0854
-9872.2188
-8856.5918
-4877.5384
-2567.2213
-2143.7833
-1444.4255
-1127.2402
473.22179
-9808.4854
-10051.393
-8898.642
-4790.8989
-2235.3493
-1810.1102
-1048.4282
-831.56793
684.49232
-9789.8273
-10224.847
-8908.3216
-4660.0928
-1898.9766
-1476.3447
-669.93202
-522.79972
909.21274
-9770.5901
-10388.562
-8891.599
-4480.0069
-1562.2449
-1151.3016
-308.50247
-200.17221
1148.3678
-9752.5712
-10537.412
-8864.741
-4258.5419
-1236.6053
-849.89804
27.776004
111.40006
1403.9098
-9127.4402
-3330.4409
610.27036
1302.3812
-1487.4309
-3897.1679
-1791.6619
-753.74808
-405.14503
-9301.896
-3718.6242
1014.866
1425.9975
-816.03063
-3336.5209
-1990.9784
-962.24398
-472.45449
-9521.8867
-4221.2812
1477.1687
1772.4901
-96.718533
-2615.7656
-2013.8869
-1176.3539
-573.02963
-9836.5364
-4760.9262
1764.1032
2315.8579
507.68468
-1844.2304
-1853.0448
-1310.1544
-702.3282
-10256.873
-5297.3521
1805.1887
2824.7789
1049.9322
-1061.6287
-1533.3069
-1328.7009
-857.97555
-10629.481
-5853.1192
1598.0202
3337.5841
1511.1037
-315.98382
-1095.8931
-1204.5175
-947.55312
-10851.303
-6445.1911
1044.1558
3682.3348
1958.0569
381.44891
-583.75822
-945.50475
-906.77685
-11559.159
-7147.7055
65.815442
3704.5017
2341.8434
979.72578
-30.662649
-580.03644
-799.03261
-12095.265
-7924.5102
-1038.7107
3426.1964
2509.682
1440.9376
445.58689
-162.03671
-592.7601
740.03029
1301.5221
1480.0766
1866.7762
1813.8016
1590.1226
-1953.5762
-8594.1375
-13475.372
605.37419
1204.4639
1443.796
1885.8021
1929.8133
1814.428
-1999.1369
-8483.4798
-13403.502
463.99287
1089.0548
1396.7866
1894.9173
2043.3842
2058.4239
-1976.6306
-8452.7614
-13256.97
317.88425
957.69426
1332.3727
1892.6139
2142.532
2291.3996
-1919.3944
-8470.2545
-13147.167
168.06479
812.52486
1248.9139
1875.8553
2234.3138
2513.6542
-1862.5857
-8516.6547
-13009.102
20.639578
655.31397
1147.5745
1845.3736
2316.6099
2710.808
-1807.9207
-8527.4952
-12863.742
-124.1691
489.35734
1029.0555
1793.4596
2382.7278
2901.6474
-1715.2109
-8509.3018
-12756.135
-262.21339
317.97278
892.84165
1726.389
2436.4787
3057.6569
-1588.8809
-8469.7735
-12582.876
-391.7954
142.88709
739.97331
1635.625
2476.0501
3171.1585
-1474.0832
-8405.9398
-12280.916
-13618.214
-8732.8626
-1763.1395
1367.0369
1704.1035
1828.5743
1508.7564
1382.4832
870.51096
-13180.452
-8268.6646
-1460.7933
1140.0136
1601.0361
1776.0261
1529.4035
1447.1795
990.76833
-12321.749
-7337.1036
-1206.9643
955.68771
1509.8213
1722.015
1540.9701
1495.2912
1100.2049
-11336.095
-6225.6421
-1068.3389
837.89516
1432.9244
1667.1641
1546.9466
1529.6927
1195.3302
-12142.293
-5016.0404
-944.39712
766.04806
1373.3719
1618.2136
1548.5953
1553.9684
1275.5544
-15094.074
-3835.4675
-747.59214
714.85146
1328.9178
1574.6449
1553.7347
1572.7657
1336.8053
-15077.256
-2833.2236
-492.65015
700.93964
1296.3712
1536.7761
1563.5926
1588.0191
1387.1479
-12476.317
-1860.89
-248.4996
714.49892
1269.2815
1501.5466
1573.2956
1599.3625
1434.4383
-10551.69
-1211.736
-143.81506
694.07936
1227.9532
1459.8101
1570.6664
1600.4769
1494.5879
1755.3981
1742.8644
1608.7989
1349.7824
956.83848
377.12896
-246.81932
-758.73428
883.78221
1707.6709
1688.7469
1552.1427
1287.3843
868.97065
229.13394
-561.08299
-1418.6343
39.560204
1666.2146
1647.5131
1514.0399
1251.5187
818.11869
132.7689
-803.09408
-2055.5237
-947.07622
1640.9177
1624.95
1493.74
1239.2938
804.87855
90.214825
-955.74467
-2619.6071
-2120.9407
1619.4005
1609.1428
1488.1307
1248.8362
823.90736
100.732
-998.85144
-3032.8952
-3554.2005
1610.5777
1599.4616
1492.7523
1277.8905
874.18583
165.29653
-913.21165
-3238.971
-5236.8641
1598.8869
1598.64
1508.0992
1319.7658
951.64038
270.88159
-734.0907
-3175.6846
-7114.8533
1597.4631
1600.0419
1528.9439
1366.7201
1046.1997
405.18036
-497.16291
-2797.2093
-8654.3538
1556.9528
1601.5386
1554.4595
1415.1262
1147.0111
558.94919
-274.71291
-2030.4608
-9607.3072
1540.9396
-151.97972
104.44586
566.55465
1079.2787
1436.0161
1682.7916
1810.3371
1821.9319
2089.0772
396.35588
460.74035
777.43326
1225.247
1540.5243
1771.474
1892.4559
1896.2108
2589.73
922.89187
832.58516
1010.8736
1389.8379
1663.8341
1873.697
1986.2796
1989.4115
3056.4977
1422.2645
1205.3078
1265.7139
1571.5698
1801.457
1991.7734
2091.9142
2089.893
3485.7782
1894.5536
1578.7883
1530.1944
1770.5637
1952.4921
2120.2247
2208.9518
2206.9
3896.1351
2341.1973
1941.5031
1801.1803
1974.7127
2113.1382
2259.4603
2335.3396
2330.3865
4283.8129
2757.2183
2296.3078
2074.2749
2184.6352
2281.6708
2405.0643
2467.3227
2465.4091
4656.6998
3146.0443
2634.2832
2344.771
2400.5504
2455.913
2556.7446
2605.0381
2604.7351
5014.2335
3509.0325
2957.125
2609.3749
2614.1433
2630.6078
2711.876
2747.7607
2752.1206
4030.931
3976.8628
4029.6284
4058.6244
4234.2433
4456.3905
4964.4143
5577.0695
6541.0997
3919.7347
3856.5958
3904.4531
3927.8913
4097.0799
4313.5237
4832.0664
5462.6329
6621.3807
3787.9739
3731.2752
3771.7166
3788.2848
3946.5437
4150.1564
4670.1541
5316.6736
6632.189
3646.0517
3600.4749
3632.3266
3640.4084
3784.0235
3969.4339
4484.7027
5139.4389
6557.2849
3498.4658
3464.5569
3487.749
3484.4193
3610.0597
3773.4282
4280.0852
4934.402
6410.888
3352.0125
3325.3734
3338.268
3322.3115
3425.6557
3563.3021
4056.1463
4701.0217
6211.6473
3201.2454
3182.073
3184.2969
3154.492
3233.2222
3342.9626
3811.0762
4445.239
5963.3662
3051.372
3037.0931
3027.9532
2982.6407
3031.8021
3109.1049
3543.1049
4158.725
5674.348
2899.9108
2892.6317
2869.6544
2808.0125
2824.2732
2863.3965
3259.456
3847.0138
5356.8283
4142.908
4256.8917
4367.4503
4473.4342
4574.1485
4669.4244
4759.3399
4843.3538
4922.3366
4092.1416
4202.0961
4307.3391
4407.3402
4502.5728
4593.2157
4679.06
4759.5286
4836.353
4148.0703
4258.3709
4361.7714
4459.4499
4553.1174
4640.592
4721.8108
4799.9146
4873.9894
4180.1346
4292.5249
4397.6216
4495.9252
4588.0125
4673.9911
4754.1
4829.1354
4899.3835
4356.208
4464.5469
4564.2987
4656.0603
4740.5974
4818.6188
4890.7124
4957.74
5020.0596
4579.0685
4686.4956
4783.3227
4869.6353
4946.8753
5016.0366
5077.6584
5133.5202
5184.4741
5070.2744
5159.7908
5236.6953
5299.8264
5352.8732
5397.8746
5435.1324
5466.7584
5493.2339
5674.6528
5779.1434
5864.4936
5921.6679
5948.1827
5962.8246
5965.6636
5954.019
5937.3158
6470.869
6601.6244
6721.8341
6834.5813
6861.2638
6832.8744
6794.2552
6738.0964
6663.2049
4995.5721
4908.9837
4941.224
4965.4373
5078.4684
5231.4338
5516.567
5921.2982
6590.0121
5064.3357
4976.3237
5005.644
5027.2585
5133.0237
5274.7672
5537.1673
5900.1545
6521.2879
5128.4758
5040.0892
5067.3352
5085.4582
5184.3422
5315.537
5555.8014
5878.3754
6443.2759
5188.4179
5101.137
5124.1546
5140.2626
5232.606
5354.0174
5574.1935
5859.7937
6369.111
5243.913
5157.7863
5178.4889
5192.2582
5278.3276
5391.1723
5592.4306
5840.9322
6302.1104
5295.5568
5210.622
5229.2613
5241.4654
5321.7037
5427.359
5609.3956
5824.2168
6229.14
5342.6384
5260.1852
5276.1155
5287.9143
5363.0611
5462.8491
5627.4976
5812.5219
6162.6509
5385.7275
5306.7675
5320.0207
5331.6239
5402.6121
5497.5207
5646.9563
5803.8715
6100.6189
5425.6694
5349.434
5361.7979
5372.8854
5440.5007
5531.3615
5668.2917
5799.147
6034.8898
5657.1338
5615.5847
5618.3741
5637.9619
5693.1951
5789.6908
5911.546
6008.163
5872.0396
5640.2967
5595.033
5598.907
5616.7329
5672.2392
5765.4796
5881.8342
5962.4091
5817.6806
5621.667
5572.6471
5577.6489
5593.0759
5649.7719
5740.3394
5852.9397
5922.0137
5781.5884
5601.3328
5548.2283
5554.1268
5568.1217
5625.8749
5714.1584
5824.7563
5887.2445
5769.6377
5578.8916
5521.4401
5528.3689
5541.6103
5600.4329
5686.8424
5796.8474
5858.4597
5784.9694
5553.982
5492.444
5500.1244
5512.644
5572.865
5658.2328
5769.4229
5835.5042
5821.3164
5526.314
5461.1243
5469.5896
5481.231
5542.8914
5628.0664
5742.6063
5818.7512
5866.2878
5495.6496
5426.9876
5435.889
5447.5258
5510.8251
5596.7602
5716.6073
5807.3558
5920.7203
5462.2582
5389.7822
5400.1108
5411.3436
5476.5924
5564.4176
5691.7242
5800.4369
5976.7131
5931.5315
6060.7308
5942.5142
5814.0368
5713.18
5656.6216
5636.182
5634.2337
5671.822
6009.6677
6119.3527
5972.6437
5837.1276
5731.4758
5674.498
5652.458
5651.0213
5683.2143
6097.5778
6178.9342
6000.2252
5857.5151
5747.2751
5689.8703
5667.1248
5666.0834
5693.1156
6191.5535
6236.0408
6024.1058
5874.386
5760.292
5702.6787
5680.4111
5679.1317
5701.5341
6288.5281
6287.9263
6042.8042
5887.2639
5770.2994
5714.1633
5692.0714
5690.4513
5708.554
6384.6813
6334.0459
6055.8005
5896.3623
5777.1748
5723.4895
5702.1691
5700.3802
5714.4751
6479.0003
6374.9387
6063.4341
5902.2498
5781.6586
5731.1879
5710.9311
5709.2089
5719.1875
6570.7106
6412.2847
6068.853
5907.3823
5786.1817
5738.8633
5719.0088
5716.6744
5722.7696
6661.5226
6450.4882
6079.6328
5916.4304
5794.6612
5748.4254
5727.3883
5722.7902
5724.731
6765.9706
6496.7004
6109.1327
5938.6935
5815.693
5764.4742
5739.0731
5729.3587
5725.6798
6884.2673
6544.6535
6145.9246
5966.3411
5842.3606
5784.8036
5754.6783
5739.8775
5730.2586
6994.3409
6587.6003
6179.8961
5993.7458
5868.5884
5806.0317
5771.3408
5751.7425
5737.5293
7091.2624
6623.1827
6208.2443
6019.6933
5893.5284
5827.5431
5788.8669
5764.9677
5747.2075
7169.2249
6647.5461
6228.7717
6042.5136
5916.5016
5848.411
5806.7389
5779.2939
5758.9675
7225.7795
6656.6536
6241.3287
6061.2371
5937.3889
5868.5065
5824.6472
5794.3507
5772.4042
7222.029
6645.4401
6245.5871
6075.0441
5955.2652
5886.7934
5841.7794
5809.691
5787.0302
7094.5637
6614.891
6245.465
6083.8878
5969.5514
5902.5554
5857.6304
5824.8185
5802.1971
6901.6826
6562.8377
6243.2108
6088.6666
5980.1273
5915.2308
5871.3115
5839.3519
5817.2577
5816.6722
5824.7965
5843.1677
5871.8507
5914.3072
5970.3877
6047.0132
6151.0488
6302.9323
5836.7033
5844.3906
5862.341
5892.0203
5936.3178
5999.0306
6085.7397
6204.6701
6372.134
5851.6319
5858.9538
5877.197
5907.9405
5954.8435
6022.0588
6113.9117
6239.9738
6406.3344
5860.7883
5868.867
5887.4456
5919.6594
5969.311
6042.3516
6140.5017
6281.7481
6460.0882
5864.6065
5873.8221
5893.6888
5927.2445
5980.2097
6059.8901
6166.4118
6326.0317
6513.1091
5862.6982
5874.165
5896.2654
5931.2596
5987.4048
6073.654
6191.3764
6370.4857
6571.6655
5855.6718
5870.3718
5894.9769
5932.0337
5991.1325
6082.9183
6211.983
6414.9274
6630.9721
5844.9615
5862.8343
5890.128
5929.7647
5991.1795
6087.9959
6227.1073
6460.2125
6696.6215
5831.7469
5852.2931
5882.1338
5924.2041
5987.2511
6089.4556
6236.5048
6506.8391
6776.5304
6528.9703
6588.329
6643.9274
6718.6197
6802.3636
6904.3005
7052.4845
7266.919
7566.3761
6564.8839
6619.7306
6680.9285
6759.2852
6847.2525
6953.9483
7108.8416
7328.5134
7628.4454
6599.3628
6651.1517
6712.9846
6793.3979
6889.261
7005.6485
7169.6062
7400.6528
7710.8835
6633.3201
6683.858
6745.9557
6826.6786
6926.7098
7052.4771
7226.5076
7474.5905
7802.801
6666.3953
6714.9514
6775.9099
6856.5531
6958.3599
7090.6399
7270.9502
7541.3226
7887.2182
6686.7549
6732.6536
6792.319
6869.2414
6967.6716
7102.4176
7283.7681
7588.788
7954.0109
6678.9011
6719.462
6775.9933
6851.3988
6946.2273
7071.9974
7234.2292
7600.7657
7977.7509
6628.0972
6660.9914
6703.7686
6761.3363
6841.3417
6966.2933
7084.6961
7523.7939
7904.6737
6496.9285
6522.8518
6549.4434
6587.0903
6633.945
6757.719
6803.106
7335.3107
7549.7675
2169.8614
4890.4834
4870.266
5618.0378
5831.8212
6006.9071
6118.3019
6170.6088
6172.3095
4226.7728
4353.8299
4306.009
4710.0004
4772.6876
5033.5755
5168.8829
5307.5009
5415.6351
4714.47
4729.7894
4619.9192
4741.7953
4678.7461
4814.8287
4826.4802
4938.1436
5000.4071
4692.5673
4752.0041
4700.9362
4794.5543
4716.9632
4810.7886
4750.0964
4837.538
4791.6031
4653.3651
4686.5832
4648.6504
4743.1145
4677.8121
4770.3984
4697.5318
4782.2434
4714.7335
4628.467
4648.5118
4611.3259
4683.7994
4619.9593
4708.879
4635.0692
4713.697
4644.7432
4621.4864
4634.4457
4608.1522
4655.9815
4599.6231
4667.8265
4604.0257
4668.7066
4609.3845
4630.4746
4638.2257
4627.373
4651.8013
4624.0021
4662.1874
4624.4235
4669.7336
4627.6277
4647.1095
4648.7117
4645.8863
4658.4938
4658.2292
4679.783
4664.1787
4701.7026
4681.055
4740.5568
4758.0393
4686.0784
4573.0038
4424.0211
4206.6582
3939.5094
3665.3628
3473.1991
4727.1949
4748.3756
4680.4803
4567.0967
4414.8224
4196.6336
3916.8173
3622.2893
3399.6541
4704.0146
4721.1887
4658.0186
4544.748
4389.4624
4169.0414
3879.0734
3557.5986
3295.7903
4697.3818
4706.001
4646.9162
4531.7367
4375.2366
4148.9224
3847.2646
3493.6608
3171.1825
4677.7724
4687.133
4632.9013
4520.133
4361.4664
4133.9394
3819.7847
3430.0961
3037.3581
4679.0067
4680.1189
4631.1711
4514.4955
4358.7706
4127.3681
3803.1277
3378.139
2911.9372
4661.9904
4665.6165
4617.9527
4511.3252
4348.4985
4127.0686
3790.3694
3346.5265
2817.2877
4666.0028
4661.1274
4621.0068
4510.4628
4354.6324
4125.6792
3792.8114
3311.612
2815.8783
4654.8464
4660.5625
4622.4815
4521.071
4366.5907
4152.5012
3809.0603
3344.2354
2687.0347
3493.4267
3683.3618
4030.5003
4346.7279
4570.9334
4749.2466
4927.4803
5109.8161
5282.4167
3381.5117
3578.5701
3980.8032
4322.6093
4554.0066
4735.7769
4916.6796
5102.0816
5279.8311
3242.9042
3474.1467
3946.7705
4308.9054
4539.2932
4724.5465
4909.8759
5096.1782
5276.1464
3076.962
3370.1248
3913.2845
4288.0716
4519.3137
4713.9793
4907.9261
5097.56
5281.5154
2867.7124
3271.384
3881.3671
4259.9221
4487.8459
4688.5697
4887.5933
5081.4227
5268.4585
2568.5219
3192.0566
3889.4477
4265.3577
4493.7818
4699.882
4901.9011
5095.1389
5281.5122
2147.3547
3048.6641
3835.8188
4208.4105
4448.2602
4665.4226
4876.544
5076.187
5266.5834
1673.6622
3065.0301
3880.0097
4216.452
4458.857
4679.4285
4889.1155
5086.2066
5276.4744
821.73361
2939.0566
3855.0399
4185.2613
4440.9262
4668.1361
4880.7768
5079.7843
5269.985
5455.4598
5614.5551
5771.1275
5932.3176
6100.3126
6276.381
6471.8993
6652.176
6838.8873
5454.8371
5616.6519
5774.823
5937.3448
6105.0779
6282.5924
6477.8019
6661.2013
6849.5959
5451.8681
5617.2112
5777.894
5942.268
6109.6191
6288.4323
6481.8348
6670.3774
6860.6051
5457.8045
5623.922
5784.4954
5950.2161
6118.4708
6298.2454
6488.4011
6678.9617
6870.4096
5448.0751
5617.6012
5781.8373
5946.9568
6116.0995
6298.3594
6490.7371
6682.6604
6876.9834
5460.1098
5629.6679
5793.3787
5959.691
6126.2234
6305.8074
6496.9814
6690.5027
6885.8661
5448.6175
5619.5235
5786.0145
5954.5242
6122.0151
6303.3321
6493.8035
6688.9082
6885.2018
5456.675
5627.9368
5794.5205
5962.1367
6126.8084
6306.1791
6497.0039
6692.7631
6890.666
5453.0663
5622.7181
5791.5285
5961.0794
6125.9478
6306.0193
6496.228
6692.4044
6890.6146
7029.0945
7226.3434
7442.4293
7673.9321
7920.9479
8184.7948
8440.1917
8713.6782
8836.0921
7043.5717
7244.4807
7462.5884
7700.4854
7956.3176
8227.2084
8496.6987
8782.4188
8929.6119
7057.0278
7262.7221
7483.5012
7725.1936
7989.3972
8267.5692
8550.1132
8850.3746
9025.4857
7069.1417
7276.5297
7501.3517
7747.7986
8018.6067
8302.3187
8598.1687
8911.9102
9119.1329
7078.7883
7288.2229
7514.3093
7765.9309
8044.2983
8333.1309
8641.8976
8967.0203
9209.8407
7088.3409
7300.801
7528.5049
7781.6626
8066.2549
8361.9151
8683.9665
9016.9832
9291.9448
7090.5751
7302.4063
7534.1603
7789.0942
8079.0798
8379.8914
8716.7247
9055.7722
9362.7206
7096.4645
7310.8365
7541.8924
7798.2762
8092.3766
8397.5717
8743.1106
9088.363
9443.5852
7096.2893
7310.4376
7543.9406
7800.5538
8096.2055
8401.83
8757.6099
9103.6547
9452.76
9089.59
8466.5841
8076.5146
7745.8809
7392.2368
7044.7137
6699.1131
6361.9122
6030.6967
9198.9541
8541.8424
8154.485
7818.4402
7457.1664
7102.9062
6751.8346
6412.7785
6077.9062
9280.4649
8606.583
8227.6306
7884.5135
7518.0619
7158.1738
6804.7373
6465.0782
6126.7058
9359.4322
8667.9855
8299.6797
7948.4086
7578.0993
7211.184
6854.5427
6511.0773
6169.8705
9442.5811
8728.3174
8368.3643
8012.2831
7640.4456
7274.2496
6912.7692
6565.8546
6220.2955
9528.0149
8790.3529
8430.6186
8060.5798
7688.1832
7313.2124
6953.9439
6603.3456
6256.4394
9608.8451
8862.1171
8503.4957
8133.2386
7757.8695
7382.9025
7016.4109
6666.4785
6317.1661
9677.2276
8896.1497
8538.9508
8160.0139
7787.5242
7406.2037
7042.6275
6686.2242
6334.6691
9800.3819
9009.6396
8623.3289
8242.4583
7868.3282
7486.4776
7121.308
6764.192
6411.8377
5700.9996
5379.0127
5045.5648
4714.2748
4366.1312
4013.3872
3642.7779
3259.5624
2864.0893
5746.4621
5419.1027
5086.6219
4751.9048
4406.2833
4050.8157
3682.51
3298.5006
2902.1548
5794.4009
5462.8678
5131.8185
4794.8989
4451.7943
4096.8328
3730.6079
3348.1501
2954.4068
5838.2783
5503.1995
5174.4836
4833.6121
4494.1715
4137.1084
3773.9167
3391.4289
2999.6639
5887.0806
5550.9347
5220.0445
4881.1692
4540.2494
4185.779
3822.1535
3442.8554
3051.7231
5922.5793
5581.8972
5254.1756
4909.8652
4574.2316
4216.5534
3856.2516
3477.5066
3087.8795
5983.1894
5642.6212
5313.5056
4971.2623
4633.3038
4280.084
3917.4603
3544.3466
3152.0569
5999.6668
5655.9321
5328.6153
4983.2159
4648.6655
4293.3782
3933.0217
3560.75
3169.4939
6074.9189
5731.4195
5402.8487
5058.8065
4723.6938
4372.0822
4010.9893
3645.1737
3250.5502
2403.609
1865.1527
1282.192
653.48604
-27.907978
-744.56776
-1499.5162
-2319.7978
-3446.6716
2442.0207
1924.4027
1346.4239
746.20151
74.018758
-592.34784
-1318.522
-2084.3605
-3143.6524
2499.5182
1999.0293
1433.6144
853.99459
199.87071
-447.59898
-1156.7376
-1932.5396
-2906.9662
2551.6579
2067.6397
1519.2369
955.17071
324.72979
-315.99992
-979.56235
-1695.9022
-2577.139
2609.3495
2136.3999
1608.4763
1053.7903
448.79927
-188.03027
-795.92322
-1445.0218
-2089.0642
2656.4707
2195.8693
1691.182
1146.7844
561.47057
-68.326598
-657.45718
-1187.1147
-1599.768
2729.9851
2275.2716
1802.8662
1270.9267
714.55575
79.997403
-479.84195
-1112.949
-324.33708
2759.1245
2312.2574
1853.2936
1336.9482
783.03285
162.72385
-508.18928
-948.79238
-1166.3334
2854.2407
2425.659
2003.6731
1515.3843
1014.2044
431.21722
-172.63719
-1400.1094
2435.9069
-5521.4775
-7228.6321
-7665.5483
-7598.2026
-7838.2903
-8260.1024
-7732.0795
-7570.2371
-7507.885
-5347.3715
-7257.6146
-7561.9202
-7508.8743
-7720.0894
-7962.9939
-7700.2957
-7535.0037
-7451.9225
-5291.5804
-7396.3437
-7451.7293
-7496.895
-7806.5443
-7987.5983
-7669.0937
-7492.212
-7394.2152
-5402.6134
-7566.3599
-7347.1536
-7506.1079
-7717.0448
-7814.1396
-7628.2321
-7445.4511
-7331.8456
-5636.1973
-7627.3067
-7116.2999
-7524.5649
-7788.3922
-7803.5156
-7576.7743
-7403.1348
-7267.1637
-5485.9175
-7429.8936
-7080.3572
-7596.6966
-7732.7061
-7735.8709
-7518.7307
-7364.1314
-7206.904
-4617.9571
-7072.6904
-7240.4385
-7614.407
-7747.1061
-7688.259
-7464.8213
-7328.149
-7149.4994
-5078.1123
-8029.7113
-7204.0961
-7682.592
-7745.6734
-7649.3625
-7424.8654
-7297.5578
-7107.9368
-14095.533
-6174.7601
-7512.3981
-7705.394
-7710.9836
-7594.2166
-7381.624
-7273.1076
-7080.1302
-7518.0707
-7638.9264
-7851.7387
-8323.8025
-9136.7944
-10215.419
-11553.034
-14960.967
-14378.187
-7444.2982
-7544.2401
-7733.3657
-8222.4784
-9103.7596
-10262.944
-11711.509
-15202.365
-14279.966
-7398.4774
-7485.2893
-7693.4821
-8244.0448
-9190.3422
-10558.682
-12280.604
-14920.751
-14330.57
-7344.1173
-7430.6763
-7663.8038
-8273.9894
-9319.5556
-10833.156
-12782.814
-15165.944
-14065.195
-7281.1867
-7373.2372
-7626.6669
-8307.103
-9433.305
-11060.951
-13101.697
-14977.152
-13549.106
-7220.5278
-7323.1686
-7596.7778
-8342.8593
-9544.9126
-11255.859
-13198.685
-14371.563
-12864.897
-7170.3193
-7284.6995
-7583.4461
-8393.114
-9676.3736
-11448.949
-13179.895
-13906.176
-12126.556
-7135.1614