/*--------------------------------*- C++ -*----------------------------------*\
  =========                 |
  \\      /  F ield         | OpenFOAM: The Open Source CFD Toolbox
   \\    /   O peration     | Website:  https://openfoam.org
    \\  /    A nd           | Version:  11
     \\/     M anipulation  |
\*---------------------------------------------------------------------------*/
FoamFile
{
    format      ascii;
    class       volVectorField;
    location    "0.1";
    object      U;
}
// * * * * * * * * * * * * * * * * * * * * * * * * * * * * * * * * * * * * * //

dimensions      [0 1 -1 0 0 0 0];

internalField   nonuniform List<vector> 
5472
(
(10.272678 2.5131198 1.573874e-18)
(10.482785 2.5354727 -1.6388529e-18)
(10.691237 2.4776793 -1.6462636e-18)
(10.898056 2.4236401 -1.6688059e-18)
(11.095674 2.4012129 5.1695994e-18)
(11.277114 2.3394026 -3.6580532e-20)
(11.437818 2.2121144 -2.7196049e-18)
(11.615496 2.1127943 9.4861759e-19)
(11.805114 2.021733 0)
(11.963082 1.8947211 0)
(12.091728 1.7159373 0)
(12.211782 1.5539905 -2.9066725e-18)
(12.336871 1.4068604 1.4902452e-18)
(12.46907 1.2440231 -2.5524013e-20)
(12.559845 1.045534 9.9652523e-19)
(12.648995 0.83416883 -5.135388e-19)
(12.715103 0.61067638 -7.6575546e-19)
(12.778315 0.39589156 2.641913e-19)
(12.818487 0.16982991 0)
(10.267019 2.2979324 -1.4417991e-18)
(10.465639 2.3112791 2.971857e-18)
(10.648842 2.2654738 -1.5318325e-18)
(10.828837 2.2324268 -1.5320171e-18)
(11.01833 2.2092035 2.6770089e-20)
(11.190894 2.1362169 0)
(11.349538 2.0303881 1.6306376e-18)
(11.52966 1.9566394 -3.313091e-18)
(11.714798 1.8726277 4.2707991e-18)
(11.862339 1.746829 8.7103177e-19)
(11.978344 1.5833224 0)
(12.108217 1.4479527 1.8028811e-18)
(12.241667 1.303008 0)
(12.369717 1.1419964 4.5071693e-19)
(12.45151 0.9499262 -4.6687446e-19)
(12.534978 0.75876517 0)
(12.605859 0.55720037 0)
(12.665331 0.36186641 -2.3221923e-19)
(12.708042 0.16454415 0)
(10.258903 2.1317413 0)
(10.439939 2.1507291 1.3564644e-18)
(10.601231 2.1082181 1.387406e-18)
(10.771074 2.0892647 0)
(10.947529 2.0895847 -2.0672711e-20)
(11.100321 2.0342691 -2.7050308e-20)
(11.252511 1.9508234 -1.5107242e-18)
(11.435385 1.8959903 0)
(11.612468 1.8133217 -1.5342199e-18)
(11.747681 1.6983077 -3.9287628e-18)
(11.858739 1.5506441 1.2671202e-20)
(11.986109 1.4272971 -7.9117126e-19)
(12.118057 1.2955636 -8.1478789e-19)
(12.238875 1.1390843 1.670822e-18)
(12.327804 0.94999595 1.2559709e-18)
(12.427506 0.7743112 4.2349636e-19)
(12.500316 0.57288948 2.1094667e-19)
(12.563526 0.39651707 -3.1872164e-19)
(12.588485 0.18798955 1.0617905e-19)
(10.243327 1.9554015 0)
(10.409364 1.9580018 -1.2243214e-18)
(10.559155 1.9281368 -1.2509029e-18)
(10.715048 1.9356667 2.54049e-18)
(10.87994 1.9304679 -1.3386613e-18)
(11.023865 1.8680014 0)
(11.177327 1.7940827 -1.3685551e-18)
(11.356111 1.7573027 1.3698259e-18)
(11.518381 1.6868282 -1.4184204e-18)
(11.639351 1.5662296 -2.2216866e-20)
(11.764212 1.4315854 -1.4642989e-18)
(11.898716 1.3199886 0)
(12.034514 1.1875865 0)
(12.149161 1.0327935 -7.4365009e-19)
(12.24735 0.85117489 -7.4966961e-19)
(12.333919 0.68512514 0)
(12.398219 0.49032862 -1.9055473e-19)
(12.455343 0.32508434 9.6627189e-20)
(12.474943 0.11726343 1.9228584e-19)
(10.244528 1.7916175 0)
(10.384906 1.807551 0)
(10.509304 1.7942915 0)
(10.648239 1.8140657 -2.3058842e-18)
(10.792141 1.8083282 1.2009318e-18)
(10.926028 1.7559707 -3.618583e-18)
(11.079434 1.7125704 4.9373112e-18)
(11.260306 1.6893923 -2.5077841e-18)
(11.423957 1.6208031 2.8918698e-21)
(11.544551 1.5155839 1.2857283e-18)
(11.659433 1.408484 1.3053948e-18)
(11.784934 1.3136398 -2.6611881e-18)
(11.907848 1.1897168 2.02237e-18)
(12.01959 1.0395764 -6.8270453e-19)
(12.123161 0.87089493 0)
(12.21134 0.71464576 6.924696e-19)
(12.282767 0.52975524 -3.4756895e-19)
(12.332265 0.37406603 1.7238988e-19)
(12.359337 0.16989507 -1.7128176e-19)
(10.240937 1.6332059 0)
(10.36297 1.6399694 -4.0210308e-18)
(10.472074 1.6417323 2.0744816e-18)
(10.609474 1.674506 2.1102775e-18)
(10.749846 1.6638836 1.0686107e-18)
(10.874899 1.6110192 -1.0838172e-18)
(11.02781 1.5739952 2.2503588e-18)
(11.194021 1.5544118 1.1244286e-18)
(11.323419 1.4864577 2.2856575e-18)
(11.429845 1.3874516 -2.3424528e-18)
(11.555977 1.2927537 1.8318524e-20)
(11.698385 1.2017837 2.4021344e-18)
(11.829824 1.0765737 0)
(11.945988 0.9285485 -6.1590925e-19)
(12.045214 0.76715798 6.124239e-19)
(12.132863 0.62244522 -1.5432841e-18)
(12.195592 0.44808089 6.1934173e-19)
(12.239998 0.30026588 -1.5514117e-19)
(12.2641 0.11403053 4.094646e-22)
(10.222176 1.4920015 3.5761374e-18)
(10.327206 1.5029278 3.6376537e-18)
(10.427416 1.5163488 0)
(10.556028 1.5545716 -6.2410001e-21)
(10.687168 1.5493086 -3.878278e-18)
(10.808971 1.507807 3.9794461e-18)
(10.956966 1.4927241 0)
(11.107486 1.4840174 -1.0276336e-18)
(11.223684 1.4195464 -4.1429286e-18)
(11.32565 1.3298881 2.1266308e-18)
(11.447685 1.253876 1.0618137e-18)
(11.575532 1.1683067 -1.0892615e-18)
(11.692255 1.0506702 0)
(11.803237 0.91685122 5.4569662e-19)
(11.902805 0.77289814 0)
(11.987721 0.63430148 -5.5345693e-19)
(12.047979 0.472107 8.3739221e-19)
(12.086538 0.32781115 1.2354966e-21)
(12.107536 0.14954046 -1.0783379e-21)
(10.226322 1.3537611 1.6029332e-18)
(10.309509 1.3662905 -3.2772061e-18)
(10.399311 1.3852854 -3.3302725e-18)
(10.519782 1.4192854 3.4286095e-18)
(10.635597 1.4067105 -1.7576423e-18)
(10.746567 1.3803052 -1.7749934e-18)
(10.888734 1.3830724 0)
(11.028833 1.3723143 2.7445873e-18)
(11.137904 1.30621 -1.3383212e-20)
(11.244674 1.228695 -2.8416437e-18)
(11.377129 1.1625712 2.9036285e-18)
(11.513211 1.080078 0)
(11.630858 0.96046155 0)
(11.740212 0.83283454 9.8216512e-19)
(11.838476 0.69949441 -5.0455528e-19)
(11.918577 0.57150895 -9.9719965e-19)
(11.97284 0.42245514 2.5244921e-19)
(12.005318 0.28719503 2.5453602e-19)
(12.023647 0.12601831 6.1821485e-20)
(10.209363 1.2297426 -1.4384974e-18)
(10.288763 1.2469356 4.4029314e-18)
(10.378402 1.2750581 -4.5363796e-18)
(10.492663 1.3058524 3.0748828e-18)
(10.598842 1.2870471 0)
(10.703628 1.265169 1.5901309e-18)
(10.834363 1.2788048 -1.6394572e-18)
(10.95382 1.2753475 0)
(11.046818 1.2201696 8.3443725e-19)
(11.150706 1.1604807 -1.7246983e-18)
(11.281619 1.1075365 -8.5677941e-19)
(11.410723 1.0228622 -1.0030818e-20)
(11.521658 0.91348939 -2.6401922e-18)
(11.624045 0.79955106 4.5489172e-19)
(11.716676 0.68056128 -4.3786561e-19)
(11.792301 0.5598326 8.9579797e-19)
(11.841234 0.42306866 -4.4548863e-19)
(11.873842 0.29099212 2.2842798e-19)
(11.895831 0.14055416 2.2320886e-19)
(10.197046 1.1101727 -2.5956005e-18)
(10.261284 1.129627 0)
(10.345632 1.1638715 1.3488054e-18)
(10.453119 1.1954319 -4.1220876e-18)
(10.54842 1.1821614 1.4190058e-18)
(10.646786 1.1750177 -1.4394482e-18)
(10.767719 1.1954175 1.4496694e-18)
(10.875485 1.1813756 -1.4912445e-18)
(10.966954 1.1236992 0)
(11.077649 1.0722515 7.590265e-19)
(11.213107 1.0212485 0)
(11.338513 0.93994176 7.7365843e-19)
(11.442912 0.83926124 -7.2484621e-22)
(11.538377 0.73851691 -3.9265186e-19)
(11.627442 0.63216685 3.9410514e-19)
(11.693008 0.52189405 3.96486e-19)
(11.739345 0.39403317 -2.5358129e-21)
(11.767908 0.27186706 -5.9820103e-19)
(11.790422 0.1299754 0)
(10.199641 1.0000631 0)
(10.262281 1.0169148 1.1852036e-18)
(10.346323 1.0484558 0)
(10.442419 1.0711276 1.2221296e-18)
(10.523017 1.0601262 -3.7831149e-18)
(10.612266 1.0690515 3.8614304e-18)
(10.719377 1.0986099 -1.2861244e-18)
(10.811323 1.0869637 3.9950172e-18)
(10.897189 1.0391969 0)
(11.009725 1.0015498 6.840784e-19)
(11.141608 0.9538276 0)
(11.258535 0.87563332 -1.3818579e-18)
(11.352642 0.78608312 2.8014167e-18)
(11.442396 0.69733174 -8.1116367e-21)
(11.521551 0.60276652 -3.555312e-19)
(11.583365 0.49928295 0)
(11.627097 0.38211295 0)
(11.658 0.2632144 0)
(11.680819 0.13320642 -4.4481763e-20)
(10.177951 0.90832686 4.1290915e-18)
(10.236729 0.92856388 -5.3069632e-18)
(10.319108 0.96138773 2.1536154e-18)
(10.405992 0.97928026 -9.1348925e-21)
(10.475621 0.96987278 0)
(10.558855 0.98724333 -2.278993e-18)
(10.657436 1.014066 1.1803204e-18)
(10.742342 0.9946697 -1.1778684e-18)
(10.832858 0.9515333 0)
(10.951013 0.92057045 -6.0442303e-19)
(11.079029 0.87445929 1.2193729e-18)
(11.183998 0.8042742 -1.2893919e-20)
(11.269826 0.72810456 -1.2530104e-18)
(11.350763 0.65136974 -2.5002032e-18)
(11.423191 0.56824805 2.2028011e-18)
(11.480631 0.47145748 -1.2612774e-18)
(11.523294 0.36382179 7.9210655e-19)
(11.56028 0.24508556 1.5874887e-19)
(11.585391 0.11995449 3.9040412e-20)
(10.191241 0.8034415 -6.4717663e-18)
(10.246915 0.8236258 3.7905653e-18)
(10.321085 0.85760993 0)
(10.391987 0.87434224 -4.9043423e-18)
(10.448726 0.87334842 4.0282205e-18)
(10.524002 0.90259931 1.0224413e-18)
(10.611568 0.9273308 3.1025067e-18)
(10.689851 0.90524688 -2.1146403e-18)
(10.782777 0.87011731 -2.6585482e-18)
(10.901163 0.84478286 1.6289512e-18)
(11.017871 0.80177294 2.1683577e-18)
(11.108414 0.74116177 -3.3032684e-18)
(11.184349 0.67804976 2.2142777e-18)
(11.258522 0.61305715 -5.647736e-19)
(11.324413 0.53710941 2.7543611e-19)
(11.380279 0.44765872 -4.0389371e-21)
(11.422743 0.34742804 -7.0102985e-19)
(11.453285 0.24899072 -1.3918266e-19)
(11.473803 0.13744221 -3.5015212e-20)
(10.176283 0.72936871 2.4810598e-18)
(10.23247 0.74639084 3.3562414e-18)
(10.300675 0.7771946 -3.4455465e-18)
(10.360267 0.78829718 8.7685007e-19)
(10.409495 0.7927598 -2.6608445e-18)
(10.481438 0.82700806 2.738703e-18)
(10.563262 0.8438751 9.1601298e-19)
(10.640438 0.81816238 -4.6770737e-18)
(10.73792 0.78994575 3.3109654e-18)
(10.852807 0.76939875 -1.447801e-18)
(10.956492 0.73014749 0)
(11.034036 0.68132375 -4.8906101e-19)
(11.102912 0.62947527 -1.4690793e-18)
(11.170655 0.57469742 5.0373065e-19)
(11.232164 0.50605242 1.4873544e-18)
(11.290135 0.41781311 4.9326297e-19)
(11.342762 0.31328322 -9.9032189e-19)
(11.384452 0.19846358 2.4920383e-19)
(11.409184 0.079124416 2.7732788e-19)
(10.188749 0.64466927 -3.6607628e-18)
(10.237526 0.66512962 3.0017543e-18)
(10.291889 0.69656377 0)
(10.336988 0.70612791 -7.772506e-19)
(10.379031 0.71749327 3.1588606e-18)
(10.447437 0.75322994 -6.4392196e-18)
(10.525094 0.76093297 8.4362467e-19)
(10.602602 0.73393444 3.3349796e-18)
(10.701192 0.71434375 2.5226822e-18)
(10.805576 0.69710555 -4.2501451e-19)
(10.893948 0.66594922 0)
(10.959255 0.62644158 2.1464232e-18)
(11.02424 0.58569101 -8.7544939e-19)
(11.087194 0.53545289 8.715044e-19)
(11.141604 0.47796749 -1.3144339e-18)
(11.187596 0.4116299 -2.1951956e-19)
(11.223273 0.33674177 0)
(11.254442 0.25688148 0)
(11.281004 0.16135897 -2.7366335e-20)
(10.181571 0.57920073 6.3022969e-19)
(10.226319 0.59889125 -5.9942473e-18)
(10.27068 0.62673967 2.7031973e-18)
(10.306845 0.63407425 -3.4583603e-18)
(10.34641 0.65079286 -7.0126258e-19)
(10.413594 0.68376122 0)
(10.489174 0.68012622 -3.6057672e-18)
(10.569414 0.65486963 2.212446e-18)
(10.667844 0.63982056 -7.4360096e-19)
(10.759846 0.62872744 -1.9786914e-21)
(10.834574 0.60417137 0)
(10.889895 0.57878129 0)
(10.950116 0.54185747 -3.8144867e-19)
(11.014215 0.49171077 -3.8263601e-19)
(11.082372 0.41700855 1.917296e-19)
(11.147948 0.3262753 1.1522079e-18)
(11.203853 0.22693391 -7.7139487e-19)
(11.235615 0.12051332 9.697423e-20)
(11.252808 0.018186402 2.3907604e-20)
(10.182891 0.51623832 4.0388161e-18)
(10.21701 0.53940016 -4.1349556e-18)
(10.250436 0.56262678 0)
(10.279258 0.56892137 6.1057021e-19)
(10.319422 0.59028181 0)
(10.386883 0.61557475 6.3103588e-19)
(10.458177 0.60425047 6.4035449e-19)
(10.537342 0.5810383 0)
(10.627073 0.57442295 3.2620465e-18)
(10.708354 0.5638108 -2.3248227e-18)
(10.773161 0.54608338 1.6613662e-18)
(10.825931 0.52896909 -1.3469809e-18)
(10.87168 0.51193931 1.3461381e-18)
(10.913593 0.49189076 -7.5054011e-21)
(10.95219 0.45868083 -1.3672951e-18)
(10.995172 0.41335186 -1.6940385e-19)
(11.031881 0.35335411 -1.7060417e-19)
(11.076058 0.28165933 -8.4637567e-20)
(11.112159 0.19993849 0)
(10.172352 0.46396119 4.6168607e-18)
(10.198181 0.48884928 0)
(10.223774 0.50556483 0)
(10.249528 0.51118131 5.4062868e-19)
(10.294046 0.53522172 0)
(10.36436 0.54787217 -5.5566328e-19)
(10.439424 0.53169143 -5.6320911e-19)
(10.512423 0.51603614 -2.2766579e-18)
(10.588552 0.51618611 2.3166424e-18)
(10.654754 0.51248 0)
(10.710773 0.49021907 -2.6267566e-18)
(10.779111 0.45954367 2.0706328e-18)
(10.856277 0.41207018 1.1758789e-18)
(10.927837 0.35235047 -2.3672675e-18)
(10.992768 0.27909394 2.3698937e-18)
(11.045696 0.19708536 -1.7803127e-18)
(11.083662 0.11387599 5.9317735e-19)
(11.101342 0.023769496 0)
(11.105138 -0.058796772 0)
(10.160195 0.41721438 7.2509873e-18)
(10.179558 0.44392817 -3.695634e-18)
(10.200274 0.45590885 3.7464037e-18)
(10.224306 0.46069471 -4.2987214e-18)
(10.265364 0.48337457 -3.8604182e-18)
(10.341052 0.48366117 3.9339813e-18)
(10.414744 0.45390086 1.9812853e-18)
(10.488745 0.44655545 -1.2281584e-20)
(10.551971 0.45412207 -2.0355334e-18)
(10.590137 0.46501083 0)
(10.62164 0.48078461 0)
(10.650249 0.4937487 2.5881123e-19)
(10.689239 0.49795171 0)
(10.731193 0.4916776 1.0512711e-18)
(10.778569 0.47167791 -1.0602967e-18)
(10.83038 0.4394646 -5.2823809e-19)
(10.881666 0.38948337 6.6169553e-19)
(10.943091 0.32738817 -3.2917238e-19)
(10.992736 0.25559029 2.6317998e-19)
(10.143606 0.36806912 0)
(10.160866 0.39777584 0)
(10.178483 0.41246415 3.3051359e-18)
(10.201484 0.41787166 -3.3674375e-18)
(10.246605 0.43492374 3.8267356e-18)
(10.314782 0.42698588 -3.8944032e-18)
(10.383806 0.3949028 0)
(10.457361 0.38031663 4.4258987e-19)
(10.534284 0.37581842 1.770164e-18)
(10.603842 0.35770542 -1.7958306e-18)
(10.675452 0.32604882 1.7888663e-18)
(10.748762 0.28547984 -1.5520823e-20)
(10.820387 0.23246449 -3.6144609e-18)
(10.879946 0.17206526 1.8169473e-18)
(10.922863 0.10422436 0)
(10.946919 0.037033491 -9.0685303e-19)
(10.953927 -0.030138145 1.4232987e-18)
(10.945108 -0.094666226 -6.2640709e-19)
(10.932032 -0.15685703 2.2743349e-19)
(10.12752 0.30508011 1.0955225e-17)
(10.139545 0.349163 -5.7533692e-18)
(10.155661 0.36368766 0)
(10.180585 0.38524521 -3.6987674e-19)
(10.236428 0.38884554 -3.7418772e-19)
(10.2939 0.36871879 3.7896435e-19)
(10.339366 0.35888827 0)
(10.371186 0.37695863 -3.8729432e-19)
(10.387764 0.41029728 3.1371894e-18)
(10.40033 0.44493996 -3.179527e-18)
(10.426831 0.47762577 0)
(10.465466 0.50580881 0)
(10.522389 0.52331683 2.0010481e-19)
(10.588365 0.52983626 1.003767e-19)
(10.665099 0.52067625 -1.0060581e-19)
(10.742669 0.49764927 0)
(10.818075 0.45497735 -4.5410776e-19)
(10.891879 0.40471057 4.0528163e-19)
(10.948563 0.33841515 0)
(10.110284 0.21927115 -9.9670767e-18)
(10.117126 0.28693356 1.0439098e-17)
(10.130698 0.31535075 -1.6813739e-20)
(10.157526 0.33986812 -4.885979e-18)
(10.212053 0.34371218 0)
(10.295882 0.29331599 2.6459547e-18)
(10.383624 0.24199594 -5.5256989e-18)
(10.470644 0.21655809 2.707419e-18)
(10.550859 0.19583369 0)
(10.624716 0.16190779 -2.7150922e-18)
(10.695908 0.11259321 2.7463706e-18)
(10.751526 0.055814838 1.3679962e-18)
(10.788811 -0.0046761298 -1.3801375e-18)
(10.802295 -0.062507259 1.2028964e-18)
(10.79903 -0.1161231 -1.2996403e-18)
(10.780427 -0.16395786 0)
(10.75782 -0.20283718 -4.3850788e-20)
(10.732977 -0.24094581 -1.3022688e-19)
(10.714932 -0.27370587 1.8481872e-19)
(10.10517 0.099507303 2.7369782e-19)
(10.100823 0.18990609 -5.565156e-19)
(10.100679 0.2617613 4.508659e-18)
(10.104251 0.31922386 2.7549154e-19)
(10.10001 0.33847981 -2.9530656e-19)
(10.101096 0.33886413 -4.68843e-18)
(10.112365 0.34073669 1.4695384e-19)
(10.124668 0.35704791 2.5407365e-18)
(10.146026 0.40601383 -2.4245088e-18)
(10.18671 0.46702652 -1.5084466e-19)
(10.256449 0.52794214 0)
(10.346204 0.58001251 2.6136915e-18)
(10.453786 0.61612954 -2.6344028e-18)
(10.561773 0.63190448 -1.1560932e-18)
(10.67226 0.62692493 8.5849809e-20)
(10.770563 0.60161369 1.8511994e-18)
(10.853258 0.55361197 -5.7857742e-19)
(10.919818 0.49542029 -5.7173643e-20)
(10.968724 0.42137954 -9.4766301e-21)
(10.085982 0.0068820946 0)
(10.113505 0.054797954 2.4372644e-19)
(10.136545 0.14213459 3.9418688e-18)
(10.20932 0.24059401 -4.3751482e-18)
(10.297584 0.25643012 4.1369805e-18)
(10.371016 0.19407563 -4.0661927e-18)
(10.469502 0.1131899 1.2920369e-19)
(10.578346 0.037925153 -1.2977244e-19)
(10.653261 -0.049945375 1.9253738e-18)
(10.681926 -0.14408865 -1.9469466e-18)
(10.67226 -0.22578591 1.9446064e-18)
(10.634017 -0.28496014 -2.1613676e-18)
(10.595534 -0.3262642 0)
(10.558319 -0.34953451 1.0511533e-18)
(10.538476 -0.3656049 -1.1901922e-18)
(10.520978 -0.37696711 5.2842981e-19)
(10.513354 -0.38233299 -4.9702114e-19)
(10.510408 -0.38530014 -2.2997449e-19)
(10.510632 -0.38490737 2.6557235e-19)
(10.058862 -0.031573204 2.2752104e-22)
(10.048851 -0.024484965 -6.8168999e-18)
(10.01596 0.02614664 1.0804178e-19)
(9.9098464 0.16061655 -1.1044129e-22)
(9.7643601 0.27294959 1.1075409e-19)
(9.7016911 0.33087787 0)
(9.7140745 0.34692073 3.6380274e-18)
(9.7966882 0.4089192 -3.7934546e-18)
(9.9425938 0.53779762 1.139823e-19)
(10.083733 0.65488987 -1.7981009e-18)
(10.239865 0.7437812 3.7883932e-18)
(10.393756 0.78688019 -3.7331015e-18)
(10.539747 0.79299851 1.8729008e-18)
(10.665816 0.76574075 0)
(10.775554 0.72144682 -8.9862868e-19)
(10.860945 0.66616015 9.31236e-19)
(10.928019 0.60004935 -1.4350737e-20)
(10.976927 0.53869735 5.3050194e-23)
(11.011515 0.46628815 -3.5881228e-21)
(10.111001 -0.060987974 5.9798145e-18)
(10.175826 -0.043175395 -5.9825942e-18)
(10.225509 0.078370916 5.9663737e-18)
(10.404435 0.23153752 9.5926249e-20)
(10.491955 0.2298705 0)
(10.529264 0.12702249 0)
(10.578804 -0.15827801 -4.9188902e-20)
(10.546276 -0.43177125 -3.07816e-18)
(10.434917 -0.60597092 3.2084859e-18)
(10.318822 -0.67882457 3.132849e-18)
(10.242963 -0.69064989 -1.5236646e-18)
(10.215831 -0.67268838 -1.6726842e-18)
(10.227718 -0.64790281 0)
(10.25626 -0.61428945 2.5127853e-20)
(10.298404 -0.58739547 2.5123703e-20)
(10.330291 -0.55636055 7.880997e-19)
(10.363774 -0.52448006 -8.155402e-19)
(10.384923 -0.49910041 1.8136747e-19)
(10.397641 -0.46222791 -1.9998199e-19)
(10.02657 -0.11494026 -4.0612144e-20)
(10.070483 -0.31879611 5.2959093e-18)
(9.9690175 -0.41657431 -2.0492282e-20)
(9.6638775 -0.18628997 -1.4794134e-20)
(9.3391872 0.2687304 -5.4650634e-18)
(9.2890949 0.64923321 0)
(9.4502533 0.91872657 2.7265356e-18)
(9.7061448 1.0473237 -2.7533533e-18)
(9.9742168 1.0573971 -4.3202752e-20)
(10.216283 0.99928247 -2.1660081e-20)
(10.418838 0.92168353 -2.1709101e-20)
(10.575139 0.84873771 2.1745379e-20)
(10.699346 0.78862399 0)
(10.796294 0.72835428 1.374082e-18)
(10.878927 0.68481304 -1.4019996e-18)
(10.94561 0.62932757 -6.8523668e-19)
(10.998582 0.57679456 6.9796907e-19)
(11.035593 0.53763689 3.5240448e-19)
(11.064403 0.4740789 -3.4664904e-19)
(12.823517 -0.048304899 -1.2521521e-19)
(12.837833 -0.2494358 -5.0195443e-19)
(12.817816 -0.44782189 4.8856334e-19)
(12.792968 -0.63659537 0)
(12.728113 -0.81819285 -9.182748e-19)
(12.641578 -0.99184711 -1.7874465e-18)
(12.550249 -1.1520395 0)
(12.419221 -1.3089386 -3.014335e-20)
(12.30842 -1.4550809 3.0859671e-18)
(12.216605 -1.5813861 1.4909964e-18)
(12.126733 -1.708167 -1.4003718e-18)
(11.984428 -1.8194732 2.6824594e-18)
(11.836852 -1.9274275 -2.5077713e-18)
(11.680908 -2.0263067 0)
(11.51747 -2.1300731 1.1602747e-18)
(11.328285 -2.2344289 -1.0789083e-18)
(11.140574 -2.3224792 -2.1013305e-18)
(10.951451 -2.4027719 1.9721995e-18)
(10.758729 -2.4938402 -9.4474528e-19)
(12.710599 -0.048041639 -1.0882942e-19)
(12.701233 -0.25391368 6.5251776e-19)
(12.665989 -0.46484761 -4.2800271e-19)
(12.627943 -0.66410281 0)
(12.554279 -0.85119515 -8.186767e-19)
(12.466965 -1.0308114 2.3565027e-18)
(12.390615 -1.1915014 0)
(12.26864 -1.3419919 0)
(12.111829 -1.4952288 0)
(11.994292 -1.6311027 0)
(11.911773 -1.7349497 2.5228544e-18)
(11.795913 -1.8342843 -3.617341e-18)
(11.623321 -1.9212838 -3.4906411e-18)
(11.444769 -2.0297359 2.1774738e-18)
(11.275131 -2.1086175 -2.0943161e-18)
(11.096467 -2.1548781 2.0265824e-18)
(10.893792 -2.1854233 -4.8083847e-21)
(10.696417 -2.2331725 -1.8172115e-18)
(10.483749 -2.2995326 1.7716017e-18)
(12.601717 -0.011222368 0)
(12.584193 -0.21940007 -3.831366e-19)
(12.535714 -0.43323816 -7.5160824e-19)
(12.486207 -0.61664539 -5.8695108e-21)
(12.395489 -0.80999477 -9.9340139e-21)
(12.299308 -0.99094638 1.4128057e-18)
(12.192324 -1.1609786 -2.6882551e-18)
(12.070168 -1.2958897 1.2826467e-18)
(11.907666 -1.450835 2.2763046e-20)
(11.754078 -1.5848814 0)
(11.641268 -1.6835403 3.4356119e-18)
(11.531157 -1.7569435 1.7135012e-20)
(11.356577 -1.842801 2.0915841e-18)
(11.202679 -1.9291538 2.0230602e-18)
(11.049535 -1.9705005 2.8779739e-18)
(10.898798 -1.979516 -3.6283813e-18)
(10.682305 -1.99595 -3.291889e-20)
(10.436799 -2.0398071 3.3340641e-18)
(10.168984 -2.0769183 1.6470535e-18)
(12.496018 -0.062400817 3.3308901e-19)
(12.459128 -0.28740822 -6.6617652e-19)
(12.428927 -0.47625257 9.8168975e-19)
(12.358471 -0.66904349 0)
(12.278297 -0.84775279 1.8866537e-18)
(12.179304 -1.0177126 -3.0560941e-18)
(12.050836 -1.1731315 2.3786593e-18)
(11.93958 -1.2887427 -3.4892012e-21)
(11.789988 -1.4273521 2.2890922e-20)
(11.606651 -1.5429371 -1.0792098e-18)
(11.467388 -1.6089489 0)
(11.315524 -1.6611287 -9.7566863e-19)
(11.154126 -1.7392573 9.7369284e-19)
(10.982978 -1.7857061 -1.7954147e-18)
(10.841099 -1.7993174 0)
(10.717328 -1.78593 0)
(10.530388 -1.7828197 -1.5819064e-18)
(10.282437 -1.8038774 0)
(10.035138 -1.7877354 1.4763026e-18)
(12.368197 0.00099917882 2.8974648e-19)
(12.332535 -0.23533033 -2.8796086e-19)
(12.294482 -0.4100364 4.8047559e-21)
(12.202853 -0.63220477 -5.6283501e-19)
(12.121616 -0.78589714 5.4058985e-19)
(11.994855 -0.9778406 -1.3614262e-21)
(11.871717 -1.1078375 -1.0421125e-18)
(11.747911 -1.2346353 0)
(11.600476 -1.3592473 -1.9739753e-18)
(11.433671 -1.448874 9.4436431e-19)
(11.2811 -1.5052025 0)
(11.127294 -1.5590714 0)
(10.974167 -1.6075795 -1.6876012e-18)
(10.794242 -1.6286847 -1.6472504e-18)
(10.680288 -1.6089949 1.5793382e-18)
(10.570371 -1.5795197 3.0305325e-18)
(10.423057 -1.5600154 1.4876045e-18)
(10.218716 -1.5713805 -1.3612781e-18)
(10.03251 -1.5249881 -1.0514081e-20)
(12.272574 -0.04473435 0)
(12.241772 -0.27465864 2.5270483e-19)
(12.205837 -0.4383441 -1.244001e-18)
(12.109904 -0.65624587 4.9080589e-19)
(12.030244 -0.79062174 1.4499081e-18)
(11.887423 -0.98382661 -9.5681622e-19)
(11.764432 -1.0871045 -1.8657581e-18)
(11.60835 -1.2230038 1.7891745e-18)
(11.459286 -1.3075469 -8.9964571e-19)
(11.291896 -1.3837848 1.6845219e-18)
(11.128486 -1.4252078 0)
(10.984746 -1.463853 0)
(10.829244 -1.4770111 -1.5367806e-18)
(10.671936 -1.4789176 4.4146717e-18)
(10.558192 -1.4389586 -5.6254399e-18)
(10.452288 -1.4178927 2.6921461e-18)
(10.320918 -1.3832903 -5.212728e-18)
(10.171478 -1.3926737 1.2394511e-18)
(10.037441 -1.3293357 2.3903643e-18)
(12.113372 -0.010613581 5.5106158e-20)
(12.085234 -0.24106034 2.2098172e-19)
(12.045687 -0.40495124 -4.316355e-19)
(11.959007 -0.62769929 0)
(11.876549 -0.75487767 -8.5071991e-19)
(11.740373 -0.94664566 2.4971752e-18)
(11.618169 -1.0324143 -1.6163178e-18)
(11.463348 -1.1732512 8.0203373e-19)
(11.315035 -1.2306806 -1.5641135e-18)
(11.154479 -1.309642 4.5346043e-18)
(11.002406 -1.3281237 -2.8991342e-18)
(10.853093 -1.3558704 0)
(10.710443 -1.3475742 1.3540409e-18)
(10.569327 -1.3399253 2.643434e-18)
(10.453706 -1.2967313 -3.7687846e-18)
(10.353383 -1.2866838 3.6616336e-18)
(10.228879 -1.2359218 -3.5038196e-18)
(10.123625 -1.2358465 -2.2672822e-18)
(10.020808 -1.1450292 -1.1032326e-18)
(12.025748 -0.03351187 1.4313073e-19)
(11.995519 -0.25221782 1.9075592e-19)
(11.945798 -0.41619156 -3.7571888e-19)
(11.855581 -0.6279926 0)
(11.761274 -0.75027645 1.4750241e-18)
(11.620798 -0.92960362 -7.327442e-19)
(11.491949 -0.99468149 0)
(11.335888 -1.1213857 -1.4011561e-18)
(11.187129 -1.151048 6.8936277e-19)
(11.028528 -1.2180044 0)
(10.883007 -1.2125548 -1.303508e-18)
(10.738868 -1.2404337 1.2622187e-18)
(10.614164 -1.2166993 1.2194144e-18)
(10.478348 -1.2097375 -2.3552816e-18)
(10.368956 -1.1661734 2.2442244e-18)
(10.272862 -1.1503937 -1.0815038e-18)
(10.164179 -1.085615 -1.0459589e-18)
(10.073708 -1.0731375 -1.0035658e-18)
(9.988496 -0.96464946 -9.6320726e-19)
(11.900982 -0.017672005 3.3040519e-19)
(11.87737 -0.23223915 -1.6344404e-19)
(11.823471 -0.39550497 0)
(11.739936 -0.59866759 0)
(11.636505 -0.7207242 -1.2876634e-18)
(11.501978 -0.89375416 1.2723829e-18)
(11.372644 -0.96334648 0)
(11.215577 -1.0854647 6.1147578e-19)
(11.06829 -1.1012683 -5.9890457e-19)
(10.917207 -1.1637848 0)
(10.774735 -1.1440275 1.1389745e-18)
(10.638558 -1.1612883 1.1273828e-20)
(10.516245 -1.1096022 9.6995467e-21)
(10.393727 -1.101414 0)
(10.301321 -1.0365409 -4.0327789e-18)
(10.205492 -1.0173562 3.851954e-18)
(10.109969 -0.93693986 4.6629938e-18)
(10.033557 -0.91364511 -6.2588037e-18)
(9.966593 -0.8014555 4.2864777e-18)
(11.795208 -0.028297239 0)
(11.772888 -0.23496524 1.9306984e-21)
(11.719181 -0.40487368 0)
(11.631705 -0.58895773 0)
(11.518413 -0.69426914 5.5762942e-19)
(11.385397 -0.83584422 7.0923084e-21)
(11.250205 -0.8770209 -5.5208199e-19)
(11.096298 -0.97356549 -1.6347174e-18)
(10.957187 -0.97396588 2.1052748e-18)
(10.814791 -1.0246537 0)
(10.680651 -0.995527 -1.0152876e-18)
(10.563435 -1.0125029 -5.9166524e-18)
(10.447679 -0.96846886 2.8423151e-18)
(10.33388 -0.97015963 0)
(10.249141 -0.89880849 -3.5756093e-18)
(10.149615 -0.87983814 4.2841155e-18)
(10.08054 -0.79192382 -3.319158e-18)
(10.015098 -0.76610503 3.9723748e-18)
(9.9577613 -0.66078359 0)
(11.684855 -0.01586487 -2.4878646e-19)
(11.667066 -0.20780124 1.2484937e-19)
(11.610164 -0.37290238 0)
(11.531741 -0.55881287 -9.8950696e-19)
(11.423631 -0.68991805 1.4639347e-18)
(11.297861 -0.8412247 -4.8165065e-19)
(11.154044 -0.89986877 -1.4548176e-18)
(11.004576 -0.99295595 3.3107545e-18)
(10.856003 -0.9832893 -1.8450138e-18)
(10.712872 -1.0164792 0)
(10.581887 -0.97357795 8.8484753e-19)
(10.466808 -0.97181863 5.2095352e-18)
(10.357196 -0.90465488 -3.3473611e-18)
(10.265532 -0.87388235 0)
(10.194771 -0.78386582 0)
(10.109479 -0.75827116 -1.5218114e-18)
(10.065134 -0.67065939 7.3464079e-19)
(10.007643 -0.64377271 -2.1212824e-18)
(9.9633568 -0.54662839 0)
(11.59755 -0.042669114 -2.1545469e-19)
(11.57283 -0.23550721 6.4654812e-19)
(11.507145 -0.39110303 -6.4362379e-19)
(11.413752 -0.54581115 0)
(11.289087 -0.62606378 1.2928824e-18)
(11.16055 -0.71731054 -1.6815243e-18)
(11.021537 -0.73724424 0)
(10.895991 -0.79454164 8.2967857e-19)
(10.765328 -0.78071872 8.1632797e-19)
(10.643817 -0.81900741 0)
(10.529367 -0.78496063 0)
(10.431105 -0.79131572 -7.5821274e-19)
(10.331084 -0.73609463 -2.2297847e-18)
(10.24825 -0.72230232 -1.9386917e-20)
(10.171723 -0.65714819 2.0772923e-18)
(10.09491 -0.64136402 1.3452097e-18)
(10.060018 -0.56182706 -6.4933072e-19)
(10.006987 -0.53524575 1.2530688e-18)
(9.9735211 -0.44462522 0)
(11.481947 0.0031710082 0)
(11.468914 -0.17262707 -7.4824186e-19)
(11.423384 -0.33750895 1.4869741e-18)
(11.350219 -0.50251374 -1.1109681e-18)
(11.250778 -0.63451892 0)
(11.131404 -0.77327347 0)
(10.986123 -0.83444309 0)
(10.841021 -0.90664586 -7.1708131e-19)
(10.688377 -0.88065353 -7.0706218e-19)
(10.559011 -0.88790044 0)
(10.434389 -0.81864212 -6.8464406e-19)
(10.326462 -0.7886027 -6.6853266e-19)
(10.240116 -0.7077131 -6.4822501e-19)
(10.181165 -0.66849525 2.5328577e-18)
(10.123508 -0.58534073 -2.4460095e-18)
(10.074782 -0.55234988 -5.929253e-19)
(10.047543 -0.46860626 3.451251e-18)
(10.004106 -0.44097291 -5.5404523e-18)
(9.9792397 -0.35907217 3.2183942e-18)
(11.421263 -0.070742714 -4.0594959e-20)
(11.383266 -0.23956994 8.113483e-20)
(11.311103 -0.37705584 8.0862596e-19)
(11.206119 -0.50204408 -1.9428597e-18)
(11.066222 -0.55325325 9.5829142e-19)
(10.939373 -0.6039011 0)
(10.806792 -0.58401709 0)
(10.705515 -0.59862729 6.2968003e-19)
(10.609819 -0.57437429 -2.492119e-18)
(10.526072 -0.58707338 -6.3337632e-19)
(10.432321 -0.54818715 5.7528672e-19)
(10.348064 -0.56358564 2.9079698e-18)
(10.262588 -0.5254264 5.6983629e-19)
(10.200101 -0.51671557 0)
(10.134506 -0.46172045 1.6163481e-18)
(10.084284 -0.44375583 0)
(10.044944 -0.37671402 -3.043436e-18)
(10.006548 -0.35521575 8.8190457e-18)
(9.9841505 -0.287787 -7.5701861e-18)
(11.296853 0.035958198 6.9875295e-20)
(11.298256 -0.13014775 -6.9509253e-20)
(11.259411 -0.29010245 0)
(11.196252 -0.44153368 -8.386821e-19)
(11.114747 -0.57631074 2.6660808e-19)
(11.007021 -0.69871043 1.0949279e-18)
(10.877587 -0.76788582 0)
(10.731545 -0.82730106 -2.7326572e-18)
(10.570293 -0.79510823 1.5978839e-18)
(10.429691 -0.79052263 -2.8580425e-21)
(10.306155 -0.71363745 0)
(10.222674 -0.66517827 0)
(10.157447 -0.56266795 -4.9722554e-19)
(10.116875 -0.50554205 0)
(10.078849 -0.42244773 1.2699149e-21)
(10.055876 -0.38256733 9.1908485e-19)
(10.027886 -0.31091321 -2.6790186e-18)
(10.003435 -0.28756856 6.9158002e-18)
(9.9873603 -0.22846719 -3.3301766e-18)
(11.252382 -0.11150967 2.1134087e-19)
(11.204725 -0.25314811 -1.804614e-19)
(11.119773 -0.36438013 0)
(11.005296 -0.44768306 0)
(10.859018 -0.4691911 0)
(10.72971 -0.47229646 0)
(10.599855 -0.43050046 -1.9377509e-18)
(10.525342 -0.39683204 1.9012737e-18)
(10.474173 -0.34412688 2.355007e-18)
(10.434238 -0.32898799 -9.2048335e-19)
(10.372685 -0.28819463 0)
(10.31707 -0.30738465 3.5694963e-18)
(10.245545 -0.29769147 -6.5253877e-18)
(10.184478 -0.31868738 3.3904056e-18)
(10.123731 -0.28685058 -4.1421698e-18)
(10.081644 -0.27903052 2.4138363e-18)
(10.038685 -0.2344821 -7.8406899e-19)
(10.010151 -0.22115999 -7.6119894e-19)
(9.996576 -0.17488289 7.381221e-19)
(11.145031 0.08364319 2.0938565e-19)
(11.162707 -0.071039904 -6.796498e-19)
(11.134916 -0.22564085 4.1622423e-19)
(11.083572 -0.37859714 -8.3334807e-19)
(11.018614 -0.51214568 8.246533e-19)
(10.921737 -0.63158912 0)
(10.812765 -0.69615412 -4.1546714e-19)
(10.680259 -0.75714365 1.6410286e-18)
(10.510088 -0.72703894 -1.6093207e-18)
(10.351749 -0.7396272 -4.0053288e-19)
(10.214587 -0.6723384 -3.1677009e-18)
(10.127554 -0.62542563 3.0920254e-18)
(10.067062 -0.5065006 -3.7935132e-19)
(10.047685 -0.41807329 2.2307091e-18)
(10.034443 -0.31137757 -2.1686251e-18)
(10.027812 -0.26389671 0)
(10.011559 -0.20186398 -5.5111558e-18)
(10.002663 -0.17775676 6.0274963e-18)
(9.9937605 -0.13340468 0)
(11.086784 -0.16532932 -3.6035914e-19)