/*--------------------------------*- C++ -*----------------------------------*\
  =========                 |
  \\      /  F ield         | OpenFOAM: The Open Source CFD Toolbox
   \\    /   O peration     | Website:  https://openfoam.org
    \\  /    A nd           | Version:  11
     \\/     M anipulation  |
\*---------------------------------------------------------------------------*/
FoamFile
{
    format      ascii;
    class       volScalarField;
    location    "5.9";
    object      p;
}
// * * * * * * * * * * * * * * * * * * * * * * * * * * * * * * * * * * * * * //

dimensions      [0 2 -2 0 0 0 0];

internalField   nonuniform List<scalar> 
5472
(
107.27682
105.42396
103.58929
101.77272
99.966101
98.227098
96.547207
94.915862
93.364838
91.914734
90.567055
89.318819
88.216053
87.258935
86.426542
85.742793
85.212134
84.799333
84.510523
107.67352
105.93956
104.25646
102.58324
100.87356
99.20471
97.586611
96.017459
94.497095
93.065555
91.738738
90.504133
89.396601
88.431828
87.576733
86.855886
86.291965
85.838977
85.581893
107.99523
106.46729
104.89245
103.31111
101.73202
100.16038
98.605042
97.092033
95.606357
94.202091
92.891683
91.666602
90.565911
89.580953
88.707087
87.976479
87.377598
86.924299
86.662102
108.27333
106.89284
105.48466
103.998
102.52209
101.04533
99.573623
98.116729
96.667784
95.30003
94.001265
92.798224
91.696654
90.699519
89.826967
89.084693
88.484055
88.01879
87.717887
108.51109
107.25858
105.95476
104.59557
103.25161
101.88132
100.48434
99.076482
97.684239
96.347623
95.074389
93.887844
92.781169
91.794943
90.915844
90.162886
89.547569
89.071254
88.753246
108.7029
107.52355
106.34338
105.14052
103.902
102.62793
101.32236
99.969828
98.636677
97.339811
96.104437
94.935342
93.848951
92.871188
91.98776
91.240607
90.608903
90.127136
89.797013
108.84962
107.80001
106.70491
105.59671
104.47966
103.3092
102.07029
100.80175
99.532904
98.27675
97.078363
95.932821
94.876692
93.896885
93.02323
92.267858
91.629644
91.151988
90.814502
108.89224
107.96432
107.00077
106.01751
104.97588
103.88915
102.75805
101.5728
100.37142
99.163077
98.003656
96.90193
95.86044
94.891158
94.039507
93.273548
92.649791
92.162879
91.816128
108.96961
108.11643
107.24677
106.33569
105.39268
104.43175
103.38226
102.27023
101.13076
99.98612
98.874167
97.800252
96.790842
95.848458
95.006655
94.241126
93.611526
93.128389
92.786872
108.98301
108.24289
107.44647
106.62899
105.77921
104.87794
103.91566
102.9028
101.82385
100.75178
99.684551
98.65853
97.675865
96.752027
95.935679
95.198168
94.577419
94.084536
93.741471
108.97363
108.29965
107.60569
106.8782
106.11186
105.29171
104.39898
103.45234
102.45619
101.45746
100.45232
99.474919
98.505909
97.618143
96.793576
96.061471
95.464468
94.982258
94.633612
108.93498
108.33717
107.71885
107.07629
106.39576
105.64913
104.83581
103.9626
103.03819
102.08617
101.14211
100.21632
99.299941
98.450647
97.64925
96.956113
96.339334
95.865414
95.51126
108.87972
108.35733
107.82051
107.24587
106.62405
105.94919
105.20949
104.40816
103.55746
102.66976
101.78615
100.89471
100.02004
99.187083
98.408341
97.734664
97.14852
96.692013
96.334128
108.82778
108.37863
107.89006
107.36404
106.80933
106.20272
105.5323
104.80128
104.01814
103.20138
102.3796
101.53693
100.71029
99.907087
99.16674
98.498521
97.933286
97.473196
97.117995
108.75784
108.36211
107.94053
107.48979
106.993
106.43954
105.81764
105.13763
104.41546
103.65996
102.89253
102.1062
101.3259
100.55976
99.847698
99.206236
98.661741
98.201688
97.85958
108.67713
108.3254
107.94922
107.54873
107.11384
106.62907
106.07071
105.4556
104.79246
104.09655
103.38066
102.63844
101.89064
101.16042
100.48092
99.866165
99.336628
98.885141
98.545968
108.61184
108.31372
107.99222
107.6302
107.22188
106.77316
106.26267
105.70278
105.09786
104.46617
103.80672
103.11751
102.41296
101.72291
101.0688
100.47795
99.964415
99.525858
99.189132
108.53818
108.27273
107.99274
107.68728
107.33926
106.93033
106.45959
105.9414
105.38274
104.79822
104.18043
103.53572
102.8738
102.22702
101.60655
101.03927
100.5391
100.1141
99.778924
108.49697
108.2521
107.99631
107.71937
107.40033
107.03377
106.61628
106.14541
105.64074
105.09933
104.52194
103.91399
103.28924
102.68038
102.09154
101.55023
101.06649
100.65255
100.32404
108.47198
108.2591
108.02985
107.77482
107.48038
107.14376
106.75098
106.31628
105.85709
105.36249
104.8319
104.25773
103.66264
103.08221
102.52153
102.00244
101.53851
101.13297
100.80938
108.42303
108.24126
108.04381
107.82092
107.55916
107.24888
106.88688
106.48565
106.05301
105.58944
105.09624
104.57089
104.01915
103.46538
102.92374
102.42026
101.96806
101.57382
101.25781
108.42842
108.25769
108.07012
107.86205
107.62343
107.34088
107.01163
106.64578
106.24226
105.8016
105.32477
104.81446
104.28963
103.767
103.25443
102.77099
102.32756
101.94148
101.62574
108.43242
108.28242
108.11603
107.92462
107.70185
107.43854
107.13041
106.79026
106.41995
106.01725
105.57961
105.10515
104.60934
104.09619
103.59193
103.11515
102.68065
102.3023
101.9885
108.45665
108.32531
108.17205
107.99645
107.79222
107.54766
107.25738
106.9291
106.5652
106.16826
105.73288
105.26463
104.77368
104.28534
103.80473
103.33941
102.91348
102.54012
102.22886
108.48529
108.37963
108.2414
108.07814
107.89254
107.67396
107.41626
107.11631
106.78482
106.42255
106.02483
105.59213
105.12091
104.6185
104.11449
103.63377
103.19659
102.81462
102.49457
108.51955
108.4418
108.3268
108.17887
107.99843
107.78089
107.52264
107.22095
106.87787
106.49603
106.08352
105.64013
105.17217
104.69389
104.20583
103.73385
103.29818
102.92716
102.61333
108.54595
108.51007
108.44127
108.33961
108.2033
108.03109
107.81867
107.56049
107.25673
106.90541
106.5115
106.08132
105.60151
105.06309
104.50403
103.96065
103.48583
103.09368
102.7513
84.41992
84.447188
84.643518
84.934359
85.365504
85.900889
86.547095
87.27693
88.12698
89.07363
90.116677
91.288811
92.579916
94.011467
95.571176
97.294642
99.160165
101.17469
103.28027
85.471545
85.489636
85.707154
86.022979
86.504308
87.127255
87.876897
88.722289
89.697924
90.76062
91.94682
93.247313
94.660623
96.163501
97.7822
99.530384
101.3833
103.33995
105.37201
86.506198
86.544679
86.766053
87.115935
87.671396
88.363101
89.203943
90.169108
91.253414
92.443143
93.762859
95.169137
96.666478
98.242527
99.904081
101.64083
103.4449
105.29847
107.21118
87.548386
87.600449
87.803728
88.219731
88.824142
89.586734
90.521838
91.575302
92.743669
94.040067
95.429293
96.882366
98.411604
99.996303
101.61106
103.26889
104.91738
106.56905
108.18903
88.587591
88.61853
88.846463
89.321328
89.957584
90.79547
91.794235
92.907401
94.150504
95.493609
96.891589
98.349068
99.839035
101.33646
102.82505
104.28503
105.64616
106.90634
107.97992
89.616657
89.627613
89.901095
90.389651
91.08171
91.982084
93.018482
94.178835
95.458306
96.803022
98.191018
99.595733
100.98677
102.34156
103.62137
104.75541
105.70954
106.41911
106.81277
90.61477
90.63322
90.931206
91.426465
92.176343
93.103854
94.178332
95.377251
96.661506
97.984321
99.304867
100.61862
101.89705
103.02026
104.0076
104.74435
105.2523
105.38808
105.21576
91.59855
91.632233
91.925096
92.454001
93.241079
94.180852
95.285986
96.482693
97.740745
99.011867
100.25514
101.44213
102.52221
103.36087
104.0244
104.41428
104.53552
104.31781
103.85232
92.548526
92.594802
92.884737
93.444103
94.239679
95.195574
96.314311
97.482833
98.706269
99.885487
101.02356
102.03005
102.88047
103.47428
103.86157
103.99643
103.84794
103.54636
103.12641
93.488202
93.530275
93.805484
94.392153
95.182393
96.155408
97.256973
98.381203
99.544321
100.62908
101.63153
102.43127
103.06702
103.46741
103.63698
103.62601
103.44227
103.22576
102.98044
94.385553
94.415341
94.686598
95.290214
96.079573
97.05889
98.107204
99.191581
100.24955
101.21885
102.07075
102.71909
103.16396
103.42928
103.48531
103.46072
103.36919
103.27048
103.19758
95.258889
95.245741
95.534116
96.140714
96.923965
97.879559
98.885281
99.906614
100.84481
101.71347
102.3965
102.92168
103.23824
103.43794
103.49916
103.51489
103.5227
103.5526
103.58234
96.084449
96.038479
96.359797
96.940694
97.713022
98.626454
99.573674
100.51961
101.35997
102.10753
102.66729
103.09109
103.34205
103.52882
103.6255
103.72434
103.81723
103.91645
104.01657
96.842967
96.798756
97.141648
97.672568
98.438532
99.30811
100.19032
101.05836
101.7987
102.43486
102.90632
103.26353
103.50517
103.70647
103.84746
104.00629
104.15249
104.30749
104.46683
97.567017
97.547737
97.848664
98.355017
99.100229
99.894532
100.74605
101.52931
102.17772
102.72112
103.13709
103.46672
103.7068
103.92486
104.11093
104.31138
104.49574
104.67452
104.79128
98.246459
98.237047
98.484148
99.001282
99.691296
100.43006
101.23173
101.91544
102.53303
102.99382
103.36975
103.6819
103.93455
104.17565
104.38666
104.60547
104.79168
104.94746
105.03694
98.891965
98.859218
99.07924
99.595737
100.21669
100.93887
101.65327
102.26707
102.84076
103.2478
103.6179
103.91593
104.17475
104.42217
104.6455
104.84947
105.01554
105.17195
105.29152
99.48312
99.422779
99.637141
100.11366
100.6933
101.3804
102.01057
102.60231
103.0929
103.4903
103.8483
104.12407
104.40376
104.6376
104.84459
105.02142
105.17813
105.32853
105.43498
100.0261
99.945017
100.15618
100.58229
101.14491
101.77202
102.35133
102.91247
103.3588
103.74282
104.05585
104.33498
104.60444
104.80668
104.99852
105.14111
105.271
105.37399
105.4071
100.50789
100.40938
100.59955
100.98754
101.52495
102.0809
102.63334
103.11989
103.52039
103.8987
104.21731
104.50844
104.73334
104.90994
105.06307
105.15065
105.20794
105.18284
105.0893
100.95283
100.85372
101.0144
101.37354
101.88102
102.41389
102.95249
103.40498
103.80157
104.14336
104.41467
104.65275
104.81827
104.94727
105.01151
105.0048
104.9233
104.72535
104.49147
101.31387
101.19968
101.33824
101.67887
102.13475
102.63803
103.12039
103.52805
103.91295
104.23313
104.49179
104.69183
104.81741
104.87129
104.83454
104.72385
104.50449
104.22319
103.94696
101.66993
101.5438
101.66859
101.98967
102.42472
102.91763
103.37746
103.7934
104.1365
104.39067
104.58156
104.69134
104.71732
104.65687
104.5168
104.30161
104.03483
103.79112
103.55318
101.90807
101.78466
101.89457
102.17907
102.60014
103.05606
103.4932
103.87716
104.19136
104.42739
104.57895
104.63495
104.60394
104.47476
104.27204
104.02206
103.76659
103.4985
103.21855
102.15658
102.0117
102.10689
102.39864
102.82772
103.30377
103.73827
104.08057
104.31529
104.45631
104.49636
104.4369
104.28802
104.07208
103.82576
103.58208
103.33593
103.08807
102.82733
102.27071
102.15539
102.22261
102.49489
102.92329
103.38191
103.79681
104.12694
104.34617
104.47283
104.48185
104.39954
104.23519
104.02781
103.76407
103.48016
103.1763
102.81352
102.39171
102.38645
102.23608
102.3479
102.69087
103.16639
103.66499
104.07097
104.31547
104.3958
104.36912
104.25567
104.02988
103.74593
103.42107
103.0679
102.68229
102.30384
101.92396
101.56499
105.53946
107.96128
110.54252
113.21965
116.07975
119.00941
121.67589
124.5048
125.15962
123.15828
119.00831
113.26215
106.25104
98.308175
90.483769
83.292541
77.208219
72.567085
69.622184
107.49401
109.6671
112.00261
114.46479
117.10202
119.81554
122.14532
123.67758
121.99144
118.68081
113.22418
106.30931
98.580401
90.663253
83.726798
77.651777
73.016618
70.389395
69.445578
109.11439
111.06579
113.11155
115.29666
117.44087
119.34749
120.50684
119.51724
116.19269
111.06674
104.0889
95.524358
86.403623
78.204873
71.570266
66.854896
64.411124
63.926298
64.994928
109.74036
111.27081
112.77177
114.22625
115.33384
115.89509
115.16097
112.54969
107.95772
100.62168
91.311413
80.474711
69.529571
60.45269
54.017481
50.621121
50.295092
52.46173
56.488878
108.89847
109.68726
110.38859
110.81338
110.75809
109.88155
107.56545
103.2779
95.477815
85.471301
73.803848
60.413527
46.526426
34.67676
25.750595
21.740602
23.654259
30.002589
39.132644
106.8988
106.94229
106.83251
106.30208
105.07984
102.75346
98.922167
92.848255
85.36191
75.10377
60.395041
43.476068
22.763189
8.8089321
-0.96642797
-3.2595993
2.6572801
14.155072
28.079931
104.68617
104.2145
103.58454
102.51419
100.63794
97.742586
93.425915
87.034446
78.516427
67.458079
54.376423
40.080757
26.230018
15.446196
9.3168084
9.1139325
14.521434
24.348947
36.184192
103.17661
102.56658
101.85813
100.71489
98.927316
96.415616
92.973457
88.496324
82.663136
75.473431
67.274602
58.537248
50.105938
43.025516
38.581344
37.231292
39.385586
44.794914
52.03926
102.56407
102.0701
101.49563
100.5241
99.164194
97.327742
95.101746
92.38773
88.995761
85.04462
80.47654
75.611949
70.732642
66.693376
63.339045
61.181595
61.367799
63.563318
67.193628
102.62408
102.32276
101.85282
101.10792
100.11289
98.857958
97.433929
95.699663
93.615971
91.188731
88.398565
85.403314
82.399217
79.462293
77.374088
76.709952
76.732539
77.35501
78.864621
103.0583
102.85797
102.48021
101.93357
101.19913
100.37675
99.447225
98.316683
96.964164
95.46189
93.750086
91.893174
89.962552
88.066251
86.523164
85.377962
84.828823
84.828945
85.194927
103.56571
103.46013
103.21423
102.82193
102.32433
101.80405
101.20962
100.47159
99.595925
98.580111
97.320355
95.978615
94.551074
93.004244
91.505134
90.18851
88.819234
87.558526
86.804967
104.12205
104.11604
103.93089
103.64933
103.32355
102.97886
102.57645
102.03949
101.3711
100.56917
99.636412
98.62254
97.34485
95.685782
94.081227
92.34458
90.345252
88.423028
86.805233
104.61286
104.60691
104.45976
104.26708
104.03217
103.75327
103.42563
102.96207
102.39595
101.68194
100.82837
99.77022
98.315819
96.461664
94.597236
92.263388
89.416443
86.331281
83.323133
104.92915
104.95568
104.87947
104.742
104.53854
104.31102
104.01011
103.55674
102.94931
102.14112
101.3008
100.09236
98.202256
95.880761
93.146354
89.244113
83.93385
77.432258
69.842626
105.23865
105.32548
105.30438
105.22044
105.13198
105.01212
104.77927
104.4009
103.89485
103.37656
102.62073
101.0146
98.832786
96.713478
93.849226
89.520681
83.418359
75.624361
66.56897
105.53219
105.65439
105.68089
105.68867
105.72388
105.67994
105.5909
105.46947
105.07885
103.95921
103.05875
102.85811
101.79155
99.091467
96.172339
92.239062
87.206725
81.300953
74.882141
105.6441
105.74811
105.77864
105.85503
105.89695
105.87415
105.65368
105.19444
104.70754
104.4878
104.15568
102.90405
101.00432
98.673547
96.009999
92.964343
89.591754
86.1453
82.963901
105.49835
105.56083
105.67849
105.80472
105.8592
105.82968
105.54318
105.16425
104.29958
102.50898
100.74904
98.970911
97.183292
95.252891
93.254571
91.374967
89.592133
88.205653
87.303627
104.96166
105.01438
105.14604
105.24622
105.26469
105.19549
104.94636
104.36607
103.42657
100.73736
96.917636
93.185564
91.070996
89.657863
88.43069
87.720105
87.551553
87.958864
88.9553
104.19653
104.22506
104.2886
104.30878
104.23118
104.08965
103.86536
103.5111
102.65654
100.78474
98.036473
94.199149
89.561769
85.17282
81.390378
78.487853
77.142207
77.911404
80.434769
103.67886
103.63447
103.60489
103.5077
103.30126
103.01477
102.57394
101.92406
100.7707
98.83649
95.791543
91.726422
87.145273
82.743585
79.069244
77.134956
77.069826
78.305535
80.855339
103.38028
103.35968
103.39238
103.38314
103.3139
103.24201
103.0687
102.84747
102.4519
101.79529
100.69827
99.054882
96.977676
94.658008
92.323226
90.463742
89.150259
88.445784
88.789689
103.13081
103.16586
103.22311
103.28771
103.35576
103.44145
103.5219
103.67694
103.77493
103.81141
103.8707
103.85083
103.5627
102.79442
101.70603
100.2204
98.269366
96.333119
94.994419
102.71398
102.73438
102.82055
102.90787
102.99484
103.07703
103.21458
103.30717
103.373
103.32958
102.82167
101.97749
101.37962
100.73569
99.748086
98.438964
97.232617
96.131403
94.861369
102.00458
102.09581
102.27169
102.35915
102.43206
102.53476
102.61922
102.69892
102.78077
102.83816
102.9081
102.35596
102.34236
102.45855
101.99894
101.08226
99.814702
98.168079
96.243365
101.12339
101.18923
101.27018
101.2841
101.31262
101.38272
101.45387
101.64768
101.86371
102.15203
102.61637
103.17928
103.38115
102.74769
102.12825
101.39154
100.58964
99.755716
98.947272
68.338088
68.392076
69.282131
70.807418
72.88501
74.896241
76.855914
79.006171
80.670766
81.838061
82.927782
83.717027
84.11736
84.337456
84.396648
84.245337
83.880599
83.395534
82.736862
69.655606
70.857887
72.759659
74.979805
77.352747
79.84438
82.0704
83.935425
85.341888
86.497598
87.374125
87.842865
88.079234
88.117512
88.085006
87.840871
87.420688
86.933979
86.224667
67.299211
70.129168
73.571689
77.18542
80.52346
83.490335
85.966749
88.188452
89.83198
90.79672
91.55604
91.994754
92.067275
91.958124
91.823912
91.507533
91.022886
90.488617
89.697061
61.588548
66.968253
72.288638
77.402168
82.05074
86.197949
89.36098
91.612137
93.530016
94.782464
95.489203
95.869489
95.869146
95.624701
95.323698
94.978568
94.474255
93.81117
92.966824
49.472202
59.57261
68.488067
76.171275
82.484313
87.668764
91.871814
94.767439
96.758631
98.06678
98.867501
99.256507
99.155559
98.868464
98.486795
98.040888
97.539171
96.866978
95.941573
42.220818
54.962225
65.728298
74.680236
82.0034
88.209056
93.389308
97.290628
99.695728
101.12552
101.85459
102.12677
102.04679
101.68746
101.17567
100.67681
100.12428
99.495825
98.568236
48.088546
58.834779
67.997598
77.295571
83.93443
89.522148
94.672106
99.419582
102.19577
103.66224
104.4272
104.61961
104.40715
103.9963
103.40682
102.80984
102.2192
101.5992
100.74217
59.84956
67.523311
74.747886
81.291095
86.882029
91.708591
95.791456
101.73728
104.0341
105.33476
106.0105
106.21782
106.01658
105.55676
104.97644
104.34615
103.75201
103.14172
102.39117
71.738255
76.834579
81.944762
86.805445
91.399283
95.574391
99.206154
102.38918
104.41259
105.58432
106.23298
106.51245
106.43982
106.12068
105.67193
105.12108
104.61146
104.07056
103.43676
81.288471
84.201009
87.473458
91.095481
94.730563
98.017435
100.89453
103.18359
104.67253
105.52298
105.87825
106.06797
106.08561
105.91042
105.64498
105.25875
104.87968
104.46648
103.96149
86.082747
87.678069
89.934453
92.565048
95.240359
97.924531
100.56241
102.7393
104.35403
105.2503
105.70314
105.65701
105.65608
105.59774
105.44088
105.18064
104.88173
104.57136
104.16379
86.968516
87.778276
88.909908
90.529752
92.604385
95.201406
97.988265
100.58805
102.73168
104.17162
104.80956
105.00746
105.36141
105.41572
105.3035
105.11128
104.85871
104.60933
104.26943
85.476086
84.427523
84.165739
84.792849
86.326539
88.787275
91.868635
95.163744
98.211526
100.65685
102.52196
103.79558
104.22845
104.72027
104.93193
104.92927
104.7576
104.5618
104.3145
80.278033
77.481841
75.436096
74.477699
75.41665
78.161571
81.970079
86.414175
90.999134
94.998985
98.902282
102.06026
103.46648
104.34615
104.6317
104.68168
104.55098
104.33254
104.16521
61.554972
54.199686
49.80078
49.637623
53.569127
59.532308
66.934659
76.177266
85.580492
93.321382
98.681865
101.46491
102.74203
103.51273
103.8568
103.96666
103.90951
103.7297
103.62082
55.223122
45.828072
40.223097
40.581239
46.073952
54.00152
63.648556
73.329829
81.986532
89.505393
95.225049
98.660978
100.49884
101.65946
102.34688
102.73974
102.89298
102.86586
102.86599
68.434861
63.005959
60.184732
60.5963
63.754537
69.015814
75.460051
81.829643
87.609707
92.353903
95.836909
98.146579
99.692709
100.75186
101.47134
101.94459
102.22918
102.31478
102.37624
80.302089
78.551343
78.205404
79.646381
82.24531
85.400212
88.873138
92.139797
94.963216
97.209676
98.845026
99.996425
100.83616
101.41386
101.83468
102.12553
102.29933
102.39475
102.4054
86.893018
87.188056
88.118649
89.588858
91.589179
93.766959
95.86268
97.694347
99.196539
100.35749
101.15681
101.73667
102.14784
102.3746
102.54571
102.65769
102.70815
102.73729
102.7039
90.462142
92.100723
93.65897
95.241255
96.786792
98.225697
99.613456
100.897
101.83802
102.48302
102.91392
103.15149
103.2877
103.28897
103.24929
103.18372
103.16281
103.10278
102.97987
83.959559
87.913205
91.712175
94.95925
97.641034
99.491277
100.58293
101.71317
103.13674
103.97177
104.09076
104.00592
103.95768
103.85321
103.66963
103.50207
103.36654
103.27771
103.13069
84.457412
88.454951
92.453644
95.928141
98.665379
100.78541
102.19563
102.80678
102.88445
103.31146
103.80986
103.92213
103.91732
103.79366
103.63644
103.48135
103.30265
103.18842
103.06101
90.089961
91.928591
93.96848
95.95479
97.710084
99.159971
100.36221
101.18838
102.05117
103.08536
103.36142
103.44777
103.48391
103.33774
103.23472
103.08674
102.94051
102.76479
102.65965
94.337891
94.063924
94.095988
94.332377
94.670542
95.357478
96.409102
97.73757
99.733156
101.76132
102.11107
102.33395
102.47312
102.44193
102.40858
102.30735
102.21016
102.07555
102.01038
93.65242
92.868269
92.710819
93.417286
94.89169
96.714586
98.314895
99.612275
100.40913
101.00059
101.28191
101.422
101.43774
101.42151
101.43715
101.42747
101.37706
101.32192
101.31475
94.401547
92.912005
91.956423
91.760748
92.438098
93.76463
95.422687
97.076381
98.323819
99.131815
99.591067
99.862466
100.103
100.2675
100.39933
100.5163
100.57811
100.62133
100.72773
98.210046
97.581808
97.077013
96.710136
96.47644
96.352433
96.398686
96.778722
97.667417
98.461511
98.997882
99.373221
99.62664
99.817222
99.967348
100.08101
100.16968
100.21311
100.23163
81.971349
81.138706
80.160769
79.124584
78.058825
76.963829
75.887312
74.848978
73.844479
72.903744
72.020162
71.180878
70.483342
69.760567
69.279447
68.855196
68.608593
68.606142
68.734727
85.396774
84.446933
83.404518
82.241955
81.075988
79.869678
78.679808
77.477141
76.33501
75.215134
74.19941
73.2073
72.383957
71.60269
70.97755
70.525965
70.222337
70.065033
70.217542
88.735805
87.667989
86.502938
85.268458
83.977629
82.680037
81.367407
80.049134
78.759783
77.517265
76.360318
75.256872
74.261327
73.428462
72.689688
72.152776
71.834245
71.661753
71.762301
91.846499
90.66553
89.379639
88.058034
86.67657
85.29668
83.899744
82.500766
81.109849
79.761914
78.47506
77.281336
76.154769
75.203113
74.404752
73.761477
73.385332
73.217443
73.29072
94.736984
93.422301
92.062748
90.652923
89.204934
87.752481
86.287573
84.816845
83.344093
81.917306
80.54145
79.248504
78.041027
76.962803
76.087833
75.37738
74.923496
74.730201
74.804434
97.340324
95.974063
94.552034
93.095371
91.591888
90.08154
88.560863
87.036775
85.505727
84.002638
82.548622
81.159516
79.87225
78.722304
77.746127
76.991714
76.463917
76.269435
76.33056
99.537263
98.206491
96.779077
95.31888
93.796425
92.254915
90.697012
89.125135
87.554137
85.999312
84.475905
83.028155
81.646425
80.436705
79.361673
78.547077
77.975345
77.709648
77.769895
101.29988
100.07084
98.706588
97.291491
95.801288
94.263075
92.696206
91.103267
89.493763
87.9076
86.327165
84.828798
83.385484
82.100606
80.966328
80.085175
79.473988
79.200893
79.263605
102.53329
101.4854
100.27066
98.945116
97.53115
96.049861
94.505149
92.926431
91.30694
89.695497
88.084731
86.537573
85.053554
83.705965
82.512939
81.559487
80.914907
80.561718
80.629602
103.29659
102.44981
101.43895
100.29109
98.994889
97.607781
96.130239
94.591048
92.994088
91.384389
89.754775
88.16635
86.660545
85.247483
84.038267
83.017028
82.349259
81.979631
82.006877
103.65316
103.04464
102.24116
101.28322
100.15931
98.903792
97.524118
96.059849
94.513404
92.918783
91.317947
89.693668
88.174415
86.718983
85.46844
84.416956
83.690302
83.319665
83.323192
103.84586
103.3906
102.7653
101.99148
101.04212
99.944395
98.699467
97.334061
95.878797
94.320818
92.755666
91.14416
89.602148
88.129116
86.828323
85.767956
85.001692
84.599529
84.586901
103.96617
103.58938
103.08773
102.46695
101.69389
100.7522
99.655508
98.400422
97.050333
95.572687
94.047596
92.479179
90.933732
89.464572
88.123445
87.047503
86.262093
85.834888
85.803119
103.93173
103.66071
103.27044
102.76131
102.14591
101.3488
100.40887
99.286985
98.045669
96.672999
95.214586
93.698734
92.164516
90.712218
89.34936
88.24564
87.448027
87.011168
86.957469
103.63191
103.50834
103.28553
102.90396
102.43404
101.78219
100.98227
100.00737
98.881258
97.612556
96.234599
94.797868
93.293054
91.860546
90.507996
89.381896
88.562666
88.112776
88.058621
103.08426
103.1415
103.09142
102.86838
102.53955
102.04472
101.37929
100.55191
99.556786
98.407233
97.116397
95.752665
94.311961
92.905192
91.582266
90.448663
89.612986
89.149288
89.098642
102.63203
102.74127
102.77461
102.69899
102.50593
102.16981
101.64654
100.96023
100.09585
99.073497
97.882963
96.601963
95.237393
93.86003
92.560951
91.43794
90.603972
90.113458
90.061864
102.47693
102.48375
102.51516
102.49759
102.38229
102.16581
101.78082
101.22635
100.48731
99.594557
98.518436
97.317996
96.042181
94.7134
93.447068
92.335474
91.515693
91.020646
90.960091
102.58849
102.49032
102.43952
102.39181
102.29133
102.13036
101.84972
101.41291
100.79883
100.02527
99.070796
97.956743
96.75983
95.492235
94.267621
93.160275
92.338462
91.859925
91.786633
102.74392
102.62018
102.50531
102.39611
102.26664
102.11456
101.88588
101.52569
101.01534
100.33567
99.494255
98.479791
97.344542
96.147423
94.965875
93.900201
93.079337
92.608624
92.537186
102.874
102.77103
102.63558
102.50012
102.33462
102.16539
101.95354
101.64274
101.21661
100.61669
99.867587
98.956008
97.906534
96.770602
95.632104
94.585592
93.771499
93.293479
93.223183
102.92643
102.88968
102.77147
102.63331
102.45702
102.26285
102.04436
101.75621
101.38146
100.85221
100.16298
99.324735
98.336825
97.237857
96.14912
95.137985
94.354381
93.885009
93.801662
102.71426
102.79267
102.7727
102.69026
102.5693
102.38843
102.17308
101.91138
101.56251
101.09877
100.48663
99.715321
98.809784
97.827501
96.741291
95.717588
94.904585
94.429997
94.335396
102.27579
102.50971
102.65318
102.68439
102.65649
102.54524
102.34787
102.08444
101.73658
101.29328
100.7206
99.986565
99.093913
98.079996
97.058267
96.088314
95.308279
94.849057
94.75305
101.62287
101.92816
102.21391
102.39678
102.47148
102.4774
102.39946
102.23247
101.96324
101.58599
101.07705
100.40908
99.594273
98.671754
97.630099
96.60987
95.754418
95.235719
95.127162
101.08214
101.4811
101.86327
102.19857
102.41992
102.51733
102.49814
102.3716
102.13599
101.76721
101.26394
100.60183
99.752007
98.772999
97.755677
96.775179
95.964623
95.45639
95.346615
100.46198
100.77145
101.12788
101.49308
101.83922
102.11601
102.29695
102.36617
102.29381
102.09352
101.74053
101.19429
100.44997
99.507827
98.432748
97.325098
96.341349
95.679516
95.492381
69.029512
69.478704
70.054079
70.84939
71.882418
73.026287
74.373873
75.841571
77.430673
79.155933
80.98299
82.931845
84.963988
87.089858
89.283907
91.499272
93.763367
96.052375
98.324349
70.501606
71.004858
71.667787
72.460072
73.501861
74.645687
75.979215
77.45103
79.033298
80.739737
82.546667
84.440962
86.42384
88.475165
90.578389
92.693111
94.820885
96.949082
99.061916
72.09557
72.554341
73.234187
74.055778
75.077214
76.248498
77.569242
79.038716
80.627304
82.317063
84.087875
85.929423
87.858808
89.820381
91.832597
93.842916
95.836752
97.791365
99.721081
73.622915
74.111472
74.780497
75.626047
76.644507
77.822603
79.148891
80.615709
82.178736
83.833706
85.578645
87.367822
89.213662
91.109447
93.022434
94.908727
96.76586
98.568494
100.32435
75.156758
75.64788
76.321947
77.161847
78.180949
79.359402
80.673281
82.126063
83.667001
85.291414
86.984506
88.717155
90.502538
92.305569
94.111248
95.890477
97.61444
99.286627
100.87472
76.679783
77.162544
77.831869
78.677986
79.682426
80.855875
82.153325
83.582498
85.111085
86.710514
88.3534
90.012311
91.713027
93.433738
95.124202
96.77536
98.367432
99.905832
101.36334
78.124151
78.635294
79.312555
80.159121
81.151771
82.303189
83.587265
84.992398
86.489883
88.045862
89.624258
91.220634
92.83122
94.452471
96.037138
97.571929
99.032007
100.44288
101.78692
79.622058
80.106907
80.755306
81.585623
82.56297
83.702381
84.975976
86.353801
87.803275
89.297914
90.811142
92.349975
93.878165
95.38796
96.852621
98.278814
99.640155
100.93159
102.16023
80.988872
81.483385
82.137448
82.969102
83.942121
85.054624
86.298994
87.631131
89.031046
90.482623
91.93913
93.400252
94.833394
96.242357
97.613708
98.936856
100.18727
101.33803
102.43925
82.370261
82.851927
83.499191
84.306827
85.258714
86.340152
87.548086
88.854379
90.208559
91.605418
92.998365
94.364062
95.700849
97.012704
98.289581
99.49523
100.64148
101.69486
102.69402
83.680004
84.154569
84.789118
85.580889
86.514265
87.579967
88.749038
90.005869
91.30737
92.626782
93.953145
95.23828
96.49565
97.708342
98.890946
100.01554
101.07828
102.04712
102.94004
84.944844
85.413581
86.034001
86.809853
87.718308
88.743664
89.883671
91.081745
92.323817
93.589261
94.852395
96.063563
97.23138
98.35742
99.456131
100.48546
101.42865
102.30705
103.11492
86.153618
86.60496
87.210976
87.965685
88.858365
89.850824
90.950105
92.09648
93.283323
94.482347
95.66146
96.800478
97.888096
98.92928
99.92025
100.86899
101.74979
102.55997
103.30427
87.298044
87.738491
88.335703
89.070525
89.932759
90.889336
91.930994
93.025113
94.148231
95.287497
96.402299
97.46916
98.47552
99.44718
100.37638
101.25544
102.0545
102.77104
103.42639
88.398678
88.825793
89.394982
90.105607
90.932217
91.855224
92.85214
93.900192
94.971482
96.050303
97.093005
98.085266
99.014515
99.914845
100.77331
101.5614
102.27655
102.93552
103.56192
89.419302
89.824734
90.372005
91.066021
91.863699
92.756395
93.708192
94.699551
95.713088
96.721957
97.698286
98.626017
99.500049
100.32895
101.11553
101.84568
102.52992
103.12697
103.65912
90.371895
90.773068
91.304953
91.972449
92.742869
93.595333
94.501858
95.436255
96.393271
97.339721
98.262875
99.133074
99.95176
100.70831
101.42907
102.10044
102.71254
103.25306
103.73338
91.269976
91.65349
92.162401
92.798079
93.542318
94.354903
95.220372
96.105182
97.009529
97.902888
98.768279
99.583431
100.34285
101.04355
101.70629
102.33152
102.90048
103.4037
103.84642
92.0877
92.449199
92.942216
93.559755
94.276773
95.055828
95.878151
96.722556
97.577786
98.421989
99.236743
99.997997
100.70387
101.35698
101.97331
102.55384
103.07553
103.52891
103.91793
92.821672
93.177977
93.671424
94.270088
94.950386
95.694435
96.480117
97.282722
98.094721
98.886529
99.649471
100.36165
101.01812
101.63622
102.21345
102.74744
103.23016
103.65499
104.0213
93.52651
93.876591
94.340675
94.897823
95.545525
96.259559
97.011825
97.779498
98.556992
99.309043
100.02828
100.707
101.3282
101.91688
102.45971
102.95448
103.39706
103.78251
104.10735
94.083553
94.404114