/*--------------------------------*- C++ -*----------------------------------*\
  =========                 |
  \\      /  F ield         | OpenFOAM: The Open Source CFD Toolbox
   \\    /   O peration     | Website:  https://openfoam.org
    \\  /    A nd           | Version:  11
     \\/     M anipulation  |
\*---------------------------------------------------------------------------*/
FoamFile
{
    format      ascii;
    class       volScalarField;
    location    "0.1025";
    object      Ma;
}
// * * * * * * * * * * * * * * * * * * * * * * * * * * * * * * * * * * * * * //

dimensions      [0 0 0 0 0 0 0];

internalField   nonuniform List<scalar> 
880
(
1.11801663592382
1.118016635923815
1.118016598488824
1.11801248912112
1.11801663592382
1.118016635923398
1.118016492591927
1.117952270655363
1.11801663592382
1.118016635929744
1.118016050646647
1.117528987337215
1.118016635923821
1.118016635759064
1.118007603851841
1.113510636923825
1.118016635923763
1.118016635922943
1.118016635917681
1.118016633929897
1.11801663648622
1.118016635033171
1.118016642034065
1.118016478907959
1.117958322492227
1.117887857236508
1.11781729458565
1.118000658258055
1.095747757497391
1.076079716804837
1.068377704366811
1.067003132660489
1.118016598456154
1.118016374475667
1.118015829534877
1.118016059273889
1.118013960245321
1.118010011633549
1.118009347463473
1.118009608987535
1.116847189415529
1.116362166970006
1.116339257075465
1.116204374243859
1.065853952198701
1.062894459676211
1.065629128681172
1.067041560527912
1.102246568883032
1.120688961273257
1.130829283902553
1.136032037874289
1.114674778448628
1.11405087988779
1.116898596248512
1.118460722915749
1.11799180266357
1.117951123504156
1.117972905666498
1.118003062186541
1.118015000938948
1.118012687088674
1.118010129247012
1.118010112371195
1.118011676769583
1.118014193126853
1.118015941157989
1.118016537348418
1.118026207667601
1.118031392214504
1.118023488084468
1.118017973859343
1.119386075205949
1.1193170271677
1.118795173364125
1.118285283910085
1.136106556311097
1.133435750228126
1.129155924869651
1.124280183917392
1.120274738222212
1.118062724394162
1.118016739817972
1.118016630201233
1.11829226171937
1.118019053983997
1.118016638739658
1.118016635816846
1.11697450388023
1.118013528625111
1.118016630081587
1.118016635643195
1.069825269158579
1.117508523582445
1.11801632112953
1.118016735081944
1.118016505446584
1.118006150928525
1.113895106442022
0.8952127915455603
1.118015908448597
1.117983523121622
1.109863358510708
0.8750282430628149
1.118014431083415
1.117939031220949
1.104449922614892
0.8534551403967304
1.118009689229448
1.117905599710615
1.099857370068472
0.8534869595999405
0.8568860019588512
1.094597379165493
1.117834278683784
1.118007883167418
0.8649869788243968
1.090947299238951
1.117807202309165
1.117998662118116
0.8643231555833126
1.084684221149372
1.117676785120877
1.117997965287735
0.8606972598031719
1.078361229102059
1.117593013210373
1.117980989458085
1.1179755126819
1.117341023333935
1.066976784821525
0.8613231175300282
1.117945296657045
1.117131185722555
1.066255508986728
0.8887240839726998
1.117952939890442
1.117309300110319
1.082674148971516
0.9638853619541788
1.117935357419996
1.117568121778171
1.106226952324705
1.059255449947962
1.117913007955715
1.117575687223755
1.128156743402524
1.222321114400881
1.117940536786962
1.119625005743362
1.134449478324694
1.236920897701878
1.118016848909558
1.118562574066059
1.124902500994255
1.123463000390897
1.118017914841449
1.117867645887621
1.106041492450845
0.947272787734174
0.8619813820167984
1.096635722191545
1.117696672328675
1.118016038928567
0.814303746189118
1.090214679979176
1.117427471001069
1.118013933500443
0.7977898814698087
1.089305584812832
1.117600585936746
1.118016033866793
0.7512641529461349
1.085019463870602
1.117531579680106
1.118015396493952
0.843575873141665
1.097435695134282
1.117787989564036
1.118016176603805
0.9579546744062868
1.107983804163138
1.117941684481169
1.118016484756988
1.040574519337693
1.114109532214888
1.117997753804104
1.118016611993908
1.086335016484627
1.117119736526346
1.118017436139203
1.11801664125492
1.044648505415511
1.113731367831708
1.117934666133853
1.118016050409282
1.047543567763816
1.113936084568688
1.117937237464121
1.118016062089482
1.045506065999004
1.113993416764773
1.117939772881362
1.118016076730203
1.045313864319459
1.11428999177233
1.117948606338781
1.11801613619506
1.086335016484641
1.117119736528086
1.118017436141508
1.118016641257228
1.040574519338057
1.114109532217169
1.117997753806158
1.11801661199479
0.9579546744065957
1.107983804164819
1.117941684481473
1.118016484757598
0.843575873140511
1.097435695135593
1.117787989563262
1.118016176603628
1.118016038926084
1.117696672328186
1.096635722189719
0.8619813820154699
1.118013933500316
1.11742747100105
1.090214679978072
0.8143037461876493
1.118016033866241
1.117600585937602
1.089305584814325
0.7977898814684348
1.118015396493667
1.117531579678011
1.085019463870658
0.7512641529448651
0.9472727877321871
1.106041492450252
1.117867645888291
1.118017914842566
1.123463000389345
1.124902500994396
1.11856257406545
1.118016848909802
1.236920897701531
1.134449478324559
1.119625005743347
1.117940536785808
1.222321114400867
1.128156743403913
1.117575687225308
1.117913007954427
1.117975512683041
1.117341023327271
1.066976784818665
0.8613231175301203
1.117945296656363
1.117131185723532
1.066255508985032
0.8887240839721264
1.117952939890348
1.117309300110093
1.082674148971559
0.9638853619546868
1.117935357421171
1.117568121779015
1.106226952325111
1.059255449948009
0.8606972598033712
1.078361229103062
1.117593013215608
1.117980989454169
0.8643231555825631
1.084684221148273
1.11767678511767
1.117997965288049
0.8649869788242183
1.090947299237619
1.11780720231027
1.11799866211778
0.8568860019593997
1.094597379163078
1.117834278682079
1.118007883167058
1.118016505446231
1.11800615092737
1.113895106440952
0.8952127915445154
1.118015908446429
1.117983523121862
1.109863358515659
0.8750282430647145
1.118014431081179
1.11793903121836
1.104449922611089
0.8534551403969334
1.118009689229426
1.117905599712231
1.099857370072816
0.8534869596008096
1.11801673508185
1.118016635643477
1.118016635816191
1.118016630201272
1.118016321131845
1.118016630082542
1.118016638740462
1.118016739818496
1.117508523583625
1.118013528624725
1.118019053984788
1.118062724394802
1.069825269159536
1.116974503879917
1.118292261718892
1.120274738222085
1.118016537347927
1.118017973858595
1.118285283909354
1.124280183917356
1.118015941158394
1.118023488083268
1.118795173364048
1.129155924869108
1.118014193126835
1.118031392214022
1.119317027168854
1.133435750229737
1.118011676770385
1.11802620766801
1.119386075205254
1.136106556311448
1.118015000938727
1.117991802665095
1.11467477844836
1.102246568882217
1.118012687090264
1.117951123503584
1.114050879887054
1.120688961273101
1.118010129245884
1.11797290566764
1.11689859624941
1.130829283903366
1.118010112371657
1.118003062187098
1.118460722915589
1.136032037875535
1.067041560528427
1.116204374243763
1.118009608988948
1.118016059273095
1.065629128681834
1.116339257073937
1.118009347465613
1.118015829535322
1.062894459676114
1.116362166969453
1.118010011636114
1.118016374475832
1.065853952199471
1.116847189417247
1.118013960246262
1.118016598454235
1.067003132660994
1.118000658255539
1.118016478908023
1.11801663392905
1.068377704367412
1.11781729458704
1.118016642034243
1.118016635917683
1.076079716805514
1.11788785723731
1.118016635035438
1.11801663592296
1.095747757498326
1.117958322492986
1.118016636485744
1.118016635923784
1.118016635923821
1.11801663592382
1.118016598488222
1.118012489121055
1.11801663592382
1.118016635923683
1.118016492591784
1.117952270656435
1.11801663592382
1.118016635930296
1.118016050646613
1.11752898733688
1.11801663592382
1.118016635760235
1.11800760385243
1.113510636924433
1.117996876723701
1.117799482586909
1.115933395764968
1.100144064870389
1.117799482589742
1.116676823236598
1.107611861047552
1.062070361920241
1.115933395767341
1.107611861052234
1.068755136556255
0.9702594794002108
1.100144064869969
1.062070361922302
0.9702594794068771
0.8456193009740677
0.802704678812392
0.848843216038174
0.9353558962629023
1.01210822446112
0.8623694470429933
0.874698723132281
0.9130622195698609
0.9676288567656868
0.9018632918069267
0.9121563970408544
0.9438207636175018
0.9807303609611766
0.9329175071881802
0.9408624643881142
0.9644456658879648
0.9861051793968049
0.9999326325362498
1.005708129288406
1.01119397643163
1.021093037505871
0.9921770475924701
1.005931451613784
1.011840295502004
1.043890358174046
0.9750970142855419
1.002144311512471
1.010405963467258
1.106021307894612
0.9344494736346528
0.9447149029019091
0.9574795312770404
1.188105180515038
1.186816081921543
1.209950208169793
1.175524639208791
1.160326492911206
1.277293225678879
1.279694752822982
1.221701563516345
1.19057623589009
1.422602983241334
1.323954611306366
1.244784098568157
1.207204770260014
1.155355850681214
1.048772330270573
1.025281935141598
1.040995757051108
1.150577730100127
1.14457901474652
1.139247032800088
1.132179306577436
1.171366774469721
1.158391478769017
1.149029519939093
1.138256121034734
1.18426910308641
1.16801797994311
1.156097180628729
1.143114324919943
1.068037830728173
1.092482314625285
1.105730091965465
1.113089328515439
1.124235498619915
1.119108204144446
1.100352858786687
0.856861376982241
1.127397919286789
1.119663094087448
1.078514236213931
0.7080981879187894
1.130132030573242
1.120109505216577
1.036372619384487
0.5773902198624458
1.116507404514729
1.119521248797932
0.9402170588572463
0.3392300385477683
0.635021351826711
0.6922617881973105
0.7235216116750323
0.7522762374710722
0.5779879529669665
0.6694707577082868
0.7199694524513953
0.7502004656501153
0.4732216940207897
0.6060213296994125
0.6921267490553206
0.740103937271938
0.2600948045171666
0.4062699599615698
0.5388656582032821
0.6362104142383203
0.7695622027833982
0.7783290573650209
0.7871688668910556
0.7933953035758359
0.7660104332664565
0.7753987467951011
0.7863936306711083
0.7942017686796479
0.7632471530756636
0.7742853930057156
0.7870381825044276
0.7956448033255721
0.7025920430967827
0.7327820983350349
0.7487882176079027
0.7545382323690483
0.8038989333251499
0.8371005583349097
0.906786036710761
1.011845085487281
0.8045900600732609
0.8374552617549298
0.9108912234421458
1.050344566642459
0.8048929650227139
0.8312624210368806
0.9329478283487923
1.335764720436838
0.77451708409511
0.8052624761545499
0.9531764364786091
1.850157867273894
1.200969141983926
1.288194564439697
0.4738742379108027
0.2220024834167317
1.28121575895616
1.105381641849521
0.2782997979940141
0.08638821901988025
1.390410532278979
0.7796814557447506
0.07797186281732144
0.05023285987831286
1.13007807443648
0.3367801215051074
0.04922075916948421
0.01681593022409484
0.1219384238647962
0.06816629508644527
0.03055243787788335
0.05354109297037467
0.02907230124168969
0.03061973747128656
0.06687557339033684
0.1213160873555622
0.02060679882299011
0.04893789294731759
0.1112742003417525
0.192788819783168
0.01070863925003535
0.05328990048806979
0.1582827315127733
0.2082994592550528
0.3977805997305002
0.7932460377309547
1.014650889004332
1.151259549526907
0.1629854045294966
0.5737999364248748
0.8789168361831543
1.087143295245394
0.05873841863503369
0.2696069736107272
0.6402697615759889
1.022486580581752
0.1266346317423032
0.08283059558773233
0.4799204754223618
1.09340556317463
1.359450575041602
1.746315454743345
1.797032068832582
1.121656214893991
1.305282337514913
1.688340069077599
1.378913053248292
0.8002882531138199
1.325887197018809
1.227427536635192
0.7490112834933053
0.3970457736918395
1.103194111200277
0.4193496537137111
0.3018293961047648
0.2989657177287369
0.3094459239856569
0.2867585481786112
0.2271054231449045
0.161682980206089
0.261575114138088
0.247060653331676
0.2352215248367669
0.1937560137739662
0.2431091284182355
0.07631010635448919
0.1465454300072034
0.1377571170660904
0.6677994662758994
0.4341965592877233
0.2926265645175181
0.2528129593836588
0.1616829802059002
0.1937560137738294
0.1377571170661398
0.2528129593830863
0.2271054231445644
0.2352215248364117
0.1465454300071441
0.2926265645173683
0.2867585481781491
0.2470606533313485
0.07631010635437449
0.434196559287686
0.3094459239853258
0.2615751141380198
0.243109128418244
0.6677994662758492
1.121656214892488
1.797032068830642
1.746315454743667
1.359450575041044
0.8002882531137258
1.378913053248196
1.688340069077993
1.305282337514765
0.3970457736918123
0.7490112834934606
1.22742753663541
1.325887197018858
0.2989657177285537
0.301829396104598
0.4193496537138991
1.103194111200698
1.093405563174608
0.4799204754223639
0.08283059558786152
0.1266346317424646
1.022486580581715
0.6402697615760095
0.2696069736109165
0.05873841863517894
1.087143295244895
0.8789168361829709
0.5737999364247702
0.1629854045286659
1.15125954952581
1.01465088900386
0.7932460377305199
0.3977805997291854
0.05354109297185389
0.03055243787730219
0.06816629508611237
0.1219384238653109
0.1213160873558719
0.06687557339197693
0.03061973747134153
0.02907230124245977
0.1927888197833652
0.1112742003428417
0.04893789294767245
0.0206067988227662
0.2082994592553002
0.1582827315142118
0.05328990048818896
0.0107086392504555
0.2220024834159049
0.4738742379071598
1.288194564432864
1.200969141983192
0.08638821902043874
0.2782997979926805
1.105381641846692
1.281215758956684
0.05023285987866641
0.07797186281717357
0.7796814557415986
1.390410532278701
0.01681593022533634
0.04922075916959891
0.3367801215028362
1.130078074437197
1.011845085487564
0.906786036711142
0.837100558335035
0.8038989333256281
1.050344566642512
0.9108912234423484
0.8374552617549738
0.8045900600735891
1.335764720436539
0.9329478283488334
0.831262421036942
0.8048929650228714
1.850157867273061
0.9531764364785165
0.8052624761545206
0.7745170840949331
0.7933953035760273
0.7871688668909915
0.7783290573653175
0.76956220278349
0.7942017686795765
0.786393630671009
0.7753987467954617
0.7660104332664552
0.7956448033254062
0.7870381825044114
0.7742853930061886
0.763247153075443
0.75453823236929
0.7487882176077912
0.7327820983355011
0.7025920430961371
0.7522762374722635
0.7235216116744173
0.6922617881995804
0.63502135182578
0.7502004656507807
0.7199694524510027
0.669470757709501
0.5779879529669695
0.7401039372717468
0.6921267490554056
0.6060213296996941
0.4732216940212112
0.6362104142368014
0.5388656582049922
0.4062699599604337
0.2600948045174798
0.8568613769833433
1.100352858786581
1.119108204143166
1.124235498618992
0.7080981879199247
1.078514236214022
1.119663094086446
1.127397919287822
0.5773902198642972
1.036372619386465
1.120109505216325
1.130132030576221
0.3392300385507425
0.9402170588589961
1.119521248793918
1.116507404513111
1.132179306576716
1.139247032800521
1.144579014748115
1.150577730100518
1.138256121032249
1.149029519940596
1.15839147876974
1.171366774470356
1.143114324914538
1.156097180632189
1.168017979941546
1.184269103088056
1.113089328509569
1.105730091973911
1.092482314617706
1.068037830730947
1.160326492911998
1.175524639209526
1.2099502081692
1.186816081920504
1.190576235890849
1.221701563517526
1.279694752821782
1.277293225677552
1.20720477026066
1.244784098569679
1.323954611304842
1.422602983239882
1.040995757051123
1.025281935143342
1.048772330270615
1.155355850681698
1.021093037506338
1.011193976433124
1.005708129288324
0.9999326325363651
1.043890358174426
1.011840295502947
1.005931451613423
0.9921770475922459
1.106021307894494
1.010405963467733
1.002144311511868
0.9750970142849454
1.188105180514229
0.9574795312769478
0.9447149029014265
0.9344494736365446
0.9861051793977785
0.980730360961357
0.9676288567661048
1.012108224460756
0.9644456658885693
0.9438207636178628
0.9130622195706855
0.9353558962634696
0.9408624643895515
0.912156397041563
0.8746987231331078
0.84884321604031
0.9329175071903001
0.9018632918082675
0.8623694470438212
0.8027046788142654
1.084113203942968
1.116472286628048
1.11800237842335
1.118016577780498
1.085471677204674
1.116465827390204
1.117997060928109
1.118016526241658
1.062621781969531
1.115779347750599
1.117986219910101
1.118016444701463
1.042458636566128
1.114729614563579
1.117965919108242
1.118016288826181
1.118016050408037
1.117934666133607
1.113731367831639
1.044648505412577
1.118016062089685
1.117937237463352
1.113936084568404
1.047543567764619
1.118016076730076
1.117939772882663
1.113993416764454
1.045506066000428
1.118016136194912
1.117948606339899
1.114289991771668
1.045313864321026
1.118016288827302
1.118016444700715
1.118016526241058
1.118016577781984
1.11796591910949
1.117986219910184
1.117997060927544
1.11800237842272
1.114729614563672
1.115779347750624
1.116465827389373
1.11647228662904
1.04245863656659
1.062621781969622
1.085471677204088
1.08411320394246
)
;

boundaryField
{
    back
    {
        type            empty;
    }
    inlet
    {
        type            calculated;
        value           nonuniform List<scalar> 
16
(
1.11801663592382
1.11801663592382
1.11801663592382
1.11801663592382
1.118016635923763
1.118016635924032
1.118016635920711
1.118016635085557
1.118016635085393
1.118016635920715
1.11801663592402
1.118016635923784
1.11801663592382
1.11801663592382
1.11801663592382
1.11801663592382
)
;
    }
    front
    {
        type            empty;
    }
    top
    {
        type            calculated;
        value           uniform 0;
    }
    outlet
    {
        type            calculated;
        value           nonuniform List<scalar> 
16
(
1.118015886838979
1.118015900380757
1.118015916778703
1.118015987132538
1.118016559505113
1.118016494040877
1.11801638904263
1.118016186231983
1.118015886837947
1.118015900380908
1.118015916778659
1.118015987132394
1.118016186232992
1.118016389041887
1.118016494040376
1.118016559506515
)
;
    }
    bottom
    {
        type            calculated;
        value           uniform 0;
    }
    wall
    {
        type            calculated;
        value           uniform 0;
    }
}


// ************************************************************************* //
