/*--------------------------------*- C++ -*----------------------------------*\
  =========                 |
  \\      /  F ield         | OpenFOAM: The Open Source CFD Toolbox
   \\    /   O peration     | Website:  https://openfoam.org
    \\  /    A nd           | Version:  11
     \\/     M anipulation  |
\*---------------------------------------------------------------------------*/
FoamFile
{
    format      ascii;
    class       volVectorField;
    location    "5.35";
    object      U;
}
// * * * * * * * * * * * * * * * * * * * * * * * * * * * * * * * * * * * * * //

dimensions      [0 1 -1 0 0 0 0];

internalField   nonuniform List<vector> 
4455
(
(99.958399 -0.44788168 0)
(99.921242 -1.1856698 -1.887321e-18)
(99.663917 -2.0252796 6.4813767e-18)
(99.453934 -2.5718522 2.3076976e-20)
(98.890591 -2.9897829 6.1454152e-18)
(98.401117 -3.4293524 -2.3075441e-17)
(97.526159 -3.6132228 1.0241625e-17)
(96.724664 -4.279627 0)
(95.102303 -4.4819045 -6.252327e-17)
(99.945368 -0.3974275 -1.2470122e-17)
(99.856064 -1.1305668 1.2160727e-17)
(99.679398 -1.9070851 -1.4935861e-17)
(99.354908 -2.416208 2.4850875e-17)
(98.796693 -2.8627378 -4.7588647e-17)
(98.260258 -3.3387248 5.1965924e-17)
(97.309402 -3.6852469 -4.9536085e-18)
(96.394124 -4.4750309 7.2303728e-18)
(94.456514 -5.4498566 2.7215313e-16)
(99.922574 -0.35956934 -1.3260378e-17)
(99.854259 -1.0390735 1.6707675e-17)
(99.628469 -1.7720691 1.460161e-17)
(99.326969 -2.1968668 -1.4513795e-17)
(98.711227 -2.6933085 6.3887474e-17)
(98.168849 -3.0936546 -3.5920613e-17)
(97.143728 -3.3830656 4.6397163e-18)
(96.1728 -4.4550709 -1.0281894e-16)
(94.352433 -4.7337167 -1.9265931e-16)
(99.907173 -0.32418458 -1.5951925e-19)
(99.849513 -0.9240499 -1.6508189e-18)
(99.60352 -1.622506 3.5120714e-17)
(99.306259 -2.0239676 4.7813099e-18)
(98.651214 -2.4394768 2.643563e-19)
(98.065167 -2.8886185 -6.9533487e-18)
(96.999056 -2.9749159 7.7216797e-17)
(95.801814 -4.2690273 2.0597385e-16)
(93.693653 -4.1360661 1.6137085e-16)
(99.896844 -0.28702861 2.5634673e-17)
(99.842668 -0.8078604 -2.8629652e-17)
(99.607531 -1.4841753 3.6751493e-17)
(99.275072 -1.8009681 1.7097847e-20)
(98.598871 -2.2367809 -4.412962e-17)
(97.964452 -2.597668 -1.3560649e-17)
(96.86593 -2.7514873 -6.0850288e-17)
(95.572959 -4.0868664 -9.7156998e-17)
(93.288218 -3.8257559 -4.7760138e-16)
(99.893881 -0.24598622 0)
(99.839261 -0.7061549 0)
(99.615126 -1.3280708 -6.3756845e-17)
(99.257148 -1.6007332 -7.3585626e-17)
(98.602688 -1.9783678 0)
(97.900528 -2.3504649 -9.8919215e-17)
(96.668214 -2.3322312 -8.3532817e-18)
(95.160528 -3.7577617 -5.8398607e-18)
(92.48926 -3.2984254 5.9197784e-16)
(99.896615 -0.20757373 0)
(99.844957 -0.61517237 -1.74594e-18)
(99.617316 -1.1548706 1.9651369e-18)
(99.268009 -1.4091758 7.1922619e-17)
(98.550116 -1.7878988 -5.3064377e-18)
(97.878094 -2.0511776 2.1114122e-16)
(96.637104 -2.0837814 0)
(94.943974 -3.5072248 0)
(92.016 -2.7568354 2.753787e-16)
(99.903501 -0.17372168 4.9679445e-17)
(99.85211 -0.52131315 0)
(99.625238 -1.0177792 0)
(99.261599 -1.2000254 0)
(98.603525 -1.5419173 0)
(97.82406 -1.7655717 -1.0568491e-16)
(96.448096 -1.6218855 -1.1366502e-16)
(94.561449 -3.0806979 1.6403433e-16)
(91.052562 -2.0425335 5.1333831e-18)
(99.911643 -0.1414281 -4.8919999e-17)
(99.865109 -0.43610209 -1.69697e-18)
(99.641659 -0.87145823 -1.9056103e-18)
(99.287636 -1.0247837 4.3301776e-18)
(98.602173 -1.3256322 1.6683397e-16)
(97.880062 -1.5027682 1.8801011e-16)
(96.494418 -1.3907845 3.6316042e-16)
(94.384092 -2.6655863 -1.6108866e-16)
(90.457576 -1.3908891 -4.7444331e-16)
(99.922062 -0.11700878 0)
(99.933099 -0.094984276 9.2025908e-17)
(99.944023 -0.077179531 -9.1276752e-17)
(99.953909 -0.062066908 8.7950571e-17)
(99.963532 -0.049464945 -8.596577e-17)
(99.971102 -0.040259453 1.723325e-16)
(99.978183 -0.032621877 -1.6730664e-16)
(99.981303 -0.031023736 0)
(99.988714 -0.025544796 0)
(99.874443 -0.36289498 0)
(99.888482 -0.29927053 1.5886123e-18)
(99.899877 -0.2461649 0)
(99.910535 -0.20231133 4.5377078e-18)
(99.921501 -0.16293472 9.3059743e-17)
(99.93252 -0.12815578 -2.7835951e-16)
(99.944957 -0.094193184 1.8031427e-16)
(99.956457 -0.067896412 -2.754278e-18)
(99.972188 -0.03124312 1.7478294e-16)
(99.664656 -0.73521964 1.1445402e-16)
(99.682932 -0.61498186 -2.2599286e-16)
(99.70844 -0.50107779 2.1661076e-16)
(99.731454 -0.39809199 -6.4829733e-18)
(99.75865 -0.30921362 -1.0273153e-16)
(99.782558 -0.22743197 -3.1338504e-18)
(99.811482 -0.16873052 0)
(99.823488 -0.11772585 5.953705e-18)
(99.841064 -0.086005554 -2.9039447e-18)
(99.309921 -0.83731818 1.1914534e-16)
(99.343932 -0.66089177 -2.424809e-16)
(99.382753 -0.51845567 2.3162449e-16)
(99.434993 -0.38332874 -1.1242999e-16)
(99.4768 -0.27851452 -7.0725042e-18)
(99.543341 -0.16466293 3.4248718e-18)
(99.590154 -0.093194646 0)
(99.671876 0.017526685 -3.2413827e-18)
(99.734341 0.066079829 1.9567712e-16)
(98.661884 -1.1100581 -1.3397194e-16)
(98.701175 -0.88228629 0)
(98.776104 -0.68280104 -1.25517e-16)
(98.84825 -0.48329537 1.2940198e-16)
(98.900098 -0.32845891 -1.1765174e-16)
(98.985082 -0.1389181 1.2152787e-16)
(99.032436 -0.049066604 0)
(99.115667 0.1224157 0)
(99.149487 0.1419799 6.9244096e-18)
(97.825029 -1.1667694 -1.6400996e-16)
(97.920512 -0.78743958 -1.5823042e-16)
(97.893117 -0.45616417 1.5210379e-16)
(98.030585 -0.069552003 1.4688825e-16)
(98.096794 0.16785696 -1.4159603e-16)
(98.313738 0.53748327 0)
(98.425935 0.70027037 2.6435686e-16)
(98.673236 1.0477974 -1.0491159e-19)
(98.792162 1.115713 -4.944971e-16)
(96.36015 -0.94837592 -1.9270894e-16)
(96.414606 -0.49695733 0)
(96.385179 -0.14472736 0)
(96.502432 0.29921749 5.412214e-18)
(96.525785 0.57104871 0)
(96.67661 1.0733982 0)
(96.793176 1.3320128 0)
(97.000855 1.8581903 0)
(97.098301 1.9848637 0)
(94.005527 -2.1497803 7.5110242e-18)
(93.816315 -1.0040873 0)
(93.605076 -0.21336354 6.8843796e-18)
(93.632555 1.107492 -1.2854984e-17)
(93.836912 1.7944144 -1.950686e-16)
(94.193418 3.060989 -1.862746e-16)
(94.633862 3.5800951 3.5647553e-16)
(95.178039 4.7329494 3.46358e-16)
(95.738587 4.8718999 -3.2782095e-16)
(88.87878 -0.31065878 9.1030344e-16)
(87.63532 2.0650112 -5.5991767e-16)
(86.919794 3.5961985 5.397344e-16)
(87.183933 6.222628 -5.0578877e-16)
(87.68932 7.6124291 -7.2683945e-16)
(88.639897 9.6938358 1.3710681e-15)
(89.435026 10.630143 -8.665404e-16)
(90.663259 12.330778 -4.1360416e-16)
(91.644795 12.674742 3.8924173e-16)
(99.982423 -0.04424737 -2.3109479e-19)
(99.982611 -0.057267043 2.3794131e-16)
(99.9828 -0.067677442 1.0713384e-20)
(99.982699 -0.080989077 -2.3868692e-16)
(99.983092 -0.092318291 2.3291728e-19)
(99.985504 -0.10390598 2.3951261e-16)
(99.990987 -0.11460129 -2.4068292e-16)
(100.00131 -0.12433168 -2.3576381e-19)
(100.01965 -0.13171835 -1.2144974e-16)
(99.991934 -0.014259531 -2.5068749e-16)
(99.986311 0.0063490552 2.5280432e-16)
(100.00071 0.023638473 -2.5284062e-16)
(99.992106 0.051120017 0)
(100.01258 0.070937156 2.556104e-16)
(100.00789 0.11361949 5.5116205e-19)
(100.0472 0.14103326 7.9339619e-19)
(100.04924 0.21232714 -2.5785998e-16)
(100.11995 0.24894944 1.3013784e-16)
(99.835816 -0.058066867 2.6845228e-16)
(99.805608 -0.040509186 -2.6883147e-16)
(99.808978 -0.016039116 -2.7118573e-16)
(99.785868 0.032762184 2.7160395e-16)
(99.822355 0.075701419 -2.7459912e-16)
(99.80303 0.160967 2.7377758e-16)
(99.872901 0.21952518 -2.7736263e-16)
(99.861804 0.34676488 -6.0311691e-19)
(99.968833 0.41178047 2.7838002e-16)
(99.787193 0.18324843 -2.8621664e-16)
(99.858289 0.28983323 -1.1269691e-18)
(99.793366 0.41133881 1.1374461e-18)
(99.868455 0.51323315 0)
(99.818128 0.64441453 -5.8804581e-21)
(99.914436 0.7951084 -2.9387755e-16)
(99.870296 0.95176375 2.9880338e-16)
(99.965664 1.2149142 1.1699195e-18)
(99.999674 1.3675592 1.1762385e-18)
(99.232629 0.31775501 -1.2094066e-18)
(99.129304 0.49069411 -3.1307124e-16)
(99.199223 0.65600798 -1.5896279e-18)
(99.080439 0.87442592 3.1661784e-16)
(99.211019 1.058853 3.2012946e-16)
(99.123697 1.3520315 -3.2175885e-16)
(99.320494 1.5428729 -1.2543737e-18)
(99.269292 1.8875664 -1.2613772e-18)
(99.526082 2.0586555 -1.2686067e-18)
(99.043392 1.4173317 3.3860627e-16)
(98.951983 1.8097775 0)
(99.15006 2.0799265 0)
(99.019871 2.4550438 3.4474003e-16)
(99.230282 2.7256944 -3.4935624e-16)
(99.130067 3.1745535 -3.5215979e-16)
(99.370698 3.4517346 7.0568919e-16)
(99.334584 4.0013789 1.6461557e-19)
(99.607016 4.2620745 -7.1463192e-16)
(97.322537 2.4397492 -1.4920822e-18)
(97.278641 3.0587147 0)
(97.377073 3.3905782 1.5098536e-18)
(97.285601 3.9676932 3.8696026e-16)
(97.496729 4.3001665 -3.8933682e-16)
(97.542589 4.8599059 3.9188433e-16)
(97.877874 5.142812 -3.9274303e-16)
(98.01357 5.5937986 -1.549725e-18)
(98.409615 5.8293005 3.9781573e-16)
(96.257787 5.7334054 -4.2298126e-16)
(96.67199 6.4807507 4.2859965e-16)
(97.083614 7.1069235 -4.3210167e-16)
(97.538926 7.6742062 4.2987574e-16)
(97.994465 8.1625335 -4.2970228e-16)
(98.498982 8.6842139 -6.9267294e-19)
(98.993099 9.2364467 4.3614361e-16)
(99.504544 9.8870884 3.4154767e-18)
(99.921721 10.335546 2.1869326e-16)
(92.806291 13.844548 0)
(93.389069 14.368449 -4.8237215e-16)
(94.527444 15.061921 3.5932003e-18)
(95.086876 15.350743 5.3724443e-18)
(95.973859 15.982004 9.6466682e-16)
(96.435873 16.055781 -4.8182325e-16)
(97.613519 16.108752 -4.8164086e-16)
(98.345111 15.81773 4.8406715e-16)
(99.548519 15.025791 2.438688e-16)
(100.21809 13.629283 -2.8496258e-16)
(101.09393 12.136032 0)
(101.41236 11.004269 2.8607859e-16)
(101.65669 9.7197144 -2.8608809e-16)
(101.33737 8.2402908 0)
(101.12813 6.9911265 0)
(100.41722 6.2870207 0)
(99.915015 6.019766 -3.0109437e-16)
(99.053001 6.0157182 3.0104557e-16)
(100.29138 10.999228 -2.4910102e-16)
(100.64436 11.393749 0)
(100.91279 11.665151 0)
(101.19611 11.889686 0)
(101.40177 11.969007 0)
(101.4243 12.068131 0)
(101.36089 12.088424 0)
(101.26724 12.191524 2.506175e-16)
(101.00898 12.219723 -5.031896e-16)
(98.545357 6.1519877 1.2793891e-19)
(99.001588 6.5176832 -4.3758263e-16)
(99.130872 6.8874613 0)
(99.550457 7.2207144 -2.1926344e-16)
(99.664226 7.5175282 2.1925571e-16)
(100.09926 7.8210845 0)
(100.16617 8.1256324 0)
(100.53102 8.4408829 0)
(100.49455 8.7675476 0)
(99.623556 4.8516054 3.8461274e-16)
(99.901236 5.1734526 0)
(99.911236 5.7504774 1.9245865e-16)
(100.21127 6.0681834 -3.8498622e-16)
(100.23759 6.6429251 1.9252363e-16)
(100.56756 6.949531 0)
(100.5951 7.5419175 0)
(100.97075 7.8654842 0)
(100.96406 8.4557591 1.9277201e-16)
(99.499721 2.4247183 0)
(99.802124 2.6239644 3.451506e-16)
(99.788515 3.0275083 -5.1776081e-16)
(100.13936 3.2384457 1.7262986e-16)
(100.14506 3.6970134 1.7267283e-16)
(100.56139 3.9276993 -1.0060877e-20)
(100.57711 4.4374072 -3.4540321e-16)
(101.03162 4.6811265 3.4538464e-16)
(101.06817 5.2426576 -1.7268689e-16)
(100.11697 1.6774886 0)
(100.16247 1.8725054 1.5606036e-16)
(100.33598 2.2226821 -1.5606035e-16)
(100.39901 2.4185582 0)
(100.59856 2.7792938 -3.1209938e-16)
(100.68381 3.0095685 3.1208983e-16)
(100.96052 3.4124825 1.559399e-16)
(101.06054 3.6807002 -3.1178017e-16)
(101.40325 4.1275841 1.5584255e-16)
(99.973476 0.57819442 0)
(100.12609 0.65411581 0)
(100.14846 0.83916997 0)
(100.35546 0.99729729 -1.4315332e-16)
(100.45266 1.1198663 2.8616353e-16)
(100.62129 1.4024386 -2.8602608e-16)
(100.87971 1.4997002 1.429419e-16)
(100.9655 1.8378679 -1.4267367e-16)
(101.34158 1.9411376 2.8527799e-16)
(100.13454 0.35962982 -2.6403444e-16)
(100.24354 0.40219941 1.9990484e-20)
(100.27762 0.54805703 1.3203372e-16)
(100.4254 0.58707662 -1.3195662e-16)
(100.48984 0.77178673 1.3197167e-16)
(100.68472 0.80307126 0)
(100.78852 1.0249449 1.3173209e-16)
(101.04742 1.0426758 -2.6337753e-16)
(101.1905 1.3032141 1.3165589e-16)
(100.03466 -0.1290914 -7.418268e-22)
(100.07427 -0.13907772 1.2292946e-16)
(100.11496 -0.11286109 1.2298599e-16)
(100.20627 -0.1200236 -1.2298609e-16)
(100.26726 -0.061859896 0)
(100.3972 -0.060859733 0)
(100.47352 0.0016318567 -1.2285631e-16)
(100.6474 0.02241062 2.4563754e-16)
(100.76003 0.077678556 -1.2276501e-16)
(101.01262 0.09909499 0)
(101.17128 0.20025369 -1.2237377e-16)
(101.51666 0.23816857 2.1467719e-19)
(101.73471 0.34409628 2.5292651e-19)
(102.17599 0.41177547 2.9172365e-19)
(102.46199 0.53388105 1.2163023e-16)
(102.98953 0.60852085 1.2090121e-16)
(103.38905 0.73589895 -1.2090122e-16)
(104.00123 0.8396354 0)
(101.53415 1.3357143 0)
(101.72947 1.6170319 0)
(102.12212 1.6025445 -1.3077912e-16)
(102.43787 1.9950667 3.17116e-19)
(102.82602 1.9751136 3.5854274e-19)
(103.32614 2.3163308 1.3018612e-16)
(103.70335 2.3984977 1.293186e-16)
(104.38519 2.7061302 -1.2931858e-16)
(104.76972 2.8871231 0)
(101.45771 2.3498417 -1.4261969e-16)
(101.8805 2.4495906 0)
(102.03367 2.9174637 0)
(102.57552 3.053569 -1.4179549e-16)
(102.74013 3.5628354 2.8329658e-16)
(103.36112 3.7540526 -3.6142922e-19)
(103.57793 4.3183227 -4.1255048e-19)
(104.30504 4.5529552 -1.4076306e-16)
(104.55572 5.1153507 0)
(101.55032 4.4067699 -1.5558597e-16)
(101.97359 4.8335168 1.5558593e-16)
(102.0793 5.264265 0)
(102.63517 5.6042846 0)
(102.74204 6.1354777 1.5467468e-16)
(103.36356 6.5428278 -1.5467495e-16)
(103.55674 6.9840084 1.5393765e-16)
(104.2116 7.5679699 -7.7194542e-17)
(104.51193 7.9333676 -7.6730931e-17)
(101.50191 5.4772895 -1.7261704e-16)
(101.6318 6.112039 1.7261352e-16)
(101.99831 6.3709849 0)
(102.18463 7.0535393 0)
(102.62663 7.3597552 0)
(102.71162 8.0903669 0)
(103.31826 8.4700545 0)
(103.31021 9.255407 0)
(104.01644 9.6830089 0)
(101.4164 8.8258861 -1.927712e-16)
(101.32774 9.4060949 1.9288396e-16)
(101.81439 9.8187393 -1.928585e-16)
(101.69162 10.439985 1.9308411e-16)
(102.16628 10.864183 -1.9310416e-16)
(102.06615 11.575801 0)
(102.54048 12.052119 0)
(102.41167 12.848919 0)
(102.9709 13.401143 0)
(100.79013 9.1216789 0)
(100.66536 9.468474 -2.220469e-16)
(100.9154 9.8599829 2.2202407e-16)
(100.69763 10.254528 0)
(100.94245 10.763041 2.2407764e-16)
(100.60728 11.241057 -2.2409611e-16)
(100.86081 11.874688 0)
(100.40202 12.47534 1.1319004e-16)
(100.7058 13.26519 -2.2672944e-16)
(100.88945 12.435003 2.5248182e-16)
(100.49843 12.606629 2.5529932e-16)
(100.37802 13.038729 -2.5548682e-16)
(99.828624 13.347403 2.588362e-16)
(99.675569 13.828244 -5.1933955e-16)
(99.028761 14.148294 5.2294018e-16)
(98.876249 14.740454 -5.263592e-16)
(98.039054 15.323172 2.6412411e-16)
(97.836139 16.124854 0)
(98.50687 6.3585142 -3.0833122e-16)
(97.604147 6.7680807 3.0832943e-16)
(97.107013 7.108913 0)
(96.209841 7.0347786 0)
(95.70895 7.276878 0)
(94.832033 7.0236175 0)
(94.335503 7.6121492 0)
(93.124606 7.6515205 -1.6768164e-16)
(92.28171 8.9666425 1.6792726e-16)
(90.556665 9.6773248 1.7242072e-16)
(96.903278 17.057419 0)
(100.11591 14.064707 1.1360188e-16)
(102.8152 14.314111 0)
(104.0397 10.614125 0)
(105.17514 8.6411848 0)
(105.39177 5.4203737 6.958556e-17)
(105.61191 3.1457089 6.3773114e-17)
(104.53496 0.97642812 5.9667667e-17)
(89.655753 11.327772 -1.7241802e-16)
(96.784059 18.010664 0)
(100.51814 14.960577 0)
(103.46485 14.952252 9.6568642e-17)
(104.73137 11.040806 0)
(105.59228 8.9979245 -7.5843139e-17)
(105.70754 6.0458707 -1.3885409e-16)
(106.06154 3.3989432 -1.2719181e-16)
(105.26327 1.1021328 -1.1899605e-16)
(87.844005 11.717266 0)
(95.850899 19.167883 0)
(99.91806 15.98759 1.1459495e-16)
(103.28536 16.025359 -9.6570436e-17)
(104.93666 12.147557 0)
(106.34234 9.8086896 7.5843122e-17)
(106.65092 6.3392287 6.9259003e-17)
(107.04963 3.6283645 6.3411619e-17)
(105.92402 1.2555706 5.9328369e-17)
(87.04446 12.925844 1.782349e-16)
(95.784711 20.186658 0)
(100.38678 16.913407 -2.2944913e-16)
(104.03087 16.728709 0)
(105.56852 12.626242 0)
(106.82353 10.20519 -7.5010622e-17)
(107.02828 7.063576 -6.8457329e-17)
(107.56723 4.020878 0)
(106.78898 1.3932762 -5.8511179e-17)
(85.254027 13.03824 -1.7823336e-16)
(94.737896 21.510785 -1.3860691e-16)
(99.847789 18.163118 1.1482941e-16)
(103.8851 17.991003 0)
(105.89241 13.868708 0)
(107.68091 11.135712 7.5010593e-17)
(108.11638 7.3369075 6.8457303e-17)
(108.72343 4.1785547 0)
(107.60406 1.5568199 5.8511172e-17)
(84.678644 14.396183 0)
(94.68573 22.590999 1.3858357e-16)
(100.35613 19.179681 -1.1503306e-16)
(104.72756 18.739739 0)
(106.65813 14.38889 0)
(108.33776 11.509844 -7.3934797e-17)
(108.56376 8.1410367 -6.7451501e-17)
(109.31892 4.6636788 0)
(108.60569 1.7113706 -5.7484595e-17)
(82.722529 14.910104 0)
(93.616119 24.136171 0)
(99.791283 20.679054 1.1503294e-16)
(104.67723 20.227286 -4.7601663e-17)
(107.00857 15.775353 -4.1783657e-17)
(109.18787 12.654825 1.1058207e-16)
(109.81322 8.4778852 1.008813e-16)
(110.64515 4.8206176 0)
(109.57632 1.8907298 8.5928428e-17)
(82.374492 16.833607 0)
(93.632391 25.346828 -6.9898085e-17)
(100.39703 21.769852 0)
(105.60946 21.009575 4.7587546e-17)
(107.92658 16.322273 4.1767184e-17)
(110.134 12.95988 -3.5315256e-19)
(110.34903 9.258467 -6.6528529e-17)
(111.32246 5.3486658 0)
(110.72104 2.0449612 -2.8443835e-17)
(80.075593 17.660694 -9.2835793e-17)
(92.587015 27.316721 6.9881067e-17)
(99.887545 23.711093 0)
(105.67174 22.762567 0)
(108.42401 17.976162 0)
(110.95874 14.350954 -7.2163995e-17)
(111.77068 9.6820628 3.750544e-19)
(112.81963 5.5783646 0)
(111.84276 2.2228806 0)
(113.35563 2.3964186 0)
(113.61156 6.0510576 0)
(112.46101 10.443938 -1.6016691e-18)
(112.14199 14.492496 3.7660991e-17)
(109.42721 18.339654 0)
(106.81562 23.452852 -5.9509652e-18)
(100.8021 24.685918 -5.6649743e-19)
(92.835609 28.890982 -5.8172458e-17)
(79.897966 20.492029 1.7407128e-16)
(114.77779 2.5214406 -1.3606396e-17)
(115.24958 6.1909946 -1.8567955e-18)
(114.13088 10.797612 1.6458075e-17)
(113.05802 15.835786 -6.5582039e-20)
(110.35461 19.861138 -1.7521082e-17)
(107.07474 25.20554 2.2678099e-17)
(100.75052 26.861318 -7.2118907e-18)
(92.055532 31.76031 7.5589995e-17)
(78.542011 25.798699 -8.9006805e-17)
(116.24274 2.6239037 2.7235529e-17)
(116.20943 6.6256091 0)
(114.9767 11.378051 3.2128791e-17)
(114.41988 15.864256 -1.7451791e-17)
(111.56797 20.148494 1.7717165e-17)
(108.6204 25.747253 -4.2912193e-17)
(102.41612 27.675429 -3.4784194e-17)
(93.803525 33.216813 1.7243566e-17)
(81.167954 28.347015 1.8635572e-18)
(117.82001 2.7273038 -1.3648809e-17)
(118.02099 6.7311814 -1.8367787e-18)
(116.88538 11.901519 -1.4149829e-17)
(115.68647 17.270357 1.9936953e-17)
(112.87991 21.736108 7.4819338e-18)
(109.22965 27.653372 2.3057721e-17)
(102.89365 30.038788 2.8057168e-17)
(93.959233 36.116156 9.1112353e-18)
(81.227112 32.879306 -1.0432774e-17)
(119.51874 2.8343037 3.2984914e-18)
(119.1662 7.1624819 -3.5673347e-18)
(117.90245 12.298983 -1.996394e-18)
(117.01018 17.265595 6.480577e-18)
(114.35438 21.854509 -7.5446659e-18)
(111.05118 28.004474 -8.4345111e-18)
(104.96519 30.608697 -7.2259333e-18)
(96.118644 37.219022 8.1600154e-18)
(83.911083 34.621193 -1.2140011e-17)
(121.31588 2.941578 -3.3374394e-18)
(121.17237 7.2642998 3.6102272e-18)
(120.02947 12.868265 -1.9784431e-18)
(118.72459 18.544709 -1.0502052e-20)
(115.81305 23.501468 -2.4247988e-18)
(111.92465 29.936364 5.7293527e-18)
(105.79122 33.017206 -7.1988115e-18)
(96.603393 39.949298 8.148537e-18)
(84.348157 38.783929 0)
(123.19785 3.0407378 -3.1946628e-18)
(122.48069 7.7041928 -1.780158e-18)
(121.16999 13.209479 -1.9084221e-18)
(120.025 18.568852 -2.1934605e-18)
(117.51764 23.405326 -2.4461369e-18)
(113.88756 30.069389 5.8891738e-18)
(108.00643 33.358379 -1.3745925e-17)
(98.97641 40.721118 1.7171683e-17)
(87.122252 40.077869 -1.046675e-17)
(125.1606 3.1254456 9.4946488e-18)
(124.66929 7.8087379 6.8453618e-18)
(123.50739 13.726384 9.5025415e-18)
(122.06551 19.668179 1.0456075e-17)
(119.16129 25.04884 7.4015698e-18)
(115.0301 31.992055 -2.741013e-18)
(109.14347 35.742271 -7.0989948e-18)
(99.851319 43.418822 -9.2873697e-19)
(87.991976 43.704929 -1.1512998e-17)
(127.20805 3.1926506 -1.8574935e-17)
(126.09737 8.1488552 -6.9307194e-18)
(124.75635 13.946417 -2.4393635e-17)
(123.42772 19.667235 -6.4045984e-18)
(120.92577 24.797762 1.6461886e-17)
(117.12348 31.893462 8.4737275e-18)
(111.46341 35.806859 -4.0070555e-17)
(102.4234 43.903792 8.0160153e-18)
(90.798611 44.394368 2.2552483e-17)
(91.939476 47.534438 -2.2164235e-17)
(103.65599 46.558518 8.8711587e-18)
(112.92991 38.087887 5.9712347e-17)
(118.53227 33.782971 -8.3555992e-18)
(122.81201 26.360541 4.1023544e-18)
(125.62108 20.756875 1.2027224e-17)
(127.27036 14.462397 1.6910647e-17)
(128.45948 8.3004881 -8.3009211e-19)
(129.3378 3.2388354 2.506565e-17)
(94.7746 47.831519 8.6831404e-17)
(106.33798 46.724003 7.8390102e-18)
(115.33616 37.856762 -8.5130186e-17)
(120.73538 33.450364 -2.6311451e-18)
(124.6294 25.945322 -1.6546992e-17)
(127.22582 20.429398 -1.4412237e-17)
(128.66172 14.425706 -3.0259954e-17)
(129.9735 8.5299923 0)
(131.54713 3.2621416 -1.205802e-17)
(96.128216 50.687967 -1.1122991e-16)
(107.90554 49.247655 7.8967448e-17)
(117.10682 40.011472 4.5951084e-17)
(122.41073 35.292952 -2.5822595e-18)
(126.72533 27.413398 3.5810706e-17)
(129.42276 21.66715 6.4648847e-20)
(131.31154 15.048849 4.6682821e-18)
(132.49003 8.7221625 2.3394464e-17)
(133.82473 3.2648973 2.2326335e-17)
(99.020161 50.744694 -2.1726172e-17)
(110.67696 49.077085 1.3240766e-17)
(119.58709 39.504689 -6.5619069e-18)
(124.6857 34.707147 0)
(128.65182 26.779169 -3.6343814e-17)
(131.2391 21.022931 0)
(132.80765 14.781485 2.6395343e-17)
(134.06604 8.8020331 -4.8025924e-17)
(136.16088 3.2449998 -1.1244019e-18)
(100.67604 53.63191 -9.9904609e-18)
(112.50861 51.411855 -6.1884021e-17)
(121.65159 41.546431 6.4021194e-18)
(126.61073 36.458359 0)
(130.90844 28.18809 -3.6051034e-17)
(133.53696 22.258983 2.9367264e-17)
(135.58274 15.256987 1.6877783e-18)
(136.73257 9.0090606 4.8029413e-17)
(138.53745 3.1979999 -2.1730929e-17)
(103.63109 53.512332 -9.496165e-17)
(115.43717 50.979662 -5.0814951e-17)
(124.13935 40.769562 -4.3359324e-19)
(128.89135 35.623469 -5.0757023e-18)
(132.92455 27.292825 -4.4116874e-19)
(135.42028 21.399558 -5.8077713e-17)
(137.20894 14.853406 1.632359e-18)
(138.33206 8.9772294 -2.376524e-17)
(140.94468 3.1221765 0)
(105.75585 56.459333 6.5288557e-17)
(117.45787 53.083277 7.4721107e-17)
(126.49327 42.638553 -3.9701434e-19)
(131.03479 37.229731 -4.9192842e-18)
(135.35497 28.605313 3.1514738e-17)
(137.82655 22.488034 3.0627983e-17)
(139.99333 15.242076 1.5348088e-18)
(141.07764 9.1617395 -1.4063564e-18)
(143.36488 3.0152368 0)
(108.7939 55.984255 0)
(120.69431 52.542419 -6.815182e-18)
(128.92509 41.564445 5.809133e-18)
(133.30592 36.137834 -6.8832557e-17)
(137.35805 27.505598 -1.9990161e-18)
(139.8388 21.491372 5.0918251e-17)
(141.67957 14.594629 -4.4584665e-17)
(142.7501 9.026139 4.1315442e-17)
(145.78024 2.8739216 3.4919872e-17)
(111.5038 58.79555 1.4656745e-16)
(122.86173 54.257008 1.1721932e-16)
(131.51531 43.194601 -5.5736995e-18)
(135.65417 37.611998 7.2579409e-17)
(140.01192 28.653017 -1.8538766e-18)
(142.2642 22.425138 -5.1804534e-17)
(144.51665 14.972439 4.8201357e-17)
(145.47558 9.112654 -4.3175799e-17)
(148.1581 2.7211982 -2.5674454e-18)
(150.69153 2.4756343 -3.2481933e-17)
(147.23541 8.8834887 3.5958893e-17)
(146.16782 14.004197 0)
(144.28971 21.221047 -3.0572014e-18)
(141.98186 27.279576 5.6561744e-17)
(137.88515 36.162877 6.0838264e-17)
(133.97487 41.692513 0)
(126.56425 53.484657 -8.1790002e-18)
(114.94732 57.709856 -1.433852e-16)
(152.82129 2.1793513 0)
(149.93614 8.7345129 -3.7198229e-17)
(149.11775 14.233833 0)
(147.04149 21.878224 -2.9120444e-18)
(144.93676 28.187933 -1.01947e-16)
(140.66628 37.41572 -6.6401573e-17)
(136.86954 42.848783 7.4936962e-17)
(129.25613 54.549362 -8.7639449e-17)
(119.31833 60.647104 1.0519444e-16)
(154.9529 1.8120984 0)
(151.73406 8.3289362 0)
(150.70487 13.067593 -3.5930627e-17)
(148.86369 20.314323 0)
(146.96333 26.436156 5.1925945e-17)
(142.92528 35.623716 -5.5446233e-17)
(139.49046 40.989447 -6.8416135e-17)
(133.31047 53.155597 -4.9603064e-18)
(123.35154 58.75383 -2.495329e-17)
(156.9845 1.4229777 0)
(154.33792 8.0152513 0)
(153.57008 13.069768 3.6676483e-17)
(151.84015 20.822296 3.603069e-17)
(149.89663 27.108705 4.498913e-17)
(145.80484 36.673232 6.0374533e-17)
(142.18829 41.710094 0)
(135.80723 53.259857 6.993143e-17)
(129.50042 60.672986 -1.1475822e-16)
(158.8491 1.0316258 3.816965e-19)
(156.00256 7.5210454 -4.1946341e-19)
(155.12158 11.77479 0)
(153.4646 19.041824 -3.6228242e-18)
(152.12178 25.213595 -9.1275595e-17)
(148.00413 34.679361 3.1727901e-18)
(144.7136 39.768209 6.3127598e-17)
(139.08392 51.081216 -7.6900609e-17)
(133.67047 58.750928 8.0406865e-17)
(160.5346 0.6360288 -3.4628287e-19)
(158.45418 7.1399866 3.811917e-19)
(157.77948 11.631339 0)
(156.41258 19.282706 -3.9003713e-17)
(154.74033 25.538385 4.8420705e-17)
(150.92679 35.580599 -2.9689539e-18)
(146.88388 40.255736 -6.5274748e-17)
(141.02941 50.327892 0)
(141.24724 58.915758 -7.8093232e-17)
(162.02555 0.2415089 3.1141721e-19)
(159.87092 6.4507029 2.2075398e-17)
(159.34924 10.157557 -8.8119251e-19)
(157.98713 17.228359 2.9175144e-17)
(157.05935 23.442308 3.8157493e-17)
(153.28494 33.461672 0)
(149.49736 38.618175 0)
(143.11296 47.235232 -7.017836e-17)
(145.18902 56.788478 0)
(163.39305 -0.20322974 0)
(162.05173 5.9587413 -2.2881283e-17)
(161.49651 9.819265 0)
(160.57284 17.289849 -3.2866567e-17)
(159.53168 23.396693 -3.4690459e-17)
(156.0738 34.052622 3.8248199e-17)
(151.353 39.299315 0)
(143.62645 46.150989 7.5476615e-17)
(152.53159 55.296058 4.6203787e-19)
(164.08617 -0.48895385 0)
(163.20413 5.1749402 0)
(163.10219 8.3541302 -7.20416e-19)
(162.15316 14.718993 -9.0176015e-19)
(162.04034 20.546732 1.9084846e-18)
(158.98954 31.516747 -3.9482344e-17)
(155.37196 38.05359 0)
(144.54905 43.385227 0)
(152.56566 50.217423 -3.5771673e-18)
(165.20829 -0.96518197 -4.1441617e-19)
(164.98665 4.6204362 -7.294985e-20)
(164.64931 7.8328226 1.7734318e-17)
(164.12786 15.340501 0)
(163.49805 21.038505 0)
(161.16607 31.953773 -2.0308789e-18)
(155.51132 39.936736 -3.6996338e-17)
(143.17589 45.555239 1.9454518e-18)
(158.82348 49.982833 0)
(166.15022 -0.91698564 -3.4135394e-19)
(165.83061 4.3437865 -6.2009662e-20)
(166.25198 7.4975198 -1.6088852e-17)
(165.71274 14.260157 0)
(165.83636 21.079203 0)
(163.73174 32.866284 1.547876e-18)
(158.12794 41.185701 9.0649584e-17)
(143.62796 47.394471 -1.7836777e-18)
(154.9564 46.791285 -9.297941e-17)
(166.68426 -1.1022421 0)
(167.24232 3.7379543 2.0202342e-17)
(167.64397 6.9173781 0)
(167.57994 14.573271 9.08969e-19)
(167.15849 21.571077 -9.9239011e-19)
(165.28633 33.54614 -1.1313292e-18)
(157.9407 43.572559 -9.1265266e-17)
(141.2846 48.15499 1.5814485e-18)
(140.46816 42.56416 8.8376876e-17)
(166.74124 -1.542977 1.1988405e-17)
(167.7282 3.20879 -1.9316228e-17)
(168.77879 6.1976451 1.7406232e-17)
(169.18753 13.46021 1.9246162e-17)
(169.37097 21.542819 -2.160412e-17)
(166.85055 34.739459 1.9321299e-17)
(160.41396 44.912335 3.9019084e-17)
(135.43351 46.494662 1.2942248e-16)
(121.51505 47.11525 0)
(166.66633 -1.8127599 -2.203218e-17)
(168.81964 2.2886014 1.2875718e-17)
(170.11421 5.6016569 -1.6838299e-17)
(171.01702 13.556852 -5.4729219e-18)
(170.8032 21.855731 2.0569322e-17)
(168.33117 35.260329 -8.1142118e-18)
(160.80543 46.64975 0)
(129.39424 47.946487 -1.2429476e-16)
(90.265617 60.638807 0)
(166.43619 -2.1099978 1.848804e-17)
(169.08316 1.6352753 -1.2326896e-17)
(170.70715 4.5953989 9.6026414e-18)
(172.60461 12.138812 -1.2989537e-17)
(173.23409 21.468171 -2.3378567e-19)
(170.18622 36.470603 -1.0245311e-17)
(159.58546 50.001924 1.7290636e-17)
(119.39957 47.772897 8.9228663e-17)
(55.079934 40.512075 6.1113161e-17)
(165.97234 -2.3813344 -8.562937e-18)
(169.87001 0.39244651 2.5104439e-19)
(172.22306 3.9849096 -9.1257675e-18)
(174.45693 11.681532 8.8435299e-20)
(174.917 21.471243 -9.5400644e-20)
(171.52734 37.180857 6.7871657e-18)
(156.45451 50.528444 -3.1712886e-17)
(98.199982 38.037782 -8.4155591e-17)
(-4.7305343 -10.286582 -5.7953644e-17)
(165.25248 -2.6229105 -9.7816463e-20)
(169.90954 -0.36972878 1.0546243e-19)
(172.19584 2.586966 3.2503434e-18)
(175.87656 10.04606 -2.7157657e-18)
(177.3103 20.949226 8.913041e-18)
(173.3197 37.868845 -2.2757095e-17)
(150.8429 52.358204 2.6587151e-17)
(69.896333 29.828056 6.1895259e-17)
(-14.415647 -11.179212 7.256863e-17)
(164.2986 -2.8498555 6.7151401e-18)
(170.34971 -1.874883 -4.4477403e-20)
(173.41188 1.8752234 -2.2401452e-18)
(177.51251 9.4371654 2.6335972e-18)
(178.77858 20.594406 -8.1396284e-18)
(173.75279 38.277664 1.5270584e-17)
(140.32465 51.750643 -1.294703e-17)
(33.105489 9.0487632 -5.8774908e-17)
(-19.027824 -6.8540288 -6.9144226e-17)
(-20.736769 -8.2969064 -1.2919451e-16)
(11.22975 -2.2645195 -1.5982372e-19)
(129.94327 53.135881 1.6217181e-19)
(174.21989 38.26115 -1.3828292e-19)
(180.64753 20.040237 0)
(178.66291 7.5907728 7.691661e-20)
(173.33038 0.43868964 9.7274508e-20)
(170.04177 -2.5921732 -2.2642553e-18)
(163.12079 -3.0584635 -1.3583036e-17)
(-21.36081 -7.3819872 1.2418346e-16)
(-1.7275229 -6.8426922 0)
(120.08437 52.268761 0)
(174.51079 37.515401 1.0188043e-16)
(181.91138 18.298701 0)
(179.60298 6.1795225 -2.8960313e-17)
(173.8515 -0.81684421 -6.6893115e-18)
(169.81501 -4.1083941 2.1746185e-18)
(161.74141 -3.2403422 -7.9014438e-18)
(-21.044195 -7.5048113 2.5903158e-19)
(-5.2027695 -1.2829307 -2.090497e-19)
(108.65923 51.845101 0)
(174.15678 37.017023 -9.9313514e-17)
(183.38496 17.494386 0)
(180.41773 4.12765 2.8580356e-17)
(173.67827 -2.2538641 5.4253112e-18)
(169.04752 -4.8057969 -2.2115554e-20)
(160.17452 -3.3990113 1.459637e-17)
(-20.964596 -6.3687853 2.5104205e-16)
(-1.5182411 10.642431 7.4258209e-17)
(100.37364 50.323014 -3.7165777e-19)
(173.58398 36.078923 0)
(184.24103 15.371492 -7.7013895e-17)
(181.06249 2.6818309 0)
(173.63446 -3.6816453 -2.7074439e-20)
(168.43081 -6.2746908 -1.5304437e-20)
(158.43962 -3.5311962 3.6186013e-20)
(-19.45513 -4.5241055 -2.4187868e-16)
(1.1473393 20.497105 -2.0913886e-17)
(91.058563 50.246467 -1.4944446e-19)
(172.4924 35.491225 -5.1636519e-19)
(185.21637 14.238551 -9.565521e-18)
(181.77445 0.48616562 0)
(173.37646 -5.0805072 -1.1452501e-17)
(167.13788 -7.0567017 0)
(156.56883 -3.6117855 0)
(-17.777878 -1.8289648 4.1059327e-19)
(2.2918551 27.444241 -4.9709849e-17)
(84.636242 49.087999 -1.5587584e-17)
(171.29737 34.113877 1.6506227e-16)
(185.64945 11.911712 8.359723e-17)
(181.88366 -1.122145 4.7401273e-17)
(172.80252 -6.6382961 1.1044354e-17)