/*--------------------------------*- C++ -*----------------------------------*\
  =========                 |
  \\      /  F ield         | OpenFOAM: The Open Source CFD Toolbox
   \\    /   O peration     | Website:  https://openfoam.org
    \\  /    A nd           | Version:  11
     \\/     M anipulation  |
\*---------------------------------------------------------------------------*/
FoamFile
{
    format      ascii;
    class       volScalarField;
    location    "0.0305";
    object      Ma;
}
// * * * * * * * * * * * * * * * * * * * * * * * * * * * * * * * * * * * * * //

dimensions      [0 0 0 0 0 0 0];

internalField   nonuniform List<scalar> 
880
(
1.443353270571932
1.443353270571932
1.443353270571932
1.44335327041255
1.443353270571932
1.443353270571932
1.443353270571934
1.443353282671466
1.443353270571932
1.443353270571933
1.443353270571932
1.443353270756221
1.443353270571932
1.443353270571932
1.443353270571932
1.443347561161122
1.443353270571932
1.443353270571932
1.443353270571933
1.443353270571932
1.443353270571932
1.443353270571932
1.443353270571935
1.443353270571932
1.443353270571932
1.443353270568031
1.443353275489159
1.443353258849579
1.443124361503278
1.442236718795015
1.441792769660753
1.441901205584382
1.443353270568739
1.443353270567571
1.443353270567403
1.443353270571495
1.443353270372629
1.44335327035131
1.443353270331921
1.443353270348915
1.443352582032143
1.443352500468474
1.443352460832011
1.443352360404754
1.441759538746722
1.441670935268878
1.441640285292148
1.441304856875476
1.44201480502315
1.443349977709425
1.443495497010412
1.44336789256248
1.443351700167214
1.443352859701514
1.443353348768863
1.443353286741266
1.443353269706347
1.443353270262129
1.44335327058292
1.443353270579825
1.443353270539494
1.443353270548298
1.443353270567701
1.443353270571932
1.443353270571933
1.443353270571933
1.443353270571932
1.443353270571932
1.443353270573442
1.443353270571932
1.443353270571932
1.443353270571932
1.443353271108347
1.443353270578373
1.443353270572205
1.443353270572233
1.443353539332814
1.44335327546542
1.443353268078741
1.443353270389302
1.443353270573908
1.443353270571932
1.443353270571932
1.443353270571932
1.44335326887629
1.443353270561662
1.443353270572216
1.443353270571932
1.443353563518804
1.443353263841836
1.443353270563273
1.443353270571932
1.444274868930267
1.443354298049581
1.443353271160366
1.443353270571173
1.443353270571934
1.443353270490333
1.443352773207007
1.440781704782445
1.443353270566181
1.443353269983169
1.443350322372604
1.432364159468914
1.443353270563765
1.443353269789928
1.4433495775611
1.430991366710765
1.443353270562147
1.443353269621148
1.44334906047957
1.430459345965459
1.429839940840181
1.443348424895122
1.443353269397306
1.443353270558893
1.429131728605065
1.44334764235836
1.443353269105453
1.443353270555428
1.428324921904557
1.44334667053782
1.443353268716167
1.443353270550484
1.427311158552734
1.443345341284781
1.443353268153192
1.443353270540502
1.443353270553129
1.443353269142657
1.443347791045243
1.429815789536508
1.443353270554025
1.443353269166401
1.443348300162787
1.431910993229102
1.443353270731583
1.443353269120517
1.443348649888708
1.433719019491793
1.443353269919522
1.443353269894625
1.443351359648164
1.439611191447031
1.443353270383381
1.443353591793691
1.443240951206855
1.44149608530211
1.443353269762889
1.443352803155477
1.442967584059415
1.405448089786558
1.443353269916489
1.443352711063792
1.442783278938156
1.379180573947619
1.443353270084244
1.443352768140936
1.442712646618116
1.370703634446336
1.390554919555544
1.443032828460951
1.443353003151052
1.443353270186428
1.394155814904297
1.443068133734633
1.443353049618044
1.443353270177431
1.400002588480411
1.44314632185507
1.443353133037966
1.443353270240752
1.389125887853128
1.443055354736955
1.443353068257865
1.443353270358608
1.429413813993532
1.443313880135342
1.44335324556163
1.443353270536942
1.442367146665274
1.443352172362091
1.443353270240689
1.443353270566579
1.443383652471274
1.443353327850809
1.443353270641961
1.443353270571932
1.443708892246671
1.443353945155894
1.443353271055051
1.443353270560558
1.440134955261214
1.443341277757321
1.44335326784625
1.443353271026647
1.440143981254547
1.443341296561114
1.443353267746671
1.443353271019206
1.440162941599963
1.443341252799971
1.443353266229149
1.443353270966284
1.440182734039239
1.443341171587346
1.443353262608868
1.443353270848379
1.443708892249372
1.443353945157783
1.443353271057529
1.443353270559806
1.443383652474354
1.443353327852888
1.443353270646822
1.443353270571933
1.442367146666101
1.443352172361625
1.443353270240688
1.443353270566198
1.429413813989615
1.443313880130338
1.443353245561378
1.443353270538109
1.443353270183178
1.443353003145441
1.443032828458601
1.390554919554216
1.443353270175488
1.443353049617258
1.443068133732446
1.394155814903326
1.443353270243334
1.443353133034853
1.44314632185498
1.40000258847447
1.443353270358184
1.443353068256747
1.443055354732511
1.389125887855423
1.370703634449572
1.442712646621139
1.443352768143136
1.443353270085194
1.379180573951192
1.442783278941277
1.443352711069334
1.443353269921386
1.405448089786905
1.442967584063458
1.443352803155463
1.443353269766947
1.441496085300835
1.443240951208366
1.443353591795499
1.443353270377264
1.443353270553672
1.443353269140295
1.44334779104344
1.429815789532247
1.443353270553645
1.443353269165385
1.443348300162611
1.431910993229581
1.443353270728821
1.443353269120943
1.443348649891091
1.433719019492284
1.443353269914793
1.443353269894827
1.443351359649964
1.439611191447158
1.42731115854527
1.44334534128783
1.443353268149619
1.44335327054099
1.428324921898323
1.443346670532261
1.443353268715439
1.443353270550208
1.429131728606846
1.443347642352845
1.443353269102622
1.443353270555627
1.429839940836797
1.443348424899833
1.443353269397134
1.443353270559215
1.443353270571932
1.443353270488251
1.443352773207457
1.44078170478857
1.443353270567206
1.443353269985499
1.443350322370779
1.432364159468996
1.44335327056416
1.443353269789697
1.443349577560285
1.430991366707673
1.443353270562525
1.443353269620594
1.443349060481749
1.430459345964929
1.443353270571152
1.443353270571932
1.443353270571932
1.443353270571932
1.443353271163948
1.443353270563536
1.443353270570474
1.443353270571932
1.443354298048622
1.44335326383923
1.44335327056331
1.443353270571932
1.444274868929879
1.443353563518634
1.44335326887614
1.443353270573862
1.443353270571934
1.443353270571932
1.443353270572187
1.44335327038855
1.443353270571932
1.443353270571932
1.443353270569537
1.443353268078684
1.443353270571932
1.443353270571932
1.443353270579795
1.443353275465118
1.443353270571932
1.443353270572589
1.44335327110613
1.443353539333448
1.443353270541308
1.443353269709699
1.443351700169997
1.442014805023809
1.443353270550545
1.443353270261707
1.443352859701694
1.443349977712772
1.443353270567878
1.443353270579196
1.44335334877001
1.443495497010832
1.443353270571942
1.443353270578844
1.443353286740797
1.443367892565532
1.441304856874047
1.443352360399227
1.443353270350385
1.443353270571753
1.441640285293662
1.443352460824175
1.443353270332445
1.443353270567148
1.441670935263999
1.443352500464956
1.443353270351082
1.443353270567985
1.441759538748073
1.44335258204294
1.443353270373537
1.443353270568522
1.441901205581986
1.443353258848914
1.443353270571932
1.443353270571932
1.441792769662183
1.443353275493193
1.443353270571932
1.443353270571933
1.442236718792785
1.443353270569883
1.443353270571932
1.443353270571933
1.443124361503967
1.443353270571932
1.443353270571932
1.443353270571934
1.443353270571932
1.443353270571933
1.443353270571932
1.443353270369633
1.443353270571931
1.443353270571932
1.443353270571932
1.443353282681987
1.443353270571932
1.443353270571932
1.443353270571932
1.443353270756352
1.443353270571932
1.443353270571932
1.443353270571934
1.443347561162807
1.443353300358915
1.443354185144667
1.443363759104907
1.443272702076233
1.443354185148669
1.443356996715173
1.443395753954189
1.443020283157032
1.443363759105195
1.443395753953337
1.443207075068192
1.429863511756537
1.443272702074426
1.443020283155767
1.429863511756797
1.279749143871998
1.162343253418524
1.26925001663844
1.393095643711322
1.431437393678664
1.205072751124265
1.248793914204891
1.334843656458834
1.385467060557207
1.248545323924548
1.280489886321638
1.339917351885532
1.372180254929897
1.258431930643125
1.290713510808919
1.345487759380231
1.373092634264435
1.370217834874518
1.369933220439166
1.370381868035255
1.352866125885992
1.343449703689094
1.343886058264972
1.344521267912046
1.341018367473479
1.287350208735954
1.288114382687701
1.288931380209198
1.332895578552252
1.25548825884086
1.257038833406109
1.257975219723008
1.383270627512348
1.424375379909711
1.458671674908282
1.448198975774917
1.443637644396995
1.457380997990153
1.48056433846518
1.45175550588357
1.443775387603902
1.560288970138515
1.526758171962447
1.457017862569173
1.444112501256062
1.333207990266813
1.392664490752004
1.432260582900929
1.441966325436584
1.443360088741695
1.443353505929984
1.443353208029678
1.443353269388116
1.443375465185472
1.443354936173586
1.443353262758799
1.443353270368655
1.443424635973134
1.443358047755083
1.443353325097404
1.443353270520062
1.443193901816683
1.443343773508609
1.443353127866175
1.443353270505427
1.443353270517944
1.443353271096838
1.443352955823687
1.47900804909266
1.443353270583445
1.443353270649549
1.443353222166741
1.47960517963203
1.443353270642155
1.443353270594101
1.443353267202413
1.347635294790375
1.44335327068169
1.443353270599478
1.443353269132007
1.159325194544578
1.178324096066135
1.085775785851644
1.106981396382937
1.108569710687977
0.9568298086709405
1.024632195894909
1.05633858193554
1.057751328665642
0.7904387722542833
0.9642103032359941
0.9961706433417856
0.9967956946634285
0.7262875202554367
0.9261878334861902
0.9568589584420629
0.9574449475217037
1.108553244885628
1.108295474814056
1.10803007179623
1.109052223367919
1.057612493798201
1.057448728810754
1.057394736412602
1.058899807217454
0.9964371176579389
0.9963088178695625
0.9963411020686997
0.9975185146246111
0.9570325817506161
0.9568221804628716
0.9568201628104865
0.957027268104924
1.129891074636727
1.141709494352938
1.159075883326946
1.231583066041711
1.069034098822115
1.073152929428043
1.091554637174613
1.167767922640329
0.9998495244255555
0.9973572562467056
1.027967399748698
1.277214777664116
0.9599156980041418
0.9592420016888772
1.007293944112404
1.570300686669966
1.446253106679846
1.157368150542751
0.5261945192446149
0.4115036300865219
1.438528499023571
1.016510131179352
0.1971135794943388
0.05670026633207002
1.230782991456675
0.9834703291031283
0.1607690139215134
0.2095318720608632
1.223239253738839
0.9347372287648534
0.07770868122188944
0.06093215726841364
0.4158191952732138
0.4210697909197583
0.427984454818517
0.4015099635469592
0.05624936342476296
0.05640830186022536
0.09515719119468136
0.515265348728615
0.216763537229333
0.2192016219267746
0.2536644807744311
0.7283432572971691
0.03440634301671943
0.03537341197678232
0.2012022950352906
0.9892779220279997
1.23558963019046
1.400882934383844
1.444631997327901
1.461095315847957
1.028443474217418
1.353695037243948
1.449896572264978
1.482007401435018
0.7911716243149669
1.291639719860282
1.444206850904823
1.66314724753552
0.8487425765574751
1.063850263710679
1.28520939212124
2.058180585639873
1.436313426638171
1.354712323927212
1.223907675087954
1.146460776113622
1.631548117042546
1.409386844468719
1.048752167757424
0.7690649778871105
2.086151439780612
1.855989919623714
1.277697633004868
0.7700934990381709
1.555625330535685
1.443717092389523
1.139399298426305
0.7410518532995959
0.2939043223017735
0.2418889651830042
0.2421076280533299
0.2430728019854589
0.5016435478585463
0.5049193180094059
0.5019959612505326
0.5018170672371669
0.694743707696764
0.7015686856628705
0.695844145960136
0.6925615690561535
1.118258096433497
1.119560378254067
1.117304430514582
1.115960549752674
0.2430728019856832
0.5018170672382408
0.6925615690549944
1.115960549750662
0.242107628052328
0.5019959612518758
0.6958441459609971
1.117304430516423
0.2418889651820378
0.5049193180089663
0.701568685664426
1.119560378254956
0.2939043223022391
0.5016435478578236
0.6947437076972656
1.118258096436011
1.146460776115129
1.223907675088903
1.35471232392996
1.436313426642557
0.7690649778889231
1.048752167757427
1.409386844464926
1.631548117045409
0.7700934990372583
1.277697633002778
1.855989919624517
2.086151439780664
0.7410518532991013
1.139399298426503
1.443717092388142
1.555625330535922
2.058180585639786
1.285209392120778
1.063850263711314
0.8487425765567436
1.663147247536666
1.444206850907879
1.291639719859501
0.7911716243143205
1.482007401436559
1.449896572268851
1.353695037243642
1.028443474217001
1.461095315849427
1.444631997330003
1.400882934384292
1.235589630188742
0.4015099635473542
0.4279844548181191
0.4210697909199267
0.4158191952737382
0.5152653487278211
0.09515719119383345
0.05640830185960435
0.05624936342337573
0.7283432572959417
0.2536644807748982
0.2192016219285798
0.2167635372296834
0.9892779220304426
0.2012022950370957
0.03537341197865428
0.03440634301835183
0.4115036300888343
0.526194519241041
1.157368150535888
1.446253106679364
0.05670026632909347
0.1971135794895135
1.016510131175923
1.438528499025526
0.2095318720601781
0.160769013922606
0.9834703290994581
1.230782991459334
0.06093215726823908
0.07770868121855583
0.9347372287639685
1.223239253739764
1.231583066043337
1.159075883326846
1.141709494353103
1.129891074634167
1.167767922641725
1.091554637174669
1.073152929427895
1.069034098820961
1.277214777666034
1.027967399749186
0.9973572562466501
0.9998495244258973
1.570300686672417
1.007293944113185
0.9592420016895912
0.9599156980057145
1.109052223366242
1.108030071793562
1.108295474813795
1.10855324488454
1.058899807217653
1.057394736411185
1.05744872881
1.057612493798292
0.9975185146259516
0.9963411020681477
0.9963088178693107
0.996437117658689
0.9570272681073674
0.9568201628110677
0.9568221804629004
0.9570325817515765
1.108569710688844
1.1069813963809
1.085775785852894
1.178324096066074
1.057751328666305
1.056338581934218
1.024632195896309
0.9568298086703073
0.9967956946639613
0.9961706433411142
0.9642103032369077
0.7904387722539624
0.9574449475221972
0.9568589584420527
0.926187833487251
0.7262875202545384
1.479008049092402
1.443352955823837
1.443353271096997
1.443353270517931
1.479605179631848
1.443353222166766
1.443353270649575
1.443353270583408
1.347635294789997
1.44335326720243
1.443353270594118
1.443353270642121
1.159325194544282
1.443353269131989
1.443353270599479
1.443353270681658
1.44335326938795
1.443353208028665
1.44335350592989
1.443360088741344
1.443353270368489
1.443353262757037
1.443354936173899
1.443375465185237
1.44335327051987
1.443353325095381
1.443358047755841
1.443424635972713
1.443353270505439
1.443353127865464
1.443343773509171
1.443193901819541
1.443637644399318
1.448198975775149
1.458671674909758
1.424375379909951
1.44377538760482
1.451755505883661
1.480564338465867
1.457380997990616
1.444112501256878
1.457017862569119
1.526758171962993
1.560288970139285
1.441966325435066
1.432260582901174
1.392664490752086
1.333207990267207
1.352866125886135
1.37038186803552
1.369933220437165
1.370217834872938
1.34101836747558
1.344521267912557
1.343886058264643
1.343449703686696
1.332895578555179
1.288931380210953
1.288114382690762
1.287350208734678
1.383270627515043
1.257975219725546
1.257038833409601
1.255488258839866
1.373092634263295
1.372180254930396
1.385467060555719
1.431437393677886
1.345487759380381
1.339917351886001
1.334843656459196
1.393095643711474
1.290713510808407
1.280489886325082
1.248793914205746
1.269250016639209
1.258431930643059
1.248545323928934
1.20507275112465
1.162343253418732
1.442833821887419
1.443351362657131
1.443353269186577
1.443353270621756
1.441421794417684
1.443347148711514
1.443353266801543
1.443353270722638
1.439618984328271
1.443341396622826
1.443353260051492
1.443353270730182
1.438588671762663
1.443338115431508
1.443353257243539
1.443353270760246
1.443353271025168
1.443353267847417
1.443341277756338
1.44013495526078
1.443353271018105
1.443353267744193
1.443341296564853
1.440143981252475
1.443353270967519
1.443353266226436
1.443341252799735
1.440162941603617
1.443353270852545
1.443353262605971
1.443341171598709
1.44018273404017
1.443353270760725
1.443353270730744
1.443353270727063
1.4433532706268
1.443353257242881
1.443353260051536
1.443353266802753
1.443353269189906
1.443338115427909
1.4433413966272
1.443347148706835
1.443351362660432
1.438588671766552
1.439618984332731
1.441421794415614
1.44283382188687
)
;

boundaryField
{
    back
    {
        type            empty;
    }
    inlet
    {
        type            calculated;
        value           nonuniform List<scalar> 
16
(
1.443353270571932
1.443353270571932
1.443353270571932
1.443353270571932
1.443353270571932
1.443353270571932
1.443353270571932
1.443353270571932
1.443353270571932
1.443353270571932
1.443353270571932
1.443353270571933
1.443353270571932
1.443353270571932
1.443353270571932
1.443353270571932
)
;
    }
    front
    {
        type            empty;
    }
    top
    {
        type            calculated;
        value           uniform 0;
    }
    outlet
    {
        type            calculated;
        value           nonuniform List<scalar> 
16
(
1.44335327120844
1.443353271199966
1.443353271125017
1.443353270961542
1.443353270640928
1.443353270784926
1.443353270793579
1.443353270838295
1.44335327120744
1.443353271199232
1.443353271125834
1.443353270964342
1.443353270838625
1.443353270793934
1.443353270787837
1.44335327064427
)
;
    }
    bottom
    {
        type            calculated;
        value           uniform 0;
    }
    wall
    {
        type            calculated;
        value           uniform 0;
    }
}


// ************************************************************************* //
