# Residuals             
# Time                  
0.299                   
0.299001                
0.299002                
0.299003                
0.299004                
0.299005                
0.299006                
0.299007                
0.299008                
0.299009                
0.29901                 
0.299011                
0.299012                
0.299013                
0.299014                
0.299015                
0.299016                
0.299017                
0.299018                
0.299019                
0.29902                 
0.299021                
0.299022                
0.299023                
0.299024                
0.299025                
0.299026                
0.299027                
0.299028                
0.299029                
0.29903                 
0.299031                
0.299032                
0.299033                
0.299034                
0.299035                
0.299036                
0.299037                
0.299038                
0.299039                
0.29904                 
0.299041                
0.299042                
0.299043                
0.299044                
0.299045                
0.299046                
0.299047                
0.299048                
0.299049                
0.29905                 
0.299051                
0.299052                
0.299053                
0.299054                
0.299055                
0.299056                
0.299057                
0.299058                
0.299059                
0.29906                 
0.299061                
0.299062                
0.299063                
0.299064                
0.299065                
0.299066                
0.299067                
0.299068                
0.299069                
0.29907                 
0.299071                
0.299072                
0.299073                
0.299074                
0.299075                
0.299076                
0.299077                
0.299078                
0.299079                
0.29908                 
0.299081                
0.299082                
0.299083                
0.299084                
0.299085                
0.299086                
0.299087                
0.299088                
0.299089                
0.29909                 
0.299091                
0.299092                
0.299093                
0.299094                
0.299095                
0.299096                
0.299097                
0.299098                
0.299099                
0.2991                  
0.299101                
0.299102                
0.299103                
0.299104                
0.299105                
0.299106                
0.299107                
0.299108                
0.299109                
0.29911                 
0.299111                
0.299112                
0.299113                
0.299114                
0.299115                
0.299116                
0.299117                
0.299118                
0.299119                
0.29912                 
0.299121                
0.299122                
0.299123                
0.299124                
0.299125                
0.299126                
0.299127                
0.299128                
0.299129                
0.29913                 
0.299131                
0.299132                
0.299133                
0.299134                
0.299135                
0.299136                
0.299137                
0.299138                
0.299139                
0.29914                 
0.299141                
0.299142                
0.299143                
0.299144                
0.299145                
0.299146                
0.299147                
0.299148                
0.299149                
0.29915                 
0.299151                
0.299152                
0.299153                
0.299154                
0.299155                
0.299156                
0.299157                
0.299158                
0.299159                
0.29916                 
0.299161                
0.299162                
0.299163                
0.299164                
0.299165                
0.299166                
0.299167                
0.299168                
0.299169                
0.29917                 
0.299171                
0.299172                
0.299173                
0.299174                
0.299175                
0.299176                
0.299177                
0.299178                
0.299179                
0.29918                 
0.299181                
0.299182                
0.299183                
0.299184                
0.299185                
0.299186                
0.299187                
0.299188                
0.299189                
0.29919                 
0.299191                
0.299192                
0.299193                
0.299194                
0.299195                
0.299196                
0.299197                
0.299198                
0.299199                
0.2992                  
0.299201                
0.299202                
0.299203                
0.299204                
0.299205                
0.299206                
0.299207                
0.299208                
0.299209                
0.29921                 
0.299211                
0.299212                
0.299213                
0.299214                
0.299215                
0.299216                
0.299217                
0.299218                
0.299219                
0.29922                 
0.299221                
0.299222                
0.299223                
0.299224                
0.299225                
0.299226                
0.299227                
0.299228                
0.299229                
0.29923                 
0.299231                
0.299232                
0.299233                
0.299234                
0.299235                
0.299236                
0.299237                
0.299238                
0.299239                
0.29924                 
0.299241                
0.299242                
0.299243                
0.299244                
0.299245                
0.299246                
0.299247                
0.299248                
0.299249                
0.29925                 
0.299251                
0.299252                
0.299253                
0.299254                
0.299255                
0.299256                
0.299257                
0.299258                
0.299259                
0.29926                 
0.299261                
0.299262                
0.299263                
0.299264                
0.299265                
0.299266                
0.299267                
0.299268                
0.299269                
0.29927                 
0.299271                
0.299272                
0.299273                
0.299274                
0.299275                
0.299276                
0.299277                
0.299278                
0.299279                
0.29928                 
0.299281                
0.299282                
0.299283                
0.299284                
0.299285                
0.299286                
0.299287                
0.299288                
0.299289                
0.29929                 
0.299291                
0.299292                
0.299293                
0.299294                
0.299295                
0.299296                
0.299297                
0.299298                
0.299299                
0.2993                  
0.299301                
0.299302                
0.299303                
0.299304                
0.299305                
0.299306                
0.299307                
0.299308                
0.299309                
0.29931                 
0.299311                
0.299312                
0.299313                
0.299314                
0.299315                
0.299316                
0.299317                
0.299318                
0.299319                
0.29932                 
0.299321                
0.299322                
0.299323                
0.299324                
0.299325                
0.299326                
0.299327                
0.299328                
0.299329                
0.29933                 
0.299331                
0.299332                
0.299333                
0.299334                
0.299335                
0.299336                
0.299337                
0.299338                
0.299339                
0.29934                 
0.299341                
0.299342                
0.299343                
0.299344                
0.299345                
0.299346                
0.299347                
0.299348                
0.299349                
0.29935                 
0.299351                
0.299352                
0.299353                
0.299354                
0.299355                
0.299356                
0.299357                
0.299358                
0.299359                
0.29936                 
0.299361                
0.299362                
0.299363                
0.299364                
0.299365                
0.299366                
0.299367                
0.299368                
0.299369                
0.29937                 
0.299371                
0.299372                
0.299373                
0.299374                
0.299375                
0.299376                
0.299377                
0.299378                
0.299379                
0.29938                 
0.299381                
0.299382                
0.299383                
0.299384                
0.299385                
0.299386                
0.299387                
0.299388                
0.299389                
0.29939                 
0.299391                
0.299392                
0.299393                
0.299394                
0.299395                
0.299396                
0.299397                
0.299398                
0.299399                
0.2994                  
0.299401                
0.299402                
0.299403                
0.299404                
0.299405                
0.299406                
0.299407                
0.299408                
0.299409                
0.29941                 
0.299411                
0.299412                
0.299413                
0.299414                
0.299415                
0.299416                
0.299417                
0.299418                
0.299419                
0.29942                 
0.299421                
0.299422                
0.299423                
0.299424                
0.299425                
0.299426                
0.299427                
0.299428                
0.299429                
0.29943                 
0.299431                
0.299432                
0.299433                
0.299434                
0.299435                
0.299436                
0.299437                
0.299438                
0.299439                
0.29944                 
0.299441                
0.299442                
0.299443                
0.299444                
0.299445                
0.299446                
0.299447                
0.299448                
0.299449                
0.29945                 
0.299451                
0.299452                
0.299453                
0.299454                
0.299455                
0.299456                
0.299457                
0.299458                
0.299459                
0.29946                 
0.299461                
0.299462                
0.299463                
0.299464                
0.299465                
0.299466                
0.299467                
0.299468                
0.299469                
0.29947                 
0.299471                
0.299472                
0.299473                
0.299474                
0.299475                
0.299476                
0.299477                
0.299478                
0.299479                
0.29948                 
0.299481                
0.299482                
0.299483                
0.299484                
0.299485                
0.299486                
0.299487                
0.299488                
0.299489                
0.29949                 
0.299491                
0.299492                
0.299493                
0.299494                
0.299495                
0.299496                
0.299497                
0.299498                
0.299499                
0.2995                  
0.299501                
0.299502                
0.299503                
0.299504                
0.299505                
0.299506                
0.299507                
0.299508                
0.299509                
0.29951                 
0.299511                
0.299512                
0.299513                
0.299514                
0.299515                
0.299516                
0.299517                
0.299518                
0.299519                
0.29952                 
0.299521                
0.299522                
0.299523                
0.299524                
0.299525                
0.299526                
0.299527                
0.299528                
0.299529                
0.29953                 
0.299531                
0.299532                
0.299533                
0.299534                
0.299535                
0.299536                
0.299537                
0.299538                
0.299539                
0.29954                 
0.299541                
0.299542                
0.299543                
0.299544                
0.299545                
0.299546                
0.299547                
0.299548                
0.299549                
0.29955                 
0.299551                
0.299552                
0.299553                
0.299554                
0.299555                
0.299556                
0.299557                
0.299558                
0.299559                
0.29956                 
0.299561                
0.299562                
0.299563                
0.299564                
0.299565                
0.299566                
0.299567                
0.299568                
0.299569                
0.29957                 
0.299571                
0.299572                
0.299573                
0.299574                
0.299575                
0.299576                
0.299577                
0.299578                
0.299579                
0.29958                 
0.299581                
0.299582                
0.299583                
0.299584                
0.299585                
0.299586                
0.299587                
0.299588                
0.299589                
0.29959                 
0.299591                
0.299592                
0.299593                
0.299594                
0.299595                
0.299596                
0.299597                
0.299598                
0.299599                
0.2996                  
0.299601                
0.299602                
0.299603                
0.299604                
0.299605                
0.299606                
0.299607                
0.299608                
0.299609                
0.29961                 
0.299611                
0.299612                
0.299613                
0.299614                
0.299615                
0.299616                
0.299617                
0.299618                
0.299619                
0.29962                 
0.299621                
0.299622                
0.299623                
0.299624                
0.299625                
0.299626                
0.299627                
0.299628                
0.299629                
0.29963                 
0.299631                
0.299632                
0.299633                
0.299634                
0.299635                
0.299636                
0.299637                
0.299638                
0.299639                
0.29964                 
0.299641                
0.299642                
0.299643                
0.299644                
0.299645                
0.299646                
0.299647                
0.299648                
0.299649                
0.29965                 
0.299651                
0.299652                
0.299653                
0.299654                
0.299655                
0.299656                
0.299657                
0.299658                
0.299659                
0.29966                 
0.299661                
0.299662                
0.299663                
0.299664                
0.299665                
0.299666                
0.299667                
0.299668                
0.299669                
0.29967                 
0.299671                
0.299672                
0.299673                
0.299674                
0.299675                
0.299676                
0.299677                
0.299678                
0.299679                
0.29968                 
0.299681                
0.299682                
0.299683                
0.299684                
0.299685                
0.299686                
0.299687                
0.299688                
0.299689                
0.29969                 
0.299691                
0.299692                
0.299693                
0.299694                
0.299695                
0.299696                
0.299697                
0.299698                
0.299699                
0.2997                  
0.299701                
0.299702                
0.299703                
0.299704                
0.299705                
0.299706                
0.299707                
0.299708                
0.299709                
0.29971                 
0.299711                
0.299712                
0.299713                
0.299714                
0.299715                
0.299716                
0.299717                
0.299718                
0.299719                
0.29972                 
0.299721                
0.299722                
0.299723                
0.299724                
0.299725                
0.299726                
0.299727                
0.299728                
0.299729                
0.29973                 
0.299731                
0.299732                
0.299733                
0.299734                
0.299735                
0.299736                
0.299737                
0.299738                
0.299739                
0.29974                 
0.299741                
0.299742                
0.299743                
0.299744                
0.299745                
0.299746                
0.299747                
0.299748                
0.299749                
0.29975                 
0.299751                
0.299752                
0.299753                
0.299754                
0.299755                
0.299756                
0.299757                
0.299758                
0.299759                
0.29976                 
0.299761                
0.299762                
0.299763                
0.299764                
0.299765                
0.299766                
0.299767                
0.299768                
0.299769                
0.29977                 
0.299771                
0.299772                
0.299773                
0.299774                
0.299775                
0.299776                
0.299777                
0.299778                
0.299779                
0.29978                 
0.299781                
0.299782                
0.299783                
0.299784                
0.299785                
0.299786                
0.299787                
0.299788                
0.299789                
0.29979                 
0.299791                
0.299792                
0.299793                
0.299794                
0.299795                
0.299796                
0.299797                
0.299798                
0.299799                
0.2998                  
0.299801                
0.299802                
0.299803                
0.299804                
0.299805                
0.299806                
0.299807                
0.299808                
0.299809                
0.29981                 
0.299811                
0.299812                
0.299813                
0.299814                
0.299815                
0.299816                
0.299817                
0.299818                
0.299819                
0.29982                 
0.299821                
0.299822                
0.299823                
0.299824                
0.299825                
0.299826                
0.299827                
0.299828                
0.299829                
0.29983                 
0.299831                
0.299832                
0.299833                
0.299834                
0.299835                
0.299836                
0.299837                
0.299838                
0.299839                
0.29984                 
0.299841                
0.299842                
0.299843                
0.299844                
0.299845                
0.299846                
0.299847                
0.299848                
0.299849                
0.29985                 
0.299851                
0.299852                
0.299853                
0.299854                
0.299855                
0.299856                
0.299857                
0.299858                
0.299859                
0.29986                 
0.299861                
0.299862                
0.299863                
0.299864                
0.299865                
0.299866                
0.299867                
0.299868                
0.299869                
0.29987                 
0.299871                
0.299872                
0.299873                
0.299874                
0.299875                
0.299876                
0.299877                
0.299878                
0.299879                
0.29988                 
0.299881                
0.299882                
0.299883                
0.299884                
0.299885                
0.299886                
0.299887                
0.299888                
0.299889                
0.29989                 
0.299891                
0.299892                
0.299893                
0.299894                
0.299895                
0.299896                
0.299897                
0.299898                
0.299899                
0.2999                  
0.299901                
0.299902                
0.299903                
0.299904                
0.299905                
0.299906                
0.299907                
0.299908                
0.299909                
0.29991                 
0.299911                
0.299912                
0.299913                
0.299914                
0.299915                
0.299916                
0.299917                
0.299918                
0.299919                
0.29992                 
0.299921                
0.299922                
0.299923                
0.299924                
0.299925                
0.299926                
0.299927                
0.299928                
0.299929                
0.29993                 
0.299931                
0.299932                
0.299933                
0.299934                
0.299935                
0.299936                
0.299937                
0.299938                
0.299939                
0.29994                 
0.299941                
0.299942                
0.299943                
0.299944                
0.299945                
0.299946                
0.299947                
0.299948                
0.299949                
0.29995                 
0.299951                
0.299952                
0.299953                
0.299954                
0.299955                
0.299956                
0.299957                
0.299958                
0.299959                
0.29996                 
0.299961                
0.299962                
0.299963                
0.299964                
0.299965                
0.299966                
0.299967                
0.299968                
0.299969                
0.29997                 
0.299971                
0.299972                
0.299973                
0.299974                
0.299975                
0.299976                
0.299977                
0.299978                
0.299979                
0.29998                 
0.299981                
0.299982                
0.299983                
0.299984                
0.299985                
0.299986                
0.299987                
0.299988                
0.299989                
0.29999                 
0.299991                
0.299992                
0.299993                
0.299994                
0.299995                
0.299996                
0.299997                
0.299998                
0.299999                
0.3                     
0.300001                
0.300002                
0.300003                
0.300004                
0.300005                
0.300006                
0.300007                
0.300008                
0.300009                
0.30001                 
0.300011                
0.300012                
0.300013                
0.300014                
0.300015                
0.300016                
0.300017                
0.300018                
0.300019                
0.30002                 
0.300021                
0.300022                
0.300023                
0.300024                
0.300025                
0.300026                
0.300027                
0.300028                
0.300029                
0.30003                 
0.300031                
0.300032                
0.300033                
0.300034                
0.300035                
0.300036                
0.300037                
0.300038                
0.300039                
0.30004                 
0.300041                
0.300042                
0.300043                
0.300044                
0.300045                
0.300046                
0.300047                
0.300048                
0.300049                
0.30005                 
0.300051                
0.300052                
0.300053                
0.300054                
0.300055                
0.300056                
0.300057                
0.300058                
0.300059                
0.30006                 
0.300061                
0.300062                
0.300063                
0.300064                
0.300065                
0.300066                
0.300067                
0.300068                
0.300069                
0.30007                 
0.300071                
0.300072                
0.300073                
0.300074                
0.300075                
0.300076                
0.300077                
0.300078                
0.300079                
0.30008                 
0.300081                
0.300082                
0.300083                
0.300084                
0.300085                
0.300086                
0.300087                
0.300088                
0.300089                
0.30009                 
0.300091                
0.300092                
0.300093                
0.300094                
0.300095                
0.300096                
0.300097                
0.300098                
0.300099                
0.3001                  
0.300101                
0.300102                
0.300103                
0.300104                
0.300105                
0.300106                
0.300107                
0.300108                
0.300109                
0.30011                 
0.300111                
0.300112                
0.300113                
0.300114                
0.300115                
0.300116                
0.300117                
0.300118                
0.300119                
0.30012                 
0.300121                
0.300122                
0.300123                
0.300124                
0.300125                
0.300126                
0.300127                
0.300128                
0.300129                
0.30013                 
0.300131                
0.300132                
0.300133                
0.300134                
0.300135                
0.300136                
0.300137                
0.300138                
0.300139                
0.30014                 
0.300141                
0.300142                
0.300143                
0.300144                
0.300145                
0.300146                
0.300147                
0.300148                
0.300149                
0.30015                 
0.300151                
0.300152                
0.300153                
0.300154                
0.300155                
0.300156                
0.300157                
0.300158                
0.300159                
0.30016                 
0.300161                
0.300162                
0.300163                
0.300164                
0.300165                
0.300166                
0.300167                
0.300168                
0.300169                
0.30017                 
0.300171                
0.300172                
0.300173                
0.300174                
0.300175                
0.300176                
0.300177                
0.300178                
0.300179                
0.30018                 
0.300181                
0.300182                
0.300183                
0.300184                
0.300185                
0.300186                
0.300187                
0.300188                
0.300189                
0.30019                 
0.300191                
0.300192                
0.300193                
0.300194                
0.300195                
0.300196                
0.300197                