/*--------------------------------*- C++ -*----------------------------------*\
  =========                 |
  \\      /  F ield         | OpenFOAM: The Open Source CFD Toolbox
   \\    /   O peration     | Website:  https://openfoam.org
    \\  /    A nd           | Version:  11
     \\/     M anipulation  |
\*---------------------------------------------------------------------------*/
FoamFile
{
    format      ascii;
    class       volScalarField;
    location    "0.165";
    object      p;
}
// * * * * * * * * * * * * * * * * * * * * * * * * * * * * * * * * * * * * * //

dimensions      [0 2 -2 0 0 0 0];

internalField   nonuniform List<scalar> 
880
(
79.99999999999999
80.00000000145067
80.00016874465243
80.08455638822632
80.00000000000001
80.00000000594868
80.00042902585673
80.24861204262956
80
80.00000009394357
80.00146941741974
80.67383766138941
79.99999999999996
79.99999992411223
80.00507471496437
81.49826590449173
79.99999999985944
80.00000000032232
80.00000002613881
80.00000301135705
80.00000005395879
80.00000043494235
80.0000281352844
80.00010240963611
80.02216732215645
80.0407659670944
80.10399449042767
80.02474306270091
83.77272671958066
86.28927078893926
88.09300159494934
88.99589625862696
80.00002180754356
80.00013866700192
80.00102336297378
80.00094486401832
80.00121293907587
80.00320178261543
80.00798190912097
80.01207811535252
80.27858664414239
80.47807700572275
80.73895778102391
81.02106487953574
90.05858671551526
91.57703632655364
92.88463808233634
93.38674376408132
89.7266642123388
87.75064944182142
87.15104937709756
86.61220318015013
81.99876767670395
82.47063277628799
82.85716094900503
83.02534120827457
80.04578740595365
80.0990916547247
80.15759574410066
80.21371941793997
80.00337472561912
80.00949651117617
80.01904216570796
80.02478790882226
80.02487983637945
80.02095289413671
80.01489340807777
80.00838937844543
80.24742887910107
80.23635724945923
80.20751324127546
80.16336196216564
82.99553189655272
82.74112252839289
82.41044521385062
82.00890298632092
86.32859973730096
86.03387818529835
85.4990680313087
84.84644009426995
84.15837913991029
81.57822812592501
80.10916752886602
80.00351956608208
83.23378162157954
81.08199523837885
80.05634643848045
80.00091996337375
84.33926632968205
80.53311479201433
80.01451069523344
79.99997201151218
97.0940773523884
80.58182193575713
80.0051808620406
80.0001738540002
80.00045602622765
80.01231125012494
81.89008043785562
124.7167259026393
80.00188307617385
80.04015833380419
83.45493267365238
129.7729397005709
80.0054781314975
80.09139477776971
85.83632681972628
136.5309015903791
80.01436035176862
80.21458298172314
89.09662484274749
142.2767001236402
147.6427231287776
93.06112106501205
80.39528979590739
80.02953042115428
152.4129050157184
97.92154800244246
80.73209105388578
80.05753768677633
156.3766243262986
103.514640495774
81.18521956831007
80.09358823262745
157.2129806541136
109.6397702965411
81.96876659015535
80.15935088610442
80.24464865499147
82.94847001456638
115.0203419842126
155.3337694065406
80.3518274692115
83.33611224845275
110.3322958144673
143.0007120682368
80.46422887595764
82.52310495841192
101.4012356447737
126.8423774878204
80.12289722673471
81.39685470453804
91.62661626187882
105.8950844569526
80.31997681998276
81.99101860628468
86.93337966606943
81.41635550132347
80.28872321438085
81.1048679767479
81.76134597704254
59.89179283961197
80.11194444531911
80.5698412987546
79.62740453245237
48.66905439697043
80.00361425475892
80.22867979564639
77.37479654136911
46.21480544246052
45.70801949016303
75.82993234220294
79.81378289303348
79.98927453561377
45.48115924077457
74.64910797689782
79.56595030011118
79.98206916911246
45.73831495798267
73.96293960897273
79.47832870178426
79.98494490704422
43.2713827215607
72.58742345190204
79.42326079046317
79.98961189513736
46.54094827888296
73.24384401183825
79.59587076736656
79.99454847785252
48.8750959683079
74.79038223334204
79.79655936721419
79.99808030303667
50.47548570812442
76.09929493392556
79.89633819562169
79.99925708510548
54.52494559028933
77.91651597294135
79.97479612484312
79.9997352043345
69.96214550353811
78.06074351345438
79.85823509566752
79.99721629024565
68.58773941783119
78.01315170236373
79.8713157473011
79.9975534520925
65.56136030056753
77.90379408328783
79.88487269418137
79.99791806502631
62.00853206576252
77.74054216278276
79.89736249279049
79.99834610024023
54.52494559024825
77.91651597284547
79.97479612491685
79.99973520404802
50.47548570816105
76.09929493380358
79.89633819544964
79.99925708492809
48.8750959682677
74.79038223319498
79.79655936701975
79.99808030289302
46.54094827888189
73.24384401165892
79.59587076739787
79.99454847784277
79.98927453572342
79.81378289312512
75.8299323422787
45.70801948993537
79.98206916912491
79.56595030013402
74.64910797692842
45.48115924064886
79.98494490709027
79.47832870183284
73.96293960873372
45.73831495784563
79.98961189517028
79.42326079072038
72.58742345177838
43.27138272155173
46.2148054422964
77.37479654136364
80.22867979554901
80.00361425487914
48.66905439692245
79.6274045324345
80.56984129877381
80.1119444453393
59.89179283945877
81.76134597707626
81.10486797677424
80.2887232145101
81.41635550129158
86.93337966588152
81.99101860590089
80.31997682027176
80.24464865479564
82.94847001528012
115.0203419849225
155.3337694066045
80.35182746916409
83.33611224829079
110.3322958148891
143.0007120683588
80.46422887530694
82.52310495849305
101.4012356446648
126.8423774877247
80.12289722704118
81.39685470407069
91.62661626186612
105.8950844569239
157.2129806541278
109.6397702966622
81.96876658968903
80.15935088670084
156.3766243265773
103.5146404956236
81.18521956794163
80.09358823250174
152.4129050159519
97.92154800334787
80.73209105529261
80.0575376868502
147.6427231286806
93.06112106464968
80.39528979525667
80.02953042121577
80.00045602627446
80.01231125010224
81.89008043766681
124.7167259024956
80.00188307648266
80.04015833407138
83.45493267355758
129.7729397004093
80.00547813186562
80.09139477793877
85.83632681986849
136.5309015903107
80.01436035176238
80.21458298215084
89.09662484286329
142.2767001236358
80.00017385400484
79.99997201146935
80.00091996352808
80.00351956609657
80.00518086171014
80.01451069508836
80.05634643836481
80.1091675287897
80.5818219356086
80.5331147920791
81.08199523825247
81.5782281258015
97.09407735226188
84.33926632971448
83.23378162162659
84.15837913988844
80.00838937853979
80.16336196227741
82.00890298642612
84.84644009436298
80.01489340801406
80.20751324144999
82.41044521396014
85.49906803136575
80.0209528941312
80.23635724955345
82.74112252826249
86.0338781849654
80.02487983625468
80.24742887902237
82.99553189663284
86.32859973733969
80.00337472559876
80.04578740573329
81.99876767682979
89.72666421248647
80.00949651095196
80.09909165478972
82.47063277647354
87.75064944182864
80.0190421658221
80.15759574393034
82.85716094895611
87.15104937691737
80.02478790872883
80.21371941785691
83.02534120839364
86.61220317992235
93.38674376401251
81.02106487947556
80.01207811518384
80.00094486415644
92.88463808220989
80.73895778113236
80.007981908837
80.00102336301889
91.57703632661904
80.47807700584579
80.00320178218539
80.00013866688856
90.0585867154378
80.2785866439668
80.00121293891493
80.00002180781796
88.9958962585298
80.02474306282899
80.00010240964265
80.00000301155328
88.09300159487758
80.10399449038721
80.00002813520837
80.00000002614614
86.289270788873
80.04076596705073
80.00000043484626
80.00000000031254
83.77272671952944
80.02216732205342
80.00000005385782
79.99999999996977
79.99999999999999
80.00000000145023
80.00016874469799
80.08455638811657
80
80.00000000585567
80.00042902584968
80.24861204265092
80
80.00000009378918
80.00146941738127
80.67383766142036
80
79.99999992404595
80.00507471489108
81.498265904372
80.22270713636169
80.58744418456777
81.45496357618137
84.41742848792538
80.58744418456025
81.14886133220844
83.1639009486539
88.72664208236814
81.45496357610902
83.16390094859351
87.7973411725212
96.27611876586624
84.41742848796702
88.72664208247363
96.2761187660255
107.1980735392953
119.2077509682668
109.4012097752992
104.8403578759742
96.57948009909677
116.4509299337052
113.8610010556619
113.8801797251946
109.3078850134052
116.8943506629282
115.9634530900506
115.7187493837206
113.6801483152365
116.6742047629258
116.077540264096
115.9234954945348
114.5036355097518
113.7549920185417
113.5075186895321
112.9440173283759
110.9637116652074
114.6967024097144
113.7391613058143
113.087077538124
111.1320024710121
114.8186011621195
113.8620024666127
113.2461661617457
111.3847491684837
115.1284102422481
113.978746035969
113.3029799082379
108.6835611018582
86.30617054391676
76.94868295034952
77.33472284354922
78.5045008015253
78.7346117495583
73.96945907418683
76.75572989138777
78.19792662541907
71.86102105823305
73.93478809725818
77.37983637458534
78.7729708277619
62.31092498025644
71.65772951526796
76.42098758725801
77.95758957332525
79.48455049014505
80.48382238772768
81.26452214279099
81.59366222492586
79.24982556350548
80.23767671098115
81.10981359891537
81.52389209840419
79.5347017637571
80.30032707610314
80.87597859150931
81.40029227791572
79.00030045778016
80.0900260393057
81.00200429495622
81.51029761131795
81.64916700345715
81.97398297114256
100.3254194033923
137.5987427333618
81.55026065672811
81.9872599739151
106.8802052039499
138.9344291230752
81.55329151643103
82.2417260759382
110.5063199211582
138.4498338135139
81.65114956191493
82.47913870020636
114.3021653747687
141.4440541821431
190.6622875336149
183.4860244630728
179.4750280323541
176.1170359393193
193.3365666421848
186.048750593691
180.5407315889229
176.5209977897498
192.1679069821037
187.3407441556814
181.3356079687817
177.1085020203703
190.8077731093301
188.745218936062
182.6364784664467
177.6147205172039
175.5150690129065
173.4361276603514
172.3283099550095
175.7255364222163
175.6044772710202
173.3117717608662
171.8605540759339
174.9580805600407
175.6151003157634
173.2666326533229
171.460311769081
173.8363080613193
175.9144858578973
173.610611711086
171.6576720649067
173.5464702772513
173.5454994932802
159.576681979015
142.8167626246843
119.4573560987852
175.1421566567239
162.705067274927
144.9790300298083
127.9056837201411
176.3219599250433
166.1707181955572
148.0949292314835
134.9911234756748
176.8036746363063
169.6241783636481
153.0644461958881
152.0111131802305
73.73902083784968
17.47628268115979
5.506319460394294
7.768085028891404
57.73382379061387
11.63011619319293
5.634137611231091
7.471616133755043
39.67009872406992
7.209448838551163
5.917414971574135
8.209821127588183
22.4897041621541
4.578760035094722
6.422272757312522
8.374180861308005
11.70630977210381
15.08014603227031
18.35487374476095
18.80063064420102
11.53878992499448
15.32352785859035
18.57382092746392
19.32453717163035
12.03952909983566
15.6598655378206
18.47821140391473
20.55672488550183
12.2985046318797
16.14005753552031
19.21231263032804
22.22103408822944
27.85082556562818
29.34132139029228
30.12893562142896
32.25209520993751
28.34097643908618
30.7833036111075
30.7764546688447
33.44765072939268
27.52536006285851
31.29935353407039
31.26489537264182
33.09524947912688
25.74354329888236
31.19214805631494
31.76827012686027
35.41333178867681
25.78716706525943
23.63033905011912
25.24657136825439
27.16455148764818
25.42278068796769
22.28276554899214
20.60818221597775
20.65629238906939
22.38706330266321
22.07018186942899
21.91188097756607
21.3302072547149
17.51302352345827
20.42018392150503
20.96154112824028
20.34510522475961
19.70905886578716
19.46992494788804
19.55629584833676
19.61277903868102
19.96398837178573
19.05107704950131
18.95242055430144
19.08705141663144
20.15234063938286
19.92875553062229
19.68665963159717
19.52712199996358
25.26033308816567
23.86661404503293
22.9469812689941
22.50439982771941
19.61277903868094
19.08705141663541
19.52712199995933
22.50439982772619
19.5562958483354
18.95242055429876
19.6866596315967
22.94698126900738
19.46992494788793
19.05107704950109
19.92875553062154
23.86661404504786
19.70905886578668
19.96398837178292
20.15234063938164
25.26033308818289
27.16455148767784
25.24657136831227
23.63033905019763
25.78716706530781
20.6562923890801
20.60818221599615
22.28276554898934
25.42278068795801
21.3302072547118
21.91188097755978
22.07018186943086
22.38706330266794
20.34510522476041
20.96154112824154
20.42018392150294
17.51302352345582
35.41333178868881
31.76827012690839
31.19214805638035
25.74354329897721
33.09524947913511
31.26489537268112
31.2993535341229
27.52536006294948
33.44765072939033
30.77645466887517
30.78330361114956
28.34097643916056
32.25209520993869
30.12893562145901
29.34132139031066
27.85082556567939
18.80063064429784
18.35487374483172
15.08014603229218
11.7063097720875
19.32453717173161
18.57382092754753
15.32352785863978
11.53878992499718
20.55672488559593
18.4782114039905
15.6598655378731
12.03952909984047
22.22103408832257
19.2123126304121
16.14005753558378
12.29850463189021
7.768085028908034
5.506319460390459
17.47628268102616
73.7390208377536
7.471616133772577
5.634137611231493
11.63011619315848
57.73382379051471
8.209821127601471
5.917414971575258
7.209448838549722
39.67009872405293
8.374180861321125
6.422272757313612
4.578760035090321
22.48970416215947
119.4573560986663
142.8167626246563
159.5766819789691
173.5454994932057
127.9056837200442
144.9790300298185
162.7050672749307
175.1421566567174
134.991123475642
148.0949292315019
166.1707181956082
176.3219599250959
152.0111131802171
153.0644461959602
169.6241783637088
176.8036746363925
175.7255364221139
172.328309955217
173.4361276601963
175.5150690132486
174.9580805600724
171.8605540761757
173.3117717607977
175.6044772712948
173.8363080614222
171.4603117693171
173.2666326533693
175.6151003159694
173.5464702774142
171.6576720651437
173.6106117111735
175.9144858580439
176.1170359391732
179.475028032225
183.4860244627972
190.6622875333601
176.5209977895495
180.5407315888598
186.0487505934266
193.3365666418767
177.1085020200893
181.335607968737
187.3407441554214
192.1679069818142
177.6147205168927
182.6364784664412
188.7452189357545
190.8077731090313
137.5987427332299
100.3254194032675
81.97398297123826
81.64916700352583
138.9344291229271
106.8802052037595
81.98725997399326
81.55026065680804
138.4498338134652
110.5063199209733
82.24172607600933
81.55329151648458
141.4440541820224
114.302165374542
82.47913870025187
81.65114956198873
81.59366222509763
81.26452214275821
80.48382238749181
79.48455049020751
81.52389209859574
81.1098135988494
80.23767671071751
79.24982556358825
81.40029227812013
80.87597859149672
80.30032707581611
79.53470176386706
81.51029761153406
81.00200429490484
80.09002603898951
79.00030045787679
78.50450080134041
77.33472284342278
76.94868295037509
86.30617054405504
78.19792662519961
76.75572989129977
73.96945907425253
78.73461174966663
78.7729708275274
77.37983637449939
73.93478809737633
71.86102105831165
77.95758957309437
76.4209875871468
71.65772951544341
62.31092498034587
110.9637116651865
112.9440173282573
113.5075186896511
113.754992018495
111.1320024709387
113.0870775380544
113.739161305973
114.6967024096477
111.3847491683881
113.2461661616887
113.8620024667727
114.8186011620516
108.6835611017425
113.3029799082139
113.978746036144
115.1284102421574
114.5036355094594
113.6801483151514
109.3078850134174
96.57948009917992
115.9234954942648
115.7187493836486
113.8801797251807
104.8403578759828
116.0775402637931
115.9634530899303
113.8610010556477
109.4012097752386
116.6742047626388
116.8943506628285
116.4509299336227
119.2077509681528
56.32507403949352
77.82205757032254
79.93509509268439
79.9994587027799
55.96964225027784
77.41630417908485
79.91666515235006
79.99920368890616
57.876122140273
77.43444904929387
79.91225245949688
79.99904552303593
59.25710379377508
77.53628099986271
79.90594689369483
79.9987626147169
79.99721629043393
79.85823509546834
78.06074351344284
69.96214550363922
79.99755345206754
79.87131574720937
78.01315170236109
68.58773941791713
79.99791806514432
79.88487269406797
77.90379408325752
65.56136030056047
79.99834610024222
79.89736249275524
77.74054216278741
62.00853206569521
79.99876261458904
79.99904552305317
79.99920368896103
79.99945870261264
79.90594689357766
79.91225245943532
79.9166651522592
79.9350950926363
77.53628099989182
77.43444904921583
77.41630417915412
77.82205757033461
59.25710379372975
57.87612214018334
55.96964225021647
56.32507403941015
)
;

boundaryField
{
    back
    {
        type            empty;
    }
    inlet
    {
        type            zeroGradient;
    }
    front
    {
        type            empty;
    }
    top
    {
        type            zeroGradient;
    }
    outlet
    {
        type            fixedValue;
        value           uniform 80;
    }
    bottom
    {
        type            zeroGradient;
    }
    wall
    {
        type            zeroGradient;
    }
}


// ************************************************************************* //
