/*--------------------------------*- C++ -*----------------------------------*\
  =========                 |
  \\      /  F ield         | OpenFOAM: The Open Source CFD Toolbox
   \\    /   O peration     | Website:  https://openfoam.org
    \\  /    A nd           | Version:  11
     \\/     M anipulation  |
\*---------------------------------------------------------------------------*/
FoamFile
{
    format      ascii;
    class       volScalarField;
    location    "0.076";
    object      p;
}
// * * * * * * * * * * * * * * * * * * * * * * * * * * * * * * * * * * * * * //

dimensions      [0 2 -2 0 0 0 0];

internalField   nonuniform List<scalar> 
880
(
80
80
80
80.00001780059769
80
80
79.99999999999991
80.0002606513896
80
79.99999999999999
79.99999999994075
80.00161853109152
80
80
80.00000000123191
80.00079356601123
80
80.00000000000001
79.99999999999994
80.00000000010247
79.99999999999999
80
79.99999999999983
80
79.99999996821758
80.00000001589883
80.00703188495874
79.98072251007179
80.47851629879943
82.20371884218221
83.82781926342652
84.71831760103838
80.00000096978175
80.00000163579861
80.00000192101442
80.00000078548666
80.00003275845286
80.0000624965257
80.00008661193256
80.00004230538147
80.03124706869072
80.04197426159908
80.05259535683304
80.04324798430289
85.49328787892298
86.32966222029006
87.05036555343895
87.53856026964405
86.85808644278133
85.20551605045993
83.72884492716157
82.45921859408527
80.08984004645139
80.14849261842552
80.16436349397486
80.10630250299859
80.00020407990901
80.00036623436768
80.00044592762403
80.00030373960263
80.00000587095336
80.00000792523616
80.00000785671394
80.00000445611322
80.00000106472115
80.00000007914456
80.00000000101467
80.00000000000266
80.00010519661154
80.00001520947754
80.00000063549862
80.00000000084145
80.03951954562969
80.00753043662954
80.00047154982416
80.00000613342226
81.28118674044816
80.40248478223894
80.0526928798228
80.00188308165497
80.00000857121765
79.99999982267917
79.99999999609837
80
80.00000153640204
79.99999979596076
79.99999998402519
79.99999999925552
79.99904292900715
80.00000304939536
80.00000240792231
80.00000024903645
80.6917541697064
79.99665729041301
79.99960228491395
79.99999774780794
79.99999357346549
79.99985632829136
80.01505866801658
89.51404896636693
79.99999997333623
80.00007402163182
80.093753372987
98.36851195519287
80.00001028737157
80.00038459999055
80.21142424287757
104.0195139926284
80.00001666881431
80.00066890475561
80.33024940159184
109.5617567300179
112.8692218119316
80.39372082042192
80.00082616027713
80.00002144662271
115.9373023316702
80.50143397830797
80.00118744876049
80.00002995788913
117.7263436157515
80.56020924347555
80.00135182432352
80.00003640637749
120.5007289763539
80.73215455247701
80.0021632586474
80.00005932753893
80.00005792834435
80.00210440175995
80.82056750820621
124.2762738103332
80.00007630897657
80.00280030162816
81.00808534186626
126.4105582742425
80.00010469282829
80.00364131126187
81.1071453673819
123.0519916046066
80.00003348801067
80.00096334256639
80.54296714390047
108.0134997384855
80.0000562629922
80.01113387518276
80.90540290450471
90.09470469225967
79.99982177489991
79.99882418800101
80.19340798949487
72.51505618259823
79.99986946404508
79.98740537749498
79.29689646976232
61.65945043373006
79.99994752388575
79.97585256886708
78.28089786019051
53.55445644471197
51.42169723802355
78.36645796285805
79.98685241595018
79.99996867823242
49.91506664041343
78.36583253029121
79.98833056904756
79.99997452268796
51.40888786958865
78.86311405208006
79.99417271863996
79.99998850570002
51.16907186396019
78.80366920567948
79.99357079221613
79.99998736354577
59.77187529770836
79.54610331732283
79.9982090572949
79.99999629791867
68.29747685420837
79.87899090381109
79.99966915453794
79.99999943929581
74.02032497625433
79.964575109272
79.99991752523424
79.99999988270076
77.45311838793755
79.98409616270213
79.99995384004791
79.99999987199453
74.62832549014647
79.85294429211629
79.99872616401849
79.99999510884403
74.73487987095488
79.85478414738323
79.99872976896324
79.99999510594893
74.93671830264962
79.85590819733028
79.99872896066344
79.99999507737935
75.52295024815267
79.86251668895021
79.99875133409643
79.99999514034931
77.45311838771491
79.98409616242668
79.99995383963358
79.99999987238476
74.02032497586568
79.96457510888541
79.99991752423789
79.9999998828208
68.29747685402182
79.87899090400222
79.99966915452413
79.99999943938934
59.77187529789992
79.54610331814126
79.9982090573498
79.99999629766123
79.99996867864967
79.98685241713555
78.36645796280766
51.42169723786255
79.99997452328532
79.98833056938638
78.36583253047615
49.91506664043584
79.9999885051385
79.99417271925887
78.86311405206055
51.40888787008378
79.99998736367624
79.99357079238932
78.80366920672483
51.16907186368937
53.55445644411555
78.28089785988686
79.9758525680207
79.99994752375532
61.65945043302384
79.29689646917703
79.98740537655377
79.99986946247596
72.51505618243138
80.19340798878842
79.99882418810213
79.9998217745942
90.09470469245569
80.90540290431721
80.01113387485378
80.00005626429081
80.00005792802294
80.00210440253684
80.82056750874138
124.2762738110853
80.0000763091371
80.00280030189714
81.0080853418679
126.4105582741717
80.00010469346029
80.00364131127644
81.10714536680875
123.051991604558
80.00003348919969
80.00096334255527
80.54296714348561
108.0134997383424
120.5007289777413
80.73215455167391
80.00216325970163
80.0000593273967
117.7263436171131
80.56020924486332
80.00135182452435
80.00003640661376
115.9373023313448
80.50143397970014
80.00118744965614
80.00002995767073
112.8692218116457
80.39372081915563
80.00082616032913
80.00002144639696
79.99999357404253
79.9998563288827
80.01505866807685
89.51404896550503
79.99999997280254
80.00007402095598
80.09375337300774
98.36851195527711
80.00001028702593
80.00038459995993
80.21142424373316
104.0195139926056
80.00001666840303
80.00066890491075
80.33024940070221
109.5617567313913
79.99999774769645
80.00000024929356
79.99999999923371
80
79.99960228415524
80.00000240784667
79.9999999846227
79.99999999592478
79.99665729059177
80.00000304969981
79.99999979557674
79.99999982245998
80.6917541697328
79.99904292910914
80.00000153642591
80.00000857120878
79.99999999978205
80.00000000083747
80.0000061336475
80.00188308188262
80.00000000092591
80.00000063530754
80.00047155112226
80.05269287985841
80.00000007938908
80.00001520948634
80.00753043588242
80.40248478232087
80.00000106490829
80.00010519646955
80.03951954631243
81.28118674016866
80.0000058701755
80.00020407917839
80.08984004619317
86.85808644254524
80.00000792457021
80.00036623452613
80.14849261849149
85.20551604984092
80.0000078564703
80.00044592846764
80.16436349384816
83.72884492696916
80.00000445589326
80.00030374012518
80.10630250293353
82.45921859371063
87.53856026983277
80.0432479855296
80.00004230488381
80.00000078511529
87.05036555345441
80.05259535818278
80.00008661176321
80.00000192116188
86.32966222121897
80.04197426090742
80.00006249684976
80.00000163556366
85.49328787874913
80.03124706619586
80.00003275809685
80.00000097002993
84.71831760132243
79.98072251273301
80
80.00000000010469
83.82781926306885
80.00703188245957
80
79.99999999999999
82.20371884242391
80.00000001574946
80
79.99999999999999
80.47851629870807
79.9999999680248
80
79.99999999999989
80
79.99999999999997
80
80.00001780531743
80.00000000000003
80.00000000000001
79.99999999999999
80.0002606461662
80
80
79.99999999996966
80.00161852985572
80
80
80.00000000103847
80.00079356624548
80.00001325117042
80.00019962445111
80.00191736675104
80.11857014043122
80.00019963898573
79.99993641890393
79.99978848501864
80.49880407765758
80.00191734044317
79.99978845182611
80.17515588390685
83.89302358686676
80.11857014689387
80.49880407678101
83.89302361197603
100.5674385604467
130.6542702422976
109.0639624348065
97.90370522566715
87.58349949387984
126.848644716432
121.5684287728182
118.3440273692318
108.6350993532143
124.4595788370125
122.7422997568218
121.7514958930941
117.733712066422
123.8963107186435
123.1484254596446
123.2164534882241
121.086612010522
123.7053426039217
125.1248950270061
125.7894746456994
128.2729364495066
124.6403217180279
126.0978299330023
126.9924171697667
130.7920264321443
124.5049410431345
126.048003270619
127.0352312487966
130.1251407460451
124.7743711687293
126.5891698632006
127.9055753847262
129.3773704377433
107.8222219471069
87.77417294411852
82.48934828741984
82.27005786242185
98.38260008771859
81.33150236332919
80.77151458802219
81.88540589457833
88.94726035551879
79.45307474710236
81.08831550263916
82.389743760561
70.50505975379049
73.78575870999138
79.98710014847694
81.93076872906465
81.95647890289612
80.9271458338756
80.20996130512295
80.01748568561484
81.81212381744623
80.99537018442763
80.27689707758047
80.02893661797727
82.30414981088748
81.33995984989346
80.40339031737327
80.0457985555055
82.05067323170857
80.89992678484029
80.12068788525372
79.99204388929189
80.00035119155169
79.99999853114436
80.00001934968239
95.5491865282937
80.00072166175524
79.99999882490592
80.00009452217699
105.7660317742968
80.00121765305552
79.99999543928797
80.00014269529743
112.2191382401625
79.99872805032955
79.99995844396393
80.00016573849855
113.6324513206415
183.171393241116
193.8322518371268
199.9626303675216
207.8444908070634
209.7212064206692
207.0650785359203
207.430510898598
214.3551085076494
211.1232872434742
203.1323687111883
207.408426845361
212.9932909758862
225.6478797907247
210.1480077638654
207.2123969011467
211.7223309477079
213.3488288573058
216.730321640107
217.1484188401199
217.8239623368982
219.1072698699523
222.469866245882
222.9664657907763
223.0455897074846
218.670308528784
222.5736709747118
223.3196711206567
223.2877553533438
218.2215050335464
222.6349074543849
223.681582567562
223.7307361112885
217.6808108308778
213.8046009442744
198.4062316027033
163.3447315243184
222.1010703541297
218.120070157867
202.9798316886026
177.7285043759756
222.9329794290894
218.973313495699
204.6383481947663
191.0258444616197
223.1903781666746
219.9826280732199
206.4920663486726
214.0616397689722
101.1427651990665
26.46256154860156
9.657338762691161
7.439023611771328
80.39485191351029
15.63670917493651
8.576058083519905
7.297630618868862
53.2314570253711
10.16704065403875
8.02036038791482
8.233274634548255
30.8293096045354
5.390339056366662
9.519487537052912
9.411258381694374
8.394152837593731
8.877849698230323
9.482184073176542
7.84515666706583
7.32347220866767
7.81945595372293
7.826340920216277
5.835930352251038
8.147761620163701
8.613839408365918
8.168317993038238
6.732488909505982
9.43662579316601
9.888684414368537
8.677657171761686
7.699645765031888
24.30316219476522
40.65347130828749
49.4038596514
58.87585877516575
20.19153450230961
34.87863786953815
42.73232258859909
55.09631821611765
19.35311969791238
34.89820772115237
43.3447172877736
54.90104255157841
14.58901761377602
28.3423343998811
40.48063202272335
50.99063595583733
42.80699679173409
23.75507345955003
17.92396635720026
24.23167098624376
35.510146362162
19.19182085414221
7.425051829836471
6.715644561811715
29.10938176810667
12.16930420499241
3.986660404759044
4.130941928768156
17.62219175412758
5.760576602704966
1.730381254423867
3.08307149608786
5.560737731205042
8.549983464332811
15.3652944553955
22.86669145012311
5.735380903074514
8.9228689737966
19.25688279898953
31.68168564952141
10.97115015670093
15.11890649431309
24.50913521454721
39.74961686815913
27.04710055419855
26.60622801181013
30.83355326389274
39.74188619162106
22.8666914501222
31.68168564953032
39.7496168681853
39.74188619165233
15.36529445538712
19.25688279896752
24.5091352146092
30.83355326392702
8.549983464315991
8.922868973773079
15.1189064942369
26.60622801170047
5.560737731209814
5.735380903081368
10.97115015665351
27.04710055402012
24.23167098601259
17.9239663570632
23.75507345947125
42.80699679138822
6.715644561781791
7.425051829829575
19.1918208541237
35.51014636204413
4.130941928779168
3.986660404753835
12.16930420495066
29.10938176805847
3.083071496096851
1.73038125442591
5.760576602705123
17.62219175411897
50.9906359558379
40.480632022835
28.34233439998753
14.58901761369802
54.90104255152705
43.34471728782058
34.89820772122996
19.3531196978187
55.09631821604719
42.73232258849666
34.87863786956131
20.19153450228447
58.87585877501734
49.40385965121537
40.65347130824377
24.30316219467687
7.845156666935335
9.48218407331826
8.877849698253554
8.39415283750478
5.835930352196152
7.826340920282988
7.819455953761572
7.323472208660042
6.732488909484427
8.16831799309141
8.613839408408516
8.147761620162001
7.699645765021891
8.677657171792198
9.888684414401212
9.436625793157093
7.439023611594155
9.657338762402087
26.46256154847042
101.1427651990327
7.29763061879127
8.57605808344738
15.63670917482885
80.39485191294033
8.233274634458915
8.020360387830589
10.16704065404172
53.23145702522128
9.411258381596262
9.519487536934182
5.390339056354842
30.82930960450274
163.3447315240379
198.4062316031611
213.8046009443316
217.6808108313076
177.7285043756657
202.9798316890231
218.1200701581992
222.1010703549272
191.0258444614095
204.6383481949851
218.9733134962787
222.9329794298024
214.0616397689555
206.4920663479546
219.9826280736993
223.1903781675554
217.8239623379382
217.148418841066
216.7303216397866
213.3488288559953
223.0455897085401
222.9664657916061
222.469866245488
219.1072698686103
223.2877553537679
223.3196711213133
222.5736709746219
218.6703085282041
223.7307361118549
223.6815825681504
222.6349074543712
218.2215050333546
207.844490809677
199.9626303666866
193.8322518374038
183.1713932406458
214.3551085102038
207.4305108975993
207.0650785363681
209.7212064202861
212.9932909781058
207.4084268443377
203.1323687113339
211.123287242901
211.7223309492622
207.2123969000766
210.1480077640892
225.6478797900303
95.54918652814521
80.00001934889977
79.99999853111244
80.00035119159487
105.766031773916
80.00009452148119
79.99999882487555
80.00072166193111
112.219138239491
80.00014269466847
79.99999543924287
80.00121765335757
113.6324513204173
80.00016573871221
79.99995844388424
79.99872805085727
80.0174856856807
80.20996130499086
80.9271458341784
81.95647890232139
80.02893661788477
80.27689707755792
80.99537018451846
81.81212381683362
80.0457985552524
80.40339031761198
81.33995984971202
82.30414981044477
79.99204388892525
80.12068788553476
80.89992678463629
82.0506732311005
82.27005786223634
82.489348287303
87.77417294387249
107.8222219471337
81.88540589436678
80.77151458792615
81.33150236316422
98.3826000878128
82.38974376030222
81.08831550250585
79.45307474686996
88.9472603557363
81.93076872870623
79.98710014822461
73.7857587094967
70.50505975397544
128.2729364489925
125.7894746449283
125.1248950275736
123.7053426049376
130.7920264316673
126.9924171695007
126.0978299333512
124.6403217190131
130.1251407456209
127.035231248625
126.0480032708831
124.5049410439058
129.3773704375236
127.9055753845668
126.589169863351
124.774371169239
121.0866120107957
117.7337120660756
108.6350993541417
87.58349949412063
123.2164534883702
121.7514958928894
118.3440273700311
97.90370522651584
123.1484254598414
122.7422997567264
121.5684287741079
109.0639624342932
123.8963107187762
124.4595788368627
126.8486447167908
130.6542702455394
77.6776432315569
79.97409994613359
79.99986107404933
79.99999958873796
76.86149465615763
79.95446715725637
79.999693217893
79.99999892281525
76.63958424024531
79.92652533713724
79.9994001797705
79.99999772532406
75.43513585275007
79.87444111536878
79.99890770932986
79.99999584257002
79.99999510926526
79.99872616396073
79.85294429184171
74.62832548955014
79.99999510623853
79.9987297694092
79.85478414673423
74.73487987090951
79.99999507694585
79.99872896112358
79.85590819709587
74.93671830220745
79.9999951390802
79.99875133467917
79.86251668747462
75.5229502477696
79.99999584227292
79.99999772501347
79.99999892138126
79.99999958721708
79.99890770948637
79.99940017975079
79.99969321767662
79.99986107343697
79.87444111550683
79.92652533660507
79.95446715781279
79.97409994572638
75.43513585245019
76.639584239619
76.86149465604765
77.67764323177731
)
;

boundaryField
{
    back
    {
        type            empty;
    }
    inlet
    {
        type            zeroGradient;
    }
    front
    {
        type            empty;
    }
    top
    {
        type            zeroGradient;
    }
    outlet
    {
        type            fixedValue;
        value           uniform 80;
    }
    bottom
    {
        type            zeroGradient;
    }
    wall
    {
        type            zeroGradient;
    }
}


// ************************************************************************* //
