/*--------------------------------*- C++ -*----------------------------------*\
  =========                 |
  \\      /  F ield         | OpenFOAM: The Open Source CFD Toolbox
   \\    /   O peration     | Website:  https://openfoam.org
    \\  /    A nd           | Version:  11
     \\/     M anipulation  |
\*---------------------------------------------------------------------------*/
FoamFile
{
    format      ascii;
    class       surfaceScalarField;
    location    "0.0475";
    object      phi;
}
// * * * * * * * * * * * * * * * * * * * * * * * * * * * * * * * * * * * * * //

dimensions      [0 3 -1 0 0 0 0];

internalField   nonuniform List<scalar> 
1652
(
1.706212168242967
0.5337381654508486
4.440892098500626e-16
1.172474002792889
0.5337381654500766
0
0.638735837438093
0.5337381631487836
-6.838973831690964e-14
0.5337380849346181
1.001421168211891e-13
0.1049976798976227
1.706212168246044
1.067476330897457
1.172474002798808
1.067476330897313
0.6387358382087593
1.067476301923894
1.067472759531136
0.1049980633319511
1.706212168254444
1.601214496347917
1.17247400280502
1.601214496346737
0.6387358623709414
1.601213757268703
1.601019562102365
0.1049990464720151
1.70621216825572
2.134952661797195
1.172474002807805
2.134952661794707
0.6387357131446287
2.134952326343085
2.133369830415276
0.1044206548515835
2.65119121526914
1.723711780227148
3.16742976874232
1.723711780225906
3.683668322215903
1.723711780225502
1.723711780257098
4.199906874031967
2.651191215259781
1.207473226759289
3.16742976879146
1.207473226756355
3.68366832167577
1.207473226825043
1.20747322614542
4.199906853371456
2.651195037837774
0.6911943578970408
3.16745359188676
0.6911086458408957
3.683424838787288
0.6910474320776784
0.691007750767567
4.200609877609669
2.661102305532845
0.1430491486144485
3.225907576195014
0.07199872852297806
3.802220674787406
0.02817153997801775
4.362546134675513
0.00385170223936171
4.164907645654678
0.03499917247779094
4.129908421021989
0.03499913805738986
4.094909198011857
0.03499913182199454
0.0349991576078249
4.059909962738922
4.164908634890758
0.06999558730422384
4.129909509447189
0.06999492043982036
4.094910246579378
0.06999480523271945
0.06999506282436957
4.059912080836145
4.165743477962546
0.1035023776313148
4.130739507000214
0.1031975165144219
4.095708030466314
0.1032038014813775
0.1029078340108174
4.061218806452959
4.354820748663567
-0.004143243014315179
4.323558770872427
-0.00474119969393999
4.289273792145042
-0.004443425461263972
4.25731260092613
-0.01062682568528023
4.246394788089199
0.00327617609670372
-0.081919207262865
4.188453365081807
0.003609499045493791
-0.02351920225810628
4.122011298329229
0.002020708500833079
-0.01024523062394211
0.0005915219453537235
4.074627590843607
-0.00435353092923163
4.061436308649619
9.494466969350857e-06
4.061403706710703
9.537204309961744e-06
4.060636721164205
5.907025461104887e-06
1.761696599933416e-06
4.060045161120267
4.059912564635979
2.34220597250534e-07
4.059912436185432
2.196435826551379e-07
4.059911145340612
1.320205246235773e-07
3.763325906458448e-08
4.05991017183737
4.059909965432774
4.059909967561683
4.059909973577493
4.059909978671221
4.059909979785
-3.576354989931474e-09
4.059909979828124
-7.339806540329619e-11
4.059909979828954
-4.523048602322888e-13
-6.475930902638538e-13
4.059909979829606
4.059909986512153
-1.859631839074005e-07
4.059909979855763
-4.448801660394963e-09
4.059909979828634
-1.48821510670416e-11
2.4802382370126e-13
4.059909979829314
4.059915831169643
-6.786550076703923e-05
4.059910014295048
-1.846156588991565e-06
4.059909979636594
-8.138892448883439e-09
1.536908433852346e-09
4.059909979625884
4.060912498063501
-0.0008104740302601332
4.059921499941187
-4.408194394478482e-05
4.05990997700997
-2.452774224281917e-07
4.059909964629409
6.242062811079307e-09
-8.410566687544474e-11
4.059909969786037
4.77050310365712e-09
-4.274358644806853e-14
4.05990997977619
-2.664535259100376e-15
4.059909979829604
4.059909979829605
-2.224631773239949e-08
4.05990989426914
-1.665973808906429e-08
-5.103782396709278e-10
4.059909970271468
-6.480371794737039e-13
4.059909979779379
4.05990997982984
5.557169212577762e-07
4.060065004034373
-0.0001681344584168465
5.81467779481315e-09
4.059910327328876
1.670441784895615e-09
4.059909974242597
4.059909979947951
0.0002487135445420896
4.073442878156325
-0.06163019525995173
-1.213430293778295e-05
4.059886737634559
-2.483355429072631e-07
4.059905306676997
4.059909950723528
0.09333140163136383
3.96657871152877
0.1866594014673137
3.966578962748621
0.277635908805459
3.966939408519107
3.999966206188048
0.09547672964809639
0.09333088628931635
3.87324751388683
0.1866491687559309
3.873250100754885
0.2744551211443236
3.874428877171217
3.958429958562129
0.06309932415381814
0.0933306070463395
3.77991628483801
0.1866396907979631
3.779919498544289
0.2715266865494098
3.781417238661179
3.902524057426897
0.02269296512299901
0.09333042061960273
3.686585056063907
0.1866334335288731
3.68658861925916
0.2698529465334949
3.68809492071781
3.795567478789046
0.008216543573287383
-0.2685472438624574
3.684343081210353
0.005364290281154482
-0.186626971742359
3.594865783446735
-0.09333027405363009
3.593257990485732
3.593253762539853
-0.2668263684832619
3.557630309186132
0.006999772946296723
-0.1866174860612869
3.5013352890991
-0.09332996114607384
3.49992667139658
3.499922474623911
-0.2650095651987462
3.436404867337552
0.006859578354590057
-0.1866067650877253
3.408172948505273
-0.09332959967757898
3.406596936247045
3.406591202265337
-0.2624672255395659
3.306028088592558
0.008496054358985039
-0.1865876199293864
3.314474620922159
-0.09332885340681779
3.313264701425266
3.313259943715977
0.119578257300393
3.193679299163698
0.2390843868306395
3.193683441657821
0.3374700572581765
3.194628926454389
3.154306605200577
0.02233831704897615
0.1195775656850427
3.074098704085336
0.2390647719894257
3.074102538214769
0.3348968162350013
3.0747897101844
3.002219629895232
0.03626918830162162
0.1195770755284415
2.954517979423597
0.2390565083403213
2.954520670617853
0.3370165370133303
2.954797102948575
2.899149335484426
0.1139984116654745
0.1195785141397179
2.834937328585474
0.2391046939894695
2.83494681562301
0.3483408823764052
2.835203564728398
2.808574857751521
0.2846265240413358
-0.2012494551749556
3.036182541377808
-0.4027304913869109
3.036166907216245
-0.614460741148417
3.039260194306098
3.012575743591785
-0.8174760055339445
-0.2012447613089394
3.237428124613375
-0.4023529211079281
3.237394675046926
-0.5907950880583718
3.233080805361485
2.873293964059007
-0.3293007345352663
-0.2012448320065096
3.438673662054013
-0.4021975994872208
3.438599852977175
-0.5656874808344318
3.419778179607698
2.551067729985291
-0.05047128076276024
-0.2012446765017211
3.639919229886462
-0.4019970321994549
3.639865947654584
-0.5373125654466584
3.612871444972202
2.415828704276193
0.003554416611333711
0.2778200279080642
2.534839710614323
0.006298477739955871
0.2097454709550865
3.721190340915275
0.104997060505357
3.744863678788354
3.744916911617814
0.2836818079200963
2.722998647544117
0.002853008434376886
0.2097957075198947
3.833103306122328
0.1049971924720018
3.849887933762415
3.849914616127446
0.2912665433505871
2.873784354084393
-0.001600697625355724
0.2098721152934901
3.939757012305038
0.1049973993519411
3.954886108192959
3.954912285059689
0.2888147086509542
3.01600584986034
0.007713654632926115
0.209858046438243
4.047383569272081
0.1049973817060323
4.059888450682689
4.059909955941424
-0.01388533665699587
3.596823843008039
0.1494729516541502
-8.603222326619697e-05
4.057890411211019
-2.192595958128152e-07
4.059907434242318
4.059909977338826
-0.003449551307203036
3.959409848293413
0.1026143263095596
-1.35003969334857e-05
4.059819200687737
-2.614054261940169e-08
4.05990998593462
4.059909979903106
-0.001354412053839793
4.071041415402114
0.08701640954495843
-4.852818844547357e-06
4.060065474624023
-9.761782715500544e-09
4.059910218579466
4.059909980134631
-0.001465107393383569
0.08373561073561211
4.073685898705359
-6.435705615537302e-06
4.059772729714824
-1.497113077952861e-08
4.059909168838618
4.059909979850222
0.6580703899979132
-0.5031364090120727
-0.01380127942871957
-1.564526286301771e-12
1.189906562809836
-0.5246882776701498
-4.662936703425657e-14
1.714961707404273
-0.524986996799262
-3.295141937087465e-13
-0.5249883563479658
9.734435479913373e-13
0.6581051575185384
-1.008175061031133
-0.01914606423261052
1.189906645523181
-1.049379173522757
1.714961707748517
-1.049973997285137
-1.049976712682371
0.6581668773736894
-1.513043967312536
-0.02681394328625854
1.189906878390459
-1.574059849325875
1.714961708768037
-1.574960999528376
-1.574965069049962
0.6583199816580877
-0.03526184131032345
-2.023893287427989
1.189907928423517
-2.098831596166765
1.714961712841602
-2.099948123767335
-2.099953426794097
-0.001465107393076148
-4.071041415401152
0.08373561073558741
4.07368589870429
-6.435705049989693e-06
-4.060065474623696
4.059772729713792
-1.497123314209148e-08
-4.059910218579269
4.059909168837039
-4.059909980135155
4.059909979849952
-0.001354412053651721
-3.959409848291754
0.08701640954488565
-4.852819106893058e-06
-4.059819200687897
-9.761875530145403e-09
-4.059909985935337
-4.059909979902802
-0.003449551307400101
-3.596823843009436
0.1026143263094042
-1.350039740899422e-05
-4.05789041121145
-2.614056948679888e-08
-4.059907434241982
-4.059909977338958
-0.01388533665689151
-3.016005849857586
0.1494729516544006
-8.603222338221528e-05
-4.047383569272962
-2.192596380012901e-07
-4.059888450682809
-4.059909955941541
-0.1049970604989645
3.744916911638623
-3.639919229913808
-0.2097454709429444
3.744863678809187
-3.639865947682296
-0.2778200279031415
3.721190340897197
-3.612871444939681
2.534839710591967
-2.415828704250787
0.006298477739886579
-0.1049971924654544
3.849914616142104
-0.2097957075066679
3.849887933776728
-0.2836818079135544
3.833103306108887
2.722998647531251
0.002853008434192242
-0.1049973993449447
3.954912285067188
-0.2098721152796719
3.954886108199596
-0.2912665433443343
3.939757012297777
2.873784354075842
-0.00160069762542954
-0.1049973816984686
-0.209858046423178
-0.2888147086433402
0.007713654632903341
0.5373125654506483
-2.551067729965962
0.003554416611776065
0.4019970322141433
-3.419778179588827
0.2012446765095646
-3.438599852997533
-3.438673662073318
0.5656874808397541
-2.873293964046187
-0.05047128076162374
0.4021975995011528
-3.233080805350464
0.2012448320136835
-3.237394675059793
-3.237428124625539
0.590795088066151
-3.012575743586987
-0.3293007345341175
0.4023529211215986
-3.039260194300642
0.2012447613153389
-3.036166907222289
-3.036182541383852
0.6144607411556364
-2.808574857751525
-0.8174760055362843
0.4027304913987998
-2.83520356472857
0.201249455180767
-2.834946815623197
-2.834937328585564
0.1195782573043352
3.193679299173536
-3.313259943730419
0.2390843868395082
3.193683441671343
-3.313264701442845
0.3374700572629761
3.194628926442314
-3.31447462090656
3.154306605189333
-3.306028088577288
0.02233831704838318
0.1195775656887803
3.074098704091549
0.2390647719978217
3.074102538222509
0.3348968162391379
3.074789710176336
3.00221962988781
0.03626918830199366
0.1195770755317054
2.954517979426806
0.2390565083476135
2.954520670621521
0.3370165370167003
2.954797102944729
2.899149335480868
0.1139984116656506
0.1195785141428508
0.2391046939964453
0.3483408823794546
0.2846265240411663
-0.2624672255354741
-3.436404867325426
0.008496054359239169
-0.1865876199220931
-3.408172948492086
-0.09332885340361824
-3.406596936260457
-3.406591202276282
-0.2650095651945653
-3.55763030917791
0.00685957835452855
-0.1866067650798576
-3.50133528908852
-0.09332959967408078
-3.499926671405617
-3.499922474631234
-0.2668263684799914
-3.684343081204561
0.006999772946133409
-0.1866174860533845
-3.594865783444723
-0.09332996114251907
-3.59325799049063
-3.593253762543736
-0.2685472438582128
-3.795567478786453
0.005364290280393758
-0.1866269717338912
-3.688094920713387
-0.09333027404985234
-3.686588619258646
-3.686585056063816
0.09333140163142584
3.966578711528776
-4.059909950723577
0.1866594014675644
3.966578962749215
-4.059905306676725
0.2776359088056977
3.966939408520309
-4.059886737634456
3.99996620618888
-4.073442878156272
0.09547672964805309
0.09333088628934555
3.873247513887073
0.1866491687561021
3.873250100753321
0.274455121144992
3.874428877167729
3.958429958559572
0.06309932415420583
0.09333060704632518
3.779916284838162
0.1866396907977528
3.779919498545012
0.2715266865486057
3.781417238666597
3.902524057429971
0.02269296512179619
0.09333042061958263
0.186633433528802
0.2698529465337909
0.008216543573946855
-4.059909979947933
2.48335702890401e-07
-4.05990997982984
-1.670294791367155e-09
-4.059909979829605
6.550315845288424e-13
0
-4.059909979829605
-4.059909974242496
1.213430233754087e-05
-4.059909979779263
-5.814690118288723e-09
-4.059909979829605
5.104506262121333e-10
3.608224830031759e-14
-4.059909979829506
-4.059910327329157
-0.0002487135446175293
-4.059909970271404
-5.557169071024326e-07
-4.059909979776145
2.224613276924359e-08
8.405598439509276e-11
-4.059909979625914
-4.060065004034549
-0.06163019525998592
-4.059909894269851
-0.0001681344588846945
-4.059909969786031
-1.666051324678008e-08
-4.059909964629474
4.77055134284754e-09
-6.582512313002553e-13
-4.059909979828944
2.413069744022778e-13
-4.059909979828789
1.53689777571131e-09
-4.059909979636627
-4.059909977010032
6.24209672839271e-09
-5.130340596792848e-13
-4.059909979828128
-1.488209555589037e-11
-4.059909979855783
-8.138882401365066e-09
-4.059910014295092
-4.059921499941216
-2.452772582817175e-07
-7.340461571914147e-11
-4.059909979785111
-4.448796608880201e-09
-4.059909986512132
-1.846156487295136e-06
-4.059915831169588
-4.060912498063383
-4.408194414001754e-05
-3.576338225563802e-09
-4.059909978671388
-1.859631769685066e-07
-4.059910171837346
-6.786550087961585e-05
-4.060045161120343
-4.07462759084349
-0.0008104740305683311
-2.342235970731465e-07
4.059909965423453
-4.059909962726954
-9.49447291154204e-06
4.059912564626603
-4.059912080823747
-0.00327617609986075
4.061436308658443
-4.061218806464947
4.246394788097867
-4.257312600938038
-0.08191920726256557
-2.196465475057252e-07
4.059909967554781
-9.537210084509251e-06
4.059912436179909
-0.003609499048523979
4.0614037067169
4.188453365088097
-0.02351920225807252
-1.320235509805201e-07
4.059909973574168
-5.907031615071112e-06
4.059911145337609
-0.002020708504046786
4.060636721166966
4.122011298332298
-0.01024523062419758
-3.763626077457616e-08
-1.761702544511579e-06
-0.0005915219481762435
-0.004353530929426142
-0.102907834015005
-4.289273792153057
-0.01062682568524814
-0.06999506283627488
-4.095708030472002
-0.03499915761051475
-4.094910246575291
-4.094909198002525
-0.1032038014856566
-4.32355877087554
-0.00444342546162757
-0.06999480524474105
-4.130739506997767
-0.03499913182463499
-4.129909509452836
-4.12990842101548
-0.1031975165188775
-4.354820748662126
-0.0047411996940111
-0.06999492045194977
-4.165743477951652
-0.03499913806007937
-4.164908634906308
-4.164907645649884
-0.1035023776366139
-4.362546134670209
-0.004143243014360087
-0.0699955873164485
-4.200609877587834
-0.03499917248032614
-4.199906853397433
-4.199906874030039
-0.6910077507646738
-3.802220674784558
0.003851702239276944
-1.207473226136304
-3.683424838778939
-1.723711780257137
-3.683668321692294
-3.683668322214197
-0.6910474320755869
-3.225907576194168
0.02817153997790484
-1.207473226817262
-3.167453591879932
-1.723711780225357
-3.16742976880137
-3.167429768740459
-0.6911086458403357
-2.661102305532834
0.0719987285228445
-1.207473226751807
-2.651195037834786
-1.723711780226762
-2.651191215263711
-2.651191215268137
-0.6911943578970672
-2.133369830415761
0.1430491486145734
-1.207473226756499
-2.134952326343311
-1.723711780228153
-2.134952661794702
-2.134952661797195
1.706212168246006
0.5337381654478088
1.172474002797067
0.533738165448939
0.6387358374415365
0.5337381631495968
0.5337380849373075
0.1049976798981592
1.70621216824656
1.067476330893901
1.172474002799517
1.067476330895982
0.6387358382093107
1.06747630192491
1.067472759534024
0.1049980633321727
1.706212168253681
1.601214496345123
1.172474002803972
1.601214496345688
0.638735862370075
1.601213757269324
1.601019562105307
0.1049990464717999
1.706212168252929
1.172474002803967
0.6387357131414797
0.1044206548507
0.1049976759668988
0.1049976759673986
0.1049972091860927
0.104998222209968
0.1050030314512619
0.1049624878199374
0.1041149255715202
0.1048995092293362
0.1049982222096282
0.104997209186876
0.104994385410805
0.10499438541148
0.1049694620021528
0.1048166504295062
0.1021876830156791
0.105784591165114
0.1049624878203192
0.1050030314518774
0.1048166504298794
0.1049694620027666
0.1043657551523978
0.1043657551517007
0.09856934493147934
0.1060512159168635
0.1041149255724807
0.1048995092298685
0.1021876830163933
0.105784591165925
0.0985693449322962
0.1060512159160884
0.0977883654282358
0.09778836542896051
-0.04523865537139055
0.1411025321927648
-0.07911795948533912
0.1363103812573607
-0.1152619110231166
0.1374926387394902
0.1285173086194028
-0.01016443468740713
0.1514481369529967
-0.02544840242313195
0.1512791955649671
-0.0442755796176702
0.1545402293993626
0.1529058252756502
-0.004201191407656679
0.1564522114230688
-0.01278257079500372
0.1620833586499842
-0.01964261191753841
0.1642940484681473
0.1646248868598341
-0.002310568017336423
0.1607423733099126
-0.004483951476999037
0.1689278838626081
-0.003519704820155678
0.1701939653274518
0.169641127142991
0.1705978402735469
-0.001979475410830933
0.1707564485185027
-0.002261037527503229
0.1707648557480183
-0.001698654981804215
-0.008208117112295243
0.1710595131513877
0.172066336205359
0.001129568946205362
0.172370007342994
0.001175864722774922
0.1724051157869972
0.001965699858515024
-0.006145726577044264
0.1744479444666828
0.1709777692336936
0.001981610262037747
0.171306975350217
0.002337299501858681
0.1714311538111453
0.003139496632719674
-0.01158400111651964
0.1804331817691668
0.1624896320732319
0.1628925157846665
0.1637742011987175
0.1507428254426507
0.1608859373760108
-0.0689242248684718
0.1511876630216095
-0.01023116584791833
0.1456633877411376
-0.004755722699311515
-0.002763934015532876
0.1416775082624225
0.1592763267511905
-0.052350856685348
0.1513418492586888
-0.00295574942783261
0.1466158213926495
-0.0009277871384098524
-0.0001970187746749841
0.142419143434651
0.1636071022333773
-0.03167493663643736
0.1551837256770166
0.004997488586497623
0.1490773459835784
0.00426344420365693
0.003238409440148082
0.1435092765822367
0.1259799583968998
0.134379359509149
0.1389140014556825
0.1396314861981325
0.140174539124005
-0.0006637382580551576
0.1400011073818066
-5.021300363544645e-05
0.1399969064652413
-6.536878491281151e-07
5.276840409074168e-09
0.1399968934828636
0.1403201255497988
5.693813225238209e-05
0.1400054310770135
6.531833844192203e-06
0.1399969196188539
9.911481924085308e-08
7.133107660095561e-09
0.1399968934378121
0.1404842643440492
0.001329924335828181
0.1400101505090912
0.0001386282407513373
0.1399969351189117
2.574038253322364e-06
1.325515186501036e-08
0.139996893607045
0.1399426475900019
0.1399955930486439
0.1399968845571959
0.1399968936216129
0.1399968933005845
3.793913572192054e-09
0.1399968937757618
-1.008533861979188e-08
0.1400494802390784
-0.0002999148128290385
-0.06832470105970961
0.1373009852126476
0.1399968934142395
1.186352960313997e-09
0.1399968942970362
-3.851353236328237e-09
0.1401044824726982
-0.0007561085844200455
-0.06164917431896144
0.122331840465086
0.1399968936012947
-8.576517274150319e-11
0.1399968949208009
-1.042180397536896e-09
0.1400075917150947
-0.001459185406039232
-0.04136955172020246
0.1066088778944206
0.1399968951332336
0.1399968955866887
0.137076388470578
0.08266995105378123
0.1500755819387229
0.07558972934178643
0.1578796762080612
0.05932617302532306
0.164497313462193
0.02660151497128183
0.0116445284972162
0.1664360610239814
0.1400362281720154
0.05226450597239263
0.1557139767044326
0.04264770015672137
0.1656085921198397
0.0219850576881202
0.01288423476272538
0.1699045533834675
0.121586462543802
0.03334609388224763
0.1475293515703738
0.01461396012712501
0.1632441658765148
0.005535914654101082
0.003314913933600061
0.1686646856566734
0.1148480336276
0.130071424831547
0.142936483001065
0.152657055761683
0.1667367219098547
0.008474204279065534
0.1667846588968988
0.009812674222856921
0.166540302115826
0.01009659666010487
0.01164734869434847
0.1663887759831755
0.1705635831161085
0.01023709935281192
0.170664840886059
0.009876479987487308
0.1707539586963204
0.009551162442307359
0.01068342968669678
0.1709284095535183
0.1695439251120479
0.0007666498576198721
0.1696422343734026
0.0007302656692124154
0.1696962587909837
0.0006126999265629873
0.001369162741810648
0.1698935649204475
0.1547707113570924
0.1548706412392276
0.1548223184234155
0.1553022708459687
0.170171607499332
0.02431825111762698
0.178875925956873
0.03689598322089738
0.2032048363196063
0.101061492134065
0.2443753882744308
0.2570009610780081
0.175764884824842
0.02040995473145546
0.1851604822991126
0.03244334521043102
0.2052499117851608
0.08816468242615161
0.1779425900384194
0.2758025154133884
0.1745906856817152
0.007748454248629577
0.1851608616630884
0.01882630887076164
0.2103365509790588
0.06359442375791702
0.06719726213117549
0.3159071180165481
0.161007914518562
0.1784989636152802
0.2452284009736138
0.3059111601059786
0.149409580837612
-0.7103691926052454
0.03115378530165747
-0.1988674531419636
0.004036161998647966
-0.0202304598861742
0.007230632608226151
-0.0001642559251136735
0.1106170335565065
-0.5408683155801285
0.01708064554068271
-0.09412560770857967
0.002814061122455053
-0.00698549382436027
0.001901070048992884
0.0002824903155277669
0.06965132261162871
-0.2822871902517008
0.01220317007741204
-0.02365847327359619
0.00343731467745423
0.002514210920623164
-0.001050203047722048
0.0004299301712500404
0.01958870418396183
-0.001897027884028346
0.002202596440756429
0.0005252068869570792
0.0006240372580353423
0.004635923786469008
0.0005813802858265042
0.001364139831748351
0.002988424319436536
-0.004976727636716048
-0.003161442801131099
0.01487267842495885
-0.001654323040216326
0.000102036188409399
-0.003960967275680027
-0.002631121254141805
-0.003003254894818945
-0.008491303780562232
-0.00501963507827588
-0.0005706327675642359
-0.001405644398240107
-0.003196134665597268
-0.003649358558387874
-0.004419868354136873
-0.004360923361209801
-0.00732743887724871
-0.001177860759763165
-0.006879575949532923
-0.002069056375643847
-0.004155601130765151
-0.005189686148280338
-0.005887268024160758
0.09729376475844378
0.08636385896046633
0.1307646345521452
0.09502447663740241
0.1466882140485823
0.09642166207079467
0.08957800218755035
0.1551219984814255
0.06284269416122304
0.03736539124021074
0.1141309765947142
0.06456583418186565
0.1409075136476752
0.09124922516783673
0.07938057770115997
0.1675118745572998
0.02402736707957143
0.011784684955186
0.08196695484239497
0.02045299851703355
0.1289987807688628
0.06019750535426655
0.04980290413329608
0.1772253958215929
-0.00199669216098089
0.01791771522434485
0.09030557835614622
0.1482942317030821
0.136251190751567
-0.1797748914925301
0.2261099841849076
0.1199101331857292
-0.1548463023147418
0.1954026604094051
0.09163804113415096
-0.1115915770229177
0.1507690963057464
-0.06390274878935298
0.05673905992259211
0.1013377713864264
0.1485283285752774
-0.1393839704490835
0.1351840179308172
-0.09953511788095351
0.1081011150839942
-0.05507086812611944
-0.02470233933447893
0.08602734859141581
0.1291087971654378
-0.08698209705536225
0.07348233398455932
-0.03748545765593333
0.05575425733642776
-0.01694302379587388
-0.0008112819171670858
0.06366539384192929
0.06491511572604168
0.03832698433109877
0.02162748807187258
0.02013460866642114
0.02610265899821324
-0.004465907796881288
0.0313632546246398
-0.005611434029262705
0.0254015879157413
-0.005703089340002108
-0.004382174733001568
-5.030698080332741e-15
0.06815507743579849
0.009095263187524821
0.06870859592346154
0.002820274424694392
0.05370050727348584
0.003565133564787305
0.005472466164677132
-8.638922910364499e-15
0.0721896094179475
0.02262567020259836
0.05211775778949981
0.0167278728365279
0.02720599977738356
0.01200613828957544
0.007360216085512765
-5.988265439071938e-15
0.04091091430191574
0.02403914654907282
0.009633998689716601
-1.115774139748282e-14
-0.00438217473299617
-0.02540158791576418
0.005472466164677989
-0.05370050727350869
0.007360216085507649
-0.0272059997773898
-0.009633998689736099
0.01380127942870816
-0.005703089340005872
-0.03136325462466029
0.003565133564778892
-0.06870859592346593
0.01200613828956878
-0.05211775778949498
-0.02403914654906897
0.01914606423261253
-0.005611434029262612
-0.02610265899821466
0.002820274424692241
-0.06815507743579122
0.01672787283653062
-0.07218960941794356
-0.04091091430192661
0.02681394328628191
-0.004465907796874065
-0.02013460866642107
0.00909526318752478
-0.06366539384193465
0.02262567020259398
-0.08602734859141244
-0.05673905992260387
0.03526184131034299
-0.09163804113414339
-0.06390274878934257
0.1013377713864362
-0.1199101331857043
-0.1115915770228851
0.1507690963057322
-0.1362511907515409
-0.1548463023147248
0.195402660409401
-0.1797748914925055
-0.1551219984813997
0.2261099841848862
-0.108101115083981
-0.02470233933448142
-0.1351840179307942
-0.05507086812611784
-0.1485283285752561
-0.09953511788094439
-0.1393839704490666
-0.167511874557281
-0.05575425733642825
-0.0008112819171709335
-0.07348233398456298
-0.01694302379587733
-0.1291087971654174
-0.03748545765593197
-0.0869820970553469
-0.1772253958215695
-0.02162748807187211
-0.03832698433110657
-0.06491511572604206
-0.1482942317030639
-0.09030557835612016
-0.04980290413328525
-0.01791771522435
-0.06019750535420323
0.001996692160951732
-0.02045299851702043
-0.01178468495524579
0.005887268024172953
-0.1289987807688359
-0.07938057770114693
-0.0819669548423696
-0.09124922516778144
-0.02402736707962186
-0.06456583418177758
-0.03736539124034231
0.006879575949531723
-0.1409075136476522
-0.08957800218753495
-0.1141309765946732
-0.0964216620707179
-0.06284269416126038
-0.09502447663724076
-0.08636385896067078
0.0005706327675722607
-0.1466882140485602
-0.1307646345521117
-0.09729376475846488
-0.01487267842489443
-0.00298842431940442
-0.003161442801132827
-0.0005813802858185557
-0.004976727636738017
-0.0006240372580232079
0.001364139831683389
0.00463592378647687
0.000164255925087297
0.003003254894809914
-0.005019635078250782
0.003960967275675879
-0.008491303780553877
0.001654323040226472
-0.002631121254171219
0.0001020361884215698
-0.0002824903155309276
0.004360923361214211
-0.001177860759735819
0.003649358558378682
-0.007327438877229024
0.001405644398247745
-0.004419868354167356
-0.003196134665601709
-0.0004299301712518116
0.005189686148301641
0.004155601130761046
0.002069056375663044
-0.0005252068869425301
-0.004036161998528513
0.007230632608520332
-0.03115378530099152
-0.02023045988567458
-0.1494095808365791
-0.1988674531411455
-0.7103691926064813
-0.2570009610780759
-0.002814061122402378
0.001901070049201606
-0.01708064554044112
-0.006985493824155989
-0.1106170335558292
-0.09412560770821231
-0.5408683155806239
-0.2758025154134002
-0.003437314677411003
-0.001050203047600506
-0.01220317007731169
0.002514210920679494
-0.06965132261128607
-0.02365847327350575
-0.2822871902518702
-0.3159071180165015
-0.002202596440743214
0.00189702788403175
-0.01958870418390642
-0.3059111601060425
-0.203204836319706
0.2443753882741869
-0.1788759259569764
0.1010614921341061
-0.1701716074992971
0.03689598322106935
0.02431825111732511
-0.1663887759832022
-0.2052499117852652
0.177942590038264
-0.185160482299212
0.08816468242617781
-0.1757648848247998
0.03244334521047387
0.02040995473135332
-0.1709284095535461
-0.2103365509791375
0.067197262131096
-0.1851608616631464
0.06359442375785873
-0.1745906856817177
0.01882630887097025
0.007748454248640346
-0.1698935649204635
-0.2452284009736701
-0.1784989636153393
-0.1610079145185226
-0.1553022708459398
-0.1665403021158304
0.01164734869442452
-0.1667846588968734
0.01009659666009255
-0.1667367219097726
0.009812674222700823
0.008474204278740238
-0.1664360610239345
-0.1707539586963716
0.01068342968667779
-0.1706648408860441
0.009551162442235084
-0.1705635831160224
0.00987647998739194
0.01023709935268668
-0.1699045533834811
-0.1696962587909964
0.001369162741831631
-0.1696422343733902
0.0006126999265000377
-0.1695439251120358
0.000730265669195207
0.0007666498576037739
-0.168664685656703
-0.1548223184234265
-0.1548706412391992
-0.1547707113571142
-0.15265705576173
-0.1644973134622447
0.01164452849805409
-0.157879676208079
0.02660151497022312
-0.150075581938804
0.05932617302567134
0.07558972934168873
-0.137300985212619
-0.1656085921198329
0.01288423476335843
-0.1557139767044331
0.02198505768753323
-0.140036228172025
0.04264770015696873
0.05226450597227794
-0.1223318404650885
-0.1632441658764919
0.003314913934060582
-0.1475293515704305
0.005535914653724272
-0.1215864625438416
0.01461396012728899
0.03334609388221776
-0.1066088778944627
-0.1429364830009228
-0.1300714248315765
-0.1148480336276037
-0.08266995105377881
-0.1400494802389388
-0.06832470105975141
-0.1399968937751816
-0.0002999148134222307
-0.1399968933005648
-1.008690286852243e-08
3.794036418369728e-09
-0.1399968934829237
-0.1401044824725447
-0.06164917431902023
-0.139996894296642
-0.0007561085850362748
-0.1399968934142144
-3.852601460074823e-09
1.186571674249848e-09
-0.1399968934379072
-0.140007591715059
-0.04136955172024365
-0.1399968949206432
-0.001459185406496144
-0.1399968936013443
-1.042552932872809e-09
-8.570349985248527e-11
-0.1399968936070944
-0.1370763884704343
-0.139996895586609
-0.1399968951332495
-0.1399968936217173
-0.1399969064652388
5.276867276471364e-09
-0.1400011073817979
-6.536876772100797e-07
-0.1401745391239975
-5.021300375479543e-05
-0.0006637382583014606
-0.1416775082624429
-0.1399969196188493
7.1331296980226e-09
-0.1400054310770207
9.911490878034002e-08
-0.1403201255497644
6.531833804945819e-06
5.693813201768094e-05
-0.1424191434346155
-0.139996935118913
1.325520349038101e-08
-0.1400101505091168