/*--------------------------------*- C++ -*----------------------------------*\
  =========                 |
  \\      /  F ield         | OpenFOAM: The Open Source CFD Toolbox
   \\    /   O peration     | Website:  https://openfoam.org
    \\  /    A nd           | Version:  11
     \\/     M anipulation  |
\*---------------------------------------------------------------------------*/
FoamFile
{
    format      ascii;
    class       volScalarField;
    location    "0.359225";
    object      T;
}
// * * * * * * * * * * * * * * * * * * * * * * * * * * * * * * * * * * * * * //

dimensions      [0 0 0 1 0 0 0];

internalField   nonuniform List<scalar> 
880
(
500.0000000000027
500.000000292257
500.0240565784783
503.3405905143136
500.0000000004407
500.0000008568394
500.0298605170405
504.8868635513008
500.0000000016356
500.0000033372697
500.055335432902
506.7153312642115
500.0000000211684
500.0000146169437
500.1147511419766
509.4280211346572
499.9999999006574
500.0000000753466
500.0000101635125
500.0001636913958
500.0000671444112
500.0002570220054
500.0016143201789
500.0023564000309
500.2633415689072
500.4346700445417
500.7186093728763
500.9606771312394
514.917397398241
521.112078255353
526.373729082978
529.0286474252746
500.0004089609801
500.0033843937813
500.0128232972501
500.0397738936741
500.0227896510371
500.0985564102574
500.2004884998806
500.4219791791061
502.4154598033414
503.6982236004566
505.2859141918382
507.2304073210424
531.2567896795983
533.8979237172477
534.3921867337949
533.1637819209956
522.8400422885776
517.6388490129316
515.4440328356604
513.9696289009274
511.0471637727883
512.6637967850008
513.5775856455334
513.7072386838198
501.1771446978588
502.0601490017951
503.0080983286584
503.7663242055566
500.1411318171325
500.340567789909
500.6412030889273
501.0638374895885
501.5573193637428
502.0497247577957
502.5353800842647
502.8869613735549
504.3925412158706
504.7486966368867
504.950166553469
504.9002766824113
513.0676194895269
512.169036878867
510.9865385839576
509.749066051501
512.2218928643582
511.0324609522103
510.2808549985076
509.5131457715854
508.9398559630042
508.8783991619005
504.759506197645
503.0949462789648
519.1960591374501
508.0401559903431
504.3858606466351
503.0556781738869
571.3109523427095
510.4327328915355
503.9289701293982
502.603034814213
620.3394343338467
523.8935996598466
504.7801466933463
502.4445789776019
502.3959390627354
506.066805643192
539.6746355513122
637.407542805134
501.5154102005266
508.5892859554016
556.2992244656136
635.1878973931803
501.8913497217355
514.4401926196872
576.606194495717
636.1935247716569
503.3238671858982
524.8639242092227
594.7443393252039
633.4385870977218
628.3182985209281
604.8035891823455
539.8109583729128
506.4851189110574
621.8147874217934
607.4542937922811
554.9931360088138
512.1617123425468
614.5004259800859
605.2844661649887
566.9909396379364
521.1556192111041
606.6438349100888
594.2596576643142
569.0842230983012
532.0850140444782
541.2878930007051
563.5986992183327
579.7601320569765
597.1540087938894
539.8290881396283
552.0549365340166
562.8286793210997
582.2095547629198
535.8320666871033
540.3206251534725
544.5115192497333
560.5781425135019
530.63456721598
529.8349182622758
525.3130611413014
530.4068547197058
526.7501996041551
520.4499913101029
508.4963843771611
495.5325011438238
520.5894942116122
511.2775311825295
491.9696878872372
459.8360674427168
515.7615753251096
506.0170065220707
477.9345117422459
425.118208899676
511.587114505215
504.5830459308276
477.6841820218316
399.8548253650968
410.5579474535923
486.8315799650555
503.260791149623
507.7675982444097
477.9501587431411
493.0399352149703
502.4041541697313
505.1690795225837
517.2656854706747
495.7369438155396
500.873703280979
503.3592016540603
530.1774071632015
500.4087630865814
500.2274430347612
502.2899231102158
539.0032312230854
504.3283324309159
498.9655796591107
500.3926230619234
533.7921418470473
504.2975937746914
497.6634041891609
499.22187716705
525.7902444597962
503.4840666020843
497.2755011738487
499.1943532487381
517.701938766319
499.114194617631
497.0795959546407
499.4040452544929
479.7693823314564
469.4028527768344
488.9369960551473
498.6808884528995
474.2510698422342
471.2946373550618
489.4260407982314
498.6807156599702
465.2253303628314
473.4189150052123
490.3280235584382
498.6948531017806
459.4982026626299
476.2508706832172
491.3799324518704
498.7841465615024
517.7019387663923
499.1141946173336
497.0795959550242
499.404045254235
525.79024445992
503.4840666014579
497.2755011738626
499.1943532480167
533.7921418471041
504.2975937739749
497.6634041880072
499.2218771660831
539.003231223164
504.3283324301856
498.965579658944
500.3926230613368
507.7675982446642
503.2607911498596
486.8315799653628
410.5579474526554
505.1690795225041
502.4041541697722
493.0399352155701
477.9501587422749
503.3592016540194
500.8737032810411
495.7369438146932
517.2656854704958
502.289923110064
500.2274430351676
500.4087630859707
530.1774071635469
399.8548253664435
477.6841820216812
504.5830459308424
511.5871145053409
425.1182088996591
477.934511742318
506.0170065224391
515.7615753251087
459.8360674429321
491.969687887635
511.2775311825025
520.5894942117592
495.532501144201
508.49638437689
520.4499913096032
526.7501996042572
541.2878930007038
563.598699218924
579.7601320576395
597.1540087943574
539.8290881391852
552.0549365336893
562.8286793212923
582.209554763479
535.8320666863167
540.3206251531869
544.5115192496571
560.5781425138431
530.6345672157387
529.834918261865
525.313061141103
530.4068547201115
606.6438349104353
594.2596576646812
569.084223098591
532.0850140454236
614.5004259805457
605.2844661653625
566.9909396380388
521.1556192110261
621.8147874223097
607.4542937925911
554.9931360085035
512.1617123425417
628.3182985214373
604.8035891826866
539.810958373356
506.48511891097
502.3959390626313
506.0668056431816
539.6746355511773
637.4075428051257
501.5154102012744
508.5892859558037
556.2992244657167
635.1878973933376
501.8913497227945
514.440192620686
576.6061944960718
636.1935247714941
503.3238671859177
524.8639242090113
594.7443393257399
633.4385870979901
502.4445789774306
502.6030348140751
503.055678174434
503.0949462791153
504.7801466926285
503.9289701290816
504.3858606465777
504.7595061975359
523.8935996591241
510.432732891527
508.0401559898334
508.8783991617559
620.3394343336004
571.3109523423071
519.1960591375152
508.9398559628776
502.8869613740419
504.9002766827159
509.7490660518872
509.5131457720651
502.5353800840725
504.9501665539354
510.9865385843771
510.2808549987824
502.0497247578183
504.7486966370967
512.1690368787782
511.0324609516197
501.5573193633194
504.3925412157411
513.067619489933
512.2218928645331
500.1411318166911
501.1771446975646
511.0471637733608
522.8400422890006
500.340567789252
502.0601490013278
512.6637967856368
517.6388490130654
500.641203089251
503.0080983283866
513.5775856459254
515.4440328349075
501.063837489172
503.7663242054891
513.7072386843857
513.9696289005005
533.1637819210334
507.2304073211634
500.4219791789551
500.03977389413
534.3921867339104
505.2859141920107
500.2004884996559
500.0128232971023
533.8979237176522
503.6982236003959
500.0985564090449
500.0033843931673
531.2567896797082
502.4154598031116
500.0227896506596
500.0004089616435
529.0286474250585
500.9606771315032
500.0023564002784
500.00016369216
526.373729082484
500.7186093729071
500.0016143198203
500.000010164065
521.1120782547304
500.4346700444931
500.000257021586
500.0000000750112
514.9173973977141
500.2633415688011
500.000067144114
499.999999901189
500.0000000001753
500.000000292404
500.0240565784081
503.3405905140826
500.0000000005271
500.0000008565364
500.0298605169731
504.8868635513567
500.0000000018922
500.0000033370574
500.0553354330102
506.7153312646996
500.0000000219066
500.0000146167945
500.1147511420562
509.4280211348945
506.2250623175264
508.9273957766297
513.2486076258512
521.8948302579308
508.9273957771117
512.3861963316093
518.7548542248451
531.331280634054
513.2486076261173
518.7548542249197
528.8798150179817
544.0760499624668
521.8948302580085
531.3312806339014
544.0760499629876
560.2588640886556
577.2411411040339
564.2353340436681
557.353761062698
544.9490899504541
575.4555904739314
571.5450657237669
570.330837540257
564.6281771356688
575.3918082585919
574.3213410487493
573.7609072524564
572.0567864979516
571.9796323563835
571.5447043831311
571.683594826612
570.9792638683833
567.8984840291681
565.5533571998699
560.4611674626045
553.2865673895651
567.5579666961078
565.1530676683961
560.2394155413863
553.9645316086561
567.5743729018315
564.9923542216927
559.982367093029
554.5584680311845
567.6367200660404
564.7357309493434
560.185915333368
550.9725206076903
512.3815715266481
492.8101566588347
489.9503382650179
490.4506838904276
501.8267155500055
488.7086730095697
489.9709307888004
491.0972008808741
491.580066704733
488.8780367329931
491.5598266035929
492.8378574176226
469.9268394237791
484.1236438624986
489.9018087580105
491.5992117567892
490.7936275280725
491.8110146889135
493.3332053392601
494.8473860783948
491.004446039866
491.4814080023458
492.8632282099351
494.8620308304405
492.317039351695
492.3392662151776
493.2678778742134
494.7362844338218
491.2489125393667
491.4201457035076
492.7263713199802
494.840953196283
505.0214118986444
567.6716711974249
639.3553070297809
664.5409863545625
510.940554799488
581.1584792512502
642.0028882014545
660.2483837040578
516.4190244203106
589.4899812124531
641.9729700552558
660.9470845488504
520.2275050381284
597.7583268070297
642.1785300652268
661.3596577369971
694.300362709703
681.4463378670825
670.1426330303343
656.8780209184456
702.7504641301791
690.0079441031572
676.9002526657325
662.55218393888
708.7283100004923
697.4730763666705
683.0165186601662
668.0428911529505
706.6520134307419
701.2951034257279
687.1951140355986
671.8368391586077
643.6201525697302
633.0303347575477
623.2197926176514
618.9684580831387
648.7192844796366
637.1133779601682
625.9517178639435
621.0677939508014
653.8822919569659
640.6239470662971
629.508943173482
623.1780240628581
658.3005352312645
643.6962609434333
632.9992179499187
625.5990952183379
615.067338972907
607.6466025180606
590.9810210301758
565.0083445266147
616.8444696527794
609.2347423993197
593.7789287328277
592.6509268970099
617.8384286886652
610.1539940047413
602.7701917929469
620.4158807245732
619.732904246194
614.0048123095087
616.3498710001592
603.9812748243035
522.529449834987
460.1985160228299
422.6467127520161
426.4556655608671
512.06790230132
421.982645109778
305.519018099702
252.9573895175351
468.7322818314004
368.1005055332365
252.1766702937969
231.8546610507393
368.0080852945837
282.586528438943
227.829782199228
239.5926913687743
376.0481486920922
403.9418230505239
471.0926498862565
522.9278505556131
306.4902398047826
380.3681758205666
441.8212673270704
491.7067813419158
291.6704293648677
350.9051954931539
404.3994802722261
445.1268724754607
298.939059491006
351.432079811877
402.1189066208528
431.1444254012693
487.0587742542154
510.3441593112487
509.275672331013
509.6821747156943
435.7720289066771
473.9288595435157
492.6719160710315
510.5627020706505
407.3507592661818
432.9140417254723
470.5529755630022
514.1710396723114
392.4902040355033
408.2744035742491
445.062585926391
512.9372055419378
491.8223940867609
470.6106666786131
459.3904494530863
459.698938049999
495.1746408072397
486.0187429978689
482.0154628983965
475.8941029522435
504.2341596113316
507.4073340728834
501.6102837401874
488.6183954991528
503.5977882772828
508.6049830100659
498.7247303220647
484.0927744546534
465.9327209183888
450.6292884117427
442.2393202205111
439.8978048104203
471.5305973679356
455.6903371362069
444.4216629059292
441.0580311299125
469.7958114087696
461.2980133168368
452.6178685599739
449.0015008582285
462.7982972406229
460.2221585462342
455.4841525674396
452.3492855852564
439.8978048103845
441.0580311298914
449.0015008582387
452.349285585349
442.239320220334
444.4216629057651
452.6178685599701
455.4841525677038
450.6292884114623
455.6903371359429
461.2980133167683
460.2221585464208
465.9327209179874
471.5305973677405
469.7958114087278
462.7982972407559
459.6989380501466
459.3904494531345
470.610666678935
491.8223940870245
475.8941029522706
482.0154628984902
486.0187429981232
495.1746408074846
488.6183954990307
501.610283740129
507.4073340728841
504.2341596113963
484.0927744544565
498.7247303219732
508.6049830100366
503.5977882772507
512.937205542018
445.0625859268182
408.274403574861
392.490204036111
514.1710396724179
470.5529755634099
432.914041726063
407.3507592668544
510.5627020708241
492.6719160713163
473.9288595440596
435.7720289075667
509.682174715833
509.2756723312061
510.3441593116806
487.0587742549577
522.9278505554464
471.0926498861706
403.9418230490389
376.0481487008281
491.7067813419114
441.8212673273061
380.3681758198961
306.4902398049623
445.1268724757573
404.3994802727648
350.905195492994
291.670429364622
431.1444254016576
402.1189066214391
351.4320798121603
298.9390594907896
426.4556655823222
422.6467127539091
460.1985160229825
522.5294498356232
252.9573895204762
305.5190180997415
421.9826451097816
512.0679023014172
231.8546610507742
252.1766702935266
368.1005055336747
468.7322818318113
239.5926913690244
227.8297821988273
282.5865284395497
368.0080852949257
565.0083445269777
590.9810210305731
607.6466025185722
615.0673389733189
592.6509268973755
593.778928732963
609.234742399579
616.8444696531449
620.4158807247543
602.7701917929609
610.1539940047348
617.838428688888
603.9812748247666
616.3498710000945
614.0048123093738
619.7329042464501
618.9684580836896
623.2197926180735
633.0303347574592
643.6201525695697
621.0677939512959
625.951717864027
637.1133779598229
648.7192844792602
623.1780240630933
629.508943173644
640.6239470659551
653.8822919567706
625.5990952186644
632.9992179501353
643.6962609433697
658.3005352308105
656.8780209181367
670.1426330300505
681.4463378667696
694.3003627095911
662.5521839384895
676.9002526657026
690.0079441029314
702.7504641299798
668.0428911527398
683.0165186599326
697.47307636614
708.7283100003418
671.8368391583698
687.1951140354217
701.2951034254544
706.652013430461
664.5409863545547
639.3553070295234
567.6716711973836
505.0214118991038
660.2483837039167
642.0028882011704
581.1584792511518
510.940554800042
660.9470845486182
641.9729700549202
589.4899812122488
516.4190244208846
661.3596577369334
642.1785300648889
597.7583268068094
520.2275050386935
494.8473860790479
493.3332053392054
491.8110146881824
490.7936275276975
494.8620308310877
492.8632282097824
491.4814080013797
491.0044460394545
494.7362844344653
493.267877873864
492.3392662141919
492.3170393511544
494.8409531969165
492.7263713196096
491.4201457024541
491.2489125387298
490.4506838896426
489.9503382643941
492.810156659205
512.3815715270143
491.0972008801253
489.9709307879563
488.7086730100918
501.826715550298
492.8378574168501
491.5598266026182
488.8780367334453
491.5800667049473
491.599211755993
489.9018087568481
484.123643862877
469.9268394239953
553.2865673897736
560.4611674629073
565.5533572004581
567.8984840290412
553.9645316087384
560.2394155416169
565.1530676689086
567.5579666959919
554.5584680311625
559.9823670931501
564.9923542220236
567.5743729015256
550.9725206077055
560.1859153334218
564.7357309495833
567.6367200658085
570.9792638674645
572.0567864968157
564.6281771348027
544.9490899505737
571.683594825617
573.760907251027
570.3308375386096
557.3537610621652
571.5447043820594
574.3213410470407
571.5450657210162
564.2353340417197
571.9796323554662
575.391808256712
575.4555904704962
577.2411411003814
505.1287492337582
497.2528017538281
496.813750507502
499.4843666360868
485.4165667658687
492.0354497209967
495.3929271941569
499.3455504547282
470.3712248582271
486.3986931997193
493.9795344950878
499.1482016100292
460.1367102845593
480.4288689445515
492.4961577025298
498.9412772626701
498.6808884525211
488.9369960551377
469.4028527768085
479.7693823315449
498.6807156595999
489.4260407983857
471.2946373550107
474.2510698425867
498.6948531018041
490.3280235588489
473.4189150050018
465.225330363126
498.7841465616114
491.3799324520509
476.2508706830515
459.4982026627537
498.9412772625679
499.1482016098794
499.3455504550714
499.4843666362464
492.4961577022748
493.9795344948911
495.3929271938503
496.8137505076617
480.4288689446575
486.3986932000342
492.0354497215408
497.2528017542226
460.136710284378
470.371224857979
485.4165667658777
505.1287492338865
)
;

boundaryField
{
    back
    {
        type            empty;
    }
    inlet
    {
        type            zeroGradient;
    }
    front
    {
        type            empty;
    }
    top
    {
        type            zeroGradient;
    }
    outlet
    {
        type            fixedValue;
        value           uniform 500;
    }
    bottom
    {
        type            zeroGradient;
    }
    wall
    {
        type            zeroGradient;
    }
}


// ************************************************************************* //
