/*--------------------------------*- C++ -*----------------------------------*\
  =========                 |
  \\      /  F ield         | OpenFOAM: The Open Source CFD Toolbox
   \\    /   O peration     | Website:  https://openfoam.org
    \\  /    A nd           | Version:  11
     \\/     M anipulation  |
\*---------------------------------------------------------------------------*/
FoamFile
{
    format      ascii;
    class       volScalarField;
    location    "3.275";
    object      p;
}
// * * * * * * * * * * * * * * * * * * * * * * * * * * * * * * * * * * * * * //

dimensions      [0 2 -2 0 0 0 0];

internalField   nonuniform List<scalar> 
4455
(
5764.0943
5776.0897
5797.696
5828.8993
5871.5696
5926.8557
6003.7908
6106.5557
6263.4011
5715.6495
5732.0841
5758.4721
5794.7867
5840.2127
5898.1946
5981.1063
6094.1505
6295.831
5663.2504
5684.812
5717.2834
5757.6797
5805.3182
5865.7761
5950.9929
6071.406
6315.5056
5608.0188
5636.0459
5674.1794
5717.7245
5767.1839
5829.97
5916.3392
6044.216
6332.8924
5551.6879
5586.5201
5629.1186
5676.0274
5726.5498
5790.6312
5877.8896
6011.8041
6351.7734
5495.5934
5536.4085
5583.4056
5632.6462
5683.8044
5749.7337
5836.9385
5971.9442
6369.6682
5440.6688
5486.7891
5537.3843
5587.8987
5639.8723
5707.3114
5793.8711
5925.3472
6384.535
5388.0704
5438.1132
5491.3967
5542.7341
5595.2739
5663.8291
5749.1635
5870.8359
6392.2602
5338.5253
5391.1196
5445.8103
5497.8307
5550.627
5619.6373
5704.7624
5810.0869
6380.6989
5292.4159
5250.2948
5212.6787
5179.8123
5151.7082
5128.2121
5109.4075
5095.7293
5087.9025
5346.0392
5302.9655
5262.664
5225.5694
5191.7186
5161.6526
5135.8432
5113.6122
5095.0739
5400.6876
5356.1852
5313.8695
5273.9494
5236.2501
5200.9363
5168.0813
5137.9611
5110.1168
5452.3824
5406.3864
5361.6581
5318.3365
5276.6111
5236.4781
5197.544
5159.3768
5121.4958
5504.5675
5456.5312
5409.2263
5363.2524
5318.7797
5276.5196
5237.0696
5200.0855
5164.9532
5572.4836
5520.9146
5468.9137
5416.4664
5363.5177
5310.1633
5257.2349
5205.8606
5149.2917
5657.5423
5604.5206
5550.3976
5497.5549
5446.6619
5399.2601
5354.6703
5312.9595
5270.1703
5737.102
5647.8649
5557.039
5463.8405
5374.1629
5293.25
5219.1625
5150.2392
5083.671
6340.3685
6186.8792
5952.369
5746.7761
5558.8382
5383.8099
5220.7807
5070.1874
4931.668
5086.8094
5084.7832
5079.3739
5071.9614
5062.1943
5051.2185
5037.5117
5022.4104
5004.0876
5084.4971
5074.6272
5062.3074
5047.4044
5029.816
5009.9594
4987.7668
4963.2392
4936.5326
5092.0856
5076.2436
5058.8125
5040.1263
5020.0697
4998.4119
4974.7676
4948.9588
4920.9712
5094.5405
5074.4264
5054.1869
5032.6091
5009.0615
4983.5881
4956.3786
4927.7359
4897.439
5139.6108
5115.5537
5088.7749
5060.4138
5031.0359
5000.754
4968.9407
4935.0151
4898.5682
5106.9021
5075.8409
5046.3247
5016.4581
4985.3157
4952.242
4917.4604
4881.8473
4845.7375
5227.7625
5184.6095
5138.4032
5091.3623
5045.0224
5000.6071
4957.688
4914.7633
4871.5659
5026.9929
4974.6386
4920.1527
4862.3336
4801.0767
4738.9684
4680.3123
4629.7332
4587.072
4825.5392
4737.8375
4660.3102
4589.8884
4528.7777
4478.8972
4433.3288
4382.6436
4333.5604
4316.9313
4308.6441
4314.115
4348.9917
4419.8788
4517.856
4626.446
4741.5963
4861.6924
4550.7909
4515.4152
4484.1553
4460.5477
4446.3139
4444.5291
4457.026
4480.6439
4512.982
4831.6169
4794.9113
4760.5868
4729.1442
4700.6447
4675.3207
4653.2252
4634.9226
4621.3683
4809.7682
4773.4648
4735.9719
4698.1171
4660.6676
4624.2345
4589.6619
4557.8487
4528.0487
4861.5874
4824.3608
4786.4633
4747.8022
4708.345
4668.5152
4628.0746
4588.0854
4547.6584
4865.6071
4831.5199
4794.7662
4755.7649
4715.5433
4673.8555
4630.459
4585.9184
4539.533
4891.316
4860.0485
4826.7471
4791.3902
4754.1202
4714.9946
4673.8563
4630.7311
4585.1742
4908.3715
4877.9721
4844.5095
4808.2326
4769.8622
4729.3745
4686.7519
4641.5035
4593.3524
4980.5483
4951.599
4922.2482
4892.4108
4861.708
4828.6658
4792.5474
4752.6807
4709.0042
4661.6001
4610.5054
4555.8867
4497.7449
4436.01
4369.3275
4298.3883
4222.0633
4140.7979
4542.0704
4487.7383
4430.5872
4369.7736
4306.3132
4238.919
4167.8946
4092.647
4013.1394
4536.8049
4486.344
4433.6412
4376.5797
4318.2335
4256.9911
4191.1562
4123.5172
4050.5734
4491.9189
4442.3421
4390.9864
4337.7693
4282.3624
4225.6606
4165.2443
4103.2235
4037.3773
4506.8739
4466.3496
4424.2995
4381.8303
4339.5781
4295.2194
4250.1202
4204.3892
4154.5571
4499.9438
4473.1177
4447.1243
4421.4183
4396.3454
4371.6388
4347.5246
4322.8564
4297.1744
4612.7322
4608.1192
4607.3229
4609.3593
4615.6222
4624.8463
4635.613
4646.3825
4656.3964
4553.533
4601.291
4655.2492
4714.8412
4777.3441
4840.8075
4906.3581
4974.19
5043.747
4985.6803
5110.7821
5239.9558
5364.349
5489.9672
5618.3311
5747.8767
5880.9705
6012.6995
6146.8458
5113.0184
4665.4514
4268.8674
4102.7455
3967.736
3973.3599
3929.1333
4053.8758
6283.3965
5180.4394
4672.432
4237.2337
4048.1952
3894.0537
3892.9501
3839.4611
3960.758
6417.0739
5244.7756
4675.2696
4200.7153
3987.764
3815.3411
3805.2419
3744.5598
3861.292
6550.2498
5304.0433
4672.6629
4158.3617
3922.4175
3730.0324
3713.9009
3643.7429
3754.7959
6678.4938
5355.7768
4663.6153
4109.3603
3852.008
3639.7595
3616.1951
3536.4825
3641.024
6794.9165
5397.9786
4645.8847
4050.0981
3772.965
3540.2908
3510.7845
3422.5747
3519.8385
6890.5003
5426.3341
4617.6842
3983.044
3687.1965
3433.3202
3400.103
3301.2161
3390.8666
6966.3781
5437.7576
4576.7889
3903.7382
3592.1103
3318.0184
3281.0469
3172.9769
3253.8177
7003.0926
5427.285
4518.7805
3810.1168
3486.1156
3191.745
3152.7916
3037.0634
3109.4778
2961.135
2893.6613
3014.3204
3055.8878
3363.9498
3697.6633
4435.3671
5383.9293
6996.077
2814.7618
2742.9132
2863.4313
2908.7323
3218.9095
3557.3845
4303.3564
5263.2423
6792.6766
2654.4555
2583.7537
2696.6384
2747.5712
3053.3968
3389.2637
4124.5555
5068.9893
6498.5608
2469.8453
2413.5557
2521.4248
2573.6779
2868.6916
3197.5924
3914.7519
4838.976
6211.6206
2267.1138
2234.2751
2334.5767
2386.5596
2666.8288
2984.3652
3682.2869
4592.4243
5927.3188
2056.7175
2044.7619
2135.6603
2187.7417
2450.5221
2755.7019
3434.3253
4332.7594
5640.7639
1843.1329
1847.8416
1927.9364
1975.4723
2220.0637
2511.5331
3168.4889
4056.6571
5348.8171
1627.1051
1642.7936
1713.1677
1756.0344
1975.5238
2251.7815
2885.5147
3762.1078
5048.3273
1405.7378
1431.116
1489.4658
1524.0236
1719.9591
1974.5644
2580.7535
3445.6308
4736.0286
4413.8123
3107.8319
2256.5272
1681.1237
1452.2498
1285.3632
1258.9575
1215.6494
1179.3349
4081.3651
2747.1864
1909.536
1371.8123
1172.2628
1038.1714
1026.8942
996.26789
946.25725
3739.2941
2364.5885
1544.2176
1048.3711
885.88625
786.10222
791.20483
775.56901
716.39009
3386.2769
1957.2585
1157.6387
709.69677
590.29948
530.56206
553.9959
555.6178
488.99868
3015.9375
1524.5714
753.78428
361.87781
293.20873
273.52948
319.7476
339.79888
270.70565
2626.8401
1062.5971
329.76551
5.8855373
-10.723606
17.700502
90.945879
129.19124
60.714996
2205.5975
570.49933
-106.05935
-352.21627
-307.81164
-232.56337
-132.03414
-73.364536
-134.74793
1763.2758
47.695043
-558.05179
-713.06405
-602.91869
-473.21203
-343.27921
-263.80206
-314.06775
1281.5947
-507.11845
-1015.5619
-1067.7868
-888.44171
-705.00784
-541.64217
-439.39647
-472.20922
-609.50675
-601.06746
-725.10372
-925.14472
-1166.1331
-1426.7555
-1501.7406
-1135.3489
719.05852
-718.5415
-740.68985
-889.26234
-1127.8533
-1432.6256
-1775.3505
-1999.0333
-1852.2648
-1.1623698
-801.65506
-852.27935
-1028.4958
-1306.013
-1666.609
-2095.775
-2474.5955
-2601.8355
-807.2478
-854.25888
-935.08761
-1139.0708
-1453.4419
-1871.1566
-2382.0481
-2908.016
-3347.7109
-1725.3228
-873.4512
-993.54186
-1219.7998
-1569.9239
-2038.1994
-2624.6408
-3286.2456
-4070.715
-2759.1428
-863.01626
-1031.4535
-1267.6535
-1654.4627
-2164.4838
-2815.5136
-3593.8986
-4715.187
-3967.4988
-824.61398
-1047.8378
-1285.3641
-1711.352
-2252.1076
-2952.9837
-3809.5257
-5229.1888
-5396.4643
-762.04432
-1042.4204
-1274.1798
-1740.6756
-2308.2711
-3038.551
-3917.144
-5545.5313
-7011.2502
-678.54578
-1016.8978
-1240.2652
-1749.7196
-2333.5918
-3093.6488
-3948.0416
-5610.3358
-8462.066
-595.95362
-978.45215
-1180.6674
-1747.6046
-2349.6557
-3179.2407
-4068.4896
-5666.7517
-9853.3366
-513.9305
-937.65669
-1122.7915
-1766.6473
-2424.1689
-3367.575
-4438.0296
-6433.7213
-11030.57
-405.17445
-892.44982
-1075.9495
-1805.887
-2539.8318
-3646.9502
-5039.608
-7534.3935
-11471.781
-273.1684
-837.77101
-1038.1189
-1856.7012
-2687.9206
-3963.0456
-5653.6037
-8670.1587
-9916.4924
-137.22235
-768.80457
-987.29014
-1893.8503
-2825.1057
-4287.8496
-6237.8281
-9881.826
-8551.882
5.5936418
-682.79554
-923.75427
-1910.336
-2934.7703
-4592.9757
-6831.9729
-11169.353
-9249.653
145.46312
-583.31193
-842.66754
-1906.1594
-3032.6594
-4895.3189
-7481.4795
-12235.799
-10718.997
288.36766
-473.43811
-753.83427
-1880.7789
-3120.0909
-5195.4078
-8156.7751
-12303.394
-11067.593
453.9372
-354.90504
-656.95343
-1838.5193
-3194.6319
-5466.6185
-8800.1677
-12501.135
-11082.656
-11246.622
-12910.401
-9265.3361
-5664.4891
-3234.1476
-1773.5311
-557.7361
-226.95569
633.50794
-11362.628
-13211.529
-9598.1351
-5784.7832
-3244.0901
-1692.4495
-457.59926
-92.9832
797.75122
-11479.534
-13457.997
-9874.0282
-5862.1136
-3223.3402
-1585.6825
-347.14026
45.682861
938.68499
-11610.709
-13663.993
-10099.096
-5908.8565
-3172.7901
-1463.342
-230.44517
186.24622
1060.6842
-11767.602
-13884.316
-10283.126
-5941.2655
-3110.2608
-1333.6544
-113.32743
323.15359
1177.1616
-11949.174
-14051.279
-10429.023
-5966.9964
-3033.5193
-1201.9367
2.9686211
456.60986
1289.7461
-12179.738
-14229.596
-10539.627
-5983.0586
-2951.0462
-1070.4466
115.62718
587.29178
1396.9217
-12506.246
-14356.584
-10615.744
-5980.5025
-2855.6999
-935.23826
225.0751
715.40404
1496.8315
-12672.072
-14527.798
-10654.051
-5944.7888
-2747.0827
-796.69636
333.06634
842.04174
1590.939
-12679.472
-14554.13
-10326.314
-5727.5246
-2473.2274
-536.16916
520.61539
1057.7516
1739.5177
-12630.687
-14815.628
-9980.3252
-5337.3307
-2024.5922
-186.62557
771.90128
1328.0159
1938.6774
-12216.643
-14937.28
-9560.0106
-4820.6171
-1529.4882
196.26098
1006.6621
1586.1712
2120.5689
-11673.221
-14974.369
-9053.0206
-4168.0135
-980.53299
526.58467
1200.261
1832.1884
2311.9988
-11221.25
-14948.968
-8481.2325
-3483.7588
-496.36167
765.1731
1381.1315
2101.7484
2476.3489
-10951.193
-14823.188
-7875.8466
-2788.1471
-103.76005
962.31455
1590.6584
2287.3925
2619.3302
-10816.823
-14550.45
-7236.0825
-2117.2743
220.53503
1141.1232
1836.5769
2502.8958
2677.3847
-10635.311
-14145.198
-6552.9711
-1479.2824
458.85291
1219.2583
2027.1432
2599.0048
2639.2512
-10219.975
-13636.552
-5866.2827
-983.19677
613.24222
1275.3049
2192.7962
2737.389
2359.1741
-10203.157
-9618.6849
-7753.4607
-5259.0902
-4255.304
-3892.9439
-2970.5746
-1862.727
5.8167396
-10244.99
-9844.5403
-7843.6838
-5212.8863
-3856.4447
-3386.7187
-2570.7278
-1683.882
159.02552
-10279.682
-10060.328
-7906.023
-5123.9144
-3461.7535
-2910.2032
-2164.9378
-1481.5065
327.64952
-10307.162
-10265.917
-7950.6346
-4995.301
-3075.1659
-2473.9896
-1771.8076
-1262.6059
515.62803
-10329.905
-10468.302
-7971.3722
-4823.8823
-2687.7532
-2070.9144
-1390.2197
-1032.4468
724.57656
-10347.488
-10662.251
-7955.9431
-4615.2731
-2308.6829
-1685.6632
-1011.2834
-784.95885
945.38261
-10359.26
-10845.567
-7903.9619
-4368.2134
-1946.9997
-1326.1274
-633.70052
-506.54587
1191.5242
-10364.182
-11020.689
-7827.0891
-4087.8266
-1597.0617
-983.33086
-271.1478
-208.57837
1467.8007
-10366.804
-11186.744
-7738.2816
-3786.7306
-1272.4726
-649.31423
72.213875
90.536049
1759.6693
-8212.6921
-2659.9746
-1047.7911
271.9112
-5330.3834
-3100.6909
-1627.563
-596.74874
-162.22522
-8259.0807
-2942.6017
-896.9974
601.4927
-4594.5129
-3217.32
-1830.8824
-839.12703
-221.47173
-8262.6622
-3076.2167
-337.42613
1026.046
-3682.6277
-3138.0357
-2001.6274
-1090.304
-366.56601
-8269.8434
-3370.4886
233.99766
1380.5615
-2791.461
-2917.4806
-2077.3067
-1329.8844
-542.75313
-8358.6188
-3754.1674
616.62081
1834.521
-1911.4819
-2564.5565
-2039.1123
-1530.787
-728.67556
-8338.8338
-4068.0956
868.06872
2145.3034
-1077.8546
-2101.043
-1867.6161
-1620.0527
-934.67834
-8396.6289
-4416.6941
980.11737
2507.9335
-295.79403
-1541.0049
-1608.3751
-1577.5475
-1096.1088
-8761.8508
-4867.2498
958.76457
2719.6239
425.70626
-950.42495
-1251.7531
-1421.1226
-1171.8242
-9325.4635
-5405.1434
634.62939
2799.2429
1013.7635
-384.86829
-872.44651
-1174.6401
-1135.1964
-212.08353
315.24355
605.51083
1127.565
1609.2904
1751.4427
41.220249
-5464.506
-11208.072
-353.9919
160.78638
481.08186
1035.6901
1628.965
1911.8761
94.689094
-5361.8229
-11095.153
-489.62781
0.15681582
347.67278
927.74627
1629.9036
2071.986
157.9652
-5375.3598
-10953.612
-615.51487
-163.76461
205.1083
804.76922
1618.936
2228.0343
225.62457
-5411.9008
-10828.978
-731.08019
-328.22221
55.660337
662.3107
1585.2938
2369.2181
293.63081
-5427.6472
-10683.543
-837.44881
-490.03819
-97.99252
505.62217
1532.19
2494.8249
346.90575
-5422.1757
-10483.134
-931.18159
-647.80327
-254.90151
340.83559
1465.4343
2607.5932
414.71626
-5436.5062
-10380.458
-1003.6398
-800.06317
-415.8185
160.97688
1374.2355
2684.7062
446.85832
-5440.7381
-10147.174
-1057.9149
-946.70223
-583.17266
-33.738975
1257.1039
2732.9009
384.38155
-5514.4804
-9751.3895
-11327.202
-5630.8565
92.770419
1604.0367
1575.3549
1209.6306
726.58637
465.11912
-62.470215
-10947.611
-5378.5397
201.68035
1479.4939
1529.6079
1276.2532
841.77113
607.41153
91.345697
-10289.414
-4694.328
297.43317
1360.9271
1484.2247
1323.7091
943.88101
739.06234
245.7417
-9397.1263
-3778.3623
319.48323
1280.0732
1455.6712
1358.0546
1035.3081
860.56307
395.32215
-10082.58
-2782.1961
332.845
1223.0171
1446.4119
1390.07
1118.0313
970.77677
540.50203
-12714.599
-1738.1047
387.91336
1183.732
1446.9995
1427.1307
1202.1194
1078.4089
671.56849
-12723.298
-944.68372
494.50263
1167.8513
1460.1455
1463.7705
1285.0971
1179.2046
797.65849
-10357.71
-230.52296
645.71138
1170.0711
1480.4989
1498.4332
1368.3376
1274.0239
923.48589
-8650.713
214.53391
709.17175
1168.8498
1493.0053
1532.069
1449.442
1364.3341
1070.9648
2046.7376
2123.7003
2053.8326
1904.5975
1624.6889
1178.3084
689.4559
224.32335
1669.4805
1943.5102
2027.2888
1960.8918
1816.7414
1520.5812
1029.0413
409.86929
-363.97496
898.24507
1841.0124
1938.1648
1880.7031
1747.1285
1446.3976
925.68643
193.56923
-918.49927
1.1574743
1748
1855.3263
1807.8278
1696.3989
1402.326
866.0959
63.063265
-1401.6804
-1069.3062
1651.966
1776.3158
1746.483
1658.2225
1382.9797
851.79722
27.245768
-1737.4661
-2368.181
1564.1005
1696.4261
1687.8827
1628.2597
1385.5689
880.55554
104.60457
-1877.1459
-3884.4602
1469.8785
1617.8007
1631.937
1606.1629
1407.3136
949.91814
248.42463
-1769.9312
-5583.1402
1382.741
1536.375
1575.8157
1584.1492
1442.1266
1036.4789
438.34154
-1354.4777
-6981.0426
1235.3539
1452.2685
1518.812
1560.108
1479.1567
1126.3305
617.62184
-582.58245
-7857.8481
2275.3185
765.76111
1003.7617
1358.8464
1756.2445
2009.6455
2156.7252
2228.4447
2158.7642
2782.8529
1262.9568
1325.519
1555.6651
1902.6938
2127.7677
2268.6013
2340.5188
2274.2551
3249.7959
1738.9132
1662.4765
1776.3541
2066.3156
2259.1843
2390.0633
2461.0681
2398.6898
3684.8787
2195.832
2003.3851
2011.9434
2247.6804
2403.2512
2522.3377
2587.6513
2529.8157
4087.8225
2627.6371
2343.3563
2255.76
2436.4176
2556.2024
2661.8046
2719.9419
2668.2673
4471.1613
3036.311
2678.7986
2505.8186
2630.4613
2717.9448
2805.288
2856.4307
2808.5762
4832.0741
3419.402
3006.4259
2757.9823
2833.1774
2883.3069
2955.2983
2996.9567
2956.5328
5181.1174
3779.1633
3321.078
3006.4608
3035.9251
3051.4517
3110.8504
3140.2061
3105.8765
5516.2109
4114.5915
3622.2826
3247.9477
3236.1228
3220.7331
3265.5197
3283.0303
3259.073
4493.1966
4450.9572
4512.2758
4550.038
4737.5362
4943.4408
5495.6144
6012.0124
7493.6619
4393.3954
4341.2533
4397.1267
4431.667
4614.6569
4817.1303
5383.3383
5934.0153
7577.9968
4272.9595
4224.9356
4274.5092
4304.0512
4478.5834
4669.6887
5243.4498
5794.0816
7461.7878
4140.4771
4103.972
4146.5639
4167.4723
4329.8841
4503.2308
5073.5503
5621.4039
7243.7852
4000.8568
3976.7744
4010.0746
4023.2542
4169.016
4321.801
4876.7699
5428.5359
7003.403
3859.6126
3844.9865
3868.6425
3872.75
3998.1995
4129.4688
4660.4308
5215.3537
6736.7297
3713.6498
3708.5565
3723.0432
3715.6691
3818.073
3925.4746
4427.3178
4980.0445
6452.0183
3564.6479
3568.7333
3570.5009
3553.963
3630.4104
3709.9315
4176.6928
4715.0913
6151.6728
3410.4446
3426.0051
3416.296
3388.5997
3436.2312
3484.4186
3906.6213
4426.9004
5842.7448
4594.1338
4697.0963
4796.1282
4890.2278
4979.6104
5062.7847
5140.8444
5213.3658
5280.689
4554.8514
4654.1577
4749.3203
4838.6377
4923.1738
5002.8596
5077.7775
5148.1766
5214.4404
4617.9735
4716.8028
4809.5345
4895.7559
4977.9338
5053.7202
5124.2206
5191.4086
5253.0187
4659.5947
4761.318
4855.5857
4942.5578
5023.853
5099.7951
5169.5751
5234.3803
5294.6309
4845.8864
4941.8145
5029.5415
5109.9235
5183.513
5250.8558
5312.3345
5368.8653
5421.0458
5051.1227
5145.8179
5230.571
5306.2713
5375.2536
5437.0007
5491.618
5540.3214
5583.8849
5581.7022
5653.6467
5715.9559
5772.9779
5820.8568
5857.8804
5888.7026
5914.338
5933.4983
5999.5776
5986.8767
6014.7086
6082.0948
6168.2548
6244.3548
6273.7088
6282.5928
6284.706
7205.2527
6987.4197
6890.8556
7019.1198
7161.7547
7207.5463
7270.0648
7261.091
7180.4963
5342.5989
5275.5691
5311.566
5350.8127
5469.4564
5623.2398
5949.3509
6277.4078
7114.4865
5400.0354
5333.2928
5365.7135
5402.7754
5514.4317
5658.5575
5962.242
6260.9472
7037.6986
5452.9443
5387.3566
5416.0233
5450.9048
5556.316
5690.9904
5971.9362
6245.0273
6946.0162
5502.0789
5437.4801
5463.6058
5495.7828
5595.5173
5720.8319
5980.7112
6226.645
6865.1992
5547.482
5483.5595
5508.198
5538.2157
5632.3108
5748.9592
5989.613
6205.1852
6784.3572
5588.7938
5527.2685
5548.4698
5577.1221
5666.5827
5775.8087
5998.3578
6186.0389
6699.4285
5626.3871
5567.2984
5586.1712
5613.2526
5698.9101
5802.0571
6007.4789
6167.1874
6623.1901
5660.4357
5603.8284
5621.608
5647.3207
5729.4605
5827.7095
6016.5721
6151.9514
6546.8322
5691.0305
5637.2632
5653.815
5679.3522
5758.4006
5852.734
6027.1531
6141.5694
6470.8458
5860.2924
5832.3655
5843.7949
5866.5612
5936.0592
6033.3038
6180.6829
6274.5566
6202.2942
5848.8151
5818.4383
5830.6663
5853.1954
5922.9262
6017.061
6160.7668
6238.4752
6160.1681
5835.8635
5802.8278
5815.9044
5837.6935
5908.5383
6000.325
6141.1385
6207.0572
6135.2339
5821.7105
5786.1661
5799.1472
5820.4454
5892.8173
5982.4385
6123.0152
6181.5605
6136.0239
5805.5321
5767.2383
5780.4847
5801.8342
5875.4672
5963.2585
6105.9804
6162.123
6162.5182
5787.3374
5745.6744
5759.5561
5781.3811
5856.114
5943.0384
6088.8915
6147.4701
6209.1218
5766.8951
5722.4728
5736.5199
5758.9999
5834.6381
5921.9325
6071.753
6138.1172
6266.6553
5744.0839
5697.1083
5711.4257
5734.2813
5811.0216
5899.889
6055.1484
6134.1933
6331.9528
5718.8362
5668.4201
5683.9223
5708.3582
5785.5694
5876.8616
6039.9577
6135.1075
6400.8911
6249.3009
6317.3929
6201.8534
6049.6901
5948.6549
5879.5175
5855.3423
5844.7354
5869.6445
6313.7276
6366.5665
6223.2905
6064.4415
5959.3549
5890.7664
5865.714
5855.7047
5877.3242
6388.0765
6416.1693
6241.7697
6076.842
5967.821
5899.8066
5874.6061
5865.2848
5883.7481
6470.5383
6462.5185
6256.151
6086.0891
5974.1576
5906.8781
5882.0334
5873.6401
5889.2288
6555.4423
6504.4434
6265.9931
6091.5023
5977.9693
5912.2
5888.4374
5880.7848
5893.7272
6640.1609
6541.0891
6270.6792
6093.2493
5979.193
5916.2511
5893.9567
5886.7804
5897.5328
6723.0557
6571.2341
6270.2411
6091.9864
5978.34
5918.9394
5898.3583
5891.9638
5900.6641
6802.5434
6597.1038
6267.8999
6090.1969
5977.3831
5921.5461
5901.7618
5896.7476
5903.0991
6880.2555
6624.775
6271.13
6092.8807
5979.7653
5926.6414
5905.437
5901.0035
5904.4613
6969.4868
6660.8148
6291.1424
6108.5159
5992.6683
5937.8237
5912.4732
5905.5251
5905.0257
7070.8011
6697.555
6315.7147
6128.1603
6009.0491
5951.9001
5922.9867
5912.0278
5907.5928
7162.7882
6729.0503
6337.0108
6146.9664
6025.0042
5965.5861
5933.9954
5919.3096
5911.5734
7241.5217
6753.071
6352.8463
6163.3972
6039.7017
5978.6787
5944.9897
5927.5146
5916.86
7300.2692
6764.8639
6360.5319
6175.9604
6052.4159
5990.4576
5955.1034
5936.0235
5923.3319
7335.3906
6761.0108
6359.9441
6183.8591
6062.7647
6000.5543
5964.136
5944.3497
5930.6654
7310.1534
6736.2715
6351.2155
6186.4415
6070.1384
6008.3681
5971.5697
5951.9556
5938.2365
7156.2902
6692.052
6338.0533
6183.5419
6074.1916
6013.1803
5976.8803
5958.1857
5945.4194
6939.903
6627.3031
6322.797
6176.022
6074.1844
6013.9824
5979.5106
5962.1928
5951.5195
5807.9637
5816.2414
5833.3745
5860.9678
5901.8589
5956.5617
6030.9336
6132.716
6287.1035
5846.7669
5851.7562
5867.1291
5894.1483
5936.2076
5996.9952
6079.9574
6195.5903
6354.7485
5879.9665
5882.1512
5896.4707
5923.409
5966.9634
6031.3751
6117.4018
6237.2617
6395.5645
5906.6455
5907.5778
5921.1039
5948.3457
5993.9046
6062.7774
6154.521
6287.4301
6454.2348
5927.0146
5927.8844
5941.0116
5969.022
6017.1353
6091.3118
6191.8413
6339.692
6511.7318
5941.5001
5943.2933
5956.5653
5985.1749
6036.5321
6116.2678
6227.2892
6392.2366
6575.3519
5950.7263
5954.2676
5967.7944
5997.263
6051.9074
6136.6246
6258.2141
6446.1828
6641.2482
5955.184
5960.8863
5975.3467
6005.6501
6062.8994
6152.7955
6283.6775
6502.1123
6715.0541
5955.2175
5963.2863
5979.1583
6010.9596
6070.0073
6165.1433
6303.897
6559.6615
6802.4622
6497.1527
6554.8363
6610.9767
6686.4705
6770.9805
6874.3279
7028.0499
7250.6724
7565.6333
6528.1393
6582.8374
6642.511
6720.8256
6811.1943
6920.2325
7079.614
7307.7772
7623.8612
6556.1137
6607.7228
6668.2655
6747.9932
6845.832
6966.1316
7135.2882
7376.3104
7703.4302
6581.2694
6631.0057
6692.7599
6773.0259
6874.1405
7004.3288
7185.4807
7446.9947
7793.3658
6605.2631
6651.9159
6713.0815
6793.5622
6895.7604
7032.0518
7220.3066
7510.7621
7875.2579
6613.7182
6657.6846
6715.9141
6794.1438
6894.3982
7033.2072
7221.7525
7553.0715
7938.0637
6588.8101
6628.7738
6685.6823
6761.9674
6857.2659
6986.4698
7159.1887
7557.7378
7958.7166
6516.0325
6548.5903
6591.2924
6651.754
6735.8363
6859.386
6995.7838
7460.241
7889.2686
6357.7103
6384.8017
6412.2489
6450.6978
6499.7737
6619.9879
6707.8581
7218.0877
7502.5258
1588.6737
4517.128
4557.4607
5358.9666
5613.9185
5805.7393
5928.7585
5988.5858
5997.266
3885.6852
4010.8026
3963.0512
4399.5018
4473.4101
4761.9605
4914.1698
5069.7308
5186.894
4405.4764
4414.3549
4303.6055
4431.9411
4354.7609
4509.6054
4505.0342
4633.7146
4684.1838
4429.7962
4482.6775
4425.6678
4515.2679
4431.2824
4522.7591
4449.8575
4533.7921
4472.0779
4463.0294
4487.4922
4452.0588
4534.955
4464.3892
4553.3818
4475.0754
4557.1268
4484.2255
4504.052
4515.7807
4490.3173
4544.3114
4491.3957
4566.5747
4498.6056
4569.066
4504.3176
4545.3036
4550.2315
4539.8499
4563.2759
4538.9476
4578.1071
4543.9059
4586.6452
4550.7704
4588.2717
4595.9614
4587.2407
4604.7621
4596.6108
4610.2746
4604.503
4620.7836
4601.5142
4641.9842
4647.5319
4650.3328
4669.3097
4675.6818
4697.878
4712.0523
4742.9941
4758.375
4739.8903
4672.6445
4567.57
4425.9475
4211.5507
3915.1691
3579.1781
3291.9891
3087.0482
4738.4297
4672.6456
4567.4484
4423.6548
4210.2393
3915.306
3566.882
3256.346
3013.8824
4714.9586
4652.2229
4546.0559
4399.4625
4189.0951
3891.4995
3536.9707
3194.3156
2910.4923
4704.9086
4643.9092
4539.715
4388.6646
4180.6939
3878.4554
3517.3391
3127.7888
2779.4538
4686.3824
4632.9767
4528.9857
4378.2048
4170.1186
3871.2575
3495.6929
3061.7066
2632.8454
4684.1868
4630.1295
4532.3756
4375.0768
4170.3099
3871.4189
3480.8752
3007.1073
2488.714
4664.9714
4624.2564
4522.5054
4375.3964
4164.3818
3876.8708
3473.4046
2971.1694
2376.5204
4669.4067
4625.2188
4530.4047
4376.7976
4175.5785
3879.7678
3480.9159
2943.8324
2329.0304
4662.5896
4629.5011
4537.2913
4393.3288
4191.5238
3913.0727
3505.6404
2973.3209
2279.6873
3096.1024
3297.2249
3661.5238
3993.5578
4228.8648
4408.7142
4586.5177
4764.8286
4923.2923
2978.5862
3186.41
3611.8071
3973.2144
4214.5829
4396.6454
4576.1829
4755.784
4918.7258
2833.1922
3077.2504
3579.9124
3961.4212
4200.7454
4385.03
4569.3577
4752.6983
4919.3212
2660.9761
2967.2836
3547.0295
3943.7778
4182.8453
4373.9643
4564.9222
4750.9224
4919.9031
2449.5475
2860.9588
3511.4625
3917.8206
4155.3975
4355.9245
4551.908
4740.8269
4911.3139
2137.1607
2791.9249
3530.4274
3927.7299
4162.3999
4364.4618
4561.9726
4750.1217
4919.9843
1698.6016
2601.6717
3459.5737
3864.581
4113.6114
4330.3071
4538.1455
4731.2814
4905.1975
1264.7868
2673.3058
3526.0664
3889.626
4134.4208
4348.4795
4551.8311
4742.1933
4913.9797
113.12868
2489.642
3491.7425
3847.7815
4111.019
4334.2965
4542.8411
4734.2748
4907.8387
5067.3524
5208.7337
5349.7637
5491.8736
5638.5156
5792.848
5957.469
6132.5024
6322.6277
5065.702
5209.4914
5352.0041
5496.4254
5644.3092
5800.6639
5965.9611
6143.5007
6334.4177
5068.19
5211.5266
5353.6909
5498.8529
5647.6743
5805.5727
5972.2615
6152.1966
6344.6685
5070.2232
5215.3487
5358.5495
5505.576
5654.375
5813.6786
5980.8633
6162.9373
6355.598
5064.2341
5210.6536
5355.2814
5503.6325
5653.9553
5814.208
5983.0058
6167.8786
6363.6446
5072.6032
5219.4555
5363.6873
5511.9137
5662.3204
5822.9723
5991.2165
6176.1068
6372.3889
5060.2976
5210.1536
5356.8862
5507.2058
5657.9323
5819.1057
5989.8427
6176.1543
6373.9139
5069.2205
5217.9928
5364.5385
5513.8355
5665.1889
5825.65
5996.3397
6182.2456
6381.6979
5063.9964
5214.1226
5361.0219
5511.4038
5662.6962
5824.052
5994.6366
6181.8288
6380.7704
6522.0411
6739.1513
6969.6918
7214.744
7461.3448
7710.7294
7932.3173
8126.5129
8224.8481
6536.3751
6755.9914
6992.5782
7245.5985
7506.3383
7764.8811
7998.3629
8197.2376
8298.31
6550.1456
6771.8466
7013.5367
7276.0158
7549.4252
7816.7096
8062.2741
8262.8884
8365.8195
6563.9446
6787.9927
7034.5989
7305.3374
7587.7736
7864.6838
8122.4248
8326.2002
8426.4716
6573.8373
6799.241
7050.8557
7328.5441
7620.8918
7910.8888
8181.1228
8389.3387
8481.3441
6585.2167
6811.7367
7066.5398
7347.6595
7650.7986
7954.851
8238.1325
8449.7524
8530.5327
6587.9901
6816.7683
7075.3991
7362.6685
7675.402
7990.2002
8286.6821
8497.6954
8570.2706
6595.2358
6824.6957
7082.728
7375.5719
7696.0136
8027.433
8332.5611
8554.4641
8612.868
6595.6299
6824.9527
7086.2248
7380.5171
7701.9287
8044.667
8356.2627
8573.152
8617.1313
8440.7887
7947.4281
7566.6213
7205.3138
6830.0529
6461.1892
6100.3785
5746.2467
5395.4571
8545.7053
8033.1342
7650.5914
7282.2435
6899.5596
6521.2474
6155.0594
5796.0281
5443.7445
8648.0766
8115.6164
7734.5119
7354.7877
6964.5713
6578.231
6210.3577
5847.1573
5494.2034
8742.7801
8196.2908
7819.6159
7426.9567
7028.8366
6631.5679
6261.7065
5892.1412
5541.7077
8829.9817
8274.3562
7901.7516
7499.1574
7097.5878
6696.606
6319.1008
5947.7409
5592.4956
8911.0303
8353.1235
7981.2119
7555.7024
7150.4307
6737.9995
6364.2288
5981.6078
5632.7967
8964.5388
8430.9542
8066.9755
7637.3432
7224.2348
6812.6163
6430.4651
6050.5358
5694.9969
9003.3107
8488.4378
8116.8272
7669.7179
7257.7332
6833.4302
6454.4286
6064.6133
5713.874
9021.2109
8575.7087
8209.643
7763.4892
7348.6622
6923.6413
6540.7263
6148.8931
5794.6668
5050.1816
4701.0188
4350.2589
3989.4174
3620.7749
3235.5674
2833.5724
2416.4258
1974.8486
5094.2862
4744.3004
4391.7044
4030.3914
3662.065
3275.4797
2876.8978
2456.8664
2017.7636
5141.5046
4791.0566
4437.8599
4076.8579
3710.1073
3324.2182
2929.0169
2510.2112
2076.03
5183.2211
4835.9313
4478.3641
4120.4827
3752.6812
3368.3082
2976.0218
2556.3965
2127.7156
5236.0598
4884.2321
4529.6453
4168.6127
3803.4074
3418.9353
3028.2395
2610.7695
2184.3551
5266.371
4920.9039
4558.984
4203.959
3835.4108
3454.2419
3065.4202
2647.4999
2226.653
5332.5634
4982.7094
4623.744
4266.5064
3900.155
3519.9031
3132.0293
2719.2335
2296.4417
5344.8298
4999.5977
4636.064
4282.7536
3914.2639
3536.1954
3149.3944
2736.0726
2318.0289
5425.0539
5078.4931
4715.2569
4362.0838
3995.2922
3619.0509
3234.6744
2827.5589
2406.053
1471.6391
869.1141
216.9866
-481.7884
-1257.3833
-2008.0451
-2775.7872
-3685.3825
-5275.2993
1513.018
933.16181
288.92966
-376.11847
-1136.7007
-1835.2886
-2583.6949
-3390.96
-4846.6572
1575.6685
1017.0326
385.81904
-253.73834
-994.92818
-1695.4349
-2473.3035
-3266.4154
-4476.7862
1632.1141
1095.0509
480.00505
-137.91185
-858.78793
-1556.5194
-2296.7129
-3040.4172
-4054.0599
1694.5409
1172.2279
577.88124
-26.317773
-720.78252
-1413.962
-2097.2227
-2783.2911
-3496.2901
1744.6356
1240.4373
669.47928
76.284371
-590.02703
-1287.871
-1946.1598
-2528.866
-2893.934
1824.7261
1329.1088
794.16275
211.08819
-415.97058
-1125.0007
-1745.9441
-2462.41
-1617.7989
1855.2191
1371.2241
851.10414
282.4983
-335.88156
-1031.8222
-1773.1979
-2269.4083
-2462.5137
1960.0174
1495.5645
1018.9805
480.44043
-77.924987
-732.93943
-1402.0506
-2751.499
1392.1242
-7975.0075
-9871.2997
-10598.989
-10477.009
-10691.992
-11118.564
-10798.93
-10393.555
-9982.8767
-7757.7406
-9871.6788
-10447.94
-10348.62
-10597.519
-10829.678
-10699.687
-10330.676
-9932.3179
-7627.6561
-9962.3848
-10272.021
-10302.905
-10652.202
-10935.456
-10628.003
-10254.507
-9872.3296
-7644.1345
-10048.652
-10078.876
-10299.3
-10597.532
-10780.776
-10547.884
-10178.445
-9800.0292
-7767.2544
-10021.466
-9764.799
-10299.108
-10663.213
-10784.369
-10470.09
-10100.59
-9720.7214
-7471.8618
-9787.4819
-9719.8733
-10353.405
-10624.245
-10692.674
-10385.725
-10021.876
-9648.0198
-6417.8293
-9441.9876
-9877.0061
-10398.856
-10658.249
-10644.988
-10297.808
-9953.0005
-9577.7225
-6822.2713
-10156.149
-9825.3361
-10473.459
-10661.819
-10590.028
-10235.872
-9892.9025
-9516.1859
-16687.433
-8421.9436
-10304.218
-10541.99
-10649.787
-10513.002
-10157.047
-9837.8278
-9483.0144
-9736.6144
-9754.6992
-9986.2896
-10512.908
-11410.917
-12635.115
-14159.773
-16804.616
-15862.566
-9674.5461
-9661.7924
-9887.3699
-10425.817
-11399.584
-12798.127
-14374.674
-16761.138
-15731.588
-9631.9684
-9609.096
-9841.5938
-10449.772
-11565.178
-13118.712
-14814.017
-16517.093
-15606.125
-9566.0659
-9548.8936
-9808.8571
-10496.454
-11690.845
-13341.709
-15126.991
-16651.705
-15204.241
-9479.073
-9480.4882
-9759.4384
-10518.465
-11791.948
-13498.425
-15263.971
-16159.454
-14668.142
-9379.9302
-9408.2923
-9702.8545
-10527.342
-11879.89
-13585.556
-15148.45
-15631.669
-14083.743
-9295.4174
-9355.4035
-9659.367
-10554.9
-11979.5
-13719.335
-14987.647
-15176.857
-13480.405
-9234.9392