/*--------------------------------*- C++ -*----------------------------------*\
  =========                 |
  \\      /  F ield         | OpenFOAM: The Open Source CFD Toolbox
   \\    /   O peration     | Website:  https://openfoam.org
    \\  /    A nd           | Version:  11
     \\/     M anipulation  |
\*---------------------------------------------------------------------------*/
FoamFile
{
    format      ascii;
    class       volScalarField;
    location    "0.11";
    object      Ma;
}
// * * * * * * * * * * * * * * * * * * * * * * * * * * * * * * * * * * * * * //

dimensions      [0 0 0 0 0 0 0];

internalField   nonuniform List<scalar> 
880
(
1.11801663592382
1.118016635923757
1.118016574811821
1.118007602472423
1.11801663592382
1.118016635923068
1.118016404454681
1.117905002699966
1.11801663592382
1.118016635933898
1.118015556570924
1.117336538928864
1.118016635923821
1.11801663565716
1.118004623987291
1.112677590473709
1.118016635923693
1.118016635922692
1.118016635913144
1.118016633966659
1.118016636658077
1.118016635123799
1.118016642539843
1.118016416479175
1.117943115034959
1.117857293477212
1.117752923489788
1.118027046657956
1.093380084473776
1.072395825249344
1.064355461233244
1.062730894977899
1.118016594262408
1.118016346087816
1.118015474220066
1.118015708369992
1.118013294696091
1.118007518575721
1.118005450380544
1.118006013170389
1.116641508765062
1.115951584790599
1.115812840728682
1.11569319993053
1.061547162287357
1.057874749264139
1.060335757776717
1.061967777315247
1.100324446200117
1.119539594256218
1.129928900783917
1.136707960089186
1.113367683548389
1.113019278896051
1.116418789949688
1.118440853303758
1.117976754433792
1.117912816474862
1.11793957751624
1.117992081820538
1.118014072971924
1.118010342284557
1.1180053756648
1.118004529610454
1.118006486962203
1.118010711414998
1.118014522260915
1.118016222919489
1.118028696960841
1.118044941636357
1.118034316217222
1.118021477055282
1.119743030415997
1.119989188226966
1.119377887260013
1.118637814693294
1.137983119117534
1.135971264531122
1.132248391467513
1.127473548304053
1.122735643710915
1.118176265852472
1.118017217054343
1.118016598034159
1.119014569657615
1.118033742666899
1.118016663252423
1.118016634645234
1.116568387994747
1.118011320078051
1.118016625922474
1.118016635450605
1.061358016354583
1.117322306563965
1.118015550549043
1.118016701366707
1.118016419405245
1.118001276404651
1.112800808729303
0.876758811647029
1.118015441285154
1.117970881338875
1.107878763193109
0.8584127365745023
1.118013547587934
1.117903371454745
1.101001769331414
0.8375141509122811
1.118005997979148
1.117847144634319
1.094828570492996
0.8381063305515575
0.841720275762838
1.087660035643612
1.117727175907185
1.1180028138194
0.8504699876720625
1.082787569452249
1.117675835063111
1.117986643563577
0.8519933044143412
1.074891695420597
1.117466567166905
1.117984808890619
0.8507291638534583
1.066910924864181
1.117317280944604
1.117956097184972
1.117944522538711
1.116892930227481
1.053393114724248
0.8564205007095306
1.117890634958744
1.116589934366376
1.055011444296367
0.8890756996701182
1.117913824365909
1.116914526451899
1.076667225795603
0.9686794219788917
1.117868541771537
1.117343063081127
1.105011878723486
1.065979673866973
1.117844462977398
1.117468234412546
1.129947683449777
1.232336395064406
1.117873216064486
1.120309396155003
1.138833236832019
1.259425481353546
1.118017691632243
1.119005263911685
1.129291305403365
1.148478976990993
1.118023633049623
1.117952314698306
1.108669964653864
0.9589422286951484
0.86396470458899
1.096675754131594
1.117691279355506
1.118016182933139
0.8098821084161451
1.087960981057259
1.117297260755861
1.118012296593721
0.7874141797152601
1.085022708885003
1.11742587520618
1.11801568553532
0.7374629509824562
1.079698215873889
1.117314421286105
1.11801448943255
0.8205095682871764
1.092586255494866
1.117666332397233
1.118015830668289
0.934752831455035
1.104792140419922
1.117893886371969
1.118016355826059
1.02294733408658
1.11237951460029
1.117981985502314
1.118016581893289
1.074989067071167
1.116362886386474
1.118015660631184
1.118016640049786
1.034132680174205
1.112653554834323
1.117897893682236
1.118015681094036
1.038905281229745
1.112952023630591
1.117902058737421
1.118015701032777
1.036941320906541
1.112992350015982
1.117906297543234
1.118015729964427
1.036050033869422
1.113361629886417
1.11792046636521
1.11801584469288
1.07498906707129
1.116362886388362
1.118015660633708
1.118016640052287
1.022947334086936
1.112379514602649
1.117981985504426
1.118016581894289
0.9347528314553016
1.104792140421638
1.117893886372295
1.11801635582671
0.8205095682860526
1.092586255496208
1.117666332396402
1.118015830668106
1.11801618293062
1.117691279354845
1.096675754129532
0.8639647045877262
1.118012296593293
1.117297260755896
1.087960981056047
0.8098821084147172
1.118015685534737
1.117425875206972
1.085022708886684
0.7874141797137325
1.118014489432272
1.117314421284024
1.079698215874238
0.7374629509811983
0.9589422286931985
1.108669964653338
1.117952314699077
1.118023633050921
1.148478976989361
1.129291305403554
1.119005263911006
1.118017691632501
1.259425481353279
1.138833236831919
1.120309396154863
1.117873216063356
1.232336395064359
1.129947683451257
1.117468234414224
1.117844462976046
1.117944522540047
1.11689293022018
1.05339311472115
0.8564205007095915
1.117890634958183
1.116589934365824
1.055011444294423
0.8890756996695807
1.117913824365274
1.116914526451974
1.076667225795667
0.9686794219794195
1.117868541773259
1.117343063082363
1.10501187872387
1.06597967386701
0.8507291638538629
1.066910924865103
1.117317280951581
1.117956097180486
0.851993304413551
1.074891695419251
1.117466567162179
1.117984808891113
0.8504699876720285
1.082787569451018
1.117675835065205
1.117986643563085
0.8417202757633196
1.087660035641812
1.117727175905189
1.118002813819124
1.118016419404902
1.118001276403281
1.112800808728079
0.8767588116457258
1.118015441282778
1.117970881339269
1.107878763198377
0.8584127365765205
1.118013547585514
1.11790337145224
1.101001769327678
0.8375141509126159
1.118005997979087
1.117847144635993
1.094828570496782
0.8381063305523527
1.118016701366584
1.118016635450914
1.118016634644469
1.11801659803422
1.118015550551533
1.118016625923515
1.118016663253291
1.118017217054859
1.117322306565233
1.118011320077599
1.118033742667708
1.118176265853153
1.061358016355607
1.116568387994411
1.119014569657107
1.122735643710871
1.118016222918936
1.118021477054434
1.118637814692528
1.127473548303956
1.118014522261401
1.118034316215915
1.119377887259928
1.132248391467001
1.118010711414976
1.118044941635868
1.119989188228132
1.135971264532818
1.118006486963102
1.118028696961288
1.119743030415386
1.137983119117962
1.118014072971742
1.11797675443541
1.113367683548117
1.100324446199221
1.118010342286263
1.117912816474329
1.113019278895228
1.119539594256053
1.118005375663567
1.117939577517466
1.116418789950609
1.129928900784856
1.118004529610974
1.117992081821088
1.118440853303629
1.136707960090463
1.061967777315753
1.115693199930391
1.118006013171991
1.118015708369158
1.060335757777468
1.115812840727233
1.118005450382798
1.11801547422062
1.057874749264079
1.115951584790149
1.118007518578363
1.118016346087835
1.061547162288053
1.116641508766466
1.118013294697149
1.118016594260425
1.062730894978421
1.118027046655431
1.118016416479263
1.118016633965742
1.064355461233875
1.117752923491294
1.118016642540429
1.118016635913146
1.072395825250042
1.117857293478077
1.118016635125966
1.118016635922678
1.093380084474684
1.117943115035725
1.11801663665736
1.118016635923716
1.118016635923821
1.118016635923765
1.118016574811183
1.118007602472202
1.11801663592382
1.118016635923499
1.118016404454515
1.117905002701243
1.11801663592382
1.118016635934463
1.118015556570896
1.117336538928586
1.11801663592382
1.118016635658542
1.118004623987946
1.112677590474292
1.117975381574113
1.117680203221769
1.115386062125546
1.097940549725928
1.117680203222286
1.116229951759978
1.106040191411862
1.058447124793201
1.115386062126967
1.106040191414881
1.064959638107098
0.9655228581129303
1.097940549726459
1.058447124796086
0.9655228581178583
0.8414990177560426
0.7994575133952768
0.8451530462481504
0.9312465567006362
1.008431770799284
0.8578922578183541
0.8703205434566651
0.9091981601211951
0.964274067146346
0.8954949723446878
0.9067197582658627
0.9391380005826248
0.9756377658225664
0.9268206511959964
0.9346098687873489
0.9580865417321431
0.9804647833895552
0.9950360614233704
1.001884772476848
1.007268336917422
1.019110977527088
0.9855326787016491
1.001687487820287
1.007843926117987
1.042057871542783
0.9665312299530984
0.9962033627291133
1.006152314366701
1.104496433467696
0.9328246961735296
0.9411553220633515
0.9536999470860956
1.186932139483618
1.197389962471618
1.210610442637046
1.175617277116855
1.162593182755164
1.282812277506716
1.282232638296811
1.224017186152264
1.193343404111963
1.425358238733269
1.327733511426484
1.248478015916419
1.210326867890907
1.156606802783943
1.052764092299392
1.026890930183726
1.037392726108264
1.153945330224736
1.146090989702916
1.141519517701246
1.136279421071259
1.174676612852318
1.160825703174103
1.151540227564837
1.143750253228517
1.187205393699874
1.170736151733968
1.159002537041099
1.149299230020676
1.060127041540742
1.084179962206421
1.102715524567156
1.111307805679558
1.12911427402089
1.121010639060312
1.094289040149063
0.8398148899095508
1.133869027258483
1.122319759889328
1.066838577532068
0.6885375182449248
1.137709780526363
1.123438161774014
1.016056991719523
0.5509112335973773
1.115436433423451
1.12052008934118
0.9041076277792269
0.3075014278526282
0.6223063231485607
0.681092796576379
0.7137045057349581
0.7452471726124557
0.5672909752324312
0.6592306652101483
0.7105910657625303
0.7441451094803997
0.4612519636569332
0.5953777312512796
0.6820711375819163
0.7333856662804312
0.2449137051650852
0.3894895568359469
0.5275228564906809
0.6254901918255042
0.7636936154767264
0.7718177878193266
0.7807025805293147
0.7897079510640721
0.7606189421652078
0.7689780946194011
0.7791965365157397
0.7891951344703424
0.7573454071257967
0.7675411035092989
0.7785991297701851
0.7888013134342606
0.6952292027496011
0.7273191017910208
0.7433989333310662
0.7508889248798419
0.8032099520015858
0.8399599434365174
0.9141754927913698
1.021620459779147
0.8029606888139893
0.8385013678794874
0.9157693340545431
1.057583809462372
0.8020736688623928
0.8308121254191655
0.9358378503185423
1.345216560943575
0.7744746496022341
0.8074486626373043
0.9566711503318676
1.867048103701439
1.215615990833307
1.355271491861901
0.4884631082573836
0.2276539784107742
1.298568330034886
1.145578686674223
0.2592998110102144
0.08750759482494504
1.400097332559876
0.8090982498905901
0.07374018227907002
0.06474382067269115
1.134858647022376
0.351413602585861
0.08444414890290591
0.02263809944159647
0.1325999626965501
0.08359340411786083
0.04314281294684738
0.04941409065254532
0.03800422022978602
0.02314242212301709
0.06115019546201603
0.1128476694012426
0.02833028595341134
0.05233389955720173
0.1072758029119635
0.1728024544195447
0.01440297490827553
0.062165925184265
0.1474959431469529
0.1854714587565145
0.3557236573223946
0.7428903403107536
0.9776274772164659
1.138618891396134
0.1381796651355233
0.5336367910583472
0.8425455552009329
1.070297689686007
0.06262616267414288
0.2529479019940376
0.6113478262213242
0.9948503923407022
0.1141150626395761
0.07357720381408514
0.4665422563997428
1.054818795177375
1.351740556531622
1.709137353984142
1.622936024593108
1.071472888060553
1.281714125570759
1.502817599547345
1.204970145406681
0.751879413615233
1.260761796675099
1.040581650984143
0.6688513959278459
0.3288985522054745
0.9333090786823395
0.4176270430639994
0.2649153724527853
0.2626227938345524
0.2604343748913725
0.2394037536105984
0.1992836690005883
0.1498605942554795
0.2176088722746505
0.2204984899532832
0.225305397996956
0.1965679773289258
0.2317461279255405
0.08432346112216031
0.1644898789054037
0.1719185216300759
0.6385778216648418
0.3957774440309326
0.2576358586449985
0.2210724858285466
0.1498605942553026
0.1965679773288055
0.1719185216301429
0.2210724858278073
0.1992836690002437
0.2253053979966155
0.1644898789053921
0.2576358586449605
0.2394037536101296
0.2204984899529299
0.08432346112204496
0.3957774440309343
0.2604343748910236
0.2176088722745843
0.2317461279255525
0.6385778216647516
1.071472888059458
1.622936024591748
1.709137353984281
1.351740556530963
0.7518794136151991
1.204970145406691
1.502817599547656
1.281714125570495
0.3288985522055098
0.6688513959280901
1.040581650984436
1.260761796675201
0.2626227938343704
0.2649153724525831
0.4176270430640744
0.9333090786829222
1.054818795177363
0.4665422563997303
0.0735772038141944
0.1141150626396847
0.994850392340585
0.6113478262212942
0.2529479019941661
0.0626261626743138
1.070297689685398
0.8425455552006902
0.5336367910581091
0.1381796651346837
1.138618891395056
0.9776274772159945
0.7428903403102375
0.3557236573211137
0.04941409065410028
0.04314281294636169
0.08359340411735111
0.1325999626974412
0.1128476694014583
0.06115019546369607
0.02314242212311253
0.03800422023074488
0.172802454419682
0.1072758029128509
0.05233389955765144
0.02833028595303809
0.1854714587567242
0.1474959431481706
0.06216592518455705
0.01440297490736361
0.2276539784099397
0.4884631082532396
1.355271491855659
1.215615990832587
0.08750759482551829
0.2592998110086203
1.145578686672003
1.298568330035223
0.06474382067238084
0.07374018227977495
0.8090982498883584
1.400097332559559
0.02263809944056788
0.08444414890304439
0.3514136025836391
1.1348586470232
1.021620459779376
0.9141754927917713
0.8399599434366266
0.8032099520019557
1.057583809462356
0.915769334054705
0.8385013678795351
0.8029606888142728
1.345216560943215
0.9358378503185655
0.8308121254191874
0.8020736688625296
1.86704810370057
0.9566711503317865
0.8074486626372959
0.7744746496021042
0.7897079510644024
0.780702580529225
0.7718177878196547
0.7636936154768796
0.7891951344704682
0.7791965365156668
0.7689780946196739
0.7606189421656401
0.7888013134343069
0.778599129770193
0.7675411035094829
0.757345407125503
0.750888924880203
0.7433989333310493
0.7273191017913188
0.6952292027482732
0.7452471726134671
0.7137045057344193
0.6810927965786113
0.6223063231475143
0.7441451094810003
0.7105910657621317
0.6592306652114582
0.5672909752325077
0.7333856662803026
0.6820711375818928
0.5953777312516592
0.4612519636574955
0.6254901918238434
0.5275228564927117
0.3894895568352273
0.2449137051655464
0.8398148899097955
1.094289040148894
1.121010639059178
1.129114274021402
0.6885375182448709
1.066838577532793
1.122319759888852
1.133869027259573
0.5509112335989159
1.016056991722018
1.123438161773969
1.137709780527909
0.3075014278542396
0.9041076277791514
1.120520089337102
1.115436433422741
1.136279421069438
1.141519517701863
1.146090989704205
1.153945330225063
1.143750253225123
1.15154022756745
1.160825703174034
1.174676612853317
1.149299230015955
1.159002537045558
1.17073615173189
1.187205393701587
1.111307805675865
1.102715524572756
1.084179962201659
1.060127041542231
1.162593182756179
1.175617277117606
1.210610442636481
1.197389962470681
1.193343404112787
1.224017186153548
1.282232638295458
1.28281227750551
1.210326867891655
1.248478015918036
1.327733511424789
1.425358238731793
1.037392726108358
1.02689093018558
1.052764092299401
1.156606802784426
1.019110977527657
1.00726833691897
1.001884772476708
0.995036061423351
1.042057871543262
1.007843926119037
1.00168748781983
0.9855326787012495
1.104496433467619
1.006152314367239
0.9962033627283136
0.9665312299524546
1.186932139482783
0.9536999470862321
0.9411553220629788
0.9328246961753113
0.9804647833908554
0.97563776582271
0.964274067146771
1.008431770798793
0.9580865417330868
0.9391380005829498
0.9091981601219884
0.9312465567009539
0.9346098687889403
0.9067197582666323
0.870320543457509
0.8451530462498626
0.9268206511984213
0.8954949723460778
0.8578922578192376
0.79945751339718
1.076513483617832
1.115647915922034
1.117992759198801
1.118016534550394
1.077308713720826
1.115806013964828
1.117986134579407
1.118016454470204
1.055000858869335
1.115069462625701
1.117972136139498
1.118016334112501
1.033597594653272
1.113888741905887
1.117944996010036
1.118016096420499
1.118015681092764
1.117897893681986
1.112653554834219
1.034132680170978
1.118015701032932
1.11790205873662
1.11295202363031
1.038905281230855
1.118015729964252
1.117906297544621
1.112992350015638
1.036941320907975
1.118015844692765
1.117920466366455
1.113361629885709
1.036050033870953
1.118016096421656
1.118016334111726
1.118016454469569
1.118016534551999
1.117944996011366
1.117972136139544
1.117986134578864
1.117992759198109
1.11388874190596
1.115069462625737
1.115806013964035
1.11564791592308
1.033597594653611
1.055000858869458
1.077308713720191
1.076513483617469
)
;

boundaryField
{
    back
    {
        type            empty;
    }
    inlet
    {
        type            calculated;
        value           nonuniform List<scalar> 
16
(
1.11801663592382
1.11801663592382
1.11801663592382
1.11801663592382
1.118016635923692
1.118016635924074
1.118016635919072
1.118016634933343
1.118016634933154
1.118016635919073
1.118016635924057
1.118016635923716
1.11801663592382
1.11801663592382
1.11801663592382
1.11801663592382
)
;
    }
    front
    {
        type            empty;
    }
    top
    {
        type            calculated;
        value           uniform 0;
    }
    outlet
    {
        type            calculated;
        value           nonuniform List<scalar> 
16
(
1.118015412126758
1.118015434179968
1.118015465940287
1.118015602062768
1.118016502756157
1.118016401140327
1.118016245337934
1.118015933335221
1.118015412125708
1.118015434180069
1.118015465940218
1.118015602062654
1.118015933336257
1.118016245337155
1.118016401139801
1.118016502757677
)
;
    }
    bottom
    {
        type            calculated;
        value           uniform 0;
    }
    wall
    {
        type            calculated;
        value           uniform 0;
    }
}


// ************************************************************************* //
