/*--------------------------------*- C++ -*----------------------------------*\
  =========                 |
  \\      /  F ield         | OpenFOAM: The Open Source CFD Toolbox
   \\    /   O peration     | Website:  https://openfoam.org
    \\  /    A nd           | Version:  11
     \\/     M anipulation  |
\*---------------------------------------------------------------------------*/
FoamFile
{
    format      ascii;
    class       volScalarField;
    location    "2.05";
    object      p;
}
// * * * * * * * * * * * * * * * * * * * * * * * * * * * * * * * * * * * * * //

dimensions      [0 2 -2 0 0 0 0];

internalField   nonuniform List<scalar> 
4455
(
5377.2654
5385.2097
5405.2209
5437.2886
5481.1461
5538.8897
5614.8973
5720.9822
5824.2123
5360.5001
5370.5867
5392.921
5427.1932
5473.4267
5533.2489
5616.4751
5730.2743
5883.9143
5339.077
5352.3131
5377.4409
5414.0538
5462.0966
5523.696
5611.0424
5731.4401
5910.1011
5313.7155
5331.0584
5359.3114
5397.8636
5447.1853
5510.8562
5601.48
5729.9449
5935.3178
5285.1788
5307.3278
5338.667
5378.9623
5429.5149
5494.781
5588.9319
5726.3898
5966.9909
5255.2129
5281.4223
5315.6467
5357.6603
5409.5055
5476.5268
5573.7625
5719.7249
5998.7935
5224.2171
5253.9145
5290.9962
5334.4647
5387.0556
5456.0083
5555.6367
5708.8715
6030.078
5193.0847
5225.6833
5265.153
5309.6333
5362.702
5433.867
5535.2285
5692.7636
6056.3622
5162.4281
5197.5189
5238.3859
5283.569
5337.2398
5410.6022
5513.0928
5672.1212
6077.6496
5132.7762
5104.7561
5079.3721
5056.8818
5037.0806
5020.4587
5007.613
4999.3359
4996.8188
5169.5515
5141.9585
5115.4811
5090.7399
5067.9735
5047.2449
5028.4313
5010.939
4993.7676
5210.7098
5182.5943
5154.922
5127.567
5101.0644
5075.8795
5052.6572
5032.5453
5016.3745
5256.119
5227.1583
5197.7991
5168.5166
5139.5148
5110.9881
5082.5007
5052.8158
5020.4407
5309.8433
5279.7417
5248.7857
5217.5986
5187.0076
5157.5009
5129.9168
5105.4649
5083.5816
5384.9049
5355.2997
5323.9669
5290.8926
5255.3682
5217.0788
5175.6002
5131.9033
5084.5924
5489.2491
5461.9169
5432.8884
5404.3217
5378.3331
5354.8727
5332.7374
5313.4006
5292.9576
5645.9098
5606.5258
5556.7983
5496.7793
5429.7533
5352.0793
5267.6626
5188.6175
5117.3181
6098.9923
6061.6685
5975.0947
5884.2729
5792.138
5692.8087
5609.6025
5560.3884
5480.6055
4999.7689
4997.2134
4991.095
4984.1241
4976.1389
4967.5062
4957.0781
4945.5998
4931.7806
4981.3595
4971.9859
4962.6947
4953.0307
4942.1758
4929.3895
4914.0915
4896.3382
4876.1503
5007.7525
4999.2979
4988.2704
4974.7678
4959.1193
4941.8465
4923.3603
4903.9001
4883.2105
4996.1466
4980.2082
4966.4893
4953.3114
4939.376
4923.7815
4905.8364
4885.4475
4862.8197
5068.3545
5053.9705
5037.4622
5019.1133
4998.8764
4976.8209
4953.2858
4929.1947
4904.7626
5046.9278
5024.9782
5008.6393
4993.3449
4977.1415
4959.3365
4938.8025
4915.4215
4890.257
5267.7086
5238.8838
5206.3898
5173.1301
5139.7492
5105.0102
5070.052
5036.7021
5006.1333
5063.1984
5023.9032
4987.091
4949.1857
4911.5668
4875.2881
4838.1754
4801.5906
4768.59
5388.4088
5293.3514
5200.7342
5120.0475
5040.1962
4960.473
4890.0263
4833.3437
4780.7876
4756.3195
4746.9064
4756.72
4797.2271
4871.5007
4955.4949
5042.8875
5137.0183
5232.5242
4743.7124
4724.1869
4706.9708
4693.4761
4687.9886
4694.3101
4711.9808
4740.6268
4777.9997
4978.3841
4953.3252
4932.087
4914.5932
4900.2036
4887.5256
4876.274
4868.7947
4866.3596
4864.9574
4840.2005
4814.6525
4788.5844
4762.7662
4737.9118
4713.9863
4690.8742
4668.4477
4880.2249
4855.3171
4829.1292
4802.1678
4774.8092
4746.8988
4718.2471
4688.9942
4659.4893
4838.7089
4813.5337
4786.9796
4759.0108
4729.3547
4698.0445
4665.0957
4630.6441
4594.3912
4861.1994
4837.546
4812.2197
4785.1048
4755.9444
4724.6361
4692.0314
4657.1735
4620.169
4853.9669
4829.9516
4803.9416
4775.8444
4746.1436
4714.0108
4679.2027
4641.859
4602.2422
4913.8293
4892.6772
4870.312
4846.635
4821.4593
4794.356
4765.0089
4732.5443
4696.8192
4657.8053
4615.5223
4569.3292
4519.2838
4465.0438
4406.5887
4343.042
4274.3619
4199.7223
4559.5203
4514.0093
4465.096
4412.7568
4356.669
4297.0215
4232.8587
4164.3951
4090.7158
4581.2219
4539.2457
4494.4756
4447.1559
4396.7829
4343.0761
4286.0703
4224.6327
4159.0526
4556.4338
4516.5805
4475.0806
4431.5918
4386.0617
4337.7229
4286.7535
4232.4053
4174.7639
4629.8239
4599.7289
4569.1603
4537.7261
4505.4963
4472.0706
4437.6481
4401.2854
4362.7801
4647.5555
4628.3616
4610.386
4592.9336
4576.5087
4560.7114
4545.7496
4530.3594
4514.3268
4868.004
4872.9483
4881.3632
4892.9794
4907.772
4924.3656
4942.1557
4959.7631
4977.5288
4821.9212
4870.4161
4923.9651
4983.1353
5047.6175
5116.9192
5189.198
5264.3072
5340.2846
5334.961
5445.5693
5561.3144
5682.1025
5806.8777
5934.2912
6065.3492
6200.0953
6334.794
6469.114
5413.7884
4995.2731
4496.296
4321.2867
4112.7146
4089.0738
4011.9204
4119.0325
6602.9665
5484.8452
5012.2612
4475.7424
4276.7032
4046.2774
4013.6861
3926.7097
4031.0757
6730.7224
5550.8834
5025.9386
4450.8997
4227.94
3974.0449
3932.1072
3835.5847
3935.8213
6854.7062
5611.9889
5035.2571
4421.0114
4174.7182
3896.2623
3844.5549
3736.8962
3832.0716
6971.2676
5666.6407
5038.7475
4384.1005
4115.6487
3811.3674
3750.1966
3630.8951
3719.7256
7079.3275
5712.3076
5037.0503
4339.2835
4050.4103
3719.3086
3647.7059
3516.2057
3597.4173
7178.8181
5746.8668
5027.533
4285.3687
3977.3271
3618.4833
3536.6616
3392.9736
3465.5029
7267.3774
5768.9982
5005.4175
4221.2898
3895.426
3508.9851
3416.502
3259.7877
3323.2802
7326.6864
5775.5398
4967.9038
4145.8119
3802.6391
3389.3838
3285.4808
3117.0286
3171.1662
3009.9439
2963.4796
3140.6931
3258.0956
3692.7008
4054.6485
4907.3266
5753.4146
7333.8264
2843.2103
2798.6066
2979.336
3112.7178
3556.5852
3938.3795
4801.0349
5657.253
7138.4447
2656.1203
2619.9718
2802.0365
2951.9057
3397.4047
3794.7917
4652.2444
5500.0901
6875.0366
2442.3086
2426.202
2608.7062
2774.6924
3217.8404
3626.8967
4470.8795
5312.8252
6621.8224
2201.071
2215.2912
2399.5687
2580.6694
3021.3767
3441.6804
4271.8507
5112.5885
6373.5694
1942.2802
1988.2349
2174.4795
2370.8238
2809.1908
3241.2927
4058.693
4899.5041
6120.5298
1665.8644
1743.6367
1933.2854
2144.7195
2582.1953
3025.737
3832.2315
4669.1034
5856.3881
1374.1824
1482.9704
1675.2736
1902.8854
2340.125
2794.2706
3592.0363
4423.5178
5585.9274
1061.2791
1205.1081
1400.2846
1644.437
2082.7863
2545.5313
3337.0962
4163.3556
5312.661
5036.7806
3888.9025
3067.8464
2279.6259
1809.3786
1369.7381
1107.9247
911.05465
728.9077
4760.713
3601.3921
2783.2018
1995.9905
1519.2961
1077.7963
797.58355
600.28822
373.91881
4485.9036
3299.9703
2484.0283
1695.2284
1212.2699
769.16361
469.54824
273.86832
0.18758218
4203.786
2984.2569
2169.4479
1377.3493
888.25524
442.90863
122.78654
-68.756202
-394.36975
3912.5836
2653.8489
1840.3222
1042.8503
547.61337
101.61665
-240.72024
-426.0038
-805.92027
3616.936
2308.2821
1495.5944
692.10065
190.73188
-255.71032
-621.84421
-799.53551
-1236.6201
3303.7909
1947.4739
1135.6324
325.801
-181.69817
-626.94123
-1016.6653
-1187.0171
-1681.7709
2976.6066
1572.118
761.45769
-55.75711
-569.25043
-1013.2092
-1425.7114
-1588.9081
-2141.86
2637.8397
1181.1077
372.64303
-452.01792
-970.73317
-1412.4919
-1843.6636
-2002.7072
-2607.077
-3066.2392
-2432.1164
-2275.3271
-1832.2442
-1396.3618
-878.11053
-50.542155
745.68356
2241.7287
-3511.4624
-2876.9481
-2715.1641
-2275.3001
-1847.7392
-1337.3415
-516.48539
244.70156
1757.5686
-3973.7191
-3332.527
-3159.313
-2731.1833
-2312.1369
-1811.319
-999.10768
-275.01101
1228.5554
-4451.9816
-3795.4843
-3604.1601
-3192.8628
-2783.8412
-2296.5808
-1492.9749
-802.25828
655.32381
-4935.3733
-4261.9368
-4050.7822
-3656.4945
-3260.5778
-2790.2555
-1991.9058
-1324.7549
33.896608
-5400.1829
-4725.3857
-4495.2336
-4116.5147
-3736.3676
-3288.2531
-2492.7078
-1835.3649
-646.29549
-5846.9605
-5183.3743
-4936.1279
-4570.3408
-4208.397
-3787.9135
-2991.7564
-2312.3144
-1412.2357
-6264.9368
-5629.8526
-5366.6345
-5012.5257
-4670.3625
-4286.2913
-3487.0778
-2735.8294
-2267.0901
-6718.9165
-6058.0159
-5784.606
-5438.1778
-5113.1046
-4775.6285
-3977.902
-3069.201
-3145.17
-7158.8917
-6463.578
-6192.6309
-5848.498
-5549.6105
-5269.6366
-4518.0492
-3284.2289
-3851.2419
-7537.9416
-6839.5018
-6588.7614
-6246.1322
-5972.1145
-5737.9809
-5051.4082
-3366.7957
-4166.9129
-7852.1119
-7193.1339
-6966.177
-6626.1137
-6371.5315
-6151.1279
-5520.6152
-3471.1702
-3896.8374
-8120.0204
-7527.5607
-7325.3799
-6998.5671
-6763.9505
-6553.4617
-5917.2897
-3700.9974
-2774.1593
-8355.7406
-7845.2341
-7669.1981
-7370.6276
-7160.6664
-6977.8564
-6304.1038
-4174.0457
-2797.7902
-8561.9349
-8143.7395
-7996.5727
-7748.4204
-7564.3901
-7440.2511
-6729.9115
-4551.6225
-3317.9588
-8733.2055
-8424.1128
-8305.8672
-8135.8457
-7975.9613
-7934.6765
-7136.3627
-4650.3218
-3318.2968
-8865.2982
-8686.7881
-8592.5455
-8535.4529
-8392.5295
-8445.1307
-7454.2896
-4965.2916
-3627.7852
-8953.8899
-8933.8196
-8853.0986
-8945.7358
-8810.965
-8979.5505
-7699.1246
-5386.8554
-3775.2178
-3846.9389
-5613.4379
-7826.0928
-9453.8629
-9197.5627
-9336.4627
-9074.8746
-9159.8
-8998.6589
-3885.4653
-5714.1107
-8020.1567
-9905.0105
-9548.7518
-9695.6983
-9262.5834
-9362.065
-9009.127
-3932.6686
-5789.9932
-8285.3626
-10365.004
-9895.3212
-10037.228
-9424.2478
-9539.812
-8983.0485
-4003.3819
-5930.6297
-8593.5784
-10798.285
-10232.479
-10357.029
-9563.8593
-9687.8588
-8914.7501
-4109.2571
-6135.6286
-8919.5031
-11209.433
-10561.722
-10654.527
-9681.8392
-9802.2052
-8807.5234
-4230.9354
-6361.163
-9260.0432
-11590.587
-10884.931
-10930.352
-9782.312
-9882.1814
-8662.4731
-4372.2917
-6571.5332
-9621.3699
-11954.523
-11206.026
-11180.89
-9864.0293
-9925.5624
-8484.9808
-4576.924
-6758.4804
-9987.5421
-12289.891
-11523.821
-11400.688
-9928.5419
-9930.5253
-8276.7569
-4717.9211
-6927.1442
-10346.425
-12618.555
-11865.632
-11585.958
-9973.7131
-9889.6795
-8017.5986
-4852.9137
-7341.6437
-10866.745
-13063.507
-12298.897
-11804.266
-10001.136
-9740.3749
-7536.9864
-5162.9508
-8102.8963
-12077.154
-13826.134
-12816.623
-11954.49
-9900.6297
-9341.6749
-6777.64
-5414.7803
-8932.2563
-12939.71
-14443.379
-13209.909
-11949.477
-9656.1153
-8768.0882
-5938.4678
-5572.2639
-9821.9239
-13816.095
-14912.725
-13471.858
-11786.692
-9264.0708
-8027.6138
-5057.5713
-5788.4648
-10728.746
-14595.552
-15244.538
-13595.693
-11478.017
-8742.2424
-7160.0285
-4179.0644
-6200.046
-11571.846
-15277.294
-15448.434
-13599.321
-11033.235
-8103.2347
-6189.6684
-3364.1992
-6754.6131
-12309.549
-15890.604
-15528.869
-13496.579
-10465.375
-7373.4852
-5185.1573
-2637.1113
-7352.3034
-12973.218
-16408.406
-15473.497
-13313.616
-9786.7776
-6568.2587
-4169.4207
-2028.1331
-7867.7611
-13783.985
-16799.622
-15116.351
-13043.602
-9021.2193
-5741.7259
-3224.5996
-1548.265
-6866.2473
-10224.268
-14849.091
-16854.624
-17888.186
-11446.954
-6658.3487
-2934.6491
2385.3964
-6983.0449
-10649.853
-15290.894
-16750.377
-17862.663
-12041.454
-6605.3578
-2659.8091
2398.0047
-7097.1457
-11070.823
-15645.9
-16703.296
-17831.578
-12433.775
-6599.6714
-2863.8517
2355.5257
-7190.4136
-11480.884
-15974.881
-16738.583
-17831.257
-12677.393
-6802.3071
-3093.3433
2225.7127
-7273.4313
-11873.166
-16268.237
-16892.867
-17844.619
-12810.478
-6888.9774
-3277.6284
1910.2296
-7353.0623
-12231.036
-16464.833
-17022.515
-17861.499
-12844.873
-6884.9234
-3505.3938
1630.366
-7417.3666
-12556.27
-16621.125
-17148.074
-17874.487
-12990.262
-6827.3332
-3623.9276
1338.2871
-7463.6305
-12842.913
-16751.66
-17233.011
-17805.426
-12946.325
-6738.4262
-3622.4789
1000.0307
-7484.8379
-13068.545
-16868.833
-17202.946
-17605.669
-12742.274
-6602.86
-3478.106
600.76884
-5743.8961
-5613.7738
-9992.9781
-16798.666
-18644.473
-9962.5537
-6791.276
-4128.9014
-1949.668
-5665.028
-5075.4116
-8691.4224
-15414.367
-18454.622
-11175.115
-7662.2236
-5156.356
-2536.3749
-5610.5703
-4776.8334
-7597.5218
-13875.333
-17755.957
-12108.546
-8535.1177
-6250.0032
-3266.1781
-5523.6634
-4571.8133
-6607.5889
-12311.687
-16800.582
-12723.159
-9301.577
-7314.0129
-4110.0508
-5462.559
-4421.7336
-5714.5669
-10732.833
-15591.146
-12997.677
-9908.9792
-8300.492
-5035.4829
-5460.8189
-4316.8699
-4962.1784
-9221.8906
-14215.456
-12937.837
-10285.643
-9114.3214
-5991.0557
-5523.5932
-4322.7244
-4355.4644
-7799.0903
-12676.862
-12548.383
-10428.888
-9707.1883
-6913.5208
-5627.6342
-4321.5835
-3931.3703
-6542.4497
-11119.676
-11896.641
-10338.825
-10043.114
-7708.7516
-5698.9847
-4478.5779
-3674.1541
-5571.2229
-9591.4076
-11041.369
-10054.835
-10123.737
-8333.8169
-8515.837
-7977.595
-7570.2252
-6926.1792
-5592.8387
-3799.5101
-3847.2388
-4245.6411
-6358.4933
-8686.7048
-8299.3001
-7880.8094
-7328.9662
-5890.8737
-3888.5903
-3808.6888
-4340.7347
-6328.8612
-8811.9726
-8612.3932
-8179.5045
-7753.7367
-6227.3692
-4003.2179
-3747.7192
-4423.7293
-6269.9448
-8892.6324
-8913.5492
-8465.5657
-8188.0518
-6590.9762
-4136.5465
-3679.4974
-4450.8002
-6222.3901
-8925.4653
-9197.8059
-8739.3652
-8628.6285
-6978.3486
-4280.358
-3616.9943
-4445.7478
-6111.7115
-8914.1116
-9457.2709
-9002.8991
-9065.972
-7382.4665
-4440.5433
-3565.5471
-4448.6533
-5991.2219
-8858.9067
-9680.9474
-9254.2174
-9503.0475
-7810.3504
-4619.0532
-3518.0546
-4489.2479
-5876.2252
-8768.2238
-9862.9549
-9494.0694
-9932.9216
-8252.6108
-4824.7611
-3536.6233
-4473.4851
-5819.8253
-8632.94
-9993.5517
-9719.0764
-10362.064
-8734.2534
-5083.4501
-3599.945
-4562.9085
-5744.365
-6405.714
-4046.1721
-3844.9308
-3722.9219
-5305.8545
-6519.2346
-7235.9533
-7640.6192
-8301.0907
-6341.3853
-3912.2465
-3760.9487
-3613.8961
-5018.2649
-6119.4495
-6879.982
-7291.6346
-8046.8913
-6313.2192
-3906.4934
-3646.5158
-3511.8181
-4737.2058
-5738.0097
-6520.5282
-6938.3564
-7759.9602
-5851.7485
-3542.2497
-3511.6947
-3417.1059
-4459.4066
-5378.4285
-6162.0699
-6578.2068
-7447.3307
-5285.485
-3021.3866
-3363.8516
-3330.6677
-4193.9713
-5034.7394
-5806.997
-6217.4318
-7116.1211
-6322.3772
-2605.5226
-3213.8925
-3240.7158
-3947.5031
-4711.5362
-5455.575
-5851.6104
-6774.3348
-7187.2226
-2246.4856
-3016.7572
-3130.7931
-3719.2209
-4396.1545
-5098.6973
-5487.3711
-6421.4317
-6583.9668
-1992.5968
-2745.5352
-2987.3791
-3488.2551
-4084.2528
-4733.0811
-5116.6463
-6036.7713
-5795.9006
-1969.9802
-2471.7691
-2804.7111
-3236.1037
-3758.8665
-4356.8804
-4738.1182
-5596.6557
-1879.9813
-1326.237
-1228.3017
-857.37911
-659.24007
-409.19759
-154.82114
204.51811
1548.9521
-2244.0931
-1672.5532
-1555.9577
-1170.3721
-965.04527
-728.45012
-518.87448
-304.38409
984.46814
-2622.8066
-2028.7727
-1889.1285
-1487.1735
-1267.0684
-1037.4907
-865.20722
-814.0069
356.32113
-3028.0997
-2394.3771
-2224.0824
-1804.0224
-1564.3529
-1333.498
-1183.8923
-1293.6982
-345.84233
-3434.0488
-2767.0235
-2566.8525
-2124.6377
-1856.4933
-1613.5521
-1465.6401
-1719.7575
-1141.6374
-3845.5891
-3149.7313
-2912.1302
-2445.6341
-2142.4407
-1877.6374
-1701.6636
-2051.1897
-2079.47
-4248.0657
-3540.5863
-3264.8221
-2771.3111
-2422.5161
-2126.7793
-1901.1434
-2259.4807
-3141.2547
-4651.9981
-3939.8027
-3620.6147
-3098.1553
-2696.4481
-2363.6041
-2076.0584
-2316.9936
-4247.0068
-5108.7457
-4340.067
-3984.2977
-3426.2217
-2963.9816
-2587.4532
-2250.8641
-2171.8069
-5136.559
2002.8562
664.69773
203.39991
-94.546046
-360.04499
-552.70063
-906.16097
-994.59347
-1517.0751
2393.5669
1081.9029
546.84182
212.70893
-66.776244
-258.16716
-592.81451
-673.20232
-1144.3443
2757.5115
1484.751
890.58562
521.00339
225.612
33.83427
-281.26261
-360.96228
-781.01103
3105.0023
1871.6011
1229.1029
828.0736
518.64523
321.1728
24.21667
-56.529032
-424.5925
3431.3731
2242.3351
1561.6925
1131.2675
808.14395
601.48199
325.14398
238.33386
-82.359676
3744.8886
2595.7321
1884.0159
1428.5765
1092.8351
874.31419
616.36523
524.93012
251.13884
4042.9094
2933.4381
2197.2183
1717.7316
1369.7189
1140.4095
900.49166
801.93499
569.83744
4333.771
3255.2106
2497.1285
1997.602
1639.7213
1398.0808
1174.2231
1069.8256
878.95537
4613.4977
3561.526
2785.6479
2265.8503
1899.0727
1646.0879
1437.8286
1327.5444
1172.5079
3188.0173
3146.6322
3273.0988
3393.5432
3697.8306
4073.9604
4704.0653
5580.1167
6833.2596
3034.7857
2990.9243
3119.4817
3247.0769
3558.7205
3943.4305
4579.3302
5459.6792
6650.4163
2864.9745
2825.1019
2952.7751
3088.9988
3400.5351
3788.3696
4414.3076
5279.8542
6400.8236
2665.2243
2647.1511
2772.9081
2918.4835
3224.0947
3611.5177
4225.1498
5074.1651
6156.1976
2447.3286
2457.2954
2579.5833
2733.8682
3033.4754
3418.496
4017.8626
4855.0244
5915.4555
2214.5217
2254.0773
2375.3583
2539.1439
2829.5123
3212.2859
3798.5885
4625.6654
5668.3652
1974.7108
2039.3455
2158.3306
2332.3468
2614.0301
2994.244
3565.6249
4383.0937
5415.794
1720.4968
1812.7898
1929.4814
2113.5785
2386.8268
2764.2052
3319.8673
4125.6699
5154.9541
1455.0303
1575.3906
1688.9049
1883.7474
2148.6426
2521.5954
3059.2099
3851.4784
4887.7544
3338.2824
3484.6523
3622.8239
3752.7762
3873.9048
3987.0019
4091.873
4189.1737
4279.1389
3292.4556
3430.2206
3559.6486
3681.4168
3794.8002
3901.2321
4000.9137
4094.6548
4181.627
3414.0887
3543.426
3664.5018
3776.2614
3881.3311
3979.2223
4070.9488
4155.7574
4235.7152
3527.6627
3648.4431
3761.8557
3866.0923
3963.1959
4052.8446
4136.3876
4213.8426
4286.6398
3816.6648
3921.718
4016.5204
4103.2317
4182.2065
4254.9424
4321.6525
4383.5344
4440.8199
4180.696
4271.6189
4350.7588
4420.2817
4481.5235
4535.7366
4583.8312
4627.1779
4666.1329
4788.9656
4851.0627
4898.8022
4935.5353
4963.5133
4984.5849
5000.2632
5012.0291
5020.531
5631.8499
5652.9638
5654.2854
5642.2347
5620.3295
5591.3184
5557.0985
5519.5047
5479.9755
6853.5581
6832.376
6776.1102
6702.2325
6614.2326
6521.1335
6424.1531
6327.1021
6230.595
4362.7823
4262.9663
4310.7646
4354.6822
4494.4501
4701.9617
5026.9473
5439.9921
6135.9425
4440.0654
4339.4166
4381.1362
4418.681
4544.5805
4735.0656
5031.7677
5400.5428
6043.0663
4511.4907
4411.573
4445.9775
4478.6814
4592.0021
4766.5399
5036.2182
5362.5761
5952.9264
4577.5946
4478.1759
4507.3845
4535.6347
4636.9116
4796.605
5040.5877
5326.7786
5865.263
4638.8381
4540.3867
4565.6045
4589.4123
4679.953
4826.0057
5045.7729
5293.7682
5780.614
4695.1814
4599.114
4619.5502
4640.2592
4721.2618
4854.8462
5051.9331
5264.1706
5697.9381
4747.1134
4654.0365
4670.0968
4688.4206
4761.2322
4883.5761
5059.8288
5238.6203
5617.7036
4794.9295
4704.8072
4717.3839
4733.9193
4799.7959
4912.1776
5069.6354
5217.6186
5540.1224
4838.7685
4752.3415
4761.5991
4776.924
4837.013
4940.8267
5081.8867
5201.751
5465.3482
5095.0274
5048.9763
5043.1255
5061.9963
5103.6756
5187.3313
5288.0867
5335.0087
5195.8601
5075.2776
5025.7658
5020.5297
5038.3433
5079.9379
5161.5954
5259.5198
5294.9074
5150.5159
5053.9556
5000.3329
4995.9785
5012.8631
5054.7773
5135.2699
5231.6215
5260.3169
5122.4419
5030.8987
4972.6083
4969.4603
4985.5372
5028.2552
5108.5519
5204.8095
5232.0552
5121.8054
5006.0368
4942.6344
4940.8747
4956.2557
5000.2849
5081.4265
5179.3175
5210.5618
5149.4428
4978.6915
4910.1758
4910.0932
4924.909
4970.8033
5053.9152
5155.4442
5195.8346
5198.5935
4948.6262
4875.1542
4876.9266
4891.365
4939.711
5026.0177
5133.4849
5187.908
5258.0477
4915.4195
4837.253
4841.2333
4855.5747
4907.034
4997.8306
5113.8185
5186.7334
5323.3702
4878.942
4796.4213
4802.8241
4817.4342
4872.7606
4969.3862
5096.57
5191.3158
5392.8423
5245.6755
5381.837
5318.2792
5213.2494
5126.483
5084.1957
5064.0125
5070.0241
5111.5239
5315.6813
5435.5364
5348.788
5237.9459
5147.6231
5104.5992
5083.1205
5089.0985
5124.5265
5394.7557
5490.6232
5377.2956
5260.1306
5166.3223
5122.8037
5100.3082
5106.1214
5135.2937
5478.4943
5544.9718
5402.3807
5279.1869
5182.3605
5138.8573
5115.6314
5121.3194
5144.7668
5565.8981
5596.7919
5423.0861
5294.8346
5195.6784
5152.8837
5129.211
5134.695
5152.3504
5654.38
5644.6348
5439.1774
5307.259
5206.6054
5165.1891
5141.2952
5146.3284
5158.8379
5743.3784
5688.4627
5451.2951
5317.1768
5215.9258
5176.3327
5152.2655
5156.1294
5163.7935
5832.3241
5730.5383
5462.0164
5326.8832
5225.5374
5187.1807
5162.6542
5164.157
5167.55
5921.5594
5773.6817
5477.5495
5339.9568
5238.3915
5198.8545
5173.1299
5170.4514
5169.5596
6022.1492
5823.1192
5509.4437
5364.5004
5261.6973
5216.1343
5187.5353
5177.0427
5171.1817
6135.5342
5874.0234
5549.587
5394.7625
5290.573
5238.9725
5207.2576
5188.3597
5176.7852
6245.285
5920.592
5588.6086
5425.7625
5319.3139
5262.651
5227.558
5202.0101
5185.3634
6346.6161
5961.7911
5623.9107
5456.1939
5347.4269
5287.1148
5248.5672
5217.8307
5196.7916
6438.8119
5995.1405
5653.2352
5484.6618
5374.377
5311.656
5270.0247
5235.5043
5210.8468
6514.2367
6017.9968
5675.6046
5510.3288
5399.9872
5335.7384
5291.64
5254.7285
5227.1813
6544.7466
6026.4349
5690.4111
5532.3363
5423.7363
5358.8662
5313.1475
5275.0622
5245.3068
6490.9957
6019.8576
5700.2826
5550.9244
5445.6469
5380.7208
5334.218
5295.7249
5265.4348
6366.1322
5997.6847
5707.0643
5566.1031
5465.2804
5400.9201
5354.2895
5316.0344
5286.9324
5388.5409
5396.0275
5414.7904
5445.9786
5489.2058
5547.7479
5622.1597
5727.7074
5837.9832
5394.0169
5401.9526
5421.8278
5454.8141
5501.766
5564.026
5647.9975
5763.6951
5916.2686
5393.6549
5403.4923
5425.6363
5460.3688
5509.6525
5575.9267
5664.8085
5792.1709
5942.4142
5388.2408
5401.1342
5425.5064
5462.4318
5513.2396
5584.2633
5679.0035
5819.9738
5985.5856
5378.4875
5394.3444
5421.063
5460.5444
5513.4861
5589.2346
5692.3582
5849.0514
6037.3644
5365.0568
5383.6384
5412.9675
5454.8185
5510.8746
5591.3738
5702.6773
5879.4408
6086.662
5348.3271
5369.8073
5401.9661
5445.6024
5504.6684
5589.8985
5708.9169
5909.5061
6138.1834
5329.1282
5353.5763
5388.298
5433.3056
5494.6771
5584.9562
5711.3142
5938.7487
6196.8243
5308.3993
5335.4492
5372.3254
5418.4032
5481.526
5576.9777
5710.2704
5966.3247
6263.9832
6105.7786
6169.3136
6230.9628
6309.4655
6403.331
6513.9515
6653.5578
6830.2486
7049.5764
6157.4567
6215.7079
6281.6176
6365.8252
6463.6191
6578.3394
6721.6816
6900.3853
7120.8261
6209.1702
6266.7262
6336.3685
6423.778
6526.1091
6646.0335
6793.5169
6976.6656
7204.3553
6267.0108
6327.6698
6399.6026
6488.0319
6591.6556
6714.1996
6865.7163
7055.648
7295.0443
6332.0855
6393.7392
6466.0355
6554.5003
6659.1722
6783.5183
6936.5636
7132.2695
7382.7106
6396.0251
6457.2086
6528.1778
6614.6646
6716.8201
6840.9545
6998.1221
7197.6599
7447.7196
6451.2655
6509.242
6576.9261
6659.7748
6760.5874
6880.7977
7036.142
7242.4867
7474.5129
6482.3703
6534.2683
6597.1001
6673.185
6766.0898
6880.4612
7014.5811
7253.5379
7426.0323
6475.7313
6523.676
6580.9817
6650.8823
6710.6861
6839.7185
6882.1113
7221.1968
7313.0559
5480.5997
6505.4021
6240.9235
6639.2682
6438.0538
6564.1272
6462.9683
6455.6208
6397.3927
5796.2345
5906.8173
5887.8835
6061.4131
6036.269
6163.167
6119.1174
6185.8899
6137.0176
5879.8979
5899.5246
5871.1974
5911.0418
5902.127
5950.4868
5948.5259
5990.0884
5983.5574
5817.4081
5863.0666
5831.5164
5868.5465
5847.4565
5867.2849
5868.0628
5887.3187
5890.2807
5684.3549
5727.4038
5698.2875
5739.585
5717.8675
5728.0872
5724.7096
5729.0162
5714.4664
5542.4898
5565.6745
5542.8261
5574.558
5554.0405
5567.0622
5557.0421
5559.0636
5538.2333
5379.1927
5397.1575
5383.6918
5406.312
5390.4783
5417.7038
5411.9133
5449.1567
5429.1178
5184.7856
5197.8067
5168.0071
5192.0235
5149.1662
5177.0465
5122.8313
5149.7839
5083.5392
5038.5416
5036.4407
5012.5974
5029.6661
4992.5618
5014.9892
4975.7205
5001.0625
4957.6865
4823.2116
4686.2177
4557.6366
4436.6855
4325.1593
4188.8149
3984.948
3730.1309
3568.2419
4865.963
4731.1377
4601.2819
4465.1573
4323.5395
4170.7184
3965.7159
3690.7787
3492.1363
4833.3568
4699.5565
4569.8768
4438.5124
4302.1007
4136.7853
3922.0356
3625.4352
3394.1351
4878.9911
4741.0201
4604.9926
4458.8797
4302.9074
4114.8491
3885.1396
3565.0178
3280.8069
4851.2357
4717.2458
4585.4325
4446.4706
4293.6242
4098.6666
3848.8087
3504.0343
3150.2419
4886.0599
4747.4144
4610.8359
4458.5857
4295.9657
4092.9757
3824.3945
3453.9152
3026.9081
4871.4959
4738.6271
4604.2964
4461.2368
4294.9279
4087.4282
3806.7392
3417.2442
2924.6646
4891.1789
4753.2709
4617.3955
4469.8741
4304.1165
4089.0826
3799.6375
3391.1258
2879.0726
4896.9135
4761.0106
4626.0139
4482.1954
4311.8057
4104.889
3813.3259
3411.1372
2824.2078
3569.9526
3749.6364
4062.5225
4291.4764
4424.6089
4575.4695
4751.3712
4923.653
5128.5952
3461.5606
3652.2071
4011.6352
4284.4399
4447.2212
4599.7217
4767.9256
4930.5957
5128.9652
3328.2844
3561.8117
3973.0546
4245.6246
4406.8636
4567.5564
4743.8904
4938.9016
5127.4511
3179.3756
3469.379
3951.267
4255.1149
4433.6418
4592.2246
4760.7373
4946.9245
5129.2678
3006.6025
3381.7629
3895.5005
4203.7053
4382.2651
4552.0879
4765.0637
4946.5793
5120.1913
2745.3139
3339.0905
3922.6307
4226.3093
4416.5851
4594.8271
4781.0064
4962.4369
5128.3785
2365.5483
3172.399
3851.1656
4171.0403
4367.388
4563.3965
4767.7895
4950.5069
5110.565
2021.2453
3228.6897
3910.971
4189.0515
4399.5534
4587.7752
4790.2217
4974.4897
5126.1873
1003.3391
3064.0133
3881.3752
4153.2361
4368.8121
4565.9764
4784.1352
4973.2938
5120.6961
5303.1282
5475.9783
5669.7514
5858.809
6029.9336
6200.0397
6376.6398
6553.7547
6732.0517
5303.7695
5477.2846
5673.5009
5861.5618
6031.2314
6202.6576
6380.2335
6562.3544
6743.7004
5299.7253
5479.2021
5680.3639
5865.3264
6032.8944
6206.3887
6386.3813
6571.4202
6756.9901
5295.6835
5486.9531
5689.8875
5871.3032
6039.0594
6212.9473
6394.3211
6582.1625
6770.3626
5284.8973
5483.2572
5689.1657
5867.7419
6036.3416
6211.5667
6394.4223
6586.4037
6777.8913
5298.9848
5496.0729
5698.9567
5875.6474
6042.8002
6217.8699
6401.3775
6594.6506
6788.2875
5284.4806
5489.5467
5692.101
5870.3116
6038.9133
6214.9155
6400.0445
6595.6247
6791.1095
5289.4701
5492.723
5697.0917
5875.1416
6042.2002
6217.2963
6402.3345
6598.1846
6795.2164
5286.7516
5490.5117
5694.6457
5873.2617
6041.2056
6216.5988
6402.2253
6598.6371
6796.2524
6920.749
7096.2742
7285.4583
7471.2527
7638.1756
7779.0399
7961.6316
8229.6657
8379.5847
6935.7614
7122.2903
7315.0225
7504.0492
7675.8586
7815.0897
7999.5412
8281.6682
8452.9065
6950.2176
7145.07
7343.3996
7536.9421
7712.3677
7848.2425
8035.6716
8336.7711
8532.9746
6966.5844
7166.3244
7370.4897
7568.9706
7747.4829
7877.3047
8067.3386
8386.2856
8598.3722
6975.5084
7182.1459
7396.1758
7600.8795
7782.0604
7902.6527
8093.2487
8429.8596
8652.9214
6986.2289
7199.0841
7422.8866
7633.6216
7816.4041
7927.0328
8114.2608
8466.5167
8695.4929
6991.912
7207.8824
7437.3966
7663.2068
7844.9022
7940.7761
8120.7721
8479.0118
8705.0072
6996.3643
7219.69
7459.0813
7700.1516
7883.7028
7961.8015
8128.663
8484.5236
8726.0285
6998.1954
7224.7566
7461.3225
7716.8272
7910.3853
7978.0058
8136.4386
8486.1264
8715.7074
8834.9789
8350.5861
7981.1488
7656.4943
7297.151
6937.8994
6588.4655
6249.7948
5926.4649
8933.0595
8434.9757
8066.1962
7734.6858
7365.0603
6996.1173
6640.2819
6298.7129
5971.6405
8996.0691
8500.7061
8146.6424
7804.6582
7428.2385
7051.703
6692.2079
6349.0963
6018.7733
9053.7246
8563.5195
8228.2517
7873.1964
7491.261
7104.755
6742.2828
6390.8675
6059.8563
9106.373
8623.0856
8305.1629
7940.7231
7556.9367
7168.2148
6801.5308
6448.482
6112.2229
9155.5603
8684.0307
8375.1032
7993.2641
7606.4186
7208.161
6841.3488
6480.2842
6146.5733
9172.4603
8742.739
8448.8918
8065.7257
7677.69
7278.35
6905.641
6543.339
6205.136
9194.4495
8783.3088
8489.1024
8095.7476
7707.8452
7301.2711
6929.9741
6559.5626
6223.3014
9193.1883
8851.9005
8564.2587
8177.8137
7792.6962
7386.3457
7011.4223
6638.6197
6298.4623
5617.6718
5320.9811
5028.4943
4736.3129
4438.1682
4133.3553
3825.1083
3509.6917
3188.9672
5658.1142
5357.6299
5064.6301
4769.0763
4472.11
4167.4671
3858.3127
3542.8442
3219.3877
5703.9478
5399.5381
5106.9236
4808.3499
4512.6408
4209.9006
3900.7169
3586.8009
3264.4717
5739.6662
5437.4421
5138.9291
4846.1953
4545.3049
4248.4684
3935.3219
3625.903
3299.4479
5790.8299
5483.3616
5184.1446
4889.5544
4588.4382
4290.6172
3978.7964
3669.1172
3344.8442
5816.9435
5514.0144
5206.9248
4918.8849
4612.5255
4320.9003
4004.8739
3699.9466
3371.8432
5876.7119
5569.051
5263.443
4972.1833
4667.3953
4374.4549
4059.6798
3756.5547
3427.4501
5888.1306
5584.1254
5273.0044
4986.096
4677.4936
4387.9229
4071.3604
3769.3496
3441.0211
5960.6476
5653.1864
5340.5381
5052.1537
4744.0444
4454.6059
4139.0465
3840.6321
3508.2466
2815.1226
2384.2515
1937.8616
1485.3054
1017.1732
543.93774
52.590076
-514.8432
-1225.3672
2849.1612
2425.6236
1992.4917
1550.7477
1102.0341
652.13692
191.57245
-338.95139
-1010.447
2898.6681
2485.3486
2062.3599
1629.4513
1190.4881
752.06764
313.79191
-199.91561
-859.96869
2943.7598
2538.2476
2128.8853
1702.389
1274.0823
843.62529
438.30854
-9.4289061
-634.64118
2991.8403
2595.6545
2197.369
1778.0916
1359.4877
932.54667
559.98043
164.34101
-190.15001
3030.0237
2645.5358
2255.6489
1847.4245
1429.9596
1009.6533
634.00743
366.9604
39.545759
3089.6139
2715.0998
2343.8415
1944.7857
1541.0917
1113.1655
737.29405
383.44022
1255.0521
3111.0351
2747.3473
2376.6023
1989.678
1584.3592
1154.508
700.64225
472.02802
461.391
3188.708
2840.3244
2496.9292
2125.9481
1755.1991
1345.4517
946.37865
4.5916263
3334.6633
-2476.431
-3609.8415
-3604.7471
-3699.0036
-3863.2498
-3609.177
-3529.3011
-3581.4556
-3697.6222
-2318.0172
-3619.8987
-3573.8519
-3617.0635
-3647.1674
-3574.2507
-3518.4372
-3560.2001
-3686.5625
-2279.7722
-3708.2448
-3525.2234
-3655.1611
-3708.358
-3571.1222
-3511.8435
-3541.5573
-3685.8407
-2432.9664
-3899.8063
-3458.8013
-3613.3113
-3611.0592
-3552.0142
-3505.8481
-3520.1401
-3680.1663
-2755.9554
-4107.1861
-3375.3783
-3657.0785
-3613.2612
-3535.9401
-3497.5451
-3508.5473
-3662.1936
-2762.0997
-3967.581
-3328.2971
-3663.2344
-3585.9285
-3517.5226
-3491.323
-3495.0426
-3641.1787
-2088.4301
-3346.2142
-3430.1147
-3663.7702
-3565.069
-3504.3358
-3482.8579
-3483.2708
-3626.1974
-2619.7792
-4648.5062
-3404.7151
-3694.6883
-3547.4456
-3494.0224
-3478.7596
-3476.3093
-3609.8506
-9432.647
-2842.5022
-3487.5282
-3682.8191
-3509.5023
-3485.74
-3474.2697
-3473.6291
-3605.2662
-3995.0184
-4288.9926
-4601.5856
-5019.6623
-5535.2773
-6120.9185
-6675.7212
-7920.2929
-7438.7448
-3978.9763
-4258.2694
-4586.069
-5019.1836
-5577.9991
-6208.2948
-6774.0208
-7994.1201
-7285.3164
-3974.9845
-4259.4355
-4596.4714
-5068.6338
-5655.7188
-6344.2574
-6993.9178
-7908.7496
-7285.5727
-3971.1398
-4259.3225
-4617.5122
-5115.5977
-5737.5753
-6461.1337
-7167.7705
-7936.9892
-7049.3371
-3960.4891
-4256.4337