/*--------------------------------*- C++ -*----------------------------------*\
  =========                 |
  \\      /  F ield         | OpenFOAM: The Open Source CFD Toolbox
   \\    /   O peration     | Website:  https://openfoam.org
    \\  /    A nd           | Version:  11
     \\/     M anipulation  |
\*---------------------------------------------------------------------------*/
FoamFile
{
    format      ascii;
    class       volVectorField;
    location    "11.8";
    object      U;
}
// * * * * * * * * * * * * * * * * * * * * * * * * * * * * * * * * * * * * * //

dimensions      [0 1 -1 0 0 0 0];

internalField   nonuniform List<vector> 
5472
(
(10.060316 2.5217794 1.7476956e-18)
(10.250389 2.5327254 -1.8198439e-18)
(10.420791 2.5338813 -1.8451577e-18)
(10.615749 2.5055428 -1.8829915e-18)
(10.787683 2.4976284 5.8478512e-18)
(10.977729 2.4229645 -3.1616165e-20)
(11.129081 2.3772165 -3.0986245e-18)
(11.328024 2.2905743 1.0787148e-18)
(11.469951 2.2070611 0)
(11.604647 2.1059709 0)
(11.772792 2.0033743 0)
(11.872633 1.8771968 -3.4276301e-18)
(12.022414 1.7613216 1.7615999e-18)
(12.119319 1.6100743 -1.9598442e-20)
(12.219274 1.4761967 1.1998196e-18)
(12.31594 1.313924 -6.1592197e-19)
(12.361081 1.169682 -9.2604561e-19)
(12.452218 1.0228982 3.1624038e-19)
(12.47312 0.86596131 0)
(10.086962 2.3165384 -1.5961982e-18)
(10.236448 2.3195627 3.2973726e-18)
(10.430499 2.3436416 -1.7034232e-18)
(10.57522 2.3043501 -1.72173e-18)
(10.748168 2.3029846 2.0917084e-20)
(10.9046 2.2460211 0)
(11.096566 2.2105403 1.8598084e-18)
(11.247712 2.118602 -3.8051813e-18)
(11.363118 2.0756312 4.9134985e-18)
(11.554913 1.9641155 1.0053386e-18)
(11.669993 1.8845746 0)
(11.808881 1.7688221 2.0993228e-18)
(11.943593 1.6579355 0)
(12.034232 1.5266176 5.3546705e-19)
(12.148995 1.3962938 -5.515312e-19)
(12.210478 1.2667706 0)
(12.300533 1.1267808 0)
(12.344991 0.99129575 -2.7937859e-19)
(12.39317 0.84959856 0)
(10.062527 2.1659706 0)
(10.209188 2.1871419 1.4988108e-18)
(10.370734 2.1830696 1.5386112e-18)
(10.523028 2.1910993 0)
(10.671317 2.1957923 -1.674022e-20)
(10.862347 2.1389962 -2.3251558e-20)
(11.00405 2.1254676 -1.7076407e-18)
(11.133192 2.0610478 0)
(11.31183 2.0070731 -1.7655024e-18)
(11.462464 1.9135674 -4.5273365e-18)
(11.592731 1.840683 1.0993843e-20)
(11.744099 1.7261574 -9.2645015e-19)
(11.843667 1.6303809 -9.5475157e-19)
(11.963169 1.5106111 1.9569262e-18)
(12.046204 1.3894609 1.4802562e-18)
(12.133723 1.2656784 5.0001676e-19)
(12.215886 1.1270366 2.5067054e-19)
(12.257749 0.99914914 -3.7895315e-19)
(12.329662 0.8631266 1.2642353e-19)
(10.060569 1.9814476 0)
(10.244858 1.9890662 -1.3528075e-18)
(10.37402 2.0293331 -1.3872367e-18)
(10.493165 2.0364226 2.8342993e-18)
(10.687834 2.0165434 -1.4858578e-18)
(10.799684 2.0030452 0)
(10.932545 1.9857827 -1.5409109e-18)
(11.106124 1.9102495 1.5598492e-18)
(11.239813 1.8848561 -1.6153806e-18)
(11.389779 1.7856888 -1.6474484e-20)
(11.509023 1.7315735 -1.6782536e-18)
(11.627044 1.6186416 0)
(11.736921 1.5425448 0)
(11.845742 1.4240956 -8.7098867e-19)
(11.940908 1.3132063 -8.8131297e-19)
(12.036415 1.1938129 0)
(12.109562 1.0587527 -2.2493959e-19)
(12.17397 0.93647064 1.1377769e-19)
(12.231974 0.80627756 2.270413e-19)
(10.068134 1.8309008 0)
(10.213923 1.8645262 0)
(10.291892 1.8957133 0)
(10.470241 1.902368 -2.5590023e-18)
(10.57456 1.9134907 1.3339752e-18)
(10.694848 1.8974087 -4.0514579e-18)
(10.880366 1.8655506 5.5488328e-18)
(11.009023 1.8448414 -2.8349926e-18)
(11.152532 1.8025857 2.9214475e-21)
(11.289279 1.7290963 1.4690808e-18)
(11.40346 1.6886122 1.4961454e-18)
(11.542862 1.5820417 -3.0585889e-18)
(11.658677 1.513813 2.3336011e-18)
(11.777669 1.3895647 -7.9035625e-19)
(11.873065 1.3066689 0)
(11.962046 1.1750814 8.0641561e-19)
(12.043243 1.0650517 -4.0572439e-19)
(12.10997 0.93562351 2.024384e-19)
(12.166985 0.81817475 -2.0182952e-19)
(10.07008 1.6767819 0)
(10.215729 1.7212431 -4.4101842e-18)
(10.312862 1.7523512 2.2785866e-18)
(10.454515 1.7714027 2.3306343e-18)
(10.540509 1.7587212 1.1879102e-18)
(10.723659 1.7537139 -1.2098412e-18)
(10.830151 1.7560575 2.5137594e-18)
(10.9542 1.7240636 1.2692897e-18)
(11.092006 1.6888356 2.5900782e-18)
(11.208762 1.6366941 -2.6565414e-18)
(11.362314 1.5762093 1.4855269e-20)
(11.47402 1.4915095 2.7472344e-18)
(11.59517 1.4204711 0)
(11.685167 1.3163071 -7.0841125e-19)
(11.793105 1.2295886 7.0991895e-19)
(11.868782 1.1004447 -1.7930128e-18)
(11.963869 1.0031015 7.2133971e-19)
(12.015045 0.86411649 -1.8093312e-19)
(12.082826 0.76860114 3.0731466e-22)
(10.065067 1.5482645 3.8944122e-18)
(10.192151 1.5710309 3.9788081e-18)
(10.267851 1.6236453 0)
(10.402757 1.6270532 -6.001178e-21)
(10.498262 1.6442519 -4.2925525e-18)
(10.640507 1.6545833 4.4124363e-18)
(10.719465 1.6414273 0)
(10.884114 1.6345294 -1.1510094e-18)
(11.003804 1.6026174 -4.6682124e-18)
(11.14954 1.5530246 2.3974353e-18)
(11.271903 1.5100649 1.2059677e-18)
(11.378349 1.4407617 -1.237134e-18)
(11.511635 1.3731792 0)
(11.59812 1.2874414 6.2763303e-19)
(11.725337 1.1923455 0)
(11.790272 1.0932597 -6.3951625e-19)
(11.902769 0.97717505 9.6815679e-19)
(11.941088 0.86340463 7.252643e-22)
(12.031436 0.75492582 -7.4893406e-22)
(10.111315 1.4203194 1.741479e-18)
(10.20972 1.4634912 -3.57537e-18)
(10.290836 1.4910418 -3.6537841e-18)
(10.408877 1.5053591 3.7672322e-18)
(10.479183 1.5403083 -1.9346866e-18)
(10.613433 1.5253902 -1.9669466e-18)
(10.70653 1.5357205 0)
(10.873001 1.5206268 3.073538e-18)
(10.951184 1.493515 -1.1808744e-20)
(11.101539 1.4764707 -3.1956648e-18)
(11.183381 1.4133 3.2700917e-18)
(11.324795 1.3660305 0)
(11.412136 1.2890938 0)
(11.526302 1.2109278 1.1219618e-18)
(11.629857 1.1252859 -5.7454318e-19)
(11.701651 1.0297195 -1.14422e-18)
(11.801335 0.91746571 2.8960854e-19)
(11.841354 0.82017346 2.912194e-19)
(11.924476 0.70333875 7.1478029e-20)
(10.071825 1.2732151 -1.5644843e-18)
(10.15166 1.3104332 4.8004391e-18)
(10.237313 1.371373 -4.948255e-18)
(10.344846 1.3905176 3.3723143e-18)
(10.429299 1.4038096 0)
(10.560251 1.414025 1.7595873e-18)
(10.632616 1.4267542 -1.8131789e-18)
(10.778552 1.4106725 0)
(10.863288 1.4141135 9.3169488e-19)
(11.029615 1.3806176 -1.9239454e-18)
(11.107736 1.347165 -9.6512369e-19)
(11.264026 1.2963067 -7.9952067e-21)
(11.337687 1.2256146 -2.9858894e-18)
(11.478104 1.1656574 5.1221544e-19)
(11.547056 1.0701358 -5.0029937e-19)
(11.660293 0.99503955 1.0211451e-18)
(11.718055 0.88177916 -5.098475e-19)
(11.797186 0.79010733 2.5977788e-19)
(11.843711 0.67706478 2.5572956e-19)
(10.129799 1.1674451 -2.8110154e-18)
(10.203284 1.2002993 0)
(10.293394 1.2444633 1.4717217e-18)
(10.371773 1.2640052 -4.5129705e-18)
(10.445792 1.3139954 1.553296e-18)
(10.54305 1.3095122 -1.5824209e-18)
(10.627664 1.3273256 1.6063718e-18)
(10.757421 1.3163555 -1.652442e-18)
(10.82992 1.3149968 0)
(10.968399 1.2826567 8.481097e-19)
(11.037704 1.2610352 0)
(11.176847 1.2145385 8.7137589e-19)
(11.235422 1.1678731 2.8469433e-23)
(11.371642 1.1024853 -4.4384833e-19)
(11.422544 1.0274062 4.4764773e-19)
(11.55614 0.94862439 4.5088347e-19)
(11.596716 0.83691612 -2.3419108e-21)
(11.707432 0.7606218 -6.8180021e-19)
(11.726348 0.6363651 0)
(10.095131 1.0312161 0)
(10.147552 1.089739 1.2843353e-18)
(10.229212 1.1342327 0)
(10.28776 1.164577 1.3378602e-18)
(10.380731 1.1790333 -4.1366401e-18)
(10.466118 1.2009803 4.2361837e-18)
(10.553822 1.225038 -1.4247758e-18)
(10.662061 1.219387 4.413046e-18)
(10.750052 1.2276666 0)
(10.883825 1.197859 7.5953278e-19)
(10.962607 1.1908578 0)
(11.106966 1.1327597 -1.5480481e-18)
(11.182095 1.093448 3.1433114e-18)
(11.331474 1.0156756 -6.65937e-21)
(11.393759 0.95999192 -4.002473e-19)
(11.527922 0.87291628 0)
(11.564576 0.79655179 0)
(11.673324 0.70806246 0)
(11.686505 0.61186183 -5.0346095e-20)
(10.122992 0.93648319 4.4655818e-18)
(10.187791 0.99166157 -5.741702e-18)
(10.263509 1.0241471 2.3416096e-18)
(10.317418 1.056185 -6.4707883e-21)
(10.399312 1.0894613 0)
(10.460844 1.1050716 -2.5015897e-18)
(10.556273 1.124132 1.2911273e-18)
(10.635732 1.1337845 -1.3011173e-18)
(10.743023 1.136169 0)
(10.829969 1.1229737 -6.7109341e-19)
(10.918137 1.1064313 1.3584905e-18)
(11.029137 1.0681672 -1.1230207e-20)
(11.098521 1.0370625 -1.3991392e-18)
(11.218454 0.9693015 -2.803499e-18)
(11.282113 0.92289345 2.4742642e-18)
(11.404339 0.82773437 -1.4196258e-18)
(11.449862 0.76793224 8.917695e-19)
(11.557838 0.66045819 1.7866104e-19)
(11.581301 0.58674654 4.4188266e-20)
(10.098051 0.82638582 -6.9789252e-18)
(10.152925 0.87011861 4.0930031e-18)
(10.207329 0.90509258 0)
(10.262133 0.95373773 -5.3345711e-18)
(10.339103 0.97599583 4.3815745e-18)
(10.405378 1.0102479 1.1163588e-18)
(10.494397 1.0229802 3.4047225e-18)
(10.575168 1.0296232 -2.3223701e-18)
(10.686556 1.0379277 -2.9321721e-18)
(10.764926 1.0346315 1.797308e-18)
(10.884512 1.0212356 2.4073773e-18)
(10.975135 0.99464163 -3.6698927e-18)
(11.075853 0.95347144 2.4661157e-18)
(11.169711 0.89851319 -6.2773141e-19)
(11.25414 0.84267601 3.0946905e-19)
(11.343223 0.76843225 -3.6578696e-21)
(11.406038 0.70734248 -7.8682678e-19)
(11.495057 0.61488225 -1.566923e-19)
(11.531673 0.55081885 -3.9288817e-20)
(10.124438 0.74425033 2.6649236e-18)
(10.17749 0.78136501 3.6260223e-18)
(10.220082 0.82082022 -3.7228503e-18)
(10.27759 0.85441862 9.498826e-19)
(10.335573 0.88547717 -2.8996967e-18)
(10.396897 0.92226433 2.9790612e-18)
(10.469089 0.94271878 1.0030759e-18)
(10.535112 0.95934324 -5.1272624e-18)
(10.622541 0.9577318 3.6417685e-18)
(10.692204 0.95640813 -1.5922921e-18)
(10.803455 0.94050924 0)
(10.884256 0.93110962 -5.4116514e-19)
(10.994342 0.89828501 -1.6311777e-18)
(11.082806 0.85649678 5.5735369e-19)
(11.186134 0.79669351 1.6567491e-18)
(11.254597 0.73229437 5.516096e-19)
(11.346229 0.65554669 -1.108637e-18)
(11.402567 0.58008314 2.789231e-19)
(11.468333 0.50002233 3.1102015e-19)
(10.07552 0.63402972 -3.9318803e-18)
(10.12638 0.67982229 3.2318192e-18)
(10.17836 0.72344791 0)
(10.239322 0.74755261 -8.4198934e-19)
(10.299134 0.77583247 3.4310417e-18)
(10.369242 0.8081215 -7.0078887e-18)
(10.441631 0.8434661 9.1165665e-19)
(10.526518 0.86674166 3.6416066e-18)
(10.608044 0.87422193 2.7644181e-18)
(10.68257 0.8734243 -4.6697694e-19)
(10.770019 0.85620715 0)
(10.843043 0.84505503 2.3741047e-18)
(10.944597 0.80878535 -9.6729641e-19)
(11.028599 0.77918577 9.6599968e-19)
(11.12021 0.72592414 -1.4596085e-18)
(11.187098 0.67513228 -2.4416941e-19)
(11.276326 0.60389583 0)
(11.318525 0.54112928 0)
(11.397422 0.45357628 -3.0458784e-20)
(10.118083 0.54772433 6.8447456e-19)
(10.158858 0.5966539 -6.4442565e-18)
(10.189847 0.64274836 2.9178878e-18)
(10.228389 0.67532853 -3.7330927e-18)
(10.270153 0.70513457 -7.6016432e-19)
(10.324858 0.72472374 0)
(10.389323 0.75369233 -3.9311117e-18)
(10.463858 0.77927036 2.4103309e-18)
(10.540217 0.80391284 -8.1275061e-19)
(10.627022 0.8074227 -1.2953167e-21)
(10.710324 0.79802575 0)
(10.795007 0.78595117 0)
(10.881089 0.75419851 -4.2164941e-19)
(10.965595 0.72667218 -4.2403486e-19)
(11.048169 0.67808383 2.1292163e-19)
(11.123571 0.62770626 1.2823575e-18)
(11.203265 0.55984614 -8.5973889e-19)
(11.257652 0.50048447 1.0747284e-19)
(11.331075 0.41197805 2.6609883e-20)
(10.082458 0.4463213 4.3327866e-18)
(10.116972 0.49475297 -4.4393989e-18)
(10.167924 0.53320771 0)
(10.218454 0.57464113 6.5912761e-19)
(10.267365 0.60954343 0)
(10.324227 0.6354429 6.8386498e-19)
(10.381352 0.66216355 6.9522999e-19)
(10.440364 0.68271802 0)
(10.509752 0.70313536 3.5667945e-18)
(10.582857 0.71195185 -2.5413111e-18)
(10.658385 0.71588116 1.8244319e-18)
(10.743623 0.70853037 -1.4797875e-18)
(10.824555 0.68538298 1.4811035e-18)
(10.912735 0.65517814 -8.8185686e-21)
(10.984843 0.61571573 -1.5039047e-18)
(11.063624 0.56813076 -1.874362e-19)
(11.12456 0.51101765 -1.8855784e-19)
(11.189992 0.45199305 -9.3798725e-20)
(11.242552 0.37095665 0)
(10.10395 0.37387854 4.9381559e-18)
(10.111477 0.43106082 0)
(10.152768 0.45509864 0)
(10.170776 0.50087928 5.8193231e-19)
(10.226185 0.52521989 0)
(10.271962 0.5676411 -6.0218321e-19)
(10.333406 0.59332035 -6.1147433e-19)
(10.3945 0.61637147 -2.4769071e-18)
(10.460142 0.63498595 2.5204027e-18)
(10.528052 0.64428196 0)
(10.605066 0.64885057 -2.8827107e-18)
(10.686218 0.6446473 2.2732065e-18)
(10.768014 0.62881232 1.2998072e-18)
(10.852297 0.6030402 -2.6202138e-18)
(10.927284 0.56882289 2.6296135e-18)
(11.007237 0.52372522 -1.9782234e-18)
(11.067461 0.47102833 6.6018581e-19)
(11.141197 0.41140104 0)
(11.19005 0.33825698 0)
(10.078948 0.29675301 7.7556399e-18)
(10.108229 0.33895161 -3.9586123e-18)
(10.139425 0.37315463 4.0259885e-18)
(10.166981 0.40842694 -4.6203598e-18)
(10.214373 0.43720873 -4.1680504e-18)
(10.244163 0.4727741 4.2474631e-18)
(10.309106 0.49769274 2.1480505e-18)
(10.360008 0.5311413 -8.6451161e-21)
(10.427883 0.54318219 -2.2126909e-18)
(10.494494 0.55993304 0)
(10.566758 0.5606602 0)
(10.6424 0.56369001 2.8334122e-19)
(10.71944 0.55272859 0)
(10.797833 0.53150131 1.1442452e-18)
(10.871656 0.50448788 -1.1539488e-18)
(10.942255 0.4669845 -5.752428e-19)
(11.005905 0.42002585 7.2213594e-19)
(11.068038 0.36440705 -3.6002432e-19)
(11.113826 0.29878598 2.8755657e-19)
(10.056894 0.23319337 0)
(10.091639 0.27287765 0)
(10.111482 0.30582808 3.5476108e-18)
(10.151157 0.3444326 -3.6153141e-18)
(10.185254 0.37536092 4.1250337e-18)
(10.2283 0.4087907 -4.1977243e-18)
(10.284032 0.43428111 0)
(10.327856 0.46344104 4.7871818e-19)
(10.388971 0.48186037 1.9322631e-18)
(10.444607 0.50032571 -1.9600145e-18)
(10.517479 0.50431551 1.9680247e-18)
(10.588252 0.50761626 -1.0003617e-20)
(10.669862 0.49339087 -3.9955816e-18)
(10.743153 0.47781624 2.0112912e-18)
(10.820122 0.45152499 0)
(10.890165 0.41726392 -1.0054144e-18)
(10.957087 0.37532742 1.576388e-18)
(11.02088 0.32472688 -6.9322547e-19)
(11.068567 0.26184573 2.5117476e-19)
(10.05628 0.1661145 1.1694165e-17)
(10.076962 0.19787805 -6.1495128e-18)
(10.09212 0.22636749 0)
(10.128025 0.254935 -3.9701421e-19)
(10.154616 0.2892183 -4.0301529e-19)
(10.206421 0.32140883 4.0874292e-19)
(10.248553 0.35429488 0)
(10.307346 0.37909289 -4.1902217e-19)
(10.358527 0.39992644 3.3842185e-18)
(10.421508 0.41576055 -3.4295163e-18)
(10.481436 0.42531926 0)
(10.55036 0.43115839 0)
(10.623176 0.42545246 2.1844413e-19)
(10.689588 0.41271747 1.0964364e-19)
(10.764882 0.39284276 -1.0992352e-19)
(10.825872 0.36441934 0)
(10.890506 0.3285939 -4.9382575e-19)
(10.945274 0.2855164 4.4026105e-19)
(10.99307 0.2315333 0)
(10.040438 0.11857159 -1.0626578e-17)
(10.056908 0.14905038 1.1149133e-17)
(10.080551 0.17436822 -7.4846499e-21)
(10.103333 0.20341365 -5.2327973e-18)
(10.131373 0.2276092 0)
(10.168629 0.25905105 2.8636506e-18)
(10.20949 0.28627778 -5.9868667e-18)
(10.259777 0.31354357 2.9399793e-18)
(10.312341 0.33741071 0)
(10.375587 0.35275127 -2.985385e-18)
(10.435785 0.36457152 3.0195307e-18)
(10.513296 0.3656418 1.512333e-18)
(10.576134 0.36602897 -1.5258451e-18)
(10.655543 0.35160384 1.3335327e-18)
(10.720577 0.33508293 -1.4392603e-18)
(10.793431 0.30891334 0)
(10.853772 0.27663569 -4.7961393e-20)
(10.912541 0.23558541 -1.4316061e-19)
(10.95938 0.18514552 2.0281829e-19)
(10.037893 0.070844223 2.9211643e-19)
(10.053479 0.089967821 -5.9380326e-19)
(10.07006 0.11069055 4.8189232e-18)
(10.09053 0.13707415 2.9839181e-19)
(10.11621 0.16293149 -3.1916217e-19)
(10.147866 0.18849276 -5.0261897e-18)
(10.189008 0.21649808 1.5866517e-19)
(10.227815 0.23858746 2.7232629e-18)
(10.282763 0.25955287 -2.5946571e-18)
(10.332182 0.28042588 -1.6334062e-19)
(10.395343 0.2915763 0)
(10.460366 0.30152246 2.8044571e-18)
(10.5245 0.30107277 -2.8273137e-18)
(10.60064 0.29586544 -1.2455756e-18)
(10.662296 0.2842408 8.9359667e-20)
(10.73544 0.26564327 2.00378e-18)
(10.791724 0.24504258 -6.2692532e-19)
(10.854956 0.21113926 -6.2426847e-20)
(10.899763 0.17651289 -1.0352046e-20)
(10.015912 0.048550049 0)
(10.029253 0.060794269 2.6057209e-19)
(10.039662 0.074681178 4.2260791e-18)
(10.058507 0.092191641 -4.6906664e-18)
(10.082533 0.11210856 4.4722649e-18)
(10.116809 0.13390102 -4.3960985e-18)
(10.155708 0.15551793 1.3880366e-19)
(10.202437 0.17588304 -1.4000412e-19)
(10.252719 0.19404752 2.1153548e-18)
(10.307175 0.21004684 -2.1386217e-18)
(10.372226 0.22135842 2.1432221e-18)
(10.435487 0.22732833 -2.3785884e-18)
(10.507153 0.22689501 0)
(10.572338 0.21940565 1.155689e-18)
(10.640098 0.20688503 -1.3073216e-18)
(10.703564 0.18922974 5.7891366e-19)
(10.761543 0.1654846 -5.4466121e-19)
(10.817001 0.13691417 -2.528131e-19)
(10.861369 0.10373637 2.9322476e-19)
(10.01852 0.024605907 -4.7473587e-21)
(10.029332 0.031646904 -7.3137962e-18)
(10.041992 0.039894427 1.1578545e-19)
(10.055099 0.051961017 -6.4419675e-23)
(10.07261 0.062064416 1.1859239e-19)
(10.096182 0.081523259 0)
(10.123634 0.097719061 3.8726071e-18)
(10.164752 0.11778008 -4.0389301e-18)
(10.204336 0.13443333 1.2312281e-19)
(10.256516 0.15100298 -1.9202094e-18)
(10.31368 0.16485696 4.0556194e-18)
(10.37593 0.17561174 -4.0109367e-18)
(10.448635 0.18300743 2.0160374e-18)
(10.518304 0.18443419 0)
(10.591041 0.18201321 -9.7486486e-19)
(10.657665 0.17361902 1.010551e-18)
(10.71889 0.16200576 -1.569638e-20)
(10.775719 0.14053811 2.4586997e-23)
(10.821931 0.1181454 -3.9068745e-21)
(10.005953 0.011418349 6.3706846e-18)
(10.012479 0.015777734 -6.4004204e-18)
(10.021291 0.021956407 6.3847225e-18)
(10.034345 0.026791548 1.0246752e-19)
(10.051235 0.032203574 0)
(10.072732 0.039658037 0)
(10.103331 0.04696794 -5.2731069e-20)
(10.140861 0.055021685 -3.3507949e-18)
(10.186371 0.062429768 3.4911355e-18)
(10.240982 0.068350186 3.4206213e-18)
(10.29905 0.074123612 -1.6628625e-18)
(10.365704 0.076105644 -1.8265966e-18)
(10.434356 0.075077372 0)
(10.505257 0.072237633 2.7364125e-20)
(10.577621 0.067945205 2.7324744e-20)
(10.643195 0.061907881 8.5879512e-19)
(10.705215 0.052327813 -8.8864605e-19)
(10.757205 0.038321061 1.9712034e-19)
(10.801773 0.023271847 -2.1734585e-19)
(10.005246 0.0025540142 -4.2891418e-20)
(10.009258 0.0040846839 5.5386525e-18)
(10.016236 0.0067116147 -3.380948e-21)
(10.026531 0.010588641 -4.8234721e-21)
(10.040727 0.015299607 -5.7311403e-18)
(10.060117 0.020542481 0)
(10.086107 0.026147531 2.8687113e-18)
(10.119601 0.031748472 -2.8965301e-18)
(10.160971 0.037076642 -4.61618e-20)
(10.209913 0.041764348 -2.3204374e-20)
(10.266186 0.045622921 -2.3303316e-20)
(10.3284 0.049303686 2.3380097e-20)
(10.391047 0.053783157 0)
(10.456429 0.059804459 1.4828067e-18)
(10.52332 0.063790246 -1.5186856e-18)
(10.588418 0.068258691 -7.4450932e-19)
(10.665621 0.072653434 7.5866468e-19)
(10.714837 0.061145522 3.8293746e-19)
(10.774439 0.065532601 -3.7669566e-19)
(12.537313 0.7488692 -1.5213353e-19)
(12.550771 0.60822902 -6.0990344e-19)
(12.563837 0.48187168 5.9666358e-19)
(12.571137 0.36715759 0)
(12.570113 0.2610795 -1.1170073e-18)
(12.562301 0.16203458 -2.1509112e-18)
(12.528223 0.062347061 0)
(12.508992 -0.020506883 -1.8148698e-20)
(12.462764 -0.10468724 3.653661e-18)
(12.427873 -0.17412181 1.743435e-18)
(12.380284 -0.23822879 -1.6242668e-18)
(12.347565 -0.28275048 3.1036548e-18)
(12.31477 -0.31821073 -2.8896926e-18)
(12.298218 -0.33365885 0)
(12.278059 -0.34287769 1.2968115e-18)
(12.268455 -0.33104651 -1.2327715e-18)
(12.265225 -0.30017566 -2.3747978e-18)
(12.261104 -0.25794122 2.2336337e-18)
(12.28298 -0.17549688 -1.0732137e-18)
(12.431119 0.70497628 -1.3143506e-19)
(12.441653 0.56334028 7.8589592e-19)
(12.479206 0.42816042 -5.1462011e-19)
(12.458197 0.29933155 0)
(12.484469 0.1857302 -9.7638652e-19)
(12.470042 0.09166704 2.803139e-18)
(12.456072 -0.011176236 0)
(12.442707 -0.07904251 0)
(12.413806 -0.15894732 0)
(12.395322 -0.20728879 0)
(12.359743 -0.26709887 2.896207e-18)
(12.328023 -0.2987374 -4.1240692e-18)
(12.299768 -0.32673684 -3.9295278e-18)
(12.27897 -0.33824272 2.4664729e-18)
(12.273231 -0.34341684 -2.2810208e-18)
(12.278438 -0.33144553 2.1970268e-18)
(12.302322 -0.29910375 7.3518789e-21)
(12.367601 -0.26141148 -2.0187582e-18)
(12.43786 -0.15745231 1.9299735e-18)
(12.341089 0.71798226 0)
(12.381072 0.58176488 -4.5516671e-19)
(12.389248 0.44280821 -8.9445883e-19)
(12.378685 0.30558751 -4.4045513e-21)
(12.397432 0.20204798 -6.4981821e-21)
(12.36717 0.076009542 1.6542689e-18)
(12.369255 -0.0054688332 -3.1533164e-18)
(12.340854 -0.106564 1.5029795e-18)
(12.310639 -0.17380706 1.4865006e-20)
(12.305896 -0.24394621 0)
(12.291436 -0.28452949 3.9253358e-18)
(12.2798 -0.32671584 1.1211733e-20)
(12.27925 -0.35010423 2.3563589e-18)
(12.278278 -0.36570006 2.2137638e-18)
(12.294074 -0.3679167 3.1296821e-18)
(12.328661 -0.35992599 -3.992203e-18)
(12.375195 -0.34527769 -1.8220712e-20)
(12.485574 -0.30661992 3.6238718e-18)
(12.617403 -0.28828314 1.7374679e-18)
(12.266044 0.66936627 3.9442505e-19)
(12.304614 0.52749448 -7.8620625e-19)
(12.314364 0.3920744 1.1595167e-18)
(12.310214 0.26081231 0)
(12.314477 0.14445767 2.2147234e-18)
(12.278561 0.031742073 -3.5737194e-18)
(12.287198 -0.056952142 2.763181e-18)
(12.224886 -0.14996872 -1.1545099e-21)
(12.239643 -0.220625 1.2999891e-20)
(12.194462 -0.27633896 -1.2234898e-18)
(12.207755 -0.3340618 0)
(12.204016 -0.37012191 -1.1020023e-18)
(12.221001 -0.40520536 1.0640653e-18)
(12.242698 -0.4239076 -1.9928318e-18)
(12.296957 -0.44671584 0)
(12.347545 -0.45964348 0)
(12.46853 -0.49162988 -1.712809e-18)
(12.557401 -0.49272392 0)
(12.710773 -0.56924417 1.5480455e-18)
(12.213873 0.67114699 3.4050619e-19)
(12.246881 0.53752245 -3.384842e-19)
(12.265987 0.38794221 3.1290224e-21)
(12.270718 0.26082276 -6.5763516e-19)
(12.264461 0.13845664 6.3434304e-19)
(12.241749 0.033258183 -8.911701e-23)
(12.232632 -0.060625147 -1.2029901e-18)
(12.193336 -0.15276937 0)
(12.195977 -0.22010922 -2.2399003e-18)
(12.165551 -0.28162284 1.0701022e-18)
(12.168253 -0.34491853 0)
(12.186186 -0.37611475 0)
(12.192517 -0.43849933 -1.8643529e-18)
(12.253299 -0.45867938 -1.77835e-18)
(12.29271 -0.53276793 1.6955165e-18)
(12.405005 -0.55839367 3.2228755e-18)
(12.480439 -0.65599119 1.5255727e-18)
(12.650323 -0.71750881 -1.4514797e-18)
(12.752675 -0.88591862 1.6247136e-20)
(12.117932 0.61557639 0)
(12.159733 0.49628502 2.9386829e-19)
(12.173135 0.33677671 -1.4472784e-18)
(12.193515 0.22746524 5.6916269e-19)
(12.171711 0.084835109 1.6734956e-18)
(12.177892 -0.00044376589 -1.0928492e-18)
(12.135636 -0.11782566 -2.1213864e-18)
(12.137668 -0.18562515 2.0347941e-18)
(12.111335 -0.27093277 -9.9798469e-19)
(12.116105 -0.32176631 1.8860215e-18)
(12.095055 -0.39976757 0)
(12.149768 -0.43335594 0)
(12.149017 -0.51191327 -1.6528374e-18)
(12.229626 -0.54955126 4.7151638e-18)
(12.244153 -0.65911582 -5.9912071e-18)
(12.377548 -0.72628401 2.8489142e-18)
(12.394571 -0.8816245 -5.4057104e-18)
(12.581761 -1.0020438 1.2760191e-18)
(12.575139 -1.2585789 2.4200983e-18)
(12.047144 0.61581657 6.3741575e-20)
(12.125966 0.47909718 2.5454683e-19)
(12.116338 0.32363742 -4.996947e-19)
(12.146227 0.20510439 0)
(12.117065 0.073798496 -9.7180044e-19)
(12.125327 -0.014291054 2.8424482e-18)
(12.085072 -0.13357224 -1.835355e-18)
(12.103591 -0.20031009 8.9635727e-19)
(12.060512 -0.2960923 -1.735606e-18)
(12.090388 -0.35301102 4.9992992e-18)
(12.061117 -0.43685264 -3.1808905e-18)
(12.125486 -0.49473608 0)
(12.110909 -0.58868489 1.4601379e-18)
(12.20689 -0.66732522 2.7906289e-18)
(12.187164 -0.7977506 -3.982218e-18)
(12.319478 -0.92524371 3.7847204e-18)
(12.275955 -1.0978908 -3.5942543e-18)
(12.418292 -1.2856095 -2.2529768e-18)
(12.316269 -1.5661391 -1.0524809e-18)
(11.928983 0.58527915 1.6470554e-19)
(12.034548 0.43072151 2.1891392e-19)
(11.985812 0.2985284 -4.321384e-19)
(12.066953 0.15932665 0)
(12.001063 0.044484589 1.6788993e-18)
(12.056585 -0.070897268 -8.2569702e-19)
(11.992231 -0.17151401 0)
(12.030717 -0.25560377 -1.558587e-18)
(11.973573 -0.34133296 7.5726521e-19)
(12.022706 -0.41558736 0)
(11.98219 -0.50990623 -1.4056636e-18)
(12.053197 -0.59129728 1.3488049e-18)
(12.018499 -0.7049177 1.2920797e-18)
(12.111118 -0.81796092 -2.4678642e-18)
(12.062045 -0.96767007 2.3536285e-18)
(12.147771 -1.1249596 -1.1211215e-18)
(12.058124 -1.3240557 -1.0660985e-18)
(12.107429 -1.5240866 -1.0118704e-18)
(11.910345 -1.7987346 -9.6322331e-19)
(11.908439 0.56323524 3.7831632e-19)
(11.962999 0.39721706 -1.8785937e-19)
(11.97369 0.28037305 0)
(12.001829 0.1276107 0)
(11.97007 0.030368284 -1.4553711e-18)
(11.997723 -0.10857228 1.4287216e-18)
(11.943553 -0.18696724 0)
(11.985031 -0.29399013 6.7804516e-19)
(11.924305 -0.38057527 -6.5789507e-19)
(11.978927 -0.47516427 0)
(11.91703 -0.5739863 1.2271617e-18)
(11.982195 -0.69061566 3.1807538e-21)
(11.919865 -0.80238415 2.0458892e-21)
(11.983737 -0.95475882 0)
(11.894214 -1.1101936 -4.1606923e-18)
(11.931834 -1.2866683 3.9731423e-18)
(11.789194 -1.4805922 4.7334489e-18)
(11.757184 -1.6549679 -6.3226108e-18)
(11.525323 -1.8975887 4.3103089e-18)
(11.827985 0.52881857 0)
(11.834236 0.35856188 1.2452291e-21)
(11.903489 0.25368378 0)
(11.886814 0.085453739 0)
(11.907618 -0.0045819555 6.2811071e-19)
(11.8823 -0.15553622 4.1632124e-21)
(11.874488 -0.22264865 -6.0907662e-19)
(11.869988 -0.358703 -1.7848382e-18)
(11.855795 -0.42505495 2.2986092e-18)
(11.87057 -0.56190368 0)
(11.832331 -0.64351759 -1.081663e-18)
(11.862168 -0.79959341 -6.247889e-18)
(11.781664 -0.90228598 2.9984106e-18)
(11.811872 -1.0896632 0)
(11.67287 -1.2202187 -3.6792813e-18)
(11.651586 -1.4180338 4.4054943e-18)
(11.46026 -1.5515037 -3.3739623e-18)
(11.382815 -1.7309919 4.0376727e-18)
(11.099435 -1.8559902 0)
(11.788659 0.49189776 -2.8178979e-19)
(11.78211 0.3343072 1.4112012e-19)
(11.860149 0.21686041 0)
(11.835401 0.0600031 -1.1083165e-18)
(11.874927 -0.035837966 1.6357021e-18)
(11.830556 -0.18756354 -5.3572387e-19)
(11.838927 -0.26404429 -1.5905307e-18)
(11.810095 -0.40957433 3.6110054e-18)
(11.803211 -0.48383659 -2.0043314e-18)
(11.778516 -0.63558012 0)
(11.744814 -0.71488866 9.4297465e-19)
(11.72147 -0.89704095 5.4749342e-18)
(11.635154 -0.98180194 -3.5128297e-18)
(11.594629 -1.1902929 0)
(11.420114 -1.2802857 0)
(11.346865 -1.4686392 -1.5622545e-18)
(11.108936 -1.5441698 7.5249184e-19)
(10.980979 -1.6852828 -2.1628786e-18)
(10.648964 -1.7307239 0)
(11.689408 0.44421408 -2.4301815e-19)
(11.683452 0.32069732 7.2774204e-19)
(11.763088 0.1702341 -7.2271788e-19)
(11.72534 0.031227267 0)
(11.779041 -0.081862541 1.423525e-18)
(11.720106 -0.21770718 -1.8566985e-18)
(11.752429 -0.31732165 0)
(11.698177 -0.45473708 8.9830002e-19)
(11.705124 -0.54207596 8.7634615e-19)
(11.644757 -0.69041511 0)
(11.61524 -0.7788407 0)
(11.530678 -0.96019104 -7.9772881e-19)
(11.445753 -1.0367201 -2.3162932e-18)
(11.327638 -1.2400999 -4.6541642e-21)
(11.177806 -1.2679771 2.1506362e-18)
(11.021421 -1.4528082 1.3839365e-18)
(10.794764 -1.4419612 -6.6512076e-19)
(10.636009 -1.5567413 1.2802283e-18)
(10.322073 -1.5128821 0)
(11.634628 0.40684081 0)
(11.642229 0.30173981 -8.3691492e-19)
(11.718823 0.11758416 1.6617786e-18)
(11.675996 0.0091950194 -1.2364861e-18)
(11.732961 -0.13494439 0)
(11.656857 -0.25596008 0)
(11.684448 -0.37248611 0)
(11.603706 -0.49632054 -7.7631972e-19)
(11.607088 -0.60109047 -7.59061e-19)
(11.507434 -0.73711013 0)
(11.472607 -0.8407915 -7.2182828e-19)
(11.331695 -0.99744311 -7.0041488e-19)
(11.241808 -1.0699293 -6.7603725e-19)
(11.048581 -1.2195759 2.6238812e-18)
(10.90844 -1.2262912 -2.5338291e-18)
(10.67149 -1.3604093 -6.1062978e-19)
(10.482798 -1.2806913 3.5543115e-18)
(10.264291 -1.3681884 -5.713339e-18)
(10.012993 -1.2145084 3.3132528e-18)
(11.535459 0.38270038 -4.5302468e-20)
(11.5759 0.26022818 9.0373119e-20)
(11.622688 0.086205751 8.9672332e-19)
(11.608517 -0.0078214335 -2.1390959e-18)
(11.637312 -0.18061135 1.0536112e-18)
(11.577356 -0.26350544 0)
(11.588769 -0.41794526 0)
(11.493547 -0.52017719 6.758449e-19)
(11.489005 -0.6401525 -2.6470742e-18)
(11.361853 -0.76128785 -6.5442643e-19)
(11.304833 -0.86495548 6.2093245e-19)
(11.125575 -0.98375898 3.0536306e-18)
(11.023686 -1.0384098 5.947953e-19)
(10.806123 -1.1436936 0)
(10.672936 -1.1163758 1.6761442e-18)
(10.428247 -1.178949 0)
(10.247072 -1.0630983 -3.1520241e-18)
(9.9993722 -1.0923992 9.126711e-18)
(9.8131474 -0.87410786 -7.8516521e-18)
(11.442486 0.35366766 7.7832708e-20)
(11.517994 0.20703962 -7.7427694e-20)
(11.523908 0.06352866 0)
(11.541471 -0.060419352 -9.2432973e-19)
(11.528691 -0.21522334 2.9823923e-19)
(11.492662 -0.30191217 1.2016258e-18)
(11.466435 -0.47210677 0)
(11.376127 -0.53815163 -2.9262218e-18)
(11.342623 -0.69119781 1.7153742e-18)
(11.19134 -0.76526682 -1.7388279e-21)
(11.115245 -0.86939172 0)
(10.904177 -0.94646008 0)
(10.787788 -0.99514096 -5.1915988e-19)
(10.542093 -1.0246827 0)
(10.423639 -0.97219209 3.5604526e-21)
(10.172159 -0.96127232 9.5560321e-19)
(10.058721 -0.81716459 -2.780337e-18)
(9.8263869 -0.78684066 7.1745741e-18)
(9.7071272 -0.52333796 -3.4753093e-18)
(11.382067 0.3242653 2.3466586e-19)
(11.462007 0.17260893 -2.0073044e-19)
(11.463693 0.050508227 0)
(11.498874 -0.099048114 0)
(11.450808 -0.22207996 0)
(11.438002 -0.33768314 0)
(11.361444 -0.47482861 -2.0592496e-18)
(11.291683 -0.55299412 2.0206927e-18)
(11.201672 -0.69470536 2.4895554e-18)
(11.071724 -0.72707666 -9.7252135e-19)
(10.960462 -0.84651963 0)
(10.746362 -0.85633103 3.7352753e-18)
(10.618937 -0.88127651 -6.8204403e-18)
(10.36388 -0.84310599 3.5408758e-18)
(10.246079 -0.78263956 -4.3187344e-18)
(9.9930515 -0.70128876 2.5168291e-18)
(9.9356221 -0.55863293 -8.1504657e-19)
(9.7310886 -0.46115147 -7.9254044e-19)
(9.7065061 -0.1901859 7.6754139e-19)
(11.304834 0.28100268 2.3083029e-19)
(11.361094 0.13421411 -7.490631e-19)
(11.369967 0.017246414 4.5851944e-19)
(11.384442 -0.13621967 -9.1381413e-19)
(11.341215 -0.23875022 9.0428303e-19)
(11.325894 -0.37602515 0)
(11.219237 -0.47921327 -4.4458295e-19)
(11.153066 -0.57725934 1.7550093e-18)
(11.010814 -0.67032777 -1.7215443e-18)
(10.897558 -0.70757309 -4.2275404e-19)
(10.731756 -0.78622737 -3.3259608e-18)
(10.566558 -0.73491221 3.2469807e-18)
(10.418959 -0.74975154 -3.9671781e-19)
(10.212929 -0.64450224 2.3303782e-18)
(10.115754 -0.57698049 -2.2658149e-18)
(9.9088649 -0.43719296 0)
(9.8885267 -0.29341564 -5.7457713e-18)
(9.7218391 -0.13138541 6.2756432e-18)
(9.789635 0.13869407 0)
(11.264508 0.24636695 -3.973272e-19)
(11.306625 0.11231159 3.9701675e-19)
(11.33045 -0.010180856 -7.9058117e-19)