/*--------------------------------*- C++ -*----------------------------------*\
  =========                 |
  \\      /  F ield         | OpenFOAM: The Open Source CFD Toolbox
   \\    /   O peration     | Website:  https://openfoam.org
    \\  /    A nd           | Version:  11
     \\/     M anipulation  |
\*---------------------------------------------------------------------------*/
FoamFile
{
    format      ascii;
    class       surfaceScalarField;
    location    "2.775";
    object      phi;
}
// * * * * * * * * * * * * * * * * * * * * * * * * * * * * * * * * * * * * * //

dimensions      [0 3 -1 0 0 0 0];

internalField   nonuniform List<scalar> 
8667
(
15.884933
1.9593631
-0.066518502
13.978326
2.0431581
-0.1365506
12.064375
2.0980363
-0.18408557
10.152589
2.0757285
-0.16394239
8.2462525
2.0901471
-0.18381072
6.348554
2.0187925
-0.12109398
4.4610655
1.9616569
-0.074168436
2.6329887
1.7286716
0.099405205
1.4040659
0.3731914
0.85573142
15.885192
3.8519495
13.976777
3.951573
12.063559
4.011254
10.145214
3.9940737
8.2400698
3.9952913
6.3366261
3.9222362
4.4578192
3.8404639
2.6353445
3.5511463
3.1960814
0.84332891
15.884462
5.7452657
13.978885
5.8571493
12.064957
5.9251821
10.149063
5.9099683
8.2319773
5.9123768
6.3265332
5.8276803
4.4449774
5.7220197
2.6271231
5.3690006
5.0012414
0.82196312
15.885023
7.6380207
13.97982
7.7623524
12.063518
7.8414841
10.145463
7.8280236
8.2263057
7.8315337
6.317995
7.7359909
4.4289131
7.6111016
2.6095343
7.1883794
6.8063893
0.80438639
15.885716
9.5300804
13.982555
9.6655138
12.066603
9.7574359
10.146627
9.7479998
8.2248132
9.7533475
6.3133937
9.6474104
4.4177794
9.5067159
2.5969405
9.0092183
8.5975868
0.80574303
15.886867
11.420991
13.986452
11.56593
12.072323
11.671565
10.149726
11.670597
8.223616
11.679457
6.306213
11.564813
4.4027339
11.410195
2.5739154
10.838037
10.391532
0.77997067
15.888648
13.310121
13.990972
13.463605
12.078742
13.583795
10.154427
13.594911
8.224534
13.609351
6.3014689
13.487878
4.389517
13.322147
2.5584468
12.669107
12.181911
0.76806725
15.890677
15.197222
13.996199
15.358083
12.086451
15.493543
10.160936
15.520426
8.226676
15.543611
6.2979239
15.416631
4.3750442
15.245027
2.53221
14.511941
13.966124
0.74799728
15.893003
17.081997
14.001049
17.250037
12.093995
17.400597
10.168457
17.445964
8.2297744
17.482294
6.2959253
17.35048
4.3626129
17.178339
2.5095349
16.365019
15.751654
0.72400429
18.903375
15.956401
20.721857
15.959296
22.536556
15.963084
24.349048
15.965289
26.158072
15.968736
27.964035
15.971817
29.76831
15.973505
31.565611
15.980479
15.978373
33.365018
19.080939
14.125499
20.907139
14.133096
22.727977
14.142246
24.542275
14.150991
26.352441
14.15857
28.154054
14.170204
29.952968
14.17459
31.747046
14.186401
14.186316
33.539103
19.251873
12.274223
21.099028
12.285941
22.945022
12.296252
24.784552
12.31146
26.622282
12.32084
28.452985
12.339501
30.281612
12.345964
32.105693
12.362319
12.365803
33.926207
19.321015
10.399172
21.194137
10.412819
23.068248
10.42214
24.940279
10.439429
26.81022
10.4509
28.678876
10.470846
30.539738
10.485102
32.396257
10.5058
10.522013
34.240047
19.37499
8.5064753
21.275085
8.5127246
23.177262
8.5199628
25.086118
8.5305731
26.993382
8.5436361
28.90956
8.5546675
30.824822
8.5698396
32.751274
8.579348
8.5972116
34.676075
19.238534
6.6184204
21.141001
6.6102577
23.049944
6.6110203
24.974316
6.6062014
26.901373
6.6165786
28.838042
6.6179989
30.771401
6.6364799
32.707168
6.6435812
6.6651026
34.639277
19.070157
4.7266026
20.988561
4.6918541
22.924842
4.6747392
24.891791
4.6392523
26.877967
4.6304023
28.885815
4.6101511
30.909219
4.613076
32.947062
4.6057383
4.6151321
34.997032
18.188473
2.9031482
20.078103
2.8022249
22.020002
2.7328396
24.008918
2.6503368
26.018958
2.6203626
28.055491
2.5736174
30.104044
2.5645236
32.169074
2.5407083
2.548334
34.235872
17.536778
1.1180246
19.528451
0.81055232
21.76058
0.50071001
24.070229
0.34068824
26.392507
0.29808441
28.725554
0.24057035
31.070896
0.2191812
33.413821
0.19778345
35.764313
0.1978421
33.268917
0.096101343
33.174957
0.093960555
33.090323
0.084633806
33.007045
0.08327801
32.933696
0.0733483
32.861595
0.072101347
32.798919
0.062676288
32.737716
0.061202636
0.052849826
32.684866
33.47116
0.16404377
33.41167
0.15345062
33.351786
0.14451795
33.299299
0.13576485
33.245735
0.12691214
33.200792
0.11704504
33.153469
0.10999896
33.115249
0.099422212
0.095112256
33.072987
33.869257
0.22099413
33.820074
0.20263364
33.765261
0.19933045
33.718547
0.18247891
33.66443
0.18102897
33.618855
0.16261979
33.566575
0.16227981
33.524215
0.1417818
0.14340725
33.47592
34.184565
0.27647628
34.128907
0.25829117
34.075157
0.25308084
34.02104
0.23659562
33.969413
0.23265568
33.917785
0.21424867
33.868898
0.21116672
33.820608
0.19007181
0.18866835
33.775347
34.610241
0.34231049
34.545974
0.32255861
34.483132
0.31592205
34.420834
0.29889357
34.359913
0.29357725
34.299932
0.27423002
34.241523
0.26957532
34.184629
0.24696537
0.24399264
34.129305
34.580178
0.40140968
34.526035
0.37670156
34.474659
0.3672976
34.427581
0.34597143
34.382508
0.33865069
34.339678
0.31706034
34.299383
0.30986971
34.259703
0.28664586
0.28139291
34.222303
34.952044
0.44639787
34.911937
0.4168086
34.874474
0.40476058
34.83781
0.38263504
34.802685
0.37377609
34.76415
0.35559571
34.724916
0.34910343
34.67713
0.33443141
0.33168489
34.626838
34.303973
0.37829614
34.365582
0.35519961
34.439893
0.33044968
34.503959
0.31856925
34.579237
0.29849785
34.637847
0.29698604
34.691434
0.29551597
34.709096
0.31676961
0.33799768
34.702784
35.984069
0.15853996
36.164766
0.17450313
36.311996
0.1832198
36.420734
0.20983052
36.46918
0.25005189
36.452481
0.31368504
36.377636
0.370361
36.228228
0.46617749
36.044601
0.52162525
35.93204
0.62295638
-0.51039567
35.672549
0.59598573
-0.33649493
35.333724
0.5663841
-0.2275584
34.980045
0.54495427
-0.19127545
34.613116
0.52537766
-0.15844888
34.248052
0.50670558
-0.14164149
33.869141
0.49504419
-0.11613319
33.505379
0.47881552
-0.1150538
0.47744773
33.125601
-0.097669778
34.775544
0.55019618
34.812888
0.55864175
34.814346
0.56492591
34.790246
0.56905439
34.743458
0.57216555
34.678606
0.57155699
34.599987
0.57366371
34.502858
0.57594432
0.57975063
34.400555
34.685943
0.49109118
34.742487
0.5020984
34.786578
0.52083487
34.825792
0.52984038
34.8509
0.54705764
34.867413
0.55504366
34.869367
0.57171003
34.865414
0.57989741
0.59704625
34.848118
34.302091
0.41130296
34.385498
0.41869094
34.462355
0.44397818
34.541631
0.45056419
34.61284
0.47584853
34.685729
0.48215456
34.749483
0.50795607
34.814854
0.5145264
0.54130087
34.8706
34.20067
0.33993755
34.275726
0.34363531
34.35061
0.3690939
34.429083
0.37209166
34.506307
0.39862486
34.586667
0.40179399
34.664651
0.42997222
34.746592
0.43258573
0.46248102
34.825412
33.857485
0.25779868
33.943642
0.25747899
34.031019
0.28171638
34.122502
0.28060853
34.214847
0.3062803
34.312267
0.30437412
34.410478
0.33176104
34.513731
0.32933292
0.35906895
34.617143
33.563424
0.17029447
33.646789
0.17411426
33.737907
0.19059856
33.827401
0.19111454
33.922334
0.21134698
34.018637
0.20807126
34.119821
0.2305775
34.223361
0.22579245
0.25101238
34.331418
33.167986
0.075295959
33.259361
0.082738742
33.359071
0.090888748
33.456355
0.093830236
33.563186
0.10451583
33.667348
0.10390977
33.781543
0.11638201
33.892916
0.11441931
0.12885539
34.015073
32.760162
32.842901
32.93379
33.02762
33.132136
33.236046
33.352428
33.466847
33.595702
33.72049
-0.12478733
33.862017
-0.14152774
33.998614
-0.13659704
34.152937
-0.15432262
34.302988
-0.15005083
34.47136
-0.1683723
34.637073
-0.16571237
34.821237
-0.18416465
-0.18269117
35.003928
34.134451
-0.24416476
34.265597
-0.27267371
34.394106
-0.26510571
34.536129
-0.29634587
34.675269
-0.28919092
34.829885
-0.32298849
34.981169
-0.31699653
35.15086
-0.35385577
-0.34822186
35.316391
34.443657
-0.35640469
34.559825
-0.38884148
34.68125
-0.3865308
34.807275
-0.42237013
34.938824
-0.42074057
35.076514
-0.46067867
35.219356
-0.45983793
35.370323
-0.50482249
-0.50427392
35.526375
34.726134
-0.46539633
34.83483
-0.49753683
34.949921
-0.50162219
35.064339
-0.53678747
35.186468
-0.54287041
35.30783
-0.58204047
35.438127
-0.59013428
35.567756
-0.63445161
-0.64425712
35.707739
34.909139
-0.54912371
34.988705
-0.57710254
35.073238
-0.58615565
35.153195
-0.6167447
35.24036
-0.63003546
35.323681
-0.66536148
35.416135
-0.68258757
35.505915
-0.72423165
-0.74534852
35.607006
34.929108
-0.60763158
34.978773
-0.6267682
35.034224
-0.6416062
35.082088
-0.66460869
35.136266
-0.68421386
35.185187
-0.71428194
35.239885
-0.73728591
35.292701
-0.77704762
-0.80472761
35.35208
34.826485
-0.58599827
34.797828
-0.59811175
34.764421
-0.60819917
34.727856
-0.62804379
34.6865
-0.64285756
34.643588
-0.67137012
34.598347
-0.69204465
34.553858
-0.73255899
-0.76085219
34.509983
34.284121
-0.46956429
34.15714
-0.47113015
34.023313
-0.47437218
33.87375
-0.47848082
33.717691
-0.48679919
33.551693
-0.50537147
33.375744
-0.51609576
33.195358
-0.55217356
-0.57138236
33.005889
32.764512
-0.1084752
32.390321
-0.096938619
32.031798
-0.11584971
31.657775
-0.10445723
31.300449
-0.12947368
30.915623
-0.12054486
30.554759
-0.15523181
30.153344
-0.15075853
29.781066
-0.19910488
0.61941266
29.35838
-0.19672649
0.8139799
32.811321
0.85545465
34.468508
0.79508304
35.412452
0.69487737
35.707212
0.55477462
35.847842
0.38949864
35.691651
0.20354087
35.502349
35.207469
0.65289507
28.970736
-0.26525136
0.8511114
32.613105
0.88797191
34.431648
0.81983512
35.480588
0.70593007
35.821117
0.55373054
36.000041
0.38350169
35.861879
0.20253476
35.683316
35.410004
0.71462972
28.524214
-0.26810765
0.91834112
32.409394
0.95219585
34.397793
0.8793036
35.553481
0.76388393
35.936536
0.60986613
36.154059
0.42862974
36.043116
0.22403882
35.887907
35.634043
0.7619766
28.128475
-0.36623698
0.96534265
32.206028
0.98931823
34.373817
0.90620298
35.636596
0.7753752
36.067364
0.60729342
36.322141
0.4207416
36.229668
0.22287159
36.085777
35.856914
0.84959959
27.659151
-0.3802765
1.0500015
32.005626
1.0691293
34.35469
0.97847068
35.727255
0.84180446
36.20403
0.66939443
36.494551
0.47155954
36.427503
0.24831784
36.309018
36.105232
0.91062167
27.270121
-0.52159097
1.1096084
31.806639
1.1125356
34.351762
1.0064439
35.833346
0.85245362
36.358021
0.6640055
36.682999
0.46065826
36.63085
0.24588235
36.523794
36.351115
1.0213125
26.80912
-0.56031182
1.2143844
31.613567
1.2072706
34.358876
1.0917635
35.948853
0.92839085
36.521393
0.73195648
36.879433
0.51476244
36.848044
0.27189227
36.766664
36.623007
1.1164856
26.484171
-0.79153684
1.2865276
31.443525
1.2586656
34.386738
1.1195619
36.087957
0.9354722
36.705483
0.72226093
37.092645
0.5012423
37.069062
0.26948684
36.99842
36.892494
1.2813042
26.039234
-0.8363664
1.4197955
31.305034
1.3686605
34.437873
1.218861
36.237757
1.0227529
36.901591
0.79790237
37.317495
0.5596867
37.307278
0.29562465
37.262482
37.188118
0.088971615
37.099147
0.22578425
37.125669
0.35601843
37.177044
0.47668077
37.196833
0.58722184
36.79105
0.68741732
36.137561
0.78603658
34.339254
0.85201567
31.239055
26.203148
0.68810126
0.076382816
37.022764
0.1842738
37.017778
0.30654472
37.054773
0.43378088
37.069597
0.53752656
36.687305
0.62026102
36.054827
0.65379248
34.305722
0.66052579
31.232321
26.261441
0.60223321
0.090943769
36.93182
0.2214054
36.887317
0.3424049
36.933774
0.44638345
36.965618
0.53193469
36.601753
0.59649169
35.99027
0.63741941
34.264795
0.64210087
31.22764
26.377748
0.52579291
0.084608802
36.847211
0.18925586
36.78267
0.29816145
36.824868
0.40979367
36.853986
0.48636494
36.525182
0.53106562
35.945569
0.52431147
34.271549
0.49325157
31.2587
26.410368
0.46063165
0.098812219
36.748399
0.22708077
36.654401
0.34360802
36.708341
0.43343654
36.764157
0.49572497
36.462894
0.53433122
35.906963
0.54133237
34.264548
0.49965367
31.300378
26.536814
0.37320801
0.097296541
36.651103
0.21028174
36.541416
0.32395969
36.594663
0.42499573
36.663121
0.47492919
36.41296
0.48391957
35.897972
0.4381515
34.310316
0.36344835
31.375081
26.564972
0.33529054
0.11847867
36.532624
0.25228833
36.407606
0.3654486
36.481502
0.45134724
36.577223
0.49780632
36.366501
0.50711127
35.888667
0.47530825
34.342119
0.3922975
31.458092
26.633681
0.32358799
0.11970763
36.412916
0.2453412
36.281973
0.3686934
36.35815
0.46484412
36.481072
0.49699897
36.334346
0.47641768
35.909249
0.38789691
34.43064
0.27682673
31.569162
26.596065
0.31444316
0.14792083
36.264996
0.30016362
36.12973
0.42391629
36.234398
0.51043256
36.394556
0.54333471
36.301444
0.52407071
35.928513
0.45272225
34.501988
0.33838022
31.683504
26.638394
0.29605104
-0.24770552
26.625124
0.26097609
-0.38094787
31.816747
-0.51396695
34.635007
-0.57015611
35.984702
-0.5498302
36.281118
-0.44924402
36.293969
-0.31183832
36.096992
-0.15814222
35.976034
36.106853
-0.32321653
26.720403
0.22793717
-0.48073645
31.974267
-0.60187217
34.756143
-0.64451482
36.027344
-0.60896738
36.245571
-0.51193852
36.196941
-0.37091825
35.955972
-0.19057533
35.795691
35.916278
-0.24941813
26.766536
0.20328521
-0.43651239
32.161361
-0.60975803
34.929389
-0.68775556
36.105342
-0.67227726
36.230092
-0.56304026
36.087704
-0.39998794
35.792919
-0.20820095
35.603904
35.708077
-0.34797435
26.883899
0.2306116
-0.57481815
32.388205
-0.73899464
35.093565
-0.80336877
36.169716
-0.7581934
36.184917
-0.63867996
35.96819
-0.46612056
35.62036
-0.24763752
35.385421
35.46044
-0.29329714
26.934004
0.24319128
-0.56480852
32.659716
-0.78625351
35.31501
-0.87700312
36.260466
-0.84849412
36.156408
-0.71265588
35.832352
-0.51326715
35.420971
-0.27401639
35.14617
35.186423
-0.42289686
27.070706
0.2861951
-0.74151545
32.978335
-0.95357594
35.527071
-1.0263399
36.33323
-0.9583047
36.088373
-0.79965254
35.6737
-0.58093695
35.202256
-0.31417164
34.879405
34.872251
-0.4124374
27.181021
0.30212275
-0.77596923
33.341867
-1.0426926
35.793794
-1.1275818
36.418119
-1.0674213
36.028212
-0.89120761
35.497486
-0.6447493
34.955797
-0.34917117
34.583827
34.52308
-0.57962747
27.427068
0.33358054
-0.99906975
33.761309
-1.2562161
36.05094
-1.3125945
36.474497
-1.197972
35.91359
-0.98817872
35.287693
-0.71283527
34.680454
-0.38748674
34.258478
34.135594
-0.61363908
27.702042
0.33866476
-1.0865776
34.234247
-1.3824275
36.34679
-1.4311166
36.523186
-1.3190825
35.801556
-1.0861882
35.054798
-0.77745209
34.371718
-0.42012268
33.901149
33.715471
0.58248699
33.132984
1.0875234
33.396112
1.5547615
33.90448
1.9599068
34.649653
2.2549245
35.506538
2.3287007
36.44941
2.0539243
36.621567
1.3431055
34.945066
28.498878
0.54626915
0.61918176
32.513802
1.1570623
32.858232
1.6625381
33.399004
2.0985919
34.213599
2.4260369
35.179093
2.5653605
36.310087
2.297288
36.889639
1.5245341
35.71782
29.395067
0.62834582
0.65123299
31.862569
1.2165674
32.292897
1.7686319
32.846939
2.2654215
33.71681
2.6687638
34.775751
2.9047197
36.074131
2.7466312
37.047727
1.9551373
36.509314
30.748056
0.60214767
0.67972401
31.182845
1.2786517
31.69397
1.8620392
32.263552
2.3889126
33.189936
2.8286997
34.335964
3.1357882
35.767042
3.0718216
37.111694
2.3687843
37.212351
32.443808
0.67303305
0.69970316
30.483142
1.323201
31.070472
1.9517781
31.634975
2.5425121
32.599202
3.0628258
33.81565
3.4589445
35.370924
3.5684843
37.002154
2.9833119
37.797524
34.614061
0.81305839
0.71512777
29.768014
1.3608424
30.424757
2.0165405
30.979277
2.6334723
31.982271
3.1851966
33.263926
3.6795742
34.876546
3.9116948
36.770034
3.5756298
38.133589
36.938688
1.2510026
0.71311715
29.054897
1.3855667
29.752308
2.0779928
30.286851
2.7588207
31.301443
3.3844367
32.63831
3.9527712
34.308212
4.3600842
36.362721
4.2700586
38.223614
38.788988
2.4197591
0.7226286
28.332268
1.3984753
29.076461
2.1107589
29.574567
2.8138908
30.598311
3.4609774
31.991223
4.0995833
33.669606
4.5519589
35.910345
4.8855579
37.890015
40.357695
3.3168506
0.69815813
27.63411
1.4058197
28.368799
2.1340628
28.846324
2.9116092
29.820764
3.6489655
31.253867
4.3406438
32.977927
5.0265657
35.224423
5.8111595
37.105422
41.177452
4.9914029
-0.73117361
28.365284
-1.4651503
29.102776
-2.2716426
29.652816
-3.2019159
30.751038
-4.3857668
32.437718
-5.9175298
34.50969
-7.9114316
37.218325
-10.509007
39.702997
43.744113
-13.075668
-0.74630013
29.111584
-1.4567519
29.813228
-2.2353119
30.431376
-3.1153556
31.631081
-4.3125046
33.634867
-5.9406294
36.137815
-8.0843694
39.362065
-10.60369
42.222318
44.942559
-11.802136
-0.76825928
29.879843
-1.4585803
30.503549
-2.1957552
31.168551
-3.0490803
32.484406
-4.2471383
34.832924
-5.937915
37.828592
-8.2570815
41.681232
-10.344906
44.310143
40.900656
-6.3030034
-0.78887088
30.668714
-1.4494485
31.164127
-2.1559739
31.875076
-2.943807
33.27224
-4.1739312
36.063049
-5.957805
39.612466
-8.2105082
43.933935
-9.8356314
45.935266
31.812592
-0.74756766
-0.83058613
31.4993
-1.4687861
31.802327
-2.1247698
32.53106
-2.8684387
34.015908
-4.0665123
37.261122
-5.8572761
41.40323
-7.9616853
46.038344
-9.2829481
47.256529
22.510228
0.019416233
-0.86324744
32.362548
-1.4769936
32.416073
-2.0958887
33.149955
-2.7448758
34.664895
-3.9506032
38.46685
-5.8086572
43.261284
-7.8188036
48.04849
-8.5274456
47.965171
13.933198
0.049584027
-0.94589308
33.308441
-1.5126277
32.982807
-2.0886702
33.725998
-2.6825424
35.258768
-3.8253032
39.609611
-5.6556083
45.091589
-7.6267905
50.019673
-7.9281736
48.266554
5.9693995
0.035625113
-0.99369828
34.302139
-1.5517165
33.540825
-2.0756555
34.249937
-2.5484658
35.731578
-3.6725884
40.733733
-5.5188349
46.937835
-7.374068
51.874906
-5.954016
46.846502
-0.73562679
0.75101027
-1.1244986
35.426638
-1.6326863
34.049013
-2.0994339
34.716684
-2.5038242
36.135968
-3.5743875
41.804297
-5.2876454
48.651093
-6.7529976
53.340258
-3.1871901
43.280695
-5.455693
1.5328761
1.5525516
-7.6086079
0.60036322
3.0446564
41.78859
2.0712684
54.313646
1.1415321
49.580829
0.75737198
42.188457
0.91147784
35.981862
0.90607045
34.722092
0.77293014
34.182154
36.199568
1.5685092
-9.1335097
-0.043607427
2.8014899
40.555609
1.8868955
55.22824
1.0532287
50.414496
0.76950896
42.472177
0.98533201
35.766039
1.0253572
34.682067
0.91346925
34.294042
37.113037
1.5056714
-10.001721
-0.63745994
2.63171
39.429571
1.7506703
56.10928
0.92369925
51.241467
0.71270993
42.683166
1.0506753
35.428074
1.1429746
34.589767
0.97974612
34.45727
38.092783
1.4214866
-10.675252
-0.74795628
2.3775359
38.473521
1.5654209
56.921395
0.84484407
51.962044
0.75856911
42.769441
1.154817
35.031826
1.2826482
34.461936
1.1333596
34.606559
39.226143
1.3136848
-11.435132
-0.55380444
2.2155752
37.571631
1.4404173
57.696553
0.73247227
52.669989
0.73575412
42.766159
1.2617658
34.505814
1.4396406
34.284061
1.2295294
34.81667
40.455672
1.1302455
-12.535904
-0.029473474
1.9589844
36.742892
1.2450606
58.410477
0.64682899
53.268221
0.8085859
42.604402
1.4000109
33.914389
1.6021346
34.081938
1.3761744
35.04263
41.831847
0.90565289
-14.046546
0.60498881
1.8037981
35.844747
1.1372098
59.077065
0.56426519
53.841165
0.81586083
42.352806
1.5433517
33.186898
1.7967683
33.828521
1.4706596
35.368738
43.302506
0.69238641
-15.605845
0.86691334
1.5452671
34.991866
0.91434415
59.707988
0.46619446
54.289315
0.93567733
41.883324
1.7141749
32.408401
1.9670459
33.57565
1.5964319
35.739353
44.898938
0.45203813
-17.042792
0.98490795
1.32934
34.114564
0.81345132
60.223877
0.40906538
54.693701
0.95838686
41.334002
1.8916829
31.475105
2.1895528
33.27778
1.696167
36.232738
46.595105
-0.81098224
-15.440147
-0.79166181
-5.1625092
38.466091
-6.8463161
61.907684
-5.0106611
52.858046
-0.85653412
37.179875
2.5021578
28.116413
3.8665071
31.913431
3.2783509
36.820895
49.873456
-1.6647812
-13.115951
-0.65941548
-6.1687776
42.970088
-7.2823249
63.021231
-4.4039081
49.979629
0.44646886
32.329498
4.3652641
24.197618
5.2570254
31.021669
3.5771481
38.500772
53.450604
-2.1547837
-10.064264
-0.89690343
-6.6095819
47.424886
-7.1868673
63.598516
-3.5165774
46.309339
2.2058563
26.607065
5.7153209
20.688153
5.8240316
30.912959
3.6661381
40.658665
57.116742
-2.6176951
-5.6571925
-1.7893762
-7.1503605
51.957551
-7.3561047
63.804261
-2.1357774
41.089012
4.5420735
19.929214
7.5393828
17.690844
6.8551604
31.597181
3.4670756
44.04675
60.583818
-3.262243
0.11992671
-2.5148761
-7.6215407
56.316849
-6.74473
62.92745
-0.70574942
35.050031
6.206932
13.016532
8.3977155
15.50006
6.5598445
33.435052
2.7678936
47.838701
63.351712
-3.6766894
6.6911857
-2.8945696
-8.1170733
60.757233
-6.777046
61.587423
-0.41507623
28.688062
6.621136
5.9803201
9.2428505
12.878346
6.9765278
35.701375
2.4033229
52.411906
65.755035
-4.4710517
14.00253
-2.8402924
-8.3783546
64.664536
-6.0738537
59.282922
0.14571604
22.468492
7.0394215
-0.91338537
9.1778595
10.739908
5.7191287
39.160106
1.2308021
56.900233
66.985837
-4.7353732
20.435716
-1.6978127
-8.6426717
68.571834
-5.6643312
56.304581
1.4752929
15.328868
7.8894218
-7.3275143
9.2948913
9.3344383
5.4780882
42.976909
0.75802248
61.620298
67.743859
-5.6746665
-0.40571382
26.516096
-8.9427165
71.839884
-3.9419453
51.30381
3.3930864
7.9938361
8.0761477
-12.010576
8.3248126
9.0857735
3.4218553
47.879866
-0.76994668
65.8121
66.973912
-2.0195693
-25.131739
0.63828606
26.513022
-1.4630234
-56.856246
56.2997
2.1491305
-25.029776
21.417622
4.7685863
28.387978
-31.007434
6.1757529
51.111699
-52.518865
6.8301785
57.66311
-58.317535
7.035351
52.686666
-52.891838
6.7543237
21.087359
-20.806331
-7.2308716
6.480587
-2.0055766
-23.77695
0.65078818
-1.5312924
-57.33053
1.8393942
-28.400463
4.4085979
25.818774
5.9338445
49.586452
6.7986568
56.798297
7.2313569
52.253965
7.3978566
20.920859
-8.2997972
-1.9573301
-22.473608
0.65398769
-1.5122233
-57.775637
1.6394901
-31.552176
4.1482555
23.310009
5.7158043
48.018903
6.6778595
55.836242
7.2085136
51.723311
7.9292602
20.200112
-9.8775386
-1.8714771
-21.257439
0.65530828
-1.4151003
-58.232014
1.4347083
-34.401985
3.8793848
20.865332
5.5757085
46.32258
6.5295021
54.882449
7.1337768
51.119037
8.6383375
18.695552
-12.111626
-1.7511208
-20.157022
0.65070381
-1.2503152
-58.732819
1.2583141
-36.910614
3.6279349
18.495711
5.4460799
44.504435
6.4820027
53.846526
7.3933593
50.20768
9.9435624
16.145349
-15.093353
-1.600384
-19.205628
0.6489901
-1.004011
-59.329192
1.214497
-39.129122
3.4846796
16.225529
5.3393434
42.649771
6.5322989
52.65357
7.9839268
48.756052
11.768879
12.360397
-18.807554
-1.4467241
-18.410289
0.65138508
-0.76438642
-60.01153
1.1867355
-41.080244
3.4012665
14.010998
5.2549155
40.796122
6.6416003
51.266885
8.9105464
46.487106
13.949234
7.3217087
-23.059219
-1.3006445
-17.780825
0.67118
-0.56347886
-60.748695
1.0795777
-42.723301
3.2857734
11.804802
5.214597
38.867298
6.9236818
49.557801
10.259786
43.151002
16.411313
1.1701818
-27.601188
-1.1660136
0.67078371
-17.285595
-0.39113387
-61.523575
0.99171415
-44.106149
3.214996
9.5815202
5.1789305
36.903364
7.2038746
47.532857
11.782354
38.572522
19.106749
-6.1542123
-32.390358
3.6740127
32.035189
-2.6613198
-33.047882
0.53712192
14.525823
-11.388934
-6.2045644
-60.87281
67.614499
-8.1638052
-81.880908
83.840149
-7.5066018
-73.408853
72.751649
-5.0564454
-57.035153
54.584996
-2.4323173
-43.494414
40.870286
0.46539062
-32.592935
29.695227
-27.813575
28.278966
4.0267898
30.890049
-2.8816496
1.7323538
16.820259
-4.7554873
-54.384969
-7.4006085
-79.235787
-7.7062176
-73.103244
-5.9275259
-58.813844
-3.7683439
-45.653596
-0.60989226
-35.751387
-28.423467
3.9335029
29.812651
-2.856105
1.9375419
18.81622
-4.2203684
-48.227058
-6.9417945
-76.514361
-7.1932031
-72.851835
-5.5855807
-60.421467
-3.3569238
-47.882253
-0.81664026
-38.29167
-29.240107
4.0069212
28.71673
-2.9109998
2.620951
20.20219
-3.03173
-42.574377
-6.2720741
-73.274017
-7.3132199
-71.810689
-6.2988031
-61.435884
-4.1483418
-50.032714
-1.5494636
-40.890548
-30.789571
3.9895779
27.695287
-2.9681355
2.8655161
21.326252
-2.3885214
-37.32034
-5.5491509
-70.113387
-6.4442363
-70.915604
-5.674877
-62.205243
-4.283647
-51.423944
-2.2500076
-42.924188
-33.039579
3.9334874
26.081667
-2.3198669
3.2596458
22.000094
-1.2801333
-32.780561
-4.7285446
-66.664976
-6.3401497
-69.303999
-5.7181234
-62.827269
-4.1467601
-52.995308
-2.4288272
-44.642121
-35.468406
3.6886426
23.159468
-0.76644248
3.450067
22.238669
-0.54608866
-28.784405
-3.7577842
-63.45328
-5.2388319
-67.822951
-5.3432499
-62.722851
-4.2703775
-54.06818
-2.2464764
-46.666022
-37.714882
3.4330696
19.465367
0.26103168
3.8389919
21.832747
0.56964294
-25.515056
-2.8601476
-60.02349
-4.8848782
-65.79822
-5.1265001
-62.481229
-4.1383203
-55.05636
-2.0693004
-48.735042
-39.784183
2.8575006
16.332609
0.27525779
4.0613624
20.628885
1.5390659
-22.992759
-1.6455652
-56.838859
-3.6067409
-63.837045
-4.2711916
-61.816779
-3.7831433
-55.544408
-2.2739853
-50.2442
-42.058168
-0.013002791
43.7481
-43.735097
-0.54823497
48.11592
-47.580688
-1.3564625
49.855237
-49.04701
-2.5414936
52.292807
-51.107776
-3.8731572
52.43058
-51.098917
-4.8714378
49.456542
-48.458262
-3.7570696
36.563552
-37.67792
-0.60156189
1.5694908
-4.7249985
-11.526815
10.220985
0.70426834
0.058585774
43.689514
-0.40712061
48.581627
-1.221165
50.669282
-2.428516
53.500158
-3.7698278
53.771892
-4.7691211
50.455835
-3.3776998
35.172131
-0.27508272
-1.5331263
-12.594513
0.79261523
0.09582175
43.593692
-0.32663339
49.004082
-1.1042898
51.446938
-2.2969629
54.692831
-3.6816274
55.156556
-4.6723623
51.44657
-3.0139192
33.513688
-0.0027898906
-4.5442554
-13.478604
0.88130164
0.16045435
43.433238
-0.18363764
49.348174
-0.94907893
52.212379
-2.1658688
55.909621
-3.5664136
56.557101
-4.527192
52.407349
-2.681662
31.668158
0.2396835
-7.4656008
-14.136283
0.89736292
0.18975621
43.243482
-0.11386651
49.651797
-0.84348691
52.942
-2.0341182
57.100252
-3.4691053
57.992088
-4.3967903
53.335034
-2.4263599
29.697728
0.39110054
-10.283061
-14.648206
0.90302276
0.25111367
42.992368
0.025080465
49.87783
-0.68638364
53.653464
-1.8867757
58.300644
-3.3302574
59.43557
-4.2321849
54.236961
-2.3558884
27.821432
0.37964355
-13.018593
-15.164361
0.89579889
0.26976403
42.722604
0.085293794
50.0623
-0.57997542
54.318733
-1.7577894
59.478458
-3.2196159
60.897397
-4.1078011
55.125146
-2.3942022
26.107833
0.26108884
-15.673884
-15.666243
0.76297107
0.32984352
42.39276
0.20447994
50.187664
-0.43174005
54.954953
-1.6048617
60.65158
-3.0507659
62.343301
-3.9313027
56.005683
-2.3654915
24.542022
0.19958938
-18.238965
-16.311272
0.84461909
0.33459259
0.27805669
-0.31139813
-1.4765967
-2.9703401
-3.8035161
-2.254253
0.13566763
0.15700512
1.607384
7.5240235
1.0895771
7.0036194
-10.121234
8.4848324
-39.159133
7.0401173
-47.013546
5.0751951
-49.133994
3.1863963
-49.218977
1.7345041
-47.595118
0.57117976
-46.417364
-43.163917
2.6197459
4.2121353
0.69214238
7.9769577
-15.478446
8.6574799
-39.839656
7.0545632
-45.41063
5.1021693
-47.1816
3.2805139
-47.397322
1.8677657
-46.182369
0.65160184
-45.2012
-42.512315
3.5140125
0.21454593
0.48357693
8.762977
-20.72741
8.7282357
-39.804914
7.0875285
-43.769923
5.216235
-45.310307
3.4126571
-45.593744
1.9636513
-44.733364
0.70886853
-43.946417
-41.803447
5.272526
-5.4476063
0.38962622
9.4344394
-24.889324
8.7350655
-39.10554
7.0589541
-42.093811
5.23759
-43.488943
3.4946319
-43.850786
2.0710805
-43.309812
0.79569788
-42.671035
-41.007749
7.5178842
-12.853714
-0.11177614
9.6584035
-27.029843
8.6306423
-38.077779
7.0484694
-40.511638
5.3157423
-41.756216
3.5961025
-42.131146
2.1562741
-41.869984
0.8497036
-41.364464
-40.158045
8.3657607
-20.420298
-0.79917712
9.6508006
-28.314883
8.5512088
-36.978187
6.9948795
-38.955309
5.3202062
-40.081543
3.676707
-40.487647
2.24598
-40.439257
0.93278738
-40.051271
-39.225258
9.023389
-26.44834
-2.9953464
9.6767585
-28.968252
8.4507828
-35.752212
6.9640068
-37.468533
5.3731616
-38.490697
3.7547765
-38.869261
2.3217157
-39.006196
0.99108055
-38.720636
-38.234177
9.5310611
-28.123242
-7.8561596
9.5594953
-28.996687
8.3438467
-34.536563
6.8794119
-36.004098
5.354143
-36.965429
3.8011029
-37.316221
2.3683015
-37.573394
1.0546366
-37.406971
-37.179541
9.7050884
-28.044173
-9.7841574
9.4073132
-28.698912
8.2394057
-33.368655
6.8301196
-34.594812
5.3803357
-35.515645
3.8627809
-35.798667
2.4306696
-36.141283
1.1037715
-36.080073
-36.075769
0.17291273
39.620969
-39.793882
0.32516627
38.617674
-38.769927
0.45603194
38.125835
-38.2567
0.54388718
37.319272
-37.407127
0.58236214
36.357964
-36.396439
0.58130892
34.553454
-34.552401
0.54211754
32.42344
-32.384248
0.47489121
28.647743
-28.580517
24.696512
-24.686941
0.46532058
0.23724534
39.383724
0.41199875
38.44292
0.53514472
38.002689
0.62212345
37.232293
0.63333822
36.34675
0.59507559
34.591717
0.52403023
32.494485
0.42889229
28.742881
24.760868
0.36453595
0.28718848
39.096535
0.49873647
38.231372
0.67141239
37.830013
0.79883571
37.10487
0.85448584
36.291099
0.84043663
34.605766
0.78293789
32.551984
0.68082704
28.844992
24.921962
0.51973341
0.35205348
38.744482
0.59926772
37.984158
0.78632926
37.642951
0.90999798
36.981201
0.94555981
36.255538
0.9021579
34.649168
0.82273518
32.631407
0.69667304
28.971054
25.186358
0.43227708
0.41087032
38.333611
0.70117567
37.693853
0.9401374
37.403989
1.1196784
36.80166
1.2019936
36.173222
1.1801902
34.670971
1.1119871
32.69961
1.0313959
29.051645
25.637035
0.58071887
0.47542645
37.858185
0.80408788
37.365191
1.0493661
37.158711
1.2350519
36.615974
1.3251842
36.08309
1.2859239
34.710231
1.1933559
32.792178
1.1384461
29.106555
26.267077
0.50840384
0.5369763
37.321209
0.91734851
36.984819
1.2297048
36.846355
1.4666199
36.379059
1.6069797
35.94273
1.6003463
34.716865
1.4701216
32.922403
1.5314584
29.045218
27.035777
0.76275818
0.58705547
36.734153
1.0149494
36.556925
1.3266633
36.534641
1.5781159
36.127606
1.7504512
35.770395
1.7630084
34.704307
1.5637207
33.12169
1.7039491
28.90499
27.765986
0.97374083
0.65838393
1.1352358
1.528594
1.8575336
2.1122842
2.2217797
1.9748146
2.1808928
1.9027056
-0.014653863
-24.864185
0.19189773
0.071579846
-28.666751
0.079355526
-32.392024
0.070463624
-34.543509
0.036032592
-36.362008
0.023221608
-37.394316
0.0043545234
-38.237833
-0.0044580985
-38.761115
-39.79834
-0.083971052
-25.058595
0.27838069
0.0079272213
-28.758649
0.033281742
-32.417379
0.058824718
-34.569052
0.048673349
-36.351857
0.054027756
-37.39967
0.056304563
-38.24011
0.048399198
-38.753209
-39.74994