/*--------------------------------*- C++ -*----------------------------------*\
  =========                 |
  \\      /  F ield         | OpenFOAM: The Open Source CFD Toolbox
   \\    /   O peration     | Website:  https://openfoam.org
    \\  /    A nd           | Version:  11
     \\/     M anipulation  |
\*---------------------------------------------------------------------------*/
FoamFile
{
    format      ascii;
    class       volScalarField;
    location    "10.1";
    object      p;
}
// * * * * * * * * * * * * * * * * * * * * * * * * * * * * * * * * * * * * * //

dimensions      [0 2 -2 0 0 0 0];

internalField   nonuniform List<scalar> 
5472
(
97.641748
95.297773
92.956869
90.650235
88.364228
86.109302
83.939323
81.842866
79.845901
77.956944
76.173058
74.523157
72.990939
71.613313
70.386419
69.320293
68.499992
67.825647
67.335948
98.386141
96.214858
94.030899
91.857051
89.677306
87.517973
85.426059
83.390783
81.433529
79.575977
77.815443
76.173709
74.644025
73.271005
72.038729
70.974506
70.129708
69.394351
68.883123
99.074538
97.093873
95.072973
93.021437
90.955782
88.901376
86.879419
84.906273
83.006539
81.159045
79.425836
77.788444
76.275975
74.901434
73.665703
72.617087
71.73224
71.003081
70.489247
99.686059
97.895062
96.034334
94.123762
92.172266
90.207959
88.280951
86.377311
84.522428
82.729027
81.018165
79.382941
77.880539
76.50171
75.27038
74.209872
73.316338
72.602963
72.065888
100.26442
98.622136
96.894699
95.122465
93.286637
91.431943
89.581057
87.752308
85.970017
84.224267
82.548583
80.93748
79.440282
78.07577
76.843647
75.792363
74.898511
74.181564
73.639576
100.78006
99.264571
97.673237
96.037237
94.330357
92.581275
90.817631
89.08511
87.362191
85.652855
84.008709
82.431275
80.961698
79.606449
78.390321
77.346205
76.448651
75.74901
75.218559
101.21347
99.823335
98.375018
96.861377
95.267119
93.629328
91.969703
90.327944
88.673349
87.025191
85.415591
83.872703
82.428685
81.09651
79.89864
78.855793
77.96521
77.252751
76.704176
101.60022
100.31677
98.985606
97.58602
96.120757
94.603758
93.039922
91.471856
89.898134
88.331222
86.768356
85.260877
83.837681
82.527657
81.355954
80.331887
79.458069
78.76541
78.237408
101.91898
100.77552
99.564028
98.252912
96.893714
95.483731
94.029542
92.543234
91.040302
89.53977
88.039196
86.591554
85.200332
83.91456
82.761747
81.740611
80.881255
80.196874
79.673604
102.17394
101.1496
100.05286
98.859086
97.604077
96.279846
94.935554
93.549678
92.127712
90.680295
89.238005
87.834317
86.486366
85.254958
84.130219
83.12924
82.283606
81.599104
81.084667
102.44093
101.51026
100.48449
99.383578
98.228063
97.00442
95.750378
94.454139
93.125217
91.750429
90.380275
89.017157
87.717789
86.514191
85.414445
84.448127
83.621068
82.949859
82.447194
102.64797
101.81146
100.89257
99.893566
98.802998
97.673808
96.514382
95.301721
94.038235
92.729283
91.432607
90.140032
88.890715
87.718771
86.659276
85.710353
84.903461
84.245698
83.751749
102.8309
102.05531
101.2135
100.30118
99.315095
98.285836
97.200376
96.071556
94.886131
93.659739
92.416826
91.185268
89.990898
88.858977
87.831811
86.903589
86.124954
85.484095
85.008108
102.99056
102.30444
101.54123
100.68916
99.776667
98.820424
97.811835
96.76486
95.648951
94.493277
93.317471
92.153342
91.014491
89.937398
88.943587
88.04489
87.282946
86.654842
86.196561
103.1136
102.47088
101.79529
101.03923
100.20288
99.309536
98.37985
97.407878
96.374373
95.284041
94.160502
93.051982
91.962616
90.937765
89.980731
89.120992
88.386842
87.783074
87.333899
103.25349
102.67732
102.03828
101.33277
100.57276
99.744814
98.881969
97.972892
97.010078
95.99075
94.940073
93.885939
92.853754
91.866119
90.940844
90.114458
89.396712
88.827247
88.403575
103.3422
102.83472
102.25328
101.60835
100.90855
100.15381
99.355807
98.499674
97.591253
96.632333
95.650316
94.655361
93.684877
92.738819
91.855022
91.054828
90.361178
89.805534
89.39247
103.46036
102.98648
102.44988
101.85526
101.20415
100.51094
99.77346
98.976548
98.121315
97.219862
96.290839
95.353578
94.430958
93.530328
92.686975
91.916613
91.260918
90.727037
90.329884
103.55323
103.13059
102.64485
102.09331
101.48334
100.84028
100.15615
99.413785
98.612932
97.763173
96.882494
95.997213
95.118255
94.260886
93.446497
92.704862
92.067345
91.5608
91.188254
103.64828
103.26123
102.81366
102.3016
101.73921
101.13746
100.49398
99.80038
99.051318
98.253914
97.424097
96.584771
95.746713
94.926384
94.152007
93.446956
92.820136
92.314424
91.951968
103.75092
103.40439
102.99298
102.51987
101.99728
101.42909
100.81931
100.16255
99.450197
98.695211
97.909996
97.105638
96.30342
95.514788
94.770074
94.104825
93.527052
93.052458
92.685849
103.83249
103.52096
103.14855
102.71149
102.22566
101.6999
101.1298
100.508
99.829645
99.111066
98.363649
97.597292
96.82162
96.045626
95.306775
94.629161
94.047549
93.596891
93.269299
103.94936
103.66869
103.32539
102.91862
102.46063
101.95857
101.413
100.81974
100.1761
99.489308
98.768746
98.039726
97.313391
96.590915
95.903876
95.267706
94.694646
94.218782
93.855078
104.02773
103.79376
103.49413
103.13299
102.71365
102.24226
101.71944
101.14277
100.5094
99.823922
99.101448
98.355911
97.609121
96.870751
96.169744
95.53566
95.002227
94.582954
94.263457
104.11667
103.91622
103.65517
103.3333
102.95227
102.52111
102.04242
101.51519
100.93519
100.30261
99.625492
98.920657
98.19903
97.47567
96.774964
96.107209
95.515696
95.031043
94.669056
104.1991
104.05084
103.83665
103.54543
103.18108
102.74781
102.25194
101.6965
101.08534
100.42885
99.728987
99.001834
98.262287
97.533863
96.835278
96.201492
95.663232
95.219315
94.887078
104.24471
104.18577
104.06393
103.87519
103.61478
103.27961
102.8653
102.37291
101.80771
101.1705
100.47271
99.725703
98.942311
98.146006
97.353261
96.613734
95.962651
95.434544
95.079403
67.055645
66.798874
66.814601
67.021205
67.353283
67.946031
68.584023
69.29681
70.159653
71.042222
72.069783
73.092192
74.218313
75.326315
76.509774
77.702738
78.867541
79.946187
80.980256
68.488456
68.366481
68.474413
68.701102
69.164055
69.8202
70.551662
71.455315
72.435895
73.517032
74.716059
75.932982
77.199891
78.489117
79.830714
81.156573
82.442417
83.657415
84.813985
70.110942
70.008116
70.098103
70.412878
70.973103
71.676197
72.569315
73.608214
74.718157
75.976138
77.309935
78.688322
80.098882
81.552398
82.995081
84.441698
85.825866
87.19587
88.453783
71.707534
71.594195
71.711926
72.115052
72.744093
73.554355
74.583717
75.721117
76.98002
78.36968
79.811156
81.31265
82.834302
84.37183
85.921876
87.451438
88.954196
90.422922
91.817606
73.24401
73.161555
73.323486
73.795677
74.503419
75.422246
76.549918
77.793036
79.178398
80.659063
82.20991
83.805401
85.400614
87.017678
88.635073
90.23676
91.814916
93.364082
94.862162
74.853527
74.743175
74.932576
75.469266
76.23896
77.260975
78.463685
79.834796
81.31905
82.88597
84.511483
86.163792
87.825972
89.504168
91.171574
92.81852
94.432052
96.019129
97.518785
76.31646
76.244197
76.505915
77.088079
77.946579
79.060035
80.342607
81.813237
83.354847
85.002193
86.677212
88.385751
90.096402
91.799605
93.483482
95.129111
96.722714
98.274813
99.70311
77.86844
77.788652
78.066833
78.695833
79.622695
80.808254
82.176428
83.708227
85.317499
87.016673
88.729808
90.475422
92.192749
93.89461
95.548307
97.139452
98.660787
100.09572
101.36879
79.288573
79.219186
79.572689
80.23497
81.250507
82.493051
83.929472
85.508625
87.169253
88.900853
90.637606
92.377745
94.07266
95.728545
97.300173
98.796267
100.1736
101.41062
102.47793
80.711674
80.689999
81.048731
81.757687
82.832209
84.109146
85.617535
87.219068
88.932189
90.668636
92.394585
94.103206
95.73937
97.304564
98.759983
100.09851
101.26573
102.29238
103.12447
82.080652
82.072692
82.454002
83.229395
84.32894
85.655152
87.195077
88.828893
90.561716
92.263389
93.972218
95.605741
97.152065
98.597573
99.896316
101.04705
102.02301
102.82946
103.44761
83.39138
83.405065
83.823699
84.632415
85.750954
87.133493
88.69423
90.3499
92.056513
93.723485
95.370251
96.895911
98.332409
99.624088
100.75855
101.72669
102.51687
103.15695
103.65888
84.653489
84.694117
85.13656
85.962925
87.107333
88.528915
90.086303
91.735876
93.396717
95.012144
96.561687
97.980308
99.292512
100.42153
101.39354
102.18406
102.83491
103.36355
103.75889
85.857495
85.916024
86.366483
87.21413
88.393795
89.831728
91.374768
93.003812
94.598767
96.135609
97.575599
98.876961
100.03856
101.01101
101.83574
102.46724
102.99795
103.37991
103.63797
86.998216
87.063054
87.531135
88.402824
89.602438
91.028746
92.555987
94.135056
95.648194
97.100629
98.428086
99.599556
100.6062
101.43648
102.10015
102.57736
102.95336
103.14042
103.22259
88.081945
88.140725
88.629414
89.517649
90.719841
92.122163
93.63568
95.12728
96.557947
97.913156
99.108293
100.14211
100.99974
101.68477
102.17846
102.50854
102.7121
102.75854
102.68734
89.083419
89.148812
89.664972
90.546496
91.739426
93.115141
94.551378
95.992831
97.348705
98.592445
99.653717
100.55489
101.26459
101.79685
102.13665
102.34459
102.43045
102.42444
102.35857
90.015312
90.095525
90.61496
91.481058
92.664274
94.002517
95.385629
96.740556
98.006842
99.126541
100.05838
100.83072
101.40546
101.80488
102.04819
102.19885
102.25939
102.29018
102.33703
90.879434
90.970272
91.47239
92.350374
93.523237
94.813817
96.143415
97.412771
98.580745
99.574055
100.38857
101.03543
101.49964
101.81013
102.01836
102.17124
102.27772
102.39134
102.51207
91.664023
91.747766
92.246543
93.121188
94.251393
95.507649
96.770197
97.962275
99.023712
99.909991
100.63466
101.18408
101.57982
101.8494
102.05657
102.24552
102.40087
102.56322
102.71087
92.38457
92.470168
92.976372
93.843
94.95411
96.169948
97.356782
98.460768
99.422101
100.22563
100.87257
101.34094
101.69502
101.95496
102.18075
102.39242
102.5673
102.74221
102.88178
92.99444
93.079651
93.577112
94.421801
95.506062
96.643868
97.798107
98.851362
99.755747
100.49638
101.0711
101.49589
101.83737
102.10385
102.34628
102.55335
102.72278
102.85772
102.91438
93.559941
93.659055
94.163217
95.031407
96.097023
97.228219
98.307419
99.284542
100.12208
100.78378
101.29176
101.69582
102.00789
102.26813
102.47969
102.61433
102.70553
102.7277
102.64599
93.991718
94.078773
94.575745
95.420057
96.461662
97.557843
98.632322
99.586318
100.37394
101.00744
101.51505
101.91397
102.21144
102.43447
102.55524
102.59947
102.56622
102.39941
102.1533
94.39119
94.498854
95.057085
95.971252
97.048691
98.149211
99.157143
100.04775
100.7787
101.34772
101.76987
102.0757
102.27186
102.36774
102.37658
102.30032
102.10335
101.82165
101.53558
94.615942
94.718585
95.265357
96.14616
97.202447
98.295904
99.362014
100.27604
100.99771
101.55537
101.96224
102.23161
102.3815
102.41205
102.3142
102.0888
101.76524
101.40129
101.01794
94.793548
94.961515
95.666545
96.730787
97.927694
99.094404
100.10177
100.91897
101.51746
101.91199
102.14695
102.24773
102.19178
102.01711
101.74755
101.41632
101.07114
100.7345
100.44768
81.93769
82.762048
83.49145
84.086134
84.43957
84.720084
84.776639
84.487156
84.039602
83.386489
82.063987
80.360849
78.687334
76.461666
73.627008
70.833824
68.043149
65.793396
64.54835
85.831756
86.704801
87.4264
88.05702
88.46039
88.85563
89.04878
88.973845
88.684983
87.982414
86.896111
85.281889
83.143
80.509236
77.412382
73.858957
70.031158
66.415653
62.951313
89.629778
90.565221
91.377916
92.033508
92.485466
92.965845
93.311812
93.327011
93.102039
92.469112
91.211967
89.312843
87.087089
83.920994
79.694213
74.819321
69.468761
63.750972
57.773677
93.115643
94.156631
95.028288
95.660132
96.252989
96.800417
97.203411
97.370034
97.11137
96.36923
94.997089
93.036747
90.228353
86.008148
80.791507
74.46678
66.733175
57.526956
46.931718
96.225962
97.329558
98.128784
98.810023
99.450839
100.07795
100.56977
100.74208
100.51006
99.829822
98.40862
96.139022
92.455003
87.388894
81.221551
73.771166
64.689893
53.626128
40.683842
98.889226
99.936562
100.69558
101.39913
102.09641
102.81376
103.31701
103.57829
103.48567
102.77672
101.31782
98.638067
94.175501
89.02487
83.224418
76.079248
67.645872
57.631798
46.374396
101.00046
101.93498
102.66379
103.37244
104.13586
104.85416
105.41598
105.71759
105.54396
104.83352
103.34095
100.38929
96.142197
91.476114
86.256388
80.333924
73.600848
66.11266
58.189387
102.49078
103.29018
103.96414
104.61818
105.32709
105.95117
106.43253
106.61795
106.40851
105.75608
104.43895
102.14401
98.810603
94.950929
90.518588
85.731783
80.586889
75.164164
69.951953
103.36623
104.01663
104.56857
105.09094
105.64719
106.07521
106.38476
106.46244
106.30148
105.87666
105.03279
103.4643
100.9929
97.897489
94.282548
90.374345
86.558282
82.941893
79.594072
103.77338
104.29672
104.70821
105.10596
105.48344
105.73661
105.88999
105.90959
105.97306
105.6999
104.8938
103.38881
101.20462
98.506458
95.674413
92.670543
89.734587
87.294557
85.591871
103.98562
104.39911
104.71688
105.05085
105.33122
105.5269
105.60445
105.48498
105.33614
104.84577
103.6741
101.74062
99.313373
96.553316
93.922847
91.720388
89.726287
88.020282
86.916495
104.10467
104.41237
104.66441
104.90411
105.02344
104.94421
104.5677
104.31939
103.80031
102.54881
100.43688
97.611486
94.410639
91.284843
88.644547
86.812148
85.792627
85.616027
86.074953
104.09782
104.33169
104.56202
104.72624
104.68177
104.41979
103.58653
102.29246
99.972535
96.992858
93.508685
89.424673
85.248345
81.828858
79.621423
78.503839
78.608474
79.774701
81.826422
103.8024
103.96212
104.20276
104.3131
104.23457
103.88
102.90137
101.1041
97.006442
91.355878
85.209652
78.686106
72.603344
67.397829
62.826741
59.9514
60.28119
63.466438
68.616895
103.12375
103.20394
103.34232
103.33644
103.13704
102.65388
101.74886
100.27072
97.225649
91.826963
83.950434
74.356711
63.504434
53.690041
45.369873
39.812
39.176639
43.931721
52.580357
102.43097
102.40297
102.37759
102.15893
101.68676
100.89604
99.665317
97.800072
94.717902
89.777164
83.012251
74.833419
66.074178
57.841289
51.668653
48.230805
48.589256
53.204039
60.953417
102.17513
102.14188
102.06371
101.82914
101.43118
100.81015
99.939431
98.675767
96.87973
94.265569
90.670189
86.325065
81.541294
76.762269
72.907972
70.356459
69.522989
71.056495
74.524681
102.33921
102.38416
102.34045
102.23911
102.01008
101.69552
101.27067
100.616
99.730217
98.494006
96.826608
94.73831
92.265539
89.638565
87.055631
84.74843
83.252066
83.005109
83.838289
102.66691
102.78182
102.80505
102.77393
102.70083
102.60058
102.44968
102.12447
101.68313
101.05196
100.14539
98.993236
97.539953
95.818259
93.947079
92.12393
90.713851
89.597991
88.593466
102.96664
103.16046
103.23563
103.26564
103.35802
103.4421
103.46811
103.37298
103.18682
102.82573
102.30849
101.57529
100.42542
99.050289
97.479654
95.52308
93.259105
90.719184
88.092882
103.13417
103.28909
103.37461
103.52906
103.69408
103.8691
103.92707
103.95716
104.00031
103.50467
102.28314
101.27002
100.69405
99.542179
97.45719
94.600793
91.000091
86.791567
82.603316
103.03644
103.13835
103.27127
103.46557
103.63254
103.77501
103.91298
103.85712
103.68325
103.42743
103.01857
102.3008
101.43157
100.11838
98.197242
95.662465
92.496056
88.887124
85.111523
102.55222
102.63898
102.84379
103.00736
103.15975
103.25559
103.39715
103.32963
103.2182
102.80931
101.57529
100.7742
100.04115
98.728487
97.169541
95.512097
93.849994
92.246751
90.892875
101.88769
101.94897
102.08347
102.19403
102.29887
102.34039
102.38877
102.31474
102.17547
102.09598
100.87342
98.374086
95.609353
93.705655
92.622284
92.190604
92.168656
92.683697
93.692736
101.23685
101.22751
101.26729
101.29959
101.27854
101.23625
101.2
101.09143
100.81431
100.0961
98.987035
98.070027
97.083881
95.781032
94.192725
92.90668
90.880424
91.362291
92.414322
100.6876
100.58616
100.55208
100.49338
100.36657
100.23869
100.08657
99.880832
99.706325
99.416697
98.75691
98.053276
97.005198
95.56984
94.214933
93.300474
93.046266
93.574843
94.680325
100.24423
100.24656
100.21816
100.13762
100.05069
99.933806
99.7806
99.571962
99.25489
98.806112
98.210479
97.346846
96.692952
96.729044
96.994983
97.338169
97.751418
98.229031
98.769289
64.209706
64.703523
67.263548
72.091956
78.73799
87.073365
96.640537
105.90539
114.13256
120.31251
124.13636
125.61926
123.16308
120.30411
117.35214
114.5263
111.92874
109.46403
107.21118
60.105241
58.638911
59.122075
61.927164
67.334046
74.975415
84.429579
94.576331
104.10704
112.11432
117.95864
121.5861
121.43735
119.39474
116.92462
114.55176
112.27194
110.17824
108.20326
52.260658
47.902496
45.527773
46.05216
49.764961
56.662728
66.88811
78.980347
90.800787
101.01022
108.09585
112.83651
115.63123
115.88625
114.91744
113.54184
111.90362
110.32448
108.75561
36.006215
26.152851
19.07335
17.052927
20.884074
29.611935
42.38752
56.338776
70.074822
84.57606
96.086105
102.2521
106.69344
109.08895
110.114
110.21604
109.7871
109.06132
108.21267
26.712196
12.852044
1.3838226
-4.4381203
-2.8967719
5.6494662
21.790145
39.946699
56.717057
70.021427
80.907227
90.372561
97.185831
101.3838
104.04145
105.50634
106.2097
106.41291
106.40125
34.443136
22.93696
13.749795
8.845222
9.1489856
15.054983
25.732628
39.097722
53.112313
65.905905
76.688283
85.324187
91.80708
96.287111
99.371566
101.4665
102.75617
103.56503
104.13625
50.207359
42.99668
37.844279
35.925876
37.37265
41.780447
48.794777
57.129787
65.84372
73.946983
81.100805
86.939052
91.474501
95.056064
97.670102
99.596019
100.89099
101.76312
102.50187
65.345498
61.62637
59.386902
59.166368
61.261198
64.660763
68.801141
73.723543
78.605751
83.235384
87.239501
90.763737
93.63033
96.011521
97.992778
99.473077
100.55965
101.26674
101.87192
76.941342
75.43284
74.931923
74.925777
75.565799
77.618328
80.468673
83.617567
86.729
89.640098
92.131343
94.274825
96.174893
97.723571
99.104162
100.20203
101.03745
101.58585
101.9614
84.430993
83.63758
83.223906
83.648221
84.907824
86.504284
88.386089
90.299315
92.228473
94.076755
95.729828
97.142083
98.38151
99.43843
100.36544
101.19284
101.81941
102.2729
102.50641
86.548515
86.976566
87.970458
89.05621
90.266401
91.703252
93.250716
94.756173
96.151216
97.468176
98.564249
99.503901
100.32089
101.02463
101.62189
102.20604
102.67435
102.9935
103.15073
86.943831
88.179577
89.852657
91.722005
93.348925
94.871648
96.413128
97.711883
98.78652
99.805066
100.68481
101.37474
101.94036
102.39617
102.78741
103.17276
103.50936
103.71855
103.76919
84.339267
86.915184
89.606824
92.263136
94.525096
96.285876
98.013055
99.457476
100.53064
101.329
102.02971
102.60682
103.07578
103.42407
103.7048
103.96777
104.20596
104.38619
104.38461
74.409469
79.988114
85.142799
89.707535
93.322509
95.905312
98.007849
99.853515
101.05651
101.94507
102.69603
103.27025
103.71957
104.03901
104.2974
104.51752
104.68441
104.81203
104.82515
62.737787
72.460381
80.706899
87.324224
92.183532
95.420248
97.883671
100.11969
101.54582
102.41739
103.14681
103.76919
104.23681
104.5501
104.76127
104.95331
105.08825
105.15379
105.13029
69.633109
77.796322
84.861123
90.640719
94.993913
97.970634
99.859176
101.23508
102.92043
103.9609
104.34989
104.68435
105.03634
105.26755
105.37827
105.44264
105.51562
105.52613
105.44163
78.997905
83.821323
88.569569
92.883135
96.505269
99.402661
101.75925
103.47773
103.98499
103.65364
104.44962
105.38543
105.72876
105.83614
105.89444
105.87193
105.85471
105.829
105.71009
85.333948
87.347653
89.778443
92.363405
94.870501
97.225643
99.357662
101.13026
102.57323
103.78844
104.82366
105.33343
105.64989
105.9916
106.02976
105.99423
105.9102
105.86972
105.78135
88.096505
88.269133
89.128953
90.452937
92.024035
93.690212
95.246239
97.027313
99.092121
101.46785
103.92318
105.03977
105.51474
105.84688
105.90882
105.86405
105.74016
105.6013
105.54169
85.62456
83.472922
81.850776
81.170578
81.793277
83.70979
86.866723
92.110948
97.893753
101.64813
103.8482
104.68117
105.00499
105.14082
105.18088
105.16941
105.07598
104.95522
104.89388
79.025282
76.58248
75.703134
76.503505
78.939415
82.654762
86.861962
90.965991
94.936718
98.555131
101.1517
102.46571
103.16367
103.60747
103.8859
104.07121
104.13245
104.13031
104.15085
81.706622
79.441367
78.688398
79.528022
82.030298
85.857527
90.049081
93.899624
97.117787
99.502464
101.03636
102.02949
102.63259
103.05091
103.31619
103.5155
103.62523
103.67737
103.74973
90.071016
90.169272
91.36641
93.121168
94.942922
96.880437
98.895566
100.58223
101.81732
102.58499
103.00972
103.2589
103.38001
103.48809
103.51136
103.53823
103.52574
103.48246
103.4941
94.983067
96.366254
97.974231
99.645994
101.16189
102.29201
103.21335
103.79617
103.90461
103.87686
103.87621
103.80185
103.66209
103.56267
103.48236
103.4102
103.3428
103.28583
103.24837
93.978112
95.795157
97.370674
98.810676
100.19396
101.24904
101.72981
102.08998
102.92564
103.47038
103.55314
103.48306
103.37884
103.20877
103.10715
103.0166
102.91752
102.80396
102.7717
96.156121
97.784134
99.260171
100.46885
101.35205
101.80124
101.7422
101.7645
102.64767
102.7035
102.69602
102.65454
102.5716
102.5273
102.41808
102.33335
102.24643
102.08701
102.01696
99.37788
100.06476
100.80368
101.54389
102.26119
102.91738
103.66808
103.4347
102.72257
102.15554
101.78283
101.52018
101.29843
101.22549
101.17362
101.16109
101.1651
101.09795
101.04093
105.07294
103.11013
101.2613
99.535784
97.910843
96.40235
95.047797
93.801547
92.662664
91.608089
90.667188
89.811961
89.063385
88.418156
87.868889
87.396328
87.068839
86.831281
86.740011
106.36978
104.57749
102.85026
101.2038
99.642719
98.156856
96.771553
95.458898
94.242515
93.101511
92.066397
91.127683
90.277175
89.541251
88.931979
88.411587
88.064
87.83241
87.728281
107.2811
105.77683
104.24508
102.7372
101.25965
99.824697
98.43229
97.080051
95.800263
94.594643
93.461148
92.427926
91.497053
90.662187
89.990285
89.439166
89.031787
88.821489
88.719329
107.26619
106.22539
105.03867
103.79433
102.47405
101.14505
99.815802
98.486675
97.183255
95.955726
94.775778
93.667424
92.67449
91.788534
91.02955
90.457067
90.004953
89.777621
89.709734
106.24771
105.81755
105.12775
104.24448
103.2157
102.05275
100.84404
99.610779
98.358074
97.143568
95.972651
94.839972
93.7923
92.876041
92.063324
91.446056
90.988826
90.723206
90.678713
104.66678
104.84406
104.69334
104.21769
103.54816
102.64217
101.65105
100.53721
99.378695
98.20859
97.058649
95.939067
94.866067
93.916077
93.091784
92.415938
91.955732
91.668724
91.633151
103.27148
103.77871
104.00369
103.90993
103.57617
102.9723
102.22393
101.27803
100.24504
99.140338
98.040342
96.953745
95.892558
94.902458
94.06983
93.363351
92.88605
92.601767
92.564736
102.51657
103.02604
103.36577
103.52363
103.43095
103.10493
102.58106
101.83447
100.95651
99.953963
98.924386
97.867167
96.841947
95.849253
95.005968
94.302387
93.798751
93.520339
93.482694
102.39584
102.72328
102.98228
103.19152
103.24162
103.12978
102.7909
102.23731
101.52343
100.64002
99.709565
98.693469
97.71324
96.742607
95.885201
95.186623
94.670788
94.408365
94.363638
102.68067
102.80108
102.94262
103.06684
103.1319
103.11138
102.91026
102.52105
101.95427
101.21766
100.38136
99.441271
98.506637
97.580831
96.717207
96.030688
95.503152
95.261993
95.229991
103.17389
103.15101
103.14737
103.16682
103.17341
103.15256
103.00966
102.73985
102.28908
101.6954
100.93855
100.11539
99.224416
98.354099
97.511657
96.832179
96.301213
96.067183
96.069595
103.70805
103.61423
103.50937
103.42096
103.35725
103.29522
103.14323
102.93625
102.56865
102.08783
101.43188
100.70456
99.881346
99.060218
98.252492
97.585599
97.07076
96.820371
96.869456
104.23859
104.08805
103.92369
103.77576
103.62929
103.50735
103.33054
103.13648
102.82706
102.41931
101.86538
101.21955
100.46443
99.697911
98.94277
98.291596
97.819649
97.539996
97.626771
104.69856
104.53815
104.34029
104.14911
103.95103
103.78207
103.5804
103.36569
103.07883
102.7216
102.24054
101.66966
100.99486
100.28071
99.586371
98.937481
98.518887
98.249258
98.314577
104.99019
104.88892
104.71953
104.51327
104.2893
104.0771
103.84832
103.62016
103.33793
103.0065
102.58001
102.06551
101.48586
100.79081
100.15771
99.544685
99.136436
98.92653
98.975476
105.22688
105.14261
105.00366
104.82609
104.60096
104.37625
104.13344
103.88191
103.59495
103.27448
102.90683
102.42262
101.90368
101.26073
100.66421
100.12213
99.706208
99.54342
99.598203
105.47747
105.36656
105.21452
105.05857
104.86787
104.64737
104.40373
104.14767
103.87377
103.5362
103.19432
102.75211
102.26453
101.71045
101.12569
100.64487
100.24318
100.09866
100.18352
105.60247
105.50654
105.36479
105.21817
105.05914
104.86186
104.64584
104.37622
104.11715
103.79217
103.43572
103.04494
102.58861
102.0969
101.54482
101.09662
100.74023
100.60495
100.72026
105.50743
105.50298
105.4277
105.31781
105.19685
105.02029
104.83966
104.59806
104.34129
104.06879
103.73497
103.35606
102.89793
102.4453
101.94523
101.51138
101.20179
101.07487
101.21364
105.0965
105.23292
105.3062
105.28584
105.22779
105.10217
104.94698
104.75267
104.49127
104.21303
103.88683
103.54943
103.14499
102.70469
102.2739
101.86825
101.59187
101.48953
101.64776
104.47595
104.73456
104.96233
105.08751
105.13377
105.1069
105.00715
104.87246
104.66585
104.4296
104.14085
103.80605
103.43445
102.99946
102.59077
102.21286
101.95549
101.8897
102.05346
103.98646
104.24805
104.52961
104.77407
104.92116
104.99405
104.97653
104.89008
104.73031
104.51545
104.24571
103.91916
103.58417
103.19757
102.80483
102.45435
102.23489
102.19526
102.37647
103.62885
103.85796
104.0956
104.35687
104.58884
104.7576
104.85031
104.85813
104.78536
104.63241
104.42819
104.15556
103.81739
103.44584
103.05536
102.7173
102.51302
102.5023
102.70093
103.30944
103.58662
103.85599
104.10343
104.34788
104.56169
104.7175
104.78117
104.76148
104.65296
104.46309
104.21333
103.90649
103.56083
103.20527
102.88947
102.70969
102.71704
102.91435
102.90504
103.17424
103.41929
103.6659
103.90774
104.156
104.38739
104.56268
104.65794
104.65862
104.56449
104.38242
104.11982
103.77573
103.40065
103.07028
102.89728
102.91498
103.13772
102.44728
102.89258
103.27387
103.58418
103.86323
104.12938
104.34457
104.51769
104.62558
104.65239
104.57663
104.41002
104.15767
103.83192
103.47527
103.15148
102.98266
103.04311
103.24979
101.50609
101.90613
102.32594
102.73176
103.12962
103.50105
103.83829
104.13208
104.37431
104.52847
104.58148
104.53437
104.37552
104.06807
103.66519
103.29251
103.058
103.09682
103.35184
86.807286
87.005896
87.379953
87.87186
88.479288
89.252088
90.173753
91.215712
92.385754
93.68402
95.084611
96.552489
98.1237
99.781003
101.45743
103.177
104.93208
106.72887
108.52092
87.833126
88.024013
88.397764
88.938122
89.589845
90.391281
91.310379
92.348495
93.51701
94.801185
96.172456
97.621672
99.142866
100.71803
102.30421
103.94081
105.60518
107.22546
108.85596
88.836729
89.062116
89.442187
90.000926
90.678876
91.489687
92.432384
93.474344
94.633159
95.897674
97.238357
98.660105
100.12362
101.61961
103.13936
104.67955
106.19472
107.68406
109.19798
89.828698
90.089388
90.500533
91.052112
91.748671
92.570497
93.515465
94.567793
95.706271
96.95428
98.260966
99.641674
101.06155
102.47558
103.89695
105.3083
106.73295
108.12253
109.4486
90.815445
91.086742
91.510889
92.08154
92.784389
93.622093
94.554668
95.602481
96.733479
97.955498
99.231127
100.56924
101.93316
103.27093
104.60341
105.8875
107.16662
108.45349
109.67664
91.789855
92.081104
92.513722
93.109152
93.810049
94.64634
95.577404
96.607245
97.726319
98.909941
100.14828
101.4195
102.72946
103.99891
105.216
106.38796
107.55718
108.69862
109.7856
92.7401
93.04917
93.485915
94.072451
94.795761
95.621962
96.558677
97.565276
98.652158
99.800678
100.99942
102.21927
103.43256
104.62256
105.77007
106.82485
107.86576
108.90302
109.92113
93.676541
93.993435
94.455852
95.033103
95.756224
96.575057
97.48618
98.481641
99.543935
100.64106
101.79148
102.95194
104.09599
105.18568
106.20781
107.19644
108.14352
109.07381
109.96504
94.582119
94.902041
95.354599
95.931145
96.663285
97.480841
98.3799
99.338434
100.36272
101.42079
102.51699
103.61288
104.66034
105.68757
106.62244
107.49767
108.35684
109.17617
109.96622
95.465397
95.799692
96.270607
96.850333
97.561478
98.33999
99.211864
100.15422
101.13013
102.14376
103.16169
104.19977
105.18406
106.09777
106.9496
107.75151
108.51441
109.26793
109.99047
96.304408
96.635356
97.096109
97.659034
98.347242
99.14924
99.993471
100.90581
101.84697
102.81647
103.77157
104.71897
105.62144
106.46467
107.24033
107.96567
108.65885
109.31586
109.94267
97.112552
97.450855
97.908923
98.490115
99.159796
99.928912
100.74242
101.61371
102.50589
103.40351
104.30092
105.18213
106.01714
106.79072
107.49932
108.1428
108.74209
109.31652
109.87957
97.876706
98.224906
98.667821
99.232718
99.878039
100.6171
101.41223
102.24177
103.09761
103.94194
104.78066
105.59503
106.3563
107.05924
107.69853
108.27926
108.81584
109.31216
109.80442
98.590236
98.940383
99.388048
99.937032
100.57227
101.28433
102.05749
102.84758
103.65309
104.43759
105.20913
105.95422
106.64855
107.28146
107.85561
108.36656
108.84288
109.29844
109.7256
99.279079
99.618343
100.06919
100.60211
101.21762
101.89848
102.63166
103.37857
104.12813
104.85471
105.56763
106.25124
106.89069
107.4765
107.99749
108.46168
108.88278
109.27389
109.63613
99.911155
100.24758
100.68901
101.2088
101.79776
102.44757
103.14583
103.86013
104.57234
105.25403
105.90908
106.5384
107.11938
107.64762
108.10655
108.50831
108.86582
109.20158
109.52318
100.50075
100.8376
101.26817
101.77304
102.33881
102.96475
103.62978
104.30563
104.96837
105.59746
106.18767
106.75577
107.28271
107.76211
108.1755
108.54751
108.88302
109.18354
109.45924
101.04033
101.37585
101.79487
102.28632
102.83437
103.43445
104.0589
104.68998
105.30261
105.89035
106.43878
106.95808
107.44333
107.89023
108.27393
108.60003
108.87842
109.12581
109.37002
101.53701
101.86809
102.27849
102.75602
103.28086
103.8518
104.43767
105.02974
105.60712
106.156
106.67016
107.14392
107.58106
107.9795
108.32052
108.60881
108.8557
109.07127
109.28343
101.97761
102.30476
102.70853
103.16789
103.67081
104.21552
104.77172
105.33774
105.88834
106.39492
106.86315
107.29267
107.69013
108.06058
108.37518
108.63929
108.86834
109.06552
109.25673
102.38415
102.70771
103.09988
103.55088
104.04121
104.56836
105.10622
105.63109
106.13273
106.5954
107.02651
107.43165
107.80789
108.14909
108.43958
108.67083
108.87534
109.05039
109.20849
102.71105
103.04006