/*--------------------------------*- C++ -*----------------------------------*\
  =========                 |
  \\      /  F ield         | OpenFOAM: The Open Source CFD Toolbox
   \\    /   O peration     | Website:  https://openfoam.org
    \\  /    A nd           | Version:  11
     \\/     M anipulation  |
\*---------------------------------------------------------------------------*/
FoamFile
{
    format      ascii;
    class       surfaceScalarField;
    location    "10.1";
    object      phi;
}
// * * * * * * * * * * * * * * * * * * * * * * * * * * * * * * * * * * * * * //

dimensions      [0 3 -1 0 0 0 0];

internalField   nonuniform List<scalar> 
10792
(
0.071525558
-0.044005364
-0.072135518
0.044615324
0.070892859
-0.041966977
0.042599676
0.070170247
-0.039949935
0.040672546
0.069407054
-0.037705429
0.038468622
0.068586864
-0.035594298
0.036414487
0.067654404
-0.033092831
0.034025291
0.066859694
-0.030951438
0.031746147
0.065964296
-0.028582711
0.029478108
0.065128088
-0.026179541
0.027015749
0.064401485
-0.02390293
0.024629532
0.063602976
-0.021349513
0.022148022
0.062926291
-0.018875994
0.019552678
0.062337673
-0.016396301
0.016984919
0.061775071
-0.013907056
0.014469658
0.061350539
-0.011284205
0.011708736
0.060977432
-0.0088977972
0.0092709035
0.0606918
-0.0062488686
0.0065345006
0.060547999
-0.0038279497
0.0039717504
-0.0012462138
0.060659451
0.0011347606
0.075543118
-0.043408839
-0.076139643
0.074880649
-0.041304508
0.074131458
-0.039200745
0.073383571
-0.036957543
0.072472775
-0.034683501
0.071692104
-0.032312161
0.070908234
-0.030167568
0.070038866
-0.027713344
0.069333857
-0.025474531
0.068507614
-0.023076687
0.067729983
-0.020571883
0.067108033
-0.018254044
0.066450126
-0.015738394
0.06592193
-0.01337886
0.065541988
-0.010904263
0.065175516
-0.0085313258
0.064984819
-0.006058172
0.064888733
-0.0037318645
-0.0012494986
0.064892017
0.080216494
-0.042769211
-0.080856122
0.079596521
-0.040684534
0.078862423
-0.038466647
0.078057632
-0.036152752
0.077255541
-0.03388141
0.076529942
-0.031586562
0.075669406
-0.029307032
0.074862176
-0.026906115
0.07404189
-0.024654245
0.07317354
-0.022208337
0.072456452
-0.019854796
0.071761651
-0.017559243
0.07110475
-0.015081493
0.0706048
-0.012878911
0.070110878
-0.010410341
0.0697243
-0.0081447483
0.069518602
-0.0058524745
0.069286739
-0.0035000013
-0.0012377613
0.069275002
0.084676646
-0.042175463
-0.085270394
0.084003794
-0.040011682
0.083200061
-0.037662914
0.082480563
-0.035433255
0.081741916
-0.033142763
0.08093887
-0.030783517
0.080094834
-0.028462996
0.079281272
-0.026092553
0.078468915
-0.023841888
0.077729513
-0.021468936
0.07705296
-0.019178243
0.076340408
-0.016846691
0.075764102
-0.014505187
0.075195479
-0.012310287
0.074749744
-0.0099646064
0.074426905
-0.00782191
0.074170856
-0.0055964254
0.074027468
-0.0033566134
-0.0012679391
0.074057646
0.089971118
-0.041613748
-0.090532833
0.089302775
-0.039343339
0.088638374
-0.036998513
0.08800097
-0.034795851
0.087201046
-0.032342839
0.086401476
-0.029983946
0.085530682
-0.027592202
0.084723967
-0.025285838
0.083918026
-0.023035947
0.083156206
-0.020707116
0.082397804
-0.018419841
0.081644789
-0.016093676
0.080993151
-0.01385355
0.080377179
-0.011694315
0.079940097
-0.0095275249
0.079567807
-0.0074496202
0.079326789
-0.0053554075
0.079216986
-0.0032468099
-0.0012552817
0.079204329
0.095294912
-0.041110322
-0.095798338
0.094601572
-0.038649999
0.093926458
-0.036323399
0.093098583
-0.033967976
0.09222525
-0.031469506
0.091403369
-0.029162065
0.090539388
-0.026728221
0.089778864
-0.024525315
0.088943014
-0.022200097
0.088195153
-0.019959256
0.087466714
-0.017691402
0.086802433
-0.015429395
0.086223244
-0.013274361
0.085676748
-0.011147819
0.085266229
-0.0091170066
0.084934954
-0.0071183453
0.084707198
-0.0051276514
0.084591062
-0.0031306736
-0.0012076686
0.084543449
0.10138501
-0.040450005
-0.10204533
0.10051748
-0.037782477
0.09982501
-0.035630924
0.098977399
-0.033120365
0.098295044
-0.030787151
0.097555282
-0.028422303
0.096777395
-0.025950333
0.095958688
-0.023706608
0.095098295
-0.021339704
0.094353848
-0.019214809
0.093608568
-0.016946122
0.092986971
-0.014807799
0.092351866
-0.012639255
0.091799792
-0.010595746
0.091318639
-0.0086358538
0.090912959
-0.0067126655
0.090629994
-0.0048446862
0.090522494
-0.003023173
-0.0012095411
0.090524367
0.10743428
-0.039572497
-0.10831178
0.10657589
-0.036924088
0.10584611
-0.034901152
0.10495965
-0.032233896
0.10422433
-0.030051834
0.10333257
-0.027530545
0.10253678
-0.025154546
0.10169196
-0.022861782
0.10090477
-0.02055252
0.10018917
-0.018499203
0.099499047
-0.016256002
0.098883045
-0.014191797
0.098238694
-0.011994903
0.097679756
-0.010036809
0.097171867
-0.0081279651
0.096819641
-0.006360439
0.096558281
-0.0045833257
0.09646919
-0.0029340826
-0.00116185
0.0964215
0.11432462
-0.038518813
-0.1153783
0.11357963
-0.036179104
0.11276734
-0.034088865
0.1119031
-0.031369652
0.11108898
-0.029237712
0.11015877
-0.026600341
0.10943642
-0.024432189
0.10859916
-0.022024526
0.10781935
-0.019772706
0.10697182
-0.017651674
0.10622842
-0.015512607
0.10558483
-0.013548202
0.10500282
-0.0114129
0.1045216
-0.0095555872
0.10407825
-0.0076846164
0.10377191
-0.0060540959
0.10353685
-0.0043482682
0.10342327
-0.0028205042
-0.0011397412
0.10340116
0.12152073
-0.037386698
-0.12265285
0.1206736
-0.03533197
0.11958895
-0.033004217
0.11873489
-0.030515594
0.11784749
-0.028350304
0.11703028
-0.025783133
0.11632924
-0.023731147
0.11551995
-0.021215239
0.11484822
-0.019100978
0.11403437
-0.016837828
0.11334644
-0.014824676
0.11266536
-0.012867118
0.11210977
-0.010857312
0.11157896
-0.0090247739
0.11109643
-0.0072020852
0.11070755
-0.0056652162
0.11042745
-0.0040681755
0.11030483
-0.0026978755
-0.0011306655
0.11029575
0.12976605
-0.036417821
-0.13073493
0.12884465
-0.034410575
0.12776164
-0.031921209
0.12695916
-0.029713107
0.12585551
-0.027246654
0.12497824
-0.024905867
0.12406576
-0.02281866
0.12326811
-0.020417598
0.12253259
-0.018365449
0.12175315
-0.016058398
0.12107692
-0.014148444
0.12030644
-0.012096633
0.1197465
-0.01029738
0.11917057
-0.0084488424
0.11875189
-0.0067834004
0.11834895
-0.0052622793
0.11809307
-0.0038122916
0.11792219
-0.0025269955
-0.0010973286
0.11788885
0.13817834
-0.035215294
-0.13938087
0.1370129
-0.033245131
0.13588916
-0.030797474
0.1349828
-0.028806744
0.13400281
-0.026266668
0.13323496
-0.02413801
0.13218991
-0.021773612
0.13140988
-0.01963757
0.13057294
-0.017528513
0.12986469
-0.015350147
0.12915222
-0.013435976
0.12845829
-0.011402695
0.1278791
-0.0097181925
0.12727335
-0.0078430907
0.12687497
-0.0063850239
0.12649053
-0.0048778361
0.12628472
-0.0036064806
0.12611072
-0.0023529985
-0.001091505
0.1261049
0.14758074
-0.034042308
-0.14875372
0.14625752
-0.031921912
0.14511905
-0.029659002
0.14399167
-0.027679372
0.14297286
-0.025247851
0.14205092
-0.023216076
0.14103842
-0.020761113
0.14022538
-0.018824529
0.13923689
-0.016540025
0.13854498
-0.014658234
0.1377507
-0.012641691
0.13715671
-0.010808707
0.13650228
-0.0090637634
0.13598479
-0.0073255984
0.1355591
-0.0059593354
0.13518964
-0.0045083794
0.13494886
-0.0033657025
0.13478233
-0.0021864628
-0.0010324249
0.13472325
0.15786849
-0.032817682
-0.15909312
0.15640075
-0.030454176
0.15524634
-0.02850459
0.15390651
-0.026339536
0.15278472
-0.024126061
0.15166957
-0.022100927
0.15071497
-0.01980652
0.14981839
-0.017927943
0.14887948
-0.015601113
0.14811478
-0.013893542
0.14727102
-0.011797923
0.14665131
-0.010189005
0.14596002
-0.0083724706
0.14547996
-0.0068455369
0.14496619
-0.0054455701
0.14465971
-0.0042018988
0.14439168
-0.0030976702
0.14427597
-0.002070755
-0.00097912909
0.14422268
0.16844841
-0.031289834
-0.16997626
0.16702087
-0.029026631
0.16567839
-0.027162118
0.16417708
-0.02483822
0.16297947
-0.022928456
0.16167108
-0.020792541
0.16069012
-0.018825559
0.15958159
-0.016819411
0.15872897
-0.014748488
0.15786902
-0.013033595
0.1571437
-0.011072604
0.15648423
-0.0095295331
0.15585599
-0.0077442341
0.15537796
-0.0063675085
0.15483356
-0.0049011691
0.15449795
-0.0038662885
0.1541635
-0.0027632227
0.15402236
-0.0019296162
-0.0009233257
0.15396656
0.18019294
-0.029464228
-0.18201855
0.17870227
-0.027535964
0.17722184
-0.025681682
0.1758788
-0.023495183
0.1746309
-0.021680556
0.17333207
-0.01949371
0.17226966
-0.017763144
0.17109553
-0.015645288
0.17025641
-0.013909365
0.16920744
-0.011984622
0.1684608
-0.010325965
0.16765785
-0.0087265876
0.16711486
-0.0072012376
0.166564
-0.0058166497
0.16612943
-0.0044665959
0.16577267
-0.0035095343
0.16546747
-0.0024580228
0.16530317
-0.0017653163
-0.00082504123
0.16520489
0.19264358
-0.027601794
-0.19450601
0.19093722
-0.025829612
0.18920687
-0.023951325
0.18770184
-0.021990157
0.18619049
-0.020169205
0.18486812
-0.018171345
0.18364309
-0.016538108
0.1825252
-0.014527399
0.18155184
-0.012936009
0.18053567
-0.01096845
0.17974673
-0.0095370236
0.17890488
-0.0078847394
0.17836448
-0.0066608343
0.17776543
-0.005217604
0.17744312
-0.0041442881
0.17698486
-0.0030512707
0.1767388
-0.0022119662
0.17646282
-0.0014893333
-0.00077454843
0.17641233
0.20647406
-0.02564682
-0.20842904
0.20459793
-0.023953479
0.20283735
-0.022190742
0.20124539
-0.020398196
0.19968281
-0.018606626
0.19834294
-0.016831474
0.19698135
-0.015176522
0.19586316
-0.01340921
0.19474896
-0.011821811
0.19381489
-0.010034372
0.19291907
-0.0086412052
0.19213848
-0.0071041536
0.19150046
-0.0060228134
0.19095645
-0.004673589
0.19055578
-0.0037436245
0.19010385
-0.0025993357
0.18986204
-0.0019701574
0.1894848
-0.0011120984
-0.00062303043
0.18933328
0.22100747
-0.023438014
-0.22321628
0.21890857
-0.021854584
0.216979
-0.020261166
0.21517412
-0.018593316
0.21347951
-0.016912022
0.21192687
-0.015278826
0.21043098
-0.013680639
0.20916385
-0.012142073
0.20796032
-0.010618285
0.20697704
-0.009051091
0.20601168
-0.0076758489
0.20520397
-0.0062964459
0.20443994
-0.0052587822
0.20392716
-0.0041608021
0.20346178
-0.0032782508
0.20319876
-0.0023363099
0.20295614
-0.0017275452
0.20279713
-0.000953083
-0.00055027351
0.20272437
0.23670167
-0.021200955
-0.23893872
0.23461828
-0.019771199
0.23267171
-0.018314599
0.23080118
-0.016722785
0.22905455
-0.015165394
0.22740302
-0.013627294
0.22588776
-0.012165376
0.22450721
-0.010761523
0.22325795
-0.0093690241
0.22218709
-0.007980229
0.22124685
-0.0067356097
0.22041564
-0.0054652409
0.21959981
-0.0044429471
0.21894557
-0.003506565
0.21835118
-0.0026838564
0.21802655
-0.0020116875
0.21771842
-0.001419411
0.21760155
-0.00083621992
-0.00042991269
0.21748119
0.25333196
-0.018699149
-0.25583377
0.251014
-0.017453237
0.24880834
-0.016108939
0.24677378
-0.014688224
0.24490734
-0.013298955
0.24318435
-0.011904307
0.2415705
-0.010551528
0.24009774
-0.0092887555
0.23878115
-0.0080524391
0.23765341
-0.0068524911
0.23673154
-0.0058137318
0.23595176
-0.0046854626
0.23526216
-0.0037533532
0.23462321
-0.0028676108
0.23408234
-0.0021429911
0.23368034
-0.001609684
0.23335439
-0.0010934671
0.23322086
-0.00070268784
-0.00036556867
0.23315652
0.27142067
-0.01627506
-0.27384476
0.26908296
-0.015115534
0.26680618
-0.013832152
0.26474483
-0.01262688
0.26278659
-0.011340709
0.26099832
-0.010116036
0.25930771
-0.0088609223
0.25776079
-0.0077418348
0.25631614
-0.0066077873
0.25506275
-0.0055991053
0.25397135
-0.0047223355
0.25310768
-0.0038217908
0.25244068
-0.0030863555
0.25185884
-0.0022857698
0.25139335
-0.0016775011
0.25100157
-0.0012178975
0.25071101
-0.00080291265
0.25050067
-0.00049234115
-0.0002479208
0.25038302
0.29027929
-0.013656731
-0.29289762
0.28777916
-0.012615402
0.28541233
-0.011465323
0.28323342
-0.010447979
0.28124417
-0.009351456
0.279491
-0.0083628622
0.27788288
-0.0072528052
0.27638666
-0.006245611
0.27502478
-0.0052459147
0.27378433
-0.0043586468
0.27267256
-0.0036105676
0.27172001
-0.0028692446
0.2709343
-0.0023006458
0.27034803
-0.0016994963
0.26986086
-0.0011903344
0.26949338
-0.00085042014
0.26918023
-0.00048976296
0.26901523
-0.00032734026
-0.00016804939
0.26893536
0.31122609
-0.010887076
-0.31399575
0.30854246
-0.0099317651
0.3060335
-0.0089563718
0.3036127
-0.0080271703
0.30138232
-0.0071210818
0.29935451
-0.0063350478
0.29759472
-0.0054930143
0.29607464
-0.004725537
0.29473667
-0.0039079417
0.29355412
-0.0031760953
0.2924885
-0.0025449525
0.29156757
-0.0019483111
0.29082202
-0.0015550997
0.29021515
-0.001092625
0.28982734
-0.00080252513
0.28953053
-0.00055360351
0.28937484
-0.00033407573
0.28928642
-0.00023892699
-9.3698897e-05
0.28921208
0.33300936
-0.0078972295
-0.33599921
0.33021471
-0.0071371091
0.32763965
-0.006381318
0.32525675
-0.0056442725
0.32307
-0.0049343313
0.32104318
-0.0043082274
0.31922827
-0.0036781055
0.31765944
-0.0031566992
0.31630023
-0.0025487382
0.31518581
-0.0020616766
0.3142326
-0.0015917426
0.31344391
-0.001159616
0.31279109
-0.00090228215
0.31224566
-0.00054719201
0.31183926
-0.00039612613
0.31147457
-0.00018891454
0.31126523
-0.00012474079
0.3111333
-0.00010699091
-2.5668938e-05
0.31106527
0.35720995
-0.0042310866
-0.3608761
0.35393762
-0.0038647713
0.35100047
-0.0034441696
0.34835649
-0.0030002949
0.34601316
-0.002591001
0.34390037
-0.0021954394
0.34207946
-0.0018571936
0.34046526
-0.0015425042
0.33914362
-0.0012270908
0.33804703
-0.00096509036
0.33715951
-0.00070422148
0.33649993
-0.00050004229
0.3359582
-0.0003605499
0.33561705
-0.00020603652
0.33535882
-0.00013790271
0.33516216
7.7466717e-06
0.33510312
-6.5701103e-05
0.33500452
-8.3866098e-06
-0.00012666336
0.33510551
0.38440156
-0.38863265
0.38053679
0.37709262
0.37409232
0.37150132
0.36930588
0.36744869
0.36590618
0.36467909
0.363714
0.36300978
0.36250974
0.36214919
0.36194315
0.36180525
0.361813
0.3617473
0.36173891
0.36161225
0.060927292
0.001024455
-0.001292296
0.061366512
0.0038012571
-0.0042404768
0.062079798
0.0058059813
-0.0065192677
0.063094656
0.0085217274
-0.0095365864
0.064282674
0.010771378
-0.011959396
0.06582166
0.013233603
-0.01477259
0.067425761
0.015475653
-0.017079753
0.069464148
0.017912119
-0.019950508
0.071619507
0.0199162
-0.022071559
0.074019264
0.022574913
-0.024974671
0.076732124
0.024373048
-0.027085908
0.079457592
0.026808441
-0.029533909
0.082655165
0.028499593
-0.031697166
0.08571651
0.030530186
-0.033591531
0.089428997
0.031997175
-0.035709662
0.093060191
0.033941796
-0.037572991
0.097407691
0.03504199
-0.03938949
0.10162118
0.036731322
-0.040944811
0.037600527
0.10661062
-0.042589973
0.064993099
0.00092337263
0.065606783
0.003187573
0.066319382
0.0050933813
0.067403138
0.0074379709
0.068775526
0.0093989895
0.070414111
0.011595017
0.072161615
0.013728149
0.074355027
0.015718707
0.076470511
0.017800715
0.079107233
0.019938191
0.081721103
0.021759177
0.084669652
0.023859892
0.087684508
0.025484737
0.090836442
0.027378251
0.094155629
0.028677988
0.097628392
0.030469033
0.10127331
0.031397069
0.10497346
0.033031172
0.033471004
0.10910298
0.069390708
0.0008076667
0.069949278
0.002629003
0.070699937
0.0043427226
0.07181425
0.0063236586
0.073197957
0.0080152824
0.07480755
0.0099854237
0.076730766
0.011804932
0.078820745
0.013628728
0.081101603
0.015519856
0.083630156
0.017409637
0.086218779
0.019170553
0.089048936
0.021029735
0.091933046
0.022600626
0.094958854
0.024352443
0.097926094
0.025710748
0.10113528
0.027259847
0.10409268
0.028439672
0.10736147
0.029762377
0.03045012
0.11038236
0.074242669
0.00062264332
0.074863479
0.0020081924
0.075652987
0.003553215
0.076865018
0.0051116267
0.078220642
0.0066596584
0.079884136
0.0083219289
0.081826962
0.0098621053
0.083799489
0.011656201
0.086096044
0.0132233
0.088405607
0.015100073
0.090972788
0.016603372
0.093578383
0.01842414
0.096282589
0.019896418
0.098941828
0.021693204
0.10152396
0.023128613
0.10410427
0.024679542
0.10649251
0.026051433
0.10870728
0.027547599
0.028373873
0.11078353
0.079393444
0.00043352901
0.079973842
0.0014277946
0.080758055
0.0027690025
0.08197181
0.003897872
0.083299845
0.0053316235
0.084997706
0.0066240682
0.086833805
0.0080260061
0.088840563
0.009649441
0.091079539
0.010984323
0.093259378
0.012920234
0.095574381
0.014288368
0.097756346
0.016242174
0.099934471
0.017718293
0.10204642
0.019581258
0.10395075
0.021224284
0.10581407
0.022816218
0.10722504
0.024640467
0.10845218
0.026320453
0.027659748
0.10916631
0.084814284
0.00016269363
0.085316813
0.00092526561
0.086172196
0.0019136195
0.087381696
0.0026883711
0.088747743
0.003965576
0.090494188
0.0048776224
0.092205739
0.0063144543
0.094277863
0.0075773146
0.096176124
0.0090860608
0.098362589
0.010733767
0.10029852
0.012352437
0.10224987
0.014290824
0.10394015
0.016028006
0.10543786
0.018083555
0.10654826
0.020113885
0.10732795
0.022036522
0.10738243
0.024585984
0.1072502
0.026452688
0.028856139
0.10605381
0.090727103
-4.0041966e-05
0.091280785
0.00037158408
0.092178141
0.001016264
0.093297618
0.0015688953
0.094665249
0.0025979444
0.096249835
0.0032930357
0.097903066
0.0046612212
0.099752734
0.0057276455
0.10140324
0.0074355543
0.10329107
0.0088459389
0.10464846
0.010995043
0.10620541
0.012733867
0.10711199
0.015121434
0.10798456
0.01721098
0.10814421
0.019954234
0.10792795
0.02225278
0.1068588
0.025655139
0.10525651
0.028054972
0.031892489
0.10222016
0.096747607
-0.00036614928
0.097239363
-0.00012017178
0.098156975
9.8651275e-05
0.099247292
0.00047857768
0.10066899
0.0011762455
0.10220265
0.001759371
0.10381701
0.0030468659
0.10546304
0.0040816133
0.10694822
0.005950364
0.10838552
0.0074086359
0.10947304
0.009907532
0.11038126
0.011825646
0.11060021
0.014902482
0.11051477
0.017296415
0.10946234
0.021006667
0.10803222
0.0236829
0.10551327
0.028174091
0.10231458
0.031253654
0.036423356
0.097783719
0.10363775
-0.0006027371
0.10408892
-0.00057133459
0.10501379
-0.00082622513
0.10589797
-0.00040559778
0.10730222
-0.00022800596
0.10851694
0.00054464917
0.11000761
0.0015561947
0.11124191
0.0028473086
0.11242733
0.0047649419
0.11330503
0.006530941
0.11386434
0.0093482193
0.11404935
0.011640631
0.11367984
0.015271993
0.11269714
0.018279112
0.11090801
0.022795805
0.1083358
0.026255109
0.10470231
0.031807576
0.10044631
0.035509653
0.04183176
0.095037909
0.11055348
-0.00086047086
0.11110582
-0.0011236724
0.11193162
-0.0016520265
0.11295728
-0.0014312545
0.11428228
-0.0015530145
0.11534579
-0.0005188632
0.116736
0.00016598128
0.11752904
0.0020542651
0.11855252
0.0037414643
0.11876549
0.0063179693
0.11893046
0.0091832511
0.11815325
0.012417838
0.11693098
0.016494265
0.1148117
0.020398386
0.11216808
0.025439433
0.10853936
0.029883822
0.10447605
0.035870889
0.09959831
0.040387394
0.047492216
0.093937853
0.11804584
-0.0010174606
0.11849806
-0.0015758902
0.11921994
-0.0023739075
0.12017534
-0.0023866588
0.1211469
-0.0025245784
0.12218891
-0.0015608657
0.12313506
-0.00078017956
0.12364812
0.0015412057
0.12417813
0.003211449
0.12389077
0.0066053321
0.12361729
0.0094567323
0.1220418
0.013993326
0.12040821
0.018127851
0.11747098
0.023335615
0.11437986
0.028530559
0.11012362
0.034140061
0.10584588
0.040148623
0.10056934
0.045663936
0.052824982
0.095236576
0.12624329
-0.0011558553
0.12681374
-0.0021463406
0.12748959
-0.0030497612
0.12834988
-0.0032469485
0.12914923
-0.0033239316
0.13006585
-0.0024774875
0.13060238
-0.0013167084
0.13093311
0.0012104669
0.13071362
0.0034309452
0.12990585
0.0074130926
0.12867154
0.010691045
0.12653343
0.016131436
0.12431395
0.020347326
0.12083677
0.026812803
0.11747079
0.031896535
0.11290232
0.03870853
0.10874073
0.044310214
0.10351857
0.050886093
0.057867006
0.098476549
0.13477181
-0.0012044149
0.13524368
-0.0026182128
0.13572645
-0.0035325357
0.13647912
-0.0039996169
0.13702361
-0.0038684218
0.13763638
-0.0030902653
0.13783097
-0.0015112926
0.1379748
0.0010666294
0.13726787
0.0041378724
0.13627968
0.0084012877
0.13445832
0.012512403
0.13218347
0.018406285
0.12922161
0.023309189
0.12556389
0.030470519
0.12203488
0.03542555
0.11764021
0.043103202
0.11405555
0.047894869
0.10942375
0.0555179
0.061017774
0.10627298
0.14429129
-0.0012730271
0.14464302
-0.0029699497
0.14516186
-0.0040513712
0.14579197
-0.0046297347
0.14615259
-0.0042290383
0.14641938
-0.0033570591
0.1460713
-0.001163216
0.14564117
0.0014967594
0.14442723
0.0053518209
0.14317165
0.0096568616
0.14091376
0.014770289
0.13848431
0.020835741
0.13518852
0.026604979
0.13213045
0.03352859
0.12891993
0.038636071
0.12581894
0.046204183
0.12379409
0.049919728
0.12207952
0.057232462
0.059047992
0.12404931
0.15410212
-0.001408586
0.15431493
-0.0031827583
0.15472154
-0.004457983
0.15520577
-0.0051139646
0.15553116
-0.004554428
0.15555149
-0.0033773875
0.15503883
-0.00065055745
0.15434723
0.0021883548
0.15289015
0.0068089057
0.15127719
0.011269822
0.14860149
0.01744599
0.1461098
0.023327431
0.14315127
0.029563502
0.14116456
0.035515299
0.13910866
0.040691979
0.13876145
0.04655139
0.1397556
0.04892558
0.14363711
0.053350956
0.050871851
0.15181325
0.16532162
-0.0015253229
0.16534343
-0.0032045635
0.16552093
-0.0046354896
0.16560334
-0.0051963774
0.16557022
-0.0045213002
0.16520335
-0.003010521
0.16458644
-3.3643207e-05
0.16355758
0.0032172112
0.16194696
0.0084195342
0.16007856
0.013138219
0.15766882
0.019855727
0.15591786
0.025078392
0.15420896
0.031272409
0.15389723
0.035827028
0.15419888
0.040390329
0.15750075
0.04324952
0.16245706
0.043969274
0.17146362
0.04434439
0.039123123
0.18321235
0.17656627
-0.0016792684
0.17673823
-0.0033765251
0.17696992
-0.0048671769
0.17690751
-0.0051339706
0.17667993
-0.0042937154
0.17613225
-0.0024628401
0.17538475
0.00071385661
0.17400702
0.004594942
0.17234384
0.010082718
0.17045616
0.015025905
0.16883862
0.021473263
0.16808443
0.025832586
0.1679909
0.03136594
0.16972456
0.034093365
0.17303535
0.037079545
0.17965704
0.036627829
0.18766825
0.035958066
0.19894425
0.033068387
0.028035587
0.21003179
0.18904095
-0.0013869299
0.18910354
-0.0034391249
0.18907598
-0.0048396171
0.18885709
-0.004915071
0.18849646
-0.0039330898
0.18779874
-0.0017651195
0.18691108
0.0016015167
0.18550252
0.0060035116
0.18424681
0.011338424
0.1829539
0.016318817
0.1826695
0.021757668
0.18330079
0.0252013
0.18538898
0.029277751
0.18953981
0.029942531
0.195675
0.030944361
0.20406873
0.028234101
0.21284059
0.027186207
0.22292771
0.022981263
0.020875393
0.2300879
0.2026078
-0.0012703549
0.20267395
-0.0035052792
0.20235196
-0.0045176213
0.20206215
-0.0046252605
0.20160205
-0.0034729883
0.20085751
-0.0010205849
0.19980973
0.0026493042
0.19846943
0.0073438188
0.19768889
0.012118965
0.19724035
0.016767362
0.19831625
0.020681764
0.20033759
0.023179959
0.20438161
0.025233739
0.20999155
0.024332587
0.21724198
0.023693933
0.22507128
0.0204048
0.23236299
0.019894504
0.23901516
0.016329084
0.018153927
0.24173663
0.21743107
-0.001220235
0.217221
-0.0032952033
0.21689491
-0.0041915323
0.21657791
-0.0043082643
0.21594062
-0.0028356962
0.21509645
-0.00017640669
0.21423676
0.0035089904
0.21360231
0.0079782765
0.21360436
0.012116921
0.21453353
0.015838186
0.21697494
0.018240362
0.22030404
0.019850859
0.22582777
0.019710014
0.23171668
0.018443674
0.23845126
0.016959353
0.24416977
0.014686291
0.24869057
0.015373709
0.25084116
0.014178493
0.019803059
0.24919203
0.23319867
-0.0012623848
0.23278903
-0.0028855652
0.23254096
-0.003943463
0.2318881
-0.0036553967
0.23112657
-0.0020741627
0.23044607
0.00050409232
0.22972061
0.0042344501
0.22957738
0.0081215135
0.23032643
0.011367871
0.2324129
0.013751716
0.2354924
0.01516087
0.23979721
0.015546048
0.24528923
0.014218
0.25012703
0.013605871
0.255256
0.011830382
0.25788781
0.012054484
0.2589569
0.014304623
0.2564657
0.016669694
0.025084664
0.25118409
0.25016983
-0.0010491948
0.25000475
-0.0027204827
0.24977171
-0.0037104267
0.2492378
-0.0031214893
0.24883937
-0.0016757222
0.2481911
0.0011523635
0.24805209
0.0043734596
0.24875883
0.0074147747
0.25052246
0.0096042442
0.2533352
0.010938981
0.25682034
0.011675724
0.26133274
0.01103365
0.26540763
0.010143112
0.26914147
0.0098720366
0.27137961
0.0095922377
0.27034682
0.013087275
0.26810818
0.016543271
0.26278138
0.021996489
0.0301209
0.25774514
0.2687214
-0.00083523526
0.26841236
-0.0024114418
0.2676017
-0.0028997579
0.26689614
-0.0024159277
0.26639339
-0.0011729732
0.26618224
0.0013635102
0.26666847
0.0038872369
0.267833
0.0062502478
0.26994174
0.0074955013
0.27276982
0.008110899
0.27621361
0.0082319448
0.2799244
0.0073228539
0.28255085
0.0075166675
0.28452519
0.0078977004
0.28337492
0.010742503
0.28139675
0.015065445
0.27895473
0.018985297
0.27569673
0.025254488
0.029396578
0.27642105
0.28924777
-0.00087093525
0.28901026
-0.0021739211
0.288631
-0.0025205071
0.28830799
-0.0020929145
0.28788649
-0.00075146591
0.28813634
0.0011136617
0.28900234
0.003021234
0.29063699
0.0046156064
0.29287572
0.0052567642
0.29552058
0.0054660466
0.2985047
0.005247824
0.30066268
0.0051648796
0.30179853
0.0063808117
0.30117333
0.0085229015
0.29940023
0.012515607
0.29890492
0.01556075
0.2984624
0.019427819
0.30155216
0.022164733
0.021829552
0.30911918
0.31091347
-0.00071913932
0.3102342
-0.0014946511
0.3092698
-0.0015561004
0.30853665
-0.0013597625
0.30840087
-0.0006156833
0.30877797
0.00073656443
0.309699
0.0021001992
0.31141734
0.0028972699
0.31337181
0.0033022966
0.31547015
0.003367703
0.31745554
0.0032624349
0.3187724
0.0038480268
0.31962354
0.0055296707
0.32006666
0.0080797796
0.32188051
0.010701761
0.32490772
0.012533539
0.32984709
0.014488446
0.33832401
0.013687815
0.013085909
0.34706766
0.3352145
-0.00082812492
0.33491332
-0.001193476
0.33456449
-0.0012072599
0.33442166
-0.0012169364
0.33461536
-0.0008093833
0.33528632
6.5603911e-05
0.33657448
0.00081204619
0.33807285
0.0013988997
0.33966477
0.0017103798
0.34121237
0.0018200975
0.34216489
0.0023099195
0.34290795
0.0031049715
0.3439124
0.0045252153
0.34635073
0.0056414528
0.35007488
0.0069776135
0.3551853
0.0074231142
0.36226109
0.0074126564
0.36991204
0.0060368673
0.0059417907
0.37705616
0.36078412
0.35959065
0.35838339
0.35716645
0.35635707
0.35642267
0.35723472
0.35863362
0.360344
0.3621641
0.36447402
0.36757899
0.3721042
0.37774566
0.38472327
0.39214639
0.39955904
0.40559591
0.4115377
0.10485487
0.045595452
-0.0438397
0.10352795
0.046337375
-0.045010454
0.10240867
0.047213965
-0.046094689
0.10161763
0.047691177
-0.046900138
0.1011046
0.047460796
-0.046947767
0.1007332
0.048062556
-0.047691152
0.10121459
0.047060635
-0.047542029
0.10175786
0.045687447
-0.046230717
0.10264261
0.04557112
-0.046455864
0.10455988
0.043948168
-0.045865443
0.10657636
0.041396578
-0.043413059
0.10873989
0.039982147
-0.04214568
0.11185694
0.038892146
-0.042009187
0.1159501
0.036565547
-0.04065871
0.12003041
0.034344061
-0.038424377
0.12389386
0.032884228
-0.036747674
0.12753328
0.03267751
-0.036316932
0.13068428
0.032960034
-0.036111033
0.034216081
0.13193572
-0.035467521
0.10689512
0.047803317
0.10493566
0.048296837
0.10315872
0.048990898
0.10209157
0.048758332
0.10077919
0.048773173
0.10041235
0.048429399
0.10031614
0.047156841
0.10013322
0.045870366
0.10128862
0.044415717
0.10298961
0.042247182
0.10456456
0.039821625
0.10691222
0.037634486
0.1108999
0.034904467
0.11499931
0.03246614
0.11894729
0.030396085
0.12279903
0.029032482
0.12733928
0.028137261
0.13318191
0.027117404
0.027933127
0.13946486
0.10779407
0.050391601
0.10501654
0.051074365
0.10304006
0.050967377
0.10085709
0.050941303
0.099369313
0.050260952
0.098297955
0.049500756
0.097139191
0.048315605
0.097004876
0.046004681
0.097292418
0.044128174
0.098082203
0.041457398
0.10037595
0.037527878
0.10319307
0.034817366
0.10651893
0.031578602
0.11079666
0.028188416
0.11728405
0.023908693
0.1258246
0.020491927
0.13579034
0.018171528
0.14530243
0.017605312
0.01980582
0.15342974
0.10710237
0.054072758
0.10389903
0.054277712
0.10075066
0.054115741
0.097969749
0.053722217
0.095645707
0.052584993
0.093352935
0.051793528
0.092097853
0.049570688
0.090534308
0.047568225
0.090211733
0.044450749
0.091682371
0.03998676
0.092762749
0.036447499
0.095404558
0.032175557
0.10106526
0.0259179
0.10910333
0.020150341
0.11780839
0.015203634
0.12594213
0.01235819
0.13278962
0.011324033
0.13799611
0.012398822
0.016121251
0.14168068
0.10480523
0.058433836
0.10077588
0.058307063
0.096550405
0.058341213
0.093077931
0.05719469
0.089134154
0.056528769
0.08635562
0.054572062
0.083138243
0.052788064
0.081129888
0.049576581
0.080594522
0.044986114
0.079149628
0.041431654
0.079909089
0.035688038
0.085186528
0.026898118
0.090111003
0.020993424
0.091945097
0.018316248
0.0900581
0.017090631
0.084709774
0.017706515
0.077056715
0.018977092
0.068767454
0.020688083
0.024732088
0.060156616
0.10093587
0.063551778
0.095480258
0.063762671
0.090340447
0.063481024
0.085199589
0.062335548
0.08009884
0.061629517
0.075140588
0.059530315
0.070328624
0.057600028
0.066981068
0.052924136
0.061775349
0.050191834
0.058260186
0.044946816
0.058357189
0.035591035
0.057526039
0.027729268
0.051535274
0.026984189
0.040558637
0.029292884
0.026698601
0.030950666
0.011214744
0.033190372
-0.0055539494
0.035745785
-0.023579974
0.038714108
0.043102729
-0.041950615
0.095840605
0.069931336
0.089070351
0.070532925
0.082463851
0.070087523
0.075193256
0.069606143
0.068143904
0.068678868
0.060291963
0.067382256
0.052997346
0.064894644
0.044057186
0.061864296
0.035512254
0.058736765
0.030271759
0.050187311
0.022057888
0.043804905
0.01041571
0.039371446
-0.0037235769
0.041123475
-0.019905907
0.045475214
-0.037641801
0.04868656
-0.056082492
0.051631063
-0.074908527
0.054571819
-0.094751516
0.058557097
0.063249599
-0.11489839
0.090155131
0.077559924
0.082301116
0.078386939
0.074113386
0.078275253
0.065220867
0.078498661
0.055944294
0.077955441
0.045423029
0.077903521
0.03397641
0.076341262
0.020965819
0.074874887
0.01232389
0.067378694
0.0034472562
0.059063945
-0.012048914
0.059301075
-0.03081547
0.058138002
-0.050377535
0.06068554
-0.068719897
0.063817576
-0.086988811
0.066955474
-0.10518893
0.069831185
-0.12305427
0.072437154
-0.14003221
0.075535038
0.079046124
-0.15582873
0.086204972
0.086392861
0.077347156
0.087244755
0.067933718
0.087688691
0.058171725
0.088260654
0.047745755
0.088381411
0.036650571
0.088998705
0.023852832
0.089139002
0.010981888
0.087745831
0.0017351427
0.076625439
-0.011654864
0.072453951
-0.029875957
0.077522168
-0.051804335
0.080066381
-0.074693443
0.083574647
-0.095960367
0.085084501
-0.115267
0.086262108
-0.13245116
0.087015339