/*--------------------------------*- C++ -*----------------------------------*\
  =========                 |
  \\      /  F ield         | OpenFOAM: The Open Source CFD Toolbox
   \\    /   O peration     | Website:  https://openfoam.org
    \\  /    A nd           | Version:  11
     \\/     M anipulation  |
\*---------------------------------------------------------------------------*/
FoamFile
{
    format      ascii;
    class       volScalarField;
    location    "0.1975";
    object      T;
}
// * * * * * * * * * * * * * * * * * * * * * * * * * * * * * * * * * * * * * //

dimensions      [0 0 0 1 0 0 0];

internalField   nonuniform List<scalar> 
880
(
500
500.0000000093881
500.0009212818696
500.4604192424225
500.0000000000001
500.0000000252811
500.0020273483982
500.9711184400412
500.0000000000002
500.0000001846238
500.0059130550767
502.0052932834324
500.0000000000559
499.9999999273209
500.0184124884223
503.7789950008468
499.9999999992114
500.0000000036631
499.999999854599
500.0000118118371
500.0000003201037
500.0000052648752
500.0002208559872
500.0004858771562
500.0602397066307
500.1192191639379
500.2758513947502
500.1004772642582
508.3705919967081
513.7040284110528
518.1754570489551
520.3415917559131
500.000095535241
500.0003754159675
500.0020206309388
500.0040482102813
500.0040639035305
500.0120978251352
500.0299404950608
500.0482360698456
500.8050439031521
501.4342949827013
502.1428686391646
502.8992486184069
522.7453922215653
525.6242291517975
527.5793096414499
527.9550247403096
520.6030200494264
517.1376235881344
516.1651437323657
515.1120589149913
505.6069697122855
506.7522614494204
507.6860710391227
507.8116056118859
500.1843921481774
500.366149168028
500.5668320135741
500.7430175854853
500.0144653221098
500.0388941255813
500.081670584027
500.1226766990148
500.1436609122384
500.1400208389029
500.1182166420718
500.0879552975375
500.8968068940786
500.9972712902281
500.9537433378359
500.844225508041
507.6530621072386
507.3388005675489
506.6639519569528
505.8278855265384
513.8350843105839
512.5240843252064
511.7167999120123
510.7632908508252
509.5237938653653
505.0519800269006
500.7028021743012
500.0558279868536
507.8108625470238
504.0814752622667
500.534300519933
500.0300984257271
513.4945844422539
503.1657760035437
500.3036937675932
500.007593585555
545.0050103964503
503.7179782437755
500.1475108103586
500.0013436344719
500.0024661500238
500.0955347645785
507.129376452496
588.1695637298
500.0095541718997
500.1944577304876
511.5278236914673
596.743788986003
500.0279687591784
500.4544561346798
518.7812967046792
606.0271308130319
500.0744991487595
501.0532747660762
528.1512290826663
612.5552152392371
618.8801213194001
539.5099319947018
502.10547754706
500.162605445861
623.0451713878881
552.0714931739207
503.9851698380792
500.3323345608225
626.5975991416173
564.9410910375075
506.8707220352098
500.594230773301
627.4226498835212
574.8335976223661
511.15888957954
501.0469554587289
501.7251768740828
516.3829867413991
580.5690877660629
622.5088899359041
502.2219830403143
516.1418415600488
568.2743498745238
605.7436354103835
502.4986569631602
512.3345074985306
552.2081893929094
583.1753138170915
501.3113113061241
507.4279748918749
532.3567519624875
551.6783874330604
501.6366188497379
507.8030492981472
520.0550506497244
518.6261165205653
501.338234160241
504.6355906220521
508.0299499093685
484.7028582020656
500.6680257507776
503.296407604382
507.5497117121591
485.2126077450632
500.2431037975646
502.519499298375
510.8785615547046
528.8976459309467
546.0622229908054
509.5491616383781
501.0845040183061
499.9682671732705
536.7440745544003
508.1274473207928
499.9442240437324
499.9043689327735
529.7198037844025
505.4414844211821
499.3023658716269
499.8610687616637
516.938433390376
500.2652895565932
498.704132753454
499.8671720231651
499.5783664458402
495.6155485747971
498.7244747295463
499.9465992245428
480.1287631328767
494.0349397100921
499.2545954465979
499.9846219211701
465.3453435181393
493.4339292774816
499.5640136104626
499.9940684724028
465.2741418532939
494.6668571787262
499.8558978837393
499.9977638500143
489.5112358591282
496.4632843084377
499.3625265475347
499.9755624325313
483.9035756014112
495.9020117063132
499.4468001775307
499.9812211871294
477.570176950187
494.9460429425403
499.5084132368474
499.986111270137
471.3039575506251
493.8930175646262
499.515787556363
499.9887242565119
465.274141853233
494.6668571787867
499.8558978844604
499.9977638497177
465.345343518333
493.4339292774279
499.5640136102995
499.9940684720484
480.1287631328585
494.0349397099029
499.2545954460253
499.9846219207803
499.5783664456823
495.6155485742401
498.7244747294115
499.9465992244642
499.9682671734481
501.084504018648
509.5491616386633
546.0622229901871
499.904368932768
499.9442240439129
508.1274473208568
536.7440745539078
499.8610687618368
499.3023658717707
505.4414844206954
529.7198037839428
499.8671720232478
498.7041327537291
500.2652895560934
516.9384333901794
528.8976459316802
510.878561555055
502.5194992981895
500.2431037978234
485.212607745181
507.5497117121904
503.2964076042998
500.66802575091
484.702858201905
508.0299499095854
504.6355906221099
501.3382341606132
518.626116520618
520.0550506494678
507.803049297372
501.6366188497308
501.7251768736892
516.382986741956
580.5690877670571
622.5088899364083
502.2219830400514
516.1418415599642
568.2743498749328
605.7436354108652
502.4986569626076
512.334507498983
552.2081893927432
583.1753138172569
501.3113113056347
507.4279748911707
532.3567519625301
551.6783874331734
627.4226498837546
574.8335976227397
511.1588895791454
501.0469554596729
626.5975991420672
564.9410910380252
506.8707220368146
500.5942307728421
623.0451713880759
552.071493174552
503.9851698382585
500.3323345610204
618.8801213196004
539.5099319939128
502.1054775461006
500.1626054457359
500.0024661500722
500.0955347646874
507.1293764524023
588.1695637298236
500.009554172441
500.1944577311673
511.5278236913924
596.7437889858631
500.027968759845
500.4544561346902
518.7812967044645
606.0271308127088
500.0744991486707
501.0532747670786
528.1512290835138
612.5552152396762
500.0013436344311
500.0075935853849
500.030098425989
500.0558279869193
500.1475108097831
500.3036937672907
500.5343005197355
500.7028021740881
503.7179782435704
503.1657760036546
504.0814752620011
505.0519800266239
545.0050103962732
513.4945844423319
507.8108625471246
509.5237938653966
500.0879552977331
500.844225508263
505.8278855268057
510.7632908511862
500.1182166420026
500.9537433381745
506.6639519572296
511.7167999120157
500.140020838947
500.9972712903885
507.3388005673459
512.5240843247166
500.1436609120647
500.8968068940204
507.6530621075744
513.8350843106039
500.0144653219273
500.1843921480308
505.6069697124692
520.603020049724
500.0388941250681
500.3661491683313
506.7522614497796
517.1376235880327
500.0816705842805
500.5668320133657
507.6860710388596
516.1651437319406
500.1226766988504
500.7430175854374
507.8116056122864
515.1120589145605
527.9550247402126
502.8992486182231
500.0482360697604
500.0040482105254
527.5793096414097
502.1428686392404
500.0299404948561
500.002020630713
525.6242291519411
501.4342949828982
500.0120978243466
500.0003754156264
522.7453922215229
500.8050439029685
500.0040639033141
500.0000955356983
520.3415917558706
500.1004772645375
500.0004858771764
500.000011812278
518.1754570490131
500.275851394818
500.0002208558799
499.9999998546217
513.7040284111137
500.1192191638834
500.0000052646712
500.0000000035869
508.3705919966969
500.0602397064747
500.0000003200367
499.9999999993947
500.0000000000001
500.0000000093911
500.0009212819034
500.4604192418568
500
500.0000000251076
500.0020273483811
500.9711184400358
500
500.0000001844304
500.0059130550023
502.0052932833225
500.0000000000695
499.9999999271702
500.0184124883695
503.7789950006837
501.0257297354019
502.0771054921216
504.1649247547209
510.3799944324566
502.0771054922421
503.5424598679668
507.8904579903306
518.4086191194598
504.1649247547932
507.890457990353
516.5695211936081
531.4008686070653
510.3799944325559
518.4086191195604
531.4008686072261
549.374765824928
568.9193464363178
554.0449982862619
545.5870883616434
532.1221420427448
565.9585203396417
561.4365835417584
559.6687529590533
552.7005085173988
566.4913271269653
564.8899113609048
563.4471115851742
560.4832985303173
565.3500173366358
564.5864661185808
564.084666966034
562.3964326476175
560.6102771349066
560.1544664382106
558.6059988815753
554.7704383515758
561.6645991322332
560.0045601005398
558.1293929202957
554.44477881118
561.8137131830549
559.8455193197009
557.8366554112658
554.3630347459067
562.3056645774792
559.9074413849091
557.7821481567304
549.0648375474053
516.1289780930398
497.8340085215298
498.0721504577714
499.4460644740538
504.4368498004345
493.7214216027119
497.9547150897263
500.0959355411565
492.0285374762753
493.5672151727642
498.9505850322691
501.6255147933733
470.0909202572952
488.4750682737251
497.1504700608865
500.1906425225966
500.5506875198693
501.3976341594283
502.3880564081903
503.018238678605
501.3219213633845
502.3935111832294
503.3682119751723
503.913380447904
502.7159331531474
503.5889556512532
504.2115808624649
504.7885593309376
501.6404364525062
503.2578923835555
504.6476812166209
505.021157110722
503.3370745245417
505.6136703165583
550.7986843774029
612.4981920389899
504.1011512173703
508.0526010269937
564.9181912096541
618.7440729848109
504.9526941847495
510.8511377319597
576.2579115906332
619.3480116323143
505.268323280371
512.3109202370402
585.2876667449713
624.3182617987458
665.8301484904197
657.9163928675225
654.9351255760183
651.6201056483638
674.0722846324879
663.9968396181234
658.0718330500889
653.2234221500387
679.4587382580929
670.2392830150515
661.4386017391342
654.5272229763531
679.3963779563431
673.9906876308794
664.2403204550047
656.0214112492373
653.1388302281068
657.1458347002766
657.7819258661954
656.513631418505
653.9148537832639
657.538793738334
660.1700166559788
658.303359596124
653.5299132813587
657.0102952455308
660.1246113544042
659.2200748495966
654.098881889267
658.2292062043921
661.6610407974508
659.7112117662248
644.0633320853959
624.9167317653187
603.8489035952431
579.7025584836285
645.6271248588137
626.1146810655291
603.4043775113439
606.4204067773072
647.9965018380803
628.8581007808132
613.4911122046659
633.6044503737808
647.6089524309439
634.4906884022622
630.0965185663464
618.835268883062
538.6129408696639
460.4000134503147
344.385275944101
341.4414169200455
527.7965058173304
421.573502409022
290.6854019486062
272.1318064074675
479.4701899330297
357.7408217207582
264.1182810477508
251.7753744265648
380.1174800468822
284.5136125914228
256.8944696763469
248.5263342469419
383.23056203693
420.2158272950203
447.5167894347932
457.0428558095458
319.9464334721002
374.3065177718445
415.8453333217128
441.3792641641217
290.588770922508
343.6830065405041
390.7404613774485
431.0727647081603
284.9790858093439
341.4178288703685
394.4603786826066
435.7315897606273
497.313445645094
468.6163765877197
439.2389925596067
425.7115133259057
483.6111372365406
475.5918216930565
451.2351149617915
437.6492116889845
462.2389210613833
474.9180453035013
464.5830615378254
460.0771092438929
444.4763729416371
468.9679497259552
472.2345376120912
486.6663469057845
406.1625084037339
413.4032163476856
430.1125108174425
426.2288561883062
403.9964262302527
407.5158336395505
417.9914654201826
409.4224575617274
411.6385831030174
411.9309789138197
416.4852650688838
401.2345403591766
392.0100646628281
398.7218915091589
399.628785632874
383.8782551783617
367.7197686037351
360.9366279054045
360.3784489393404
360.662609269403
382.0699933327817
371.4760252452092
368.5955400295293
369.0590646092344
394.7770557538245
386.4261087210732
383.4521420696923
383.5887557087317
416.4774334521236
408.0838692496311
401.8588770610514
398.7781772655612
360.6626092693991
369.0590646092405
383.5887557087622
398.7781772655372
360.378448939302
368.5955400295113
383.4521420697509
401.8588770611387
360.9366279053049
371.4760252451338
386.4261087211308
408.0838692498094
367.7197686036191
382.0699933326885
394.777055753844
416.4774334522187
426.2288561882578
430.1125108173648
413.403216347619
406.1625084036966
409.4224575617158
417.9914654202004
407.5158336395801
403.9964262302613
401.2345403591031
416.4852650688019
411.9309789138058
411.6385831030331
383.8782551782779
399.6287856327804
398.721891509005
392.010064662748
486.6663469057443
472.234537612058
468.9679497259156
444.4763729420441
460.0771092439214
464.5830615378702
474.9180453034386
462.2389210615868
437.6492116890033
451.23511496191
475.5918216930391
483.6111372364253
425.7115133259274
439.2389925597539
468.6163765876951
497.3134456446494
457.0428558100967
447.5167894353929
420.2158272955992
383.2305620368714
441.3792641647877
415.8453333225949
374.3065177726558
319.9464334721387
431.0727647088123
390.7404613783256
343.683006541266
290.5887709225604
435.7315897612125
394.4603786834946
341.4178288712267
284.9790858095121
341.4414169203853
344.3852759431907
460.4000134501405
538.6129408697707
272.131806407557
290.6854019482133
421.5735024089193
527.7965058173158
251.7753744266011
264.1182810475974
357.7408217209321
479.4701899330155
248.5263342470673
256.8944696763064
284.513612591617
380.1174800470182
579.7025584837919
603.848903595486
624.9167317656129
644.0633320855836
606.4204067774371
603.4043775115022
626.1146810656281
645.6271248588274
633.6044503737945
613.4911122046119
628.8581007807326
647.9965018379714
618.8352688830589
630.0965185661281
634.4906884020533
647.6089524308945
656.5136314188028
657.7819258664704
657.1458347003511
653.1388302285052
658.3033595963203
660.1700166561135
657.5387937384422
653.9148537836296
659.2200748496879
660.1246113544884
657.0102952456228
653.5299132818313
659.7112117664307
661.6610407976054
658.2292062046257
654.0988818897692
651.6201056482917
654.935125575826
657.916392867178
665.8301484903715
653.2234221497828
658.0718330498154
663.9968396176786
674.0722846323499
654.5272229757755
661.4386017387911
670.2392830145257
679.4587382578306
656.0214112484983
664.2403204546198
673.9906876303138
679.3963779560089
612.4981920388091
550.7986843772421
505.6136703165863
503.3370745246523
618.7440729846024
564.9181912094349
508.052601026943
504.1011512174824
619.3480116320626
576.2579115903998
510.8511377318703
504.9526941848354
624.3182617984231
585.2876667447679
512.3109202369501
505.2683232804554
503.018238679074
502.3880564081858
501.3976341589619
500.5506875198996
503.9133804484136
503.3682119751673
502.3935111826702
501.321921363405
504.7885593314521
504.2115808624671
503.5889556506179
502.7159331531621
505.0211571111985
504.6476812165952
503.2578923828609
501.6404364525083
499.4460644735901
498.0721504573961
497.8340085215694
516.1289780934076
500.0959355404824
497.9547150894435
493.7214216028789
504.4368498007873
501.6255147925513
498.9505850320535
493.5672151730382
492.0285374764867
500.1906425217419
497.1504700606143
488.4750682740363
470.0909202575584
554.7704383516935
558.6059988816478
560.1544664385406
560.6102771350542
554.4447788112298
558.1293929203584
560.0045601009182
561.6645991323635
554.3630347458599
557.8366554113052
559.8455193200833
561.8137131831728
549.0648375472969
557.7821481568143
559.9074413853027
562.305664577591
562.3964326474023
560.4832985303115
552.7005085175621
532.1221420429046
564.0846669657989
563.4471115851572
559.6687529591196
545.5870883616791
564.5864661184271
564.8899113607936
561.4365835416794
554.0449982861783
565.3500173365308
566.4913271268157
565.9585203394955
568.9193464361116
462.1575806638253
494.3374522757769
499.6939237733245
499.9957830122534
455.0630521633782
492.8526245017814
499.5590062115883
499.9929754970721
457.5527541489748
492.4570225338346
499.5210306946331
499.9917394615185
462.7421367265262
492.905946918159
499.5153803896977
499.990508848971
499.9755624326264
499.3625265473133
496.4632843084095
489.5112358588311
499.9812211870542
499.4468001772645
495.9020117062317
483.9035756015103
499.9861112703697
499.5084132369142
494.9460429423717
477.5701769506333
499.9887242566172
499.5157875564581
493.8930175644491
471.3039575507902
499.9905088487454
499.991739461387
499.9929754972194
499.9957830123228
499.5153803896167
499.521030694448
499.5590062111399
499.6939237732711
492.9059469180841
492.4570225338901
492.8526245020725
494.337452276036
462.7421367262965
457.55275414868
455.0630521631373
462.1575806636631
)
;

boundaryField
{
    back
    {
        type            empty;
    }
    inlet
    {
        type            zeroGradient;
    }
    front
    {
        type            empty;
    }
    top
    {
        type            zeroGradient;
    }
    outlet
    {
        type            fixedValue;
        value           uniform 500;
    }
    bottom
    {
        type            zeroGradient;
    }
    wall
    {
        type            zeroGradient;
    }
}


// ************************************************************************* //
