/*--------------------------------*- C++ -*----------------------------------*\
  =========                 |
  \\      /  F ield         | OpenFOAM: The Open Source CFD Toolbox
   \\    /   O peration     | Website:  https://openfoam.org
    \\  /    A nd           | Version:  11
     \\/     M anipulation  |
\*---------------------------------------------------------------------------*/
FoamFile
{
    format      ascii;
    class       volScalarField;
    location    "0.35923";
    object      Ma;
}
// * * * * * * * * * * * * * * * * * * * * * * * * * * * * * * * * * * * * * //

dimensions      [0 0 0 0 0 0 0];

internalField   nonuniform List<scalar> 
880
(
1.118016635923817
1.118016634793622
1.117913286442128
1.101703186017074
1.118016635922823
1.118016632482119
1.117870550802276
1.096269833299049
1.118016635905757
1.118016621506632
1.117737714541157
1.08904018927156
1.118016635824109
1.118016566735549
1.117400393623203
1.06955634953866
1.118016636535324
1.118016634946059
1.118016603638186
1.118016146192387
1.118016282182962
1.118014695981484
1.118008386617098
1.118021818344831
1.11645768571879
1.115369466376605
1.113824512524339
1.113109464448004
1.031319852746345
0.9943422950385304
0.9723392731013558
0.9700789809040868
1.118010992527992
1.117995261235074
1.117968932126119
1.117859311614547
1.11790256184987
1.117468120757098
1.116770975508258
1.115507778999803
1.104434411094004
1.097436010736543
1.088275329765315
1.079904913429181
0.9590707559817726
0.9591365080257622
0.9575149302378894
0.9810546064696564
1.040053897454793
1.075624645123192
1.089969571386046
1.104393280951023
1.065632647781131
1.06521991820034
1.069327316716579
1.077708216948016
1.111149312691271
1.10555313207439
1.100433390498552
1.097673818858649
1.117316789323472
1.116401123727539
1.115078719793607
1.113440890106218
1.111890406327713
1.110736321532122
1.109985779810404
1.109840388521461
1.097062167174315
1.098712880881271
1.102515610884807
1.107803251057392
1.086125650218505
1.096164720934635
1.105647491138512
1.113536849236495
1.111645809027078
1.11922041019874
1.123416395211612
1.126389819316137
1.12879241181056
1.12090692519655
1.11343753357959
1.109952292834979
1.079497501045123
1.125823389955784
1.120188173560861
1.110314219410447
0.8046321014852429
1.115052945390332
1.125647454346553
1.111386328609994
0.5734125829166901
1.03797750928637
1.125573065819249
1.113024475351012
1.113322036019444
1.121410456320816
0.9542351314473755
0.5177945435910144
1.108803514104105
1.108875859302105
0.8848779108273275
0.5549462574298646
1.106525132317969
1.080249469656025
0.8075143086231735
0.5746193533090795
1.100897348350178
1.033515620962927
0.7627642690687785
0.6140871505123792
0.6624726273120103
0.7509898918128717
0.9749062132946269
1.089466569903984
0.7143565771014762
0.7749400770505435
0.9219220964984163
1.069252455806785
0.7674915747784027
0.8176034579120699
0.9053522166378589
1.037932808882777
0.815171381628642
0.874680024285341
0.9234566006329815
1.006082728637666
0.9854244805348925
0.9755983076322335
0.9503689313782623
0.8753670700529026
1.009923602167432
1.039761415543243
1.036594856357748
0.9571055935207193
1.038622833657496
1.101927940027612
1.127949275797875
1.064398217049489
1.064423955152525
1.149827358016771
1.21600246125642
1.193059493560023
1.084293614021674
1.191059618230939
1.305723943929656
1.394835632721057
1.109066508527834
1.221504218758348
1.366098419648864
1.58597182371586
1.124973429685185
1.226889244479769
1.411590132843153
1.774905459654071
1.134435611518357
1.212805180129888
1.386959859117774
1.945033636654371
1.717454272540315
1.321792137399872
1.201070475108214
1.140472747119863
1.181700356779073
1.275070007563262
1.18887167995745
1.140460118508015
1.027525323421173
1.252841415215097
1.179566710682941
1.136955025493933
0.8788605260122333
1.215793962046491
1.165454057788672
1.13292152351283
0.8054967191827236
1.162024026946489
1.142389740302027
1.125673977244682
0.7301825071968175
1.092238888959341
1.117138398664868
1.11895304190072
0.6969571207077803
1.041877283404029
1.105958988250681
1.117614301977071
0.6807141036039878
1.033196193449467
1.106960322260928
1.117614712108089
0.6500125491841869
0.9389581696555508
1.069469178374034
1.113028977744179
0.6571945009167778
0.9372294665766858
1.069608396998519
1.112892263258168
0.6852978820484954
0.9362629272709421
1.070404086543586
1.112842805092913
0.7090262923131289
0.9439713184373457
1.073787136921407
1.113118649852701
0.6807141036044742
1.033196193450773
1.106960322264793
1.117614712113236
0.6969571207089614
1.041877283408054
1.105958988252414
1.117614301980143
0.7301825071995092
1.092238888962614
1.117138398665801
1.118953041904171
0.8054967191835581
1.162024026950876
1.142389740302614
1.125673977246194
1.140472747117765
1.20107047510943
1.321792137399486
1.717454272539894
1.140460118507513
1.188871679957915
1.275070007563627
1.18170035678247
1.136955025491952
1.17956671068269
1.25284141522062
1.027525323419307
1.132921523510277
1.165454057785312
1.21579396204879
0.8788605260137098
1.945033636660787
1.386959859118841
1.212805180132508
1.134435611518005
1.774905459654663
1.411590132843894
1.226889244481364
1.124973429683484
1.5859718237149
1.366098419647491
1.221504218760361
1.109066508522906
1.394835632719361
1.305723943931612
1.191059618234608
1.084293614017028
0.9854244805329393
0.9755983076291498
0.9503689313762366
0.8753670700531508
1.009923602167
1.039761415543511
1.036594856355901
0.9571055935202593
1.038622833661436
1.101927940029514
1.127949275796704
1.064398217048763
1.064423955151516
1.149827358019374
1.216002461256013
1.193059493558176
0.8151713816290075
0.8746800242848
0.923456600630886
1.006082728630472
0.7674915747791531
0.817603457912471
0.9053522166371518
1.037932808881271
0.7143565771018092
0.7749400770514688
0.9219220964981651
1.069252455803738
0.6624726273129109
0.7509898918121356
0.9749062132903623
1.089466569902772
1.113322036020108
1.121410456320576
0.9542351314490942
0.5177945435924558
1.10880351409867
1.108875859300723
0.8848779108281785
0.5549462574314967
1.106525132309242
1.080249469650134
0.8075143086230053
0.5746193533098513
1.100897348347917
1.033515620964944
0.762764269070103
0.6140871505130069
1.113024475350301
1.111386328610617
1.110314219406666
1.109952292834405
1.125573065823621
1.125647454349672
1.1201881735594
1.113437533578499
1.037977509290939
1.115052945390639
1.125823389958904
1.120906925197807
0.5734125829188541
0.8046321014882858
1.0794975010445
1.128792411810279
1.109840388518915
1.107803251055208
1.113536849235475
1.126389819315265
1.109985779813244
1.102515610881089
1.105647491137786
1.123416395210932
1.110736321531818
1.098712880880726
1.0961647209385
1.119220410201796
1.111890406330543
1.097062167174779
1.086125650216693
1.111645809027633
1.117316789323758
1.111149312695655
1.065632647779702
1.040053897452359
1.11640112373065
1.105553132079085
1.065219918199722
1.075624645123609
1.115078719789767
1.100433390502586
1.069327316718843
1.089969571391045
1.113440890108563
1.097673818859829
1.077708216947657
1.104393280953539
0.9810546064704349
1.079904913429499
1.11550777900431
1.117859311610831
0.9575149302388354
1.088275329764757
1.116770975510498
1.117968932127907
0.9591365080257171
1.097436010738364
1.117468120765129
1.117995261237847
0.9590707559824792
1.104434411096823
1.117902561853698
1.118010992525206
0.9700789809029204
1.113109464448401
1.118021818345244
1.118016146190248
0.9723392730994816
1.113824512524873
1.118008386620729
1.118016603635482
0.9943422950326072
1.115369466377838
1.118014695985209
1.118016634947472
1.031319852737385
1.116457685721322
1.118016282185406
1.118016636532613
1.118016635923625
1.11801663479289
1.117913286442
1.101703186016207
1.118016635921967
1.118016632485789
1.117870550803486
1.096269833288193
1.118016635905015
1.118016621510201
1.117737714541
1.089040189255845
1.118016635822621
1.118016566737791
1.117400393623417
1.069556349526718
1.090022898244052
1.079810554208403
1.058236309929104
1.008458044864103
1.079810554217416
1.064152029230754
1.027798154368637
0.9529354810143799
1.058236309948741
1.027798154383095
0.9622102204926004
0.8591115177107324
1.0084580448828
0.9529354810361801
0.85911151772423
0.7515470271957831
0.7259595483538624
0.7634745882542237
0.8354153012307188
0.9069078392753941
0.7808855382259093
0.7857161495649905
0.815688113644276
0.8610053763771949
0.7683387812123155
0.8085923410803632
0.8384391895272951
0.8598164283017731
0.8035064504430409
0.8475351228730458
0.8694730022081962
0.880779692035803
0.8966534237900778
0.909516840615941
0.9296256781503214
0.9684920431522727
0.8949933687920437
0.9106179370632512
0.9352860491811951
0.9903477281761638
0.883908321823468
0.9081231122582928
0.936599131969057
1.054093354028563
0.8334685355106848
0.8609983753220571
0.899507912471901
1.141561738149184
1.14910315571414
1.190191145492337
1.16224484520003
1.155848527674532
1.270484466461489
1.298132100849838
1.245479616626189
1.213594322500484
1.425516864969621
1.363578111089738
1.297060861889992
1.251311798245593
1.160550759689681
1.101035418356626
1.087576456993319
1.089678010525819
1.158620933866351
1.159545053838784
1.157140335270126
1.153221243020996
1.197678227231251
1.182973577109383
1.16875269251996
1.156242746427993
1.223634325746772
1.198456419778978
1.17510128734011
1.153894970253153
1.088933310423004
1.078626041998226
1.068263745101524
1.050978648783757
1.122120023699162
0.8700302844164208
0.5643707504605898
0.3648394211238018
1.090929599627606
0.6976357395817605
0.3661795157483904
0.1741406114413974
1.032851446176447
0.5043645402978898
0.1475572975835147
0.03135295387726692
0.8517810460532743
0.3004855666416483
0.02332878683620342
0.101153005748906
0.3409008478479341
0.4415082927809789
0.5060735909812036
0.5696173229927266
0.2434028403496752
0.3991295681518441
0.4925624495957523
0.5666245674158631
0.1101888515281886
0.3087618808608258
0.4557150501962452
0.5501812496838396
0.009858723497410992
0.1609811553221705
0.3251063560616232
0.4612700361935376
0.643787048048002
0.7091214347508917
0.7653455705753111
0.8044263182798351
0.6372045170118208
0.7037991933051649
0.7599624368783726
0.7996785643526737
0.6207877268269716
0.6914801665294692
0.753617046145278
0.7976372672137926
0.5749282026782835
0.6673072714441719
0.7485532732840959
0.7963464388050316
0.850551840460853
0.9213140135727569
1.016682639529767
1.130830942618308
0.8424459611869279
0.9072189409858762
0.9950898199719238
1.146747374143728
0.8386729305050351
0.8955837217411105
1.009277596182006
1.465245661640319
0.8366995965064277
0.8901293708008551
1.035240252222212
2.043032212084219
1.358002245261929
1.502742576297595
0.7467209863547011
1.541032892023825
1.440686510759795
1.291883780020425
1.120972735758136
1.900717235744362
1.484629257012102
0.9245210923115954
1.364561252634372
1.930141910630686
1.143592020786388
0.437238688955336
1.649995169310402
1.864161330602747
1.320111604205003
0.890652645737254
0.6860763932298189
0.4518903894300689
1.399960158573742
0.9917291952454075
0.7130583049451027
0.3512357907787502
1.337984367553822
0.9695800194089027
0.614739691440413
0.2354587911441767
1.27544123663359
0.9266838771045467
0.5551621166708993
0.1790049372305804
0.3129712618107211
0.09000038605551691
0.1519708191823115
0.353948333550748
0.3575526537572843
0.2740183392813939
0.06742246866210831
0.2737716049706028
0.3253409869646068
0.3765349088963463
0.208715577359911
0.1802139694353963
0.2563723577017437
0.3770562728716972
0.2874747284101881
0.05458840183766221
0.3303633490494411
0.3633358418573822
0.3674741268702797
0.3665718194845464
0.3127589304578916
0.2977656441574602
0.3017702717951758
0.2879568520060017
0.2125531199912851
0.1577346925662672
0.1531386756429023
0.1300954219346926
0.1153547988377142
0.067049124189254
0.0852198482495569
0.08052247018221131
0.06427524830599803
0.06054196046584664
0.05569245635956795
0.04946914592237047
0.08591230989388571
0.03554527868593412
0.01249242397557432
0.03216816190809221
0.2343614991686376
0.1729490808539386
0.1018791144640095
0.04157365415186516
0.3263365511543453
0.278161779018799
0.2179145991171965
0.1782856923145114
0.04946914592212116
0.03216816190812766
0.04157365415166702
0.1782856923143777
0.05569245635888193
0.01249242397570739
0.1018791144640334
0.2179145991180355
0.06054196046524848
0.03554527868611225
0.1729490808540726
0.2781617790194919
0.06427524830558967
0.08591230989414309
0.2343614991688365
0.3263365511544065
0.3665718194835669
0.3674741268702377
0.3633358418569332
0.3303633490492175
0.2879568520059529
0.3017702717950804
0.2977656441569774
0.3127589304576019
0.1300954219348354
0.153138675642917
0.1577346925662261
0.2125531199910601
0.08052247018230667
0.08521984824993357
0.06704912418980936
0.1153547988382327
0.05458840183732374
0.2874747284080265
0.3770562728691711
0.2563723577001145
0.1802139694352878
0.2087155773584305
0.3765349088932915
0.3253409869614389
0.2737716049704794
0.06742246866139923
0.2740183392779211
0.3575526537538906
0.3539483335508365
0.15197081918372
0.09000038605151241
0.3129712618056066
0.4518903894254469
0.6860763932306153
0.8906526457520958
1.320111604193601
0.351235790775887
0.7130583049438656
0.99172919525125
1.399960158574976
0.2354587911429827
0.6147396914395672
0.9695800194099138
1.337984367555381
0.1790049372307407
0.5551621166708278
0.9266838771048379
1.27544123663666
1.541032891983902
0.7467209863511411
1.502742576293416
1.358002245258769
1.900717235734923
1.120972735766198
1.291883780019026
1.440686510759207
1.930141910636459
1.364561252641128
0.9245210923101708
1.484629257010444
1.864161330605706
1.649995169319228
0.4372386889559071
1.143592020787526
1.130830942617201
1.016682639529507
0.9213140135732427
0.8505518404613658
1.146747374143419
0.9950898199707707
0.9072189409854241
0.8424459611876385
1.465245661640011
1.009277596181826
0.8955837217403539
0.8386729305050915
2.043032212081239
1.035240252221613
0.8901293707996093
0.8366995965069943
0.8044263182810758
0.7653455705766854
0.7091214347506393
0.6437870480482275
0.7996785643538084
0.759962436878258
0.7037991933062404
0.637204517011896
0.7976372672133734
0.7536170461459932
0.6914801665297885
0.62078772682726
0.7963464388055048
0.7485532732842803
0.6673072714442537
0.5749282026774141
0.5696173229933731
0.5060735909830759
0.4415082927809724
0.3409008478485655
0.5666245674161678
0.4925624495976942
0.3991295681525532
0.2434028403505486
0.5501812496842149
0.4557150501971239
0.3087618808615754
0.1101888515289637
0.4612700361928184
0.3251063560607654
0.1609811553224142
0.009858723497630475
0.3648394211247877
0.5643707504631302
0.8700302844172061
1.12212002369696
0.1741406114422718
0.3661795157508455
0.6976357395842402
1.090929599625669
0.03135295387667077
0.1475572975851331
0.5043645403004419
1.032851446174296
0.1011530057487317
0.0233287868363116
0.3004855666424746
0.8517810460501533
1.153221243019868
1.157140335273853
1.159545053844928
1.15862093387097
1.15624274642598
1.16875269252096
1.182973577114419
1.197678227234723
1.1538949702507
1.175101287340221
1.198456419783738
1.223634325750638
1.050978648779475
1.068263745102746
1.078626042001182
1.088933310426484
1.155848527679401
1.162244845206975
1.190191145491113
1.149103155713134
1.213594322506708
1.24547961663311
1.2981321008487
1.270484466461061
1.251311798252178
1.297060861896908
1.363578111088099
1.425516864970178
1.089678010526461
1.087576456998858
1.101035418355645
1.160550759692117
0.9684920431523183
0.9296256781501269
0.9095168406129772
0.8966534237878302
0.9903477281765232
0.9352860491779315
0.9106179370597655
0.8949933687884601
1.054093354029056
0.9365991319683988
0.9081231122547044
0.8839083218183438
1.141561738148462
0.8995079124695984
0.8609983753188796
0.833468535506658
0.880779692034063
0.8598164282987475
0.8610053763743519
0.9069078392636286
0.8694730022062048
0.8384391895227765
0.8156881136391415
0.8354153012177085
0.8475351228669001
0.8085923410730683
0.7857161495573669
0.7634745882449178
0.8035064504388643
0.7683387812053053
0.7808855382183092
0.7259595483504325
0.6232877595778454
1.00270787292922
1.099021513668356
1.116673474814869
0.6574154299138734
0.9785251600893307
1.091856495019437
1.115850893057244
0.6902788247412617
0.9705237486722322
1.085820958814181
1.114840684490827
0.7062693291924961
0.9574472233827704
1.079434929818482
1.113853254368742
1.113028977742031
1.069469178373776
0.9389581696543557
0.6500125491821774
1.112892263258621
1.069608396998583
0.9372294665755478
0.6571945009177093
1.112842805093425
1.070404086544246
0.936262927269919
0.6852978820488993
1.113118649853849
1.073787136923447
0.9439713184365961
0.7090262923121982
1.113853254369075
1.11484068448835
1.115850893057786
1.11667347481909
1.079434929822231
1.085820958815922
1.091856495022217
1.099021513671378
0.9574472233835659
0.9705237486736159
0.9785251600901261
1.002707872929145
0.7062693291922769
0.6902788247415037
0.6574154299137387
0.6232877595777444
)
;

boundaryField
{
    back
    {
        type            empty;
    }
    inlet
    {
        type            calculated;
        value           nonuniform List<scalar> 
16
(
1.118016635923818
1.118016635923328
1.118016635921992
1.118016635900154
1.118016636034887
1.118016635839539
1.118016624559621
1.118016452911421
1.118016452910564
1.118016624558998
1.118016635839916
1.118016636034292
1.118016635923624
1.118016635923231
1.118016635921705
1.118016635899328
)
;
    }
    front
    {
        type            empty;
    }
    top
    {
        type            calculated;
        value           uniform 0;
    }
    outlet
    {
        type            calculated;
        value           nonuniform List<scalar> 
16
(
1.111559636981679
1.111422917090123
1.111389293886023
1.111764321966771
1.116097463902233
1.1151203172346
1.113890583407688
1.112673272246711
1.111559636979114
1.11142291709016
1.11138929388656
1.111764321968035
1.112673272246927
1.113890583405049
1.115120317235521
1.116097463906631
)
;
    }
    bottom
    {
        type            calculated;
        value           uniform 0;
    }
    wall
    {
        type            calculated;
        value           uniform 0;
    }
}


// ************************************************************************* //
