/*--------------------------------*- C++ -*----------------------------------*\
  =========                 |
  \\      /  F ield         | OpenFOAM: The Open Source CFD Toolbox
   \\    /   O peration     | Website:  https://openfoam.org
    \\  /    A nd           | Version:  11
     \\/     M anipulation  |
\*---------------------------------------------------------------------------*/
FoamFile
{
    format      ascii;
    class       volScalarField;
    location    "0.35923";
    object      p;
}
// * * * * * * * * * * * * * * * * * * * * * * * * * * * * * * * * * * * * * //

dimensions      [0 2 -2 0 0 0 0];

internalField   nonuniform List<scalar> 
880
(
80.0000000000004
80.00000016383166
80.01345551321037
81.8802855837487
80.00000000017725
80.00000048124704
80.01668940738837
82.76381746495444
80.00000000090169
80.0000018775274
80.03089330734947
83.82249246991056
80.0000000120275
80.00000824474594
80.06380649728636
85.40744131122908
79.99999994467788
80.00000002778147
80.00000611538105
80.00009435437568
80.00003799272588
80.000146044998
80.00091096983817
80.00134642777687
80.14459240595707
80.23456554555082
80.3854759514451
80.53776462709091
88.34424438290664
91.39546239436949
94.00050818121633
95.23481294918545
80.00023343799943
80.00190262782196
80.00718915377773
80.02227980311666
80.01262370872365
80.05407340598632
80.10847194299919
80.22874539435395
81.27046545538295
81.90762250676079
82.71475812474688
83.76504140389993
96.38491942855516
97.95074093086497
98.2733633473012
97.50841984205324
90.98661118659119
87.50956035004637
85.83754596299221
84.7426365701052
85.69165075896423
86.37131268861677
86.77386756101873
86.80850024371487
80.63877427844334
81.12349618684689
81.63894601164459
82.02316961280501
80.07908429143944
80.19127940747674
80.36114472294011
80.59963598924551
80.87772152894152
81.1570404614823
81.43356253356021
81.63997137231378
82.31278435171977
82.4807364350046
82.56753685049446
82.57328227429025
86.44898781571069
85.94963022534166
85.29453370476092
84.61629696046077
83.58711773485444
82.89861900633394
82.50702336737338
82.07922521176526
82.08347886466474
84.14367463992509
82.52044317056462
81.76627182553193
87.7416265987321
83.86377126362255
82.3694683493914
81.74655316240249
120.5544560411175
85.26189607146681
82.18745555766886
81.49445621256405
158.3460044765946
93.05701308545413
82.67009309688466
81.40178254497809
81.37278029999477
83.39305209763985
102.7705261215135
175.0759825010932
80.8725703016835
84.7512902296145
113.732971949113
174.2790964250509
81.08497363620374
87.90093786003439
128.3709563025872
176.1374016887045
81.89115878341482
93.5845513142778
142.2694046463713
173.4132433361436
167.7080447923729
149.9499530791573
102.2383149994401
83.66741616755068
160.7390733976111
151.1909107114401
111.828199187561
86.83959578914222
153.3438264424929
148.9211204140188
120.1242290976151
91.94174492671803
145.6349863132789
138.9090596495341
121.4578400090886
98.31104160594592
103.9475920563123
117.3636342527365
126.5678672775448
136.6077823456525
103.1364780602277
109.2145174560353
113.4278294427264
123.6648234018113
100.8357796663827
101.4840570337612
100.681570741323
107.3273463228284
97.84579756740891
95.22394562994985
89.17535744379569
88.30758515509693
95.46774915800907
89.32747600794784
78.72402843226796
66.39576387279165
91.68523785962172
83.96077826140343
69.93207559750989
43.06388712449063
88.80506788541057
81.5422096839265
63.24031575250243
26.39389104721942
86.3561905545653
80.46178024850992
58.99205012689715
14.84781820859451
15.60700527008492
60.57003823149338
79.58679920071975
84.17228920248823
24.76422362394867
61.36561262889163
78.99424478207413
82.70491817861121
27.34008896182156
61.04578617949998
78.13610276619708
81.71366450189794
25.83977473337486
60.43916169177317
77.52991768354113
81.17521420629323
31.26929804701588
63.06699795072313
77.20219623788735
80.23967745967856
36.95840750539871
65.60917898322093
77.11664268454794
79.68639454784591
43.59647355809196
68.84993079582355
77.31458290050234
79.66587950973569
51.4201150640257
71.09849819426476
77.69938438477249
79.73917394616225
53.28147179443007
58.94042615509546
73.28959035952994
79.26102077581503
51.93576768773257
60.14551182643162
73.51467771050109
79.25279548772998
49.49577408627697
61.86283662442212
74.01517300117648
79.2546862888714
47.17420756673404
63.82127070273549
74.73228490996875
79.31318563872009
51.42011506402008
71.09849819419306
77.69938438479694
79.73917394583944
43.59647355811746
68.84993079552547
77.31458290040213
79.66587950930074
36.95840750539804
65.60917898298925
77.11664268414648
79.68639454731121
31.2692980470731
63.06699795049926
77.20219623779836
80.23967745934803
84.17228920271515
79.58679920076212
60.57003823148967
15.60700526981322
82.70491817859067
78.99424478203714
61.36561262884928
24.76422362369643
81.71366450192782
78.13610276623157
61.04578617906722
27.34008896175128
81.1752142062918
77.5299176837827
60.43916169165606
25.83977473338097
14.84781820859467
58.99205012678878
80.46178024844528
86.35619055464284
26.39389104710687
63.24031575254897
81.54220968401769
88.80506788547449
43.06388712443285
69.93207559768622
83.96077826141527
91.68523785985292
66.39576387286988
78.72402843208309
89.32747600764088
95.4677491581667
103.9475920564879
117.3636342533967
126.5678672780331
136.6077823456019
103.136478060122
109.2145174558983
113.4278294429252
123.6648234019061
100.8357796658813
101.4840570336271
100.6815707412798
107.3273463228873
97.84579756728783
95.22394562976778
89.17535744370271
88.30758515525092
145.6349863132827
138.909059649754
121.4578400094793
98.31104160678565
153.3438264424541
148.9211204141607
120.1242290977806
91.94174492683055
160.7390733976465
151.1909107114191
111.8281991874414
86.83959578937923
167.7080447921045
149.9499530794874
102.2383149998037
83.66741616759913
81.37278029994599
83.39305209768909
102.7705261213959
175.0759825008403
80.87257030217444
84.75129022979785
113.7329719491103
174.2790964246787
81.08497363696404
87.9009378606863
128.3709563026895
176.1374016885937
81.89115878353466
93.58455131414033
142.2694046465159
173.4132433359074
81.40178254498609
81.49445621250412
81.74655316275712
81.7662718255942
82.67009309648017
82.18745555742791
82.36946834942908
82.52044317053729
93.05701308500933
85.26189607150306
83.86377126332171
84.14367463981054
158.346004476143
120.5544560407396
87.74162659879271
82.08347886467233
81.63997137257152
82.57328227438381
84.61629696063905
82.07922521196747
81.43356253329095
82.56753685072702
85.2945337049817
82.5070233674962
81.15704046146723
82.48073643503483
85.94963022522582
82.89861900597381
80.87772152867591
82.3127843515328
86.44898781605139
83.58711773492338
80.07908429130677
80.638774278197
85.69165075923362
90.98661118686066
80.19127940716957
81.12349618643937
86.37131268892422
87.50956035001846
80.36114472322087
81.63894601129051
86.7738675610352
85.83754596251602
80.5996359890121
82.02316961267529
86.80850024408237
84.74263656983537
97.50841984196975
83.76504140396318
80.22874539416573
80.02227980351007
98.27336334726586
82.71475812483476
80.10847194287398
80.00718915374436
97.95074093098174
81.90762250666229
80.05407340527528
80.00190262752898
96.38491942849357
81.27046545517167
80.01262370848276
80.00023343839743
95.23481294905474
80.53776462715675
80.00134642784771
80.0000943548296
94.00050818077406
80.3854759514354
80.00091096956749
80.00000611567758
91.39546239395425
80.23456554550519
80.00014604474852
80.00000002764381
88.34424438254921
80.14459240585036
80.00003799268413
79.9999999453709
80.00000000002807
80.00000016393476
80.01345551321575
81.88028558361559
80.00000000026192
80.00000048094418
80.01668940731476
82.76381746500292
80.00000000110963
80.00000187731727
80.03089330742101
83.82249247017934
80.0000000123395
80.00000824466575
80.06380649733373
85.4074413113381
83.52388120736143
85.09514025206354
87.64350884546737
92.78660580728622
85.09514025235555
87.15043495841917
90.99696434675263
98.69077697547262
87.64350884558587
90.99696434677969
97.31169089212023
106.8205344578377
92.78660580734663
98.6907769753181
106.8205344581036
117.1817162866369
127.9921966271235
119.0249392609192
115.1010757587361
106.8653048135037
126.2794634588483
123.6454012782861
123.6038224102704
119.5298540703936
126.3196579547142
125.4941522445084
125.0504815282925
123.6399175853332
123.7372024385916
123.3301150698629
123.2433094969397
122.3927036216175
119.6766399877025
117.8558741130498
114.2517647003581
109.3401301147364
119.9427626245875
118.0397286592002
114.3867502789861
109.8051050885921
120.2784506487135
118.2215019271265
114.3689515496017
110.2399128514305
120.4532337949464
118.1132285920255
114.5207180791752
108.5601354248348
82.83054451501565
71.9051066383367
70.60503763651133
70.98560099580293
75.82090276794639
69.03049872991225
69.65719345484445
70.38185508002849
69.99733857681755
68.89590197931201
70.22956342293172
70.93001388103808
60.73661603989829
66.5980355725639
69.2379466829985
70.198559583061
70.93024971005754
71.2925618559772
72.10791475908898
73.05133394849642
70.47293989826937
70.85116355874675
71.73573169117589
72.92921907123075
70.90469027248176
71.13444642407704
71.87271882581877
72.8069779477476
70.29710184051117
70.6183057771093
71.55387893875471
72.84677272628943
78.67291590987395
114.0325922717634
165.0680732871739
181.4273551781722
81.36235290193953
121.5194923863467
162.5375124470121
173.2940208164177
83.4932732233312
125.2943453916209
161.3121254517922
171.9951496972343
84.86227506536601
130.7103480620973
161.6577933595889
171.9719133013577
218.1630707996998
209.3386828912487
201.7924145963948
190.5390773383589
219.3309431211159
212.1177011527493
203.9489313786291
192.3795314429346
218.3267471961248
213.6483567849154
205.0491394779208
193.4999901373527
213.2098402906639
215.5732634256036
206.9717852604765
195.237805203419
178.1503153636088
167.8971835822529
158.2753426957806
153.3866227193922
180.1490059628056
169.2826847092897
158.9657301696102
153.7599464002266
181.2974175343782
169.4917288010419
159.5136908128283
153.7253139787038
183.7036635725244
170.9160481822858
161.1748268559113
154.8236274367486
148.5695242978101
140.658033834386
126.7742155920224
105.8850896691229
149.2632417897495
142.1816472847106
128.8939788889467
114.3600563782129
149.2075701014538
142.6094458208314
130.6896633203175
119.6675367094528
150.3697408554334
144.9545185842924
134.0434821073147
134.5834521006908
64.62310221821282
16.54909637261381
2.690657692306543
1.283576521380831
49.95172519831279
10.39453514774855
2.242230162349951
1.464441965823851
34.73871832668016
6.572017199578107
1.963490816667897
1.620869736425998
19.55114641486817
3.061067321427437
1.72626031749009
1.813342240968219
1.929230584535551
4.153846724998568
6.78597837589812
10.67178951323413
2.736449833369682
5.088142598833802
7.800913873941878
11.94498006524205
3.199700026345228
5.473198618907803
8.646134083762723
12.64703474852724
3.754000955588305
6.199637795176736
10.09302190331713
13.79311799645092
12.5173200977174
18.94046978292713
26.03315904182868
34.74125470865012
12.12989718412733
17.87754416981934
24.72013304832836
33.23117415671585
12.44060669937712
16.35127315386952
22.87567978308961
32.23975322809306
11.69560511608911
14.46102604122431
19.06089967808177
30.28265309266238
35.03427355121061
33.208058532366
32.54804755008981
33.17727747138349
31.8653859166508
31.7865119333735
32.24762201747136
32.35368978884051
31.01253007427216
32.65725887289165
32.98682146509055
33.02252380025399
29.23650690752525
31.45596317510584
31.77612983061266
32.50262141152135
32.92067322086801
33.2317781881821
33.49189720021347
33.61851527387743
32.97870587440424
32.93640189714215
32.84500370160796
32.95128060238104
32.92850808825327
33.39774009964094
33.83645466349648
34.09516577160541
34.75123116162969
35.80205502293705
36.54016741258707
36.54240978615859
33.61851527387935
32.95128060236217
34.09516577162864
36.54240978616309
33.49189720024112
32.84500370161054
33.83645466350825
36.54016741259024
33.23177818815939
32.93640189715231
33.39774009966961
35.80205502297451
32.92067322091633
32.9787058743886
32.92850808826178
34.75123116167763
33.17727747146922
32.54804755010259
33.20805853242235
35.03427355124091
32.35368978886641
32.24762201751962
31.78651193343422
31.86538591668765
33.02252380028549
32.98682146514931
32.65725887294558
31.01253007432911
32.50262141152893
31.77612983064163
31.45596317513813
29.23650690757594
30.28265309275773
19.06089967820179
14.4610260413255
11.69560511617487
32.23975322817088
22.87567978318229
16.3512731539763
12.44060669948441
33.23117415679396
24.72013304844342
17.87754416993287
12.12989718422474
34.74125470871272
26.03315904193938
18.9404697830188
12.51732009785356
10.67178951329223
6.785978375924652
4.153846724959956
1.929230584562299
11.94498006529943
7.80091387398645
5.088142598822206
2.736449833371017
12.64703474859058
8.646134083820378
5.473198618908755
3.199700026340639
13.79311799651207
10.09302190337341
6.199637795190521
3.754000955581605
1.2835765214176
2.690657692268914
16.54909637251223
64.62310221830214
1.464441965837646
2.242230162337698
10.39453514770478
49.95172519823927
1.62086973642513
1.963490816658037
6.572017199565713
34.7387183266816
1.813342240965514
1.726260317480027
3.061067321427779
19.55114641484801
105.8850896691773
126.7742155919321
140.6580338341891
148.5695242977147
114.3600563781533
128.8939788888861
142.181647284612
149.2632417895895
119.6675367093135
130.6896633201322
142.6094458207307
149.2075701014022
134.5834521006945
134.0434821071927
144.9545185842893
150.3697408552928
153.3866227193166
158.2753426954806
167.897183581972
178.1503153631083
153.7599464001295
158.9657301695187
169.2826847084664
180.1490059621807
153.7253139788192
159.5136908124973
169.4917288002624
181.2974175337908
154.8236274367016
161.1748268557123
170.9160481818725
183.7036635721439
190.5390773380035
201.7924145960058
209.3386828909739
218.1630707997265
192.3795314426862
203.9489313784262
212.1177011523562
219.3309431211475
193.4999901371714
205.0491394776165
213.6483567846221
218.3267471961186
195.2378052033299
206.9717852603072
215.5732634251568
213.2098402908467
181.4273551781742
165.0680732869153
114.0325922718258
78.67291591015652
173.2940208163315
162.5375124468378
121.5194923863864
81.36235290223759
171.9951496971445
161.3121254516457
125.2943453916101
83.49327322364411
171.9719133010875
161.6577933594457
130.7103480620834
84.86227506568959
73.05133394871817
72.10791475884237
71.29256185546242
70.93024970971605
72.92921907148585
71.73573169106167
70.8511635582211
70.4729398980483
72.80697794802676
71.87271882563769
71.13444642357079
70.90469027225973
72.84677272656428
71.55387893852689
70.61830577658471
70.29710184019177
70.98560099535958
70.60503763616767
71.90510663846314
82.83054451515272
70.38185507959957
69.65719345442794
69.03049873013198
75.82090276803365
70.93001388061006
70.22956342249958
68.8959019795674
69.99733857686715
70.19855958262657
69.23794668248493
66.59803557280506
60.73661603997814
109.3401301147703
114.2517647003781
117.8558741133382
119.6766399875834
109.8051050885519
114.3867502792457
118.0397286594526
119.9427626244037
110.2399128514395
114.3689515495953
118.2215019271723
120.2784506485614
108.5601354247899
114.5207180793979
118.1132285923377
120.4532337947869
122.392703621016
123.6399175844976
119.5298540694573
106.8653048134696
123.2433094961334
125.0504815272529
123.6038224088826
115.1010757583034
123.3301150692393
125.4941522434169
123.6454012767393
119.0249392598816
123.7372024378324
126.3196579537912
126.2794634569348
127.9921966249621
54.09251795420089
71.27169946205399
77.56403619309781
79.75946935482416
50.81941062790391
69.89485117987881
76.93583763709729
79.66607192204172
48.22275026092929
68.23905557880319
76.32192740254122
79.54994100128935
46.39927082969236
65.93425376686881
75.50459095828327
79.42102005489807
79.26102077573903
73.28959035952623
58.94042615511319
53.28147179447603
79.25279548759204
73.51467771051612
60.14551182647058
51.9357676877618
79.2546862888496
74.01517300128278
61.86283662441453
49.49577408632565
79.31318563868969
74.73228490993756
63.82127070273767
47.17420756677535
79.42102005477334
79.5499410011741
79.66607192199838
79.75946935459402
75.50459095803645
76.3219274024278
76.93583763685126
77.56403619302849
65.93425376688751
68.23905557883175
69.8948511800177
71.27169946220728
46.39927082966439
48.22275026087358
50.81941062790045
54.09251795421996
)
;

boundaryField
{
    back
    {
        type            empty;
    }
    inlet
    {
        type            zeroGradient;
    }
    front
    {
        type            empty;
    }
    top
    {
        type            zeroGradient;
    }
    outlet
    {
        type            fixedValue;
        value           uniform 80;
    }
    bottom
    {
        type            zeroGradient;
    }
    wall
    {
        type            zeroGradient;
    }
}


// ************************************************************************* //
