/*--------------------------------*- C++ -*----------------------------------*\
  =========                 |
  \\      /  F ield         | OpenFOAM: The Open Source CFD Toolbox
   \\    /   O peration     | Website:  https://openfoam.org
    \\  /    A nd           | Version:  11
     \\/     M anipulation  |
\*---------------------------------------------------------------------------*/
FoamFile
{
    format      ascii;
    class       volVectorField;
    location    "0.35923";
    object      U;
}
// * * * * * * * * * * * * * * * * * * * * * * * * * * * * * * * * * * * * * //

dimensions      [0 1 -1 0 0 0 0];

internalField   nonuniform List<vector> 
880
(
(24.99999999999999 -2.805161434145154e-12 0)
(24.99999998203539 -1.217134165080893e-08 0)
(24.99829039047705 -0.0005554138997374509 0)
(24.71737477870544 0.007624025204759067 0)
(24.99999999998872 -2.830588142720043e-11 0)
(24.99999994446383 -7.038618399923382e-08 0)
(24.99747977426134 -0.001721988518134429 0)
(24.63271064265343 -0.1593351237496707 0)
(24.99999999963697 -2.437280186709691e-10 0)
(24.99999976105939 -2.871455691383596e-07 0)
(24.99514584410975 -0.00358429349503521 0)
(24.51362025882585 -0.2644837255164729 0)
(24.99999999829957 1.051952362464913e-09 0)
(24.99999881834373 -1.1677141589361e-06 0)
(24.9890863546569 -0.007016465809144909 0)
(24.13726786927214 -0.4137219261602024 0)
(25.00000001119028 -4.114700212550346e-09 0)
(24.99999998002087 8.782439632580552e-09 0)
(24.99999953217522 -9.297336334849554e-07 0)
(24.99999314144353 -1.184244992427823e-05 0)
(24.99999376874841 -4.448230647970676e-06 0)
(24.99996304719689 -1.866962484527448e-05 0)
(24.9998558958954 1.068065943093451e-05 0)
(25.0001747722676 -0.001107637576712539 0)
(24.97171192008373 -0.01019802292482453 0)
(24.9516447638806 -0.006360009403020202 0)
(24.92414943955603 0.0107313476380327 0)
(24.9140819004905 -0.06683274419768435 0)
(23.40266793959576 -0.09542517948259512 0)
(22.69020350062165 0.6348445060885587 0)
(22.26859006102248 1.33501800100245 0)
(22.24433670496017 1.746218878094772 0)
(24.99988403173087 -6.200829297302137e-06 0)
(24.99960664870741 -0.000364076896246762 0)
(24.99925383439826 -0.001528939114170624 0)
(24.9974758919053 -0.004521997730101071 0)
(24.99801887359367 -0.0006930585694280761 0)
(24.99019732320276 -0.00035341616809613 0)
(24.97715149039449 0.00549337028045542 0)
(24.95442183513004 0.008911002896702094 0)
(24.75586745390875 -0.01080123913434579 0)
(24.63018780631579 0.09839363523500598 0)
(24.46166513512085 0.2785164651029777 0)
(24.31836455689248 0.4062514204057421 0)
(21.98170583223207 2.340696685050711 0)
(21.98735928626129 2.779755807066491 0)
(21.88515365176302 3.317347662220689 0)
(22.33928632860962 3.758386561772485 0)
(23.38569853060476 4.323092970865086 0)
(24.114238022477 4.172998883420808 0)
(24.45811236837498 3.766242850398105 0)
(24.81733830290647 3.316614754097439 0)
(24.07887911479192 0.7463904860334803 0)
(24.09387514049371 1.104397012634323 0)
(24.19614051652632 1.349476492482675 0)
(24.38215062991014 1.475553351249893 0)
(24.87564623616362 0.03529287227670313 0)
(24.77191292346577 0.1155019826494207 0)
(24.67955236832493 0.2412681868226469 0)
(24.63422847999676 0.3945490951960987 0)
(24.98787448209058 -0.01055516111974762 0)
(24.97236449093485 -0.02425914845739827 0)
(24.9502497065844 -0.04404271208701106 0)
(24.92405565003375 -0.07056051030465872 0)
(24.90149722459967 -0.1010152261113182 0)
(24.88771844730639 -0.1311284314348845 0)
(24.88285415865274 -0.1445216236415514 0)
(24.88833439578674 -0.1379742016646411 0)
(24.63265218176216 0.55746510459712 0)
(24.67447267499715 0.7120112947849189 0)
(24.76093883232118 0.8382048111928915 0)
(24.87670674427509 0.8925445704925962 0)
(24.54955702822442 1.60876033833207 0)
(24.75259601273522 1.654926333402188 0)
(24.94053983782196 1.627162050285514 0)
(25.09324409870182 1.55544243176338 0)
(24.99115092065545 2.905774637503509 0)
(25.17873708141228 2.489583356105135 0)
(25.29112503697797 2.094344918522236 0)
(25.36346430811471 1.77806456338589 0)
(25.4283291045502 1.377448236640753 0)
(25.24436335844204 1.453703346415164 0)
(24.99917334069999 0.9127110775100483 0)
(24.89607882918577 -0.1212186120507594 0)
(24.54822028367936 1.559452349766421 0)
(25.34339520258228 1.289284286964407 0)
(25.14341615320144 0.861747222724764 0)
(24.90333471423858 -0.09617665234179892 0)
(19.15491512491526 1.728671504618414 0)
(25.15910135053572 1.297171648767186 0)
(25.25815255418994 0.7517313540562071 0)
(24.91621961598155 -0.08052875540654157 0)
(14.12738305849595 2.095913064965537 0)
(23.70247444263168 1.628728139963383 0)
(25.27712970074527 0.7747038841388961 0)
(24.94897177473281 -0.09184633381832857 0)
(24.95451676938868 -0.06678462128491384 0)
(25.21734320089026 0.7181777029632616 0)
(22.05165403796434 2.269258483136131 0)
(12.49000140988696 3.860241273692618 0)
(24.83137574549268 -0.08882026771893975 0)
(24.99462136415457 0.8081735620872585 0)
(20.60622510109468 3.314437779924941 0)
(12.79869978867206 5.640513139938597 0)
(24.7895263556539 -0.1158399707609281 0)
(24.47451210230217 1.15679942246649 0)
(18.82523814887486 4.649331039483915 0)
(12.64762917857753 7.078638358302801 0)
(24.69835110725127 -0.1634552079812661 0)
(23.59947223308454 1.928651560581504 0)
(17.58798174219684 6.058244268526747 0)
(13.13585642952714 8.144210664412807 0)
(14.04754175721555 8.855782314802333 0)
(16.96800613119411 7.29372454929235 0)
(22.43020281404899 3.156410340432225 0)
(24.51837488673272 -0.1864966827842707 0)
(15.13571337122872 9.393350846665367 0)
(17.24094080939159 8.219314386340185 0)
(21.21749548414637 4.641700052521919 0)
(24.19853535592241 -0.07133470952952878 0)
(16.37656992295276 9.684323097662181 0)
(18.11055393530807 8.7543143634002 0)
(20.70769264692123 5.995707171917802 0)
(23.69401815861115 0.2363417677147372 0)
(17.5480476497952 9.756829771051207 0)
(19.39755102997733 8.854161652178606 0)
(20.8761183244746 7.035823541248911 0)
(23.19642284648928 0.7227995695188065 0)
(22.91108644348546 0.8508672551596823 0)
(22.04908534046037 7.091086751783314 0)
(21.12103935426298 8.806678243492762 0)
(18.96383784694558 9.897810128897996 0)
(23.45628646244774 0.6463008499472305 0)
(23.50851987939038 6.648095009689941 0)
(23.10795205007728 8.415258361513645 0)
(20.90704330963142 9.810491714279477 0)
(24.04003201439301 0.3440450374340057 0)
(24.93163159777241 5.875053967808699 0)
(25.19364179956492 7.620160071502947 0)
(23.44733389513473 9.238262986579052 0)
(24.5186823183334 -0.2494841639965095 0)
(26.06329623609874 4.606843711100456 0)
(27.16638468880251 6.226684874103692 0)
(26.40057671238898 7.616360655210461 0)
(24.88417209215678 -0.3075775792750292 0)
(26.92921200481612 3.628097585566364 0)
(29.04974380860892 4.804326005694787 0)
(30.68342595903149 4.758993027803767 0)
(25.30042906207422 -0.4989448348794391 0)
(27.49760136365915 2.601742019538984 0)
(30.11074715511004 3.390614814219025 0)
(34.0024575237509 0.7045732332336322 0)
(25.54322967840507 -0.5425375291036141 0)
(27.54987989307927 1.647321014865402 0)
(30.83462674161787 1.256056213683386 0)
(36.34821205359732 -4.254106959624917 0)
(25.65364444738941 -0.543711332107533 0)
(27.22437116996615 1.022799904537338 0)
(30.31217239547994 -0.3107439952423535 0)
(37.77815884639139 -9.251316500730676 0)
(34.01946823747348 -7.327592466673914 0)
(29.13029379980169 -1.417246524125324 0)
(26.94225875859337 0.3555017247453878 0)
(25.69366117892772 -0.5467219963849805 0)
(25.6338850021266 -3.214932038778698 0)
(28.24639340413573 -1.936542667233895 0)
(26.648039661881 -0.1001309557646931 0)
(25.62900309245165 -0.47201928199253 0)
(23.08887498604103 -3.612780938026836 0)
(27.74998582518478 -2.841705178712775 0)
(26.39342755645198 -0.5594141332338481 0)
(25.5062190362501 -0.3592495728599024 0)
(19.9029208825567 -3.65945068518157 0)
(26.97776028871166 -3.450130153597337 0)
(26.04923924132894 -0.9532205651414325 0)
(25.38974988312592 -0.2750708176901695 0)
(18.08506185097406 -4.760258532345627 0)
(25.72416513788843 -4.391146437678801 0)
(25.48595360926328 -1.28978107640675 0)
(25.18018696241727 -0.2156406207798066 0)
(15.43310825308028 -6.813843118572684 0)
(24.08641085572409 -4.635001388466697 0)
(24.89648976057031 -1.12567557385213 0)
(25.0012294984729 -0.1079116168842212 0)
(14.37826899105605 -6.976855567902496 0)
(23.02527708105407 -4.048471117713714 0)
(24.65192720782711 -0.73585531058631 0)
(24.97081183771766 -0.04912930934430811 0)
(14.3367293697615 -5.861318919336155 0)
(22.80035510423935 -3.600356203950589 0)
(24.67304475260869 -0.6014115253059223 0)
(24.97608702099749 -0.03607503052773077 0)
(14.22242922537791 -0.6633010369863566 0)
(20.34318757127 -0.1132160998021951 0)
(23.64836527061564 0.01058272261885699 0)
(24.85561479432472 0.001982267235591766 0)
(14.2040614878492 -1.755875287387431 0)
(20.33982156712897 -0.5377072791204295 0)
(23.66327252220039 0.0006448683882133693 0)
(24.85255729285534 0.004365137215774396 0)
(14.41839237686154 -3.256229749677276 0)
(20.34773689365211 -0.9877794956953081 0)
(23.70258191072421 -0.07173064588550611 0)
(24.85180582556605 0.0002511849544404828 0)
(14.47023796244686 -4.649564725495561 0)
(20.55633028520774 -1.352290329133834 0)
(23.80230170783915 -0.1946836133775394 0)
(24.86018923173268 -0.01138748348203667 0)
(14.33672936978199 5.861318919318213 0)
(22.80035510426326 3.600356203942686 0)
(24.67304475270552 0.6014115252584333 0)
(24.97608702110612 0.03607503050836314 0)
(14.37826899109771 6.976855567882978 0)
(23.02527708112219 4.04847111776373 0)
(24.65192720786661 0.7358553105703891 0)
(24.97081183776815 0.04912930939037031 0)
(15.43310825313789 6.813843118598434 0)
(24.08641085577272 4.635001388510858 0)
(24.89648976056023 1.12567557389635 0)
(25.00122949852556 0.1079116169346685 0)
(18.08506185099527 4.760258532346528 0)
(25.72416513795824 4.391146437742751 0)
(25.48595360927046 1.289781076440637 0)
(25.1801869624359 0.2156406208280108 0)
(25.69366117888819 0.546721996326394 0)
(26.94225875862645 -0.3555017247799404 0)
(29.13029379980269 1.417246524116434 0)
(34.01946823739642 7.327592466801262 0)
(25.62900309243927 0.4720192819409076 0)
(26.64803966189249 0.1001309557574187 0)
(28.24639340416066 1.936542667237377 0)
(25.63388500216538 3.214932038878575 0)
(25.50621903620526 0.3592495728138357 0)
(26.39342755644745 0.5594141332602548 0)
(27.7499858252709 2.84170517884547 0)
(23.08887498598689 3.612780938072869 0)
(25.38974988306526 0.2750708176698166 0)
(26.04923924126553 0.9532205651133301 0)
(26.97776028873696 3.450130153675435 0)
(19.9029208825938 3.659450685204202 0)
(37.77815884654884 9.25131650090224 0)
(30.31217239549873 0.3107439952372635 0)
(27.2243711700252 -1.022799904546275 0)
(25.65364444738555 0.5437113320604281 0)
(36.34821205360284 4.254106959673666 0)
(30.83462674163836 -1.256056213641255 0)
(27.54987989312473 -1.647321014872307 0)
(25.54322967836621 0.5425375291153399 0)
(34.00245752373927 -0.7045732331914949 0)
(30.11074715509321 -3.390614814204693 0)
(27.49760136370604 -2.601742019517613 0)
(25.30042906196402 0.4989448349484922 0)
(30.68342595900802 -4.75899302778694 0)
(29.04974380865036 -4.804326005665212 0)
(26.92921200489148 -3.628097585534716 0)
(24.88417209205137 0.3075775793630733 0)
(22.91108644344059 -0.8508672551420584 0)
(22.04908534039548 -7.091086751785629 0)
(21.12103935422257 -8.806678243497 0)
(18.96383784696246 -9.897810128896987 0)
(23.45628646242929 -0.6463008499026951 0)
(23.50851987939113 -6.648095009683742 0)
(23.10795205004007 -8.415258361500051 0)
(20.90704330963371 -9.810491714274677 0)
(24.04003201446685 -0.3440450374143533 0)
(24.93163159780818 -5.875053967820129 0)
(25.19364179954107 -7.620160071480933 0)
(23.44733389512985 -9.238262986565521 0)
(24.51868231830383 0.2494841640662568 0)
(26.06329623615353 -4.60684371107545 0)
(27.16638468879593 -6.226684874066908 0)
(26.40057671235937 -7.616360655197701 0)
(17.54804764981045 -9.756829771054122 0)
(19.39755102996746 -8.854161652184258 0)
(20.87611832442926 -7.035823541244449 0)
(23.19642284634336 -0.7227995695346876 0)
(16.37656992297531 -9.684323097674682 0)
(18.1105539353242 -8.754314363403848 0)
(20.70769264690334 -5.995707171925997 0)
(23.69401815857507 -0.2363417677114516 0)
(15.1357133712392 -9.393350846678318 0)
(17.24094080942621 -8.219314386332048 0)
(21.21749548414088 -4.641700052490825 0)
(24.19853535585334 0.07133470953660127 0)
(14.04754175724841 -8.855782314805404 0)
(16.96800613119438 -7.293724549258981 0)
(22.43020281396308 -3.15641034039841 0)
(24.5183748867033 0.1864966827857198 0)
(24.95451676940086 0.06678462130757995 0)
(25.21734320088549 -0.7181777029367725 0)
(22.05165403800019 -2.269258483150856 0)
(12.49000140992359 -3.860241273697175 0)
(24.83137574538944 0.08882026771718464 0)
(24.99462136413457 -0.8081735620430569 0)
(20.60622510111698 -3.314437779924889 0)
(12.79869978870956 -5.640513139960089 0)
(24.78952635548463 0.1158399707542293 0)
(24.47451210219519 -1.156799422403417 0)
(18.82523814888511 -4.649331039450518 0)
(12.64762917859713 -7.078638358303746 0)
(24.6983511072009 0.1634552079844387 0)
(23.59947223313218 -1.928651560507473 0)
(17.58798174224956 -6.058244268498594 0)
(13.13585642954522 -8.144210664420068 0)
(24.94897177471269 0.09184633383216119 0)
(24.91621961599206 0.08052875541909214 0)
(24.90333471416726 0.0961766523714699 0)
(24.89607882917661 0.1212186120471217 0)
(25.27712970082562 -0.7747038841404166 0)
(25.25815255425218 -0.7517313540469923 0)
(25.14341615316773 -0.8617472227133358 0)
(24.99917334067238 -0.9127110775255517 0)
(23.70247444271882 -1.628728139981966 0)
(25.15910135054235 -1.297171648771171 0)
(25.34339520263933 -1.289284286977341 0)
(25.24436335846735 -1.453703346407936 0)
(14.12738305854737 -2.095913064967101 0)
(19.15491512498188 -1.728671504614095 0)
(24.54822028366829 -1.559452349741762 0)
(25.42832910454202 -1.377448236615181 0)
(24.88833439574175 0.1379742016718875 0)
(24.87670674423408 -0.8925445704724521 0)
(25.09324409868972 -1.555442431738128 0)
(25.36346430811064 -1.778064563333102 0)
(24.88285415871164 0.1445216236222787 0)
(24.76093883224941 -0.8382048111845527 0)
(24.94053983781733 -1.627162050262078 0)
(25.2911250369731 -2.094344918478406 0)
(24.88771844730025 0.1311284314256106 0)
(24.67447267499158 -0.7120112947328826 0)
(24.7525960128197 -1.654926333416495 0)
(25.17873708146704 -2.489583356105447 0)
(24.90149722465287 0.1010152260304199 0)
(24.63265218176996 -0.5574651045750696 0)
(24.54955702819356 -1.608760338325891 0)
(24.99115092067333 -2.905774637495047 0)
(24.98787448208604 0.01055516103461335 0)
(24.87564623625473 -0.03529287218285228 0)
(24.07887911477328 -0.7463904860249548 0)
(23.38569853056337 -4.323092970835669 0)
(24.97236449098818 0.02425914834148287 0)
(24.77191292355958 -0.11550198257813 0)
(24.09387514049623 -1.104397012598959 0)
(24.11423802248969 -4.17299888342147 0)
(24.95024970650676 0.04404271206012303 0)
(24.67955236840926 -0.2412681867513241 0)
(24.19614051658681 -1.34947649248435 0)
(24.45811236846453 -3.766242850443665 0)
(24.92405565007608 0.07056051023663264 0)
(24.63422848002257 -0.3945490951427628 0)
(24.3821506299178 -1.475553351211532 0)
(24.81733830295038 -3.316614754121861 0)
(22.33928632863081 -3.758386561759528 0)
(24.31836455690238 -0.4062514204092228 0)
(24.95442183522701 -0.008911002801894869 0)
(24.99747589183374 0.004521997716820019 0)
(21.88515365179006 -3.317347662204367 0)
(24.46166513511239 -0.2785164651070806 0)
(24.97715149043916 -0.005493370242480916 0)
(24.9992538344346 0.001528939083148336 0)
(21.98735928627043 -2.779755807052745 0)
(24.6301878063551 -0.09839363524086635 0)
(24.99019732335204 0.0003534161750988391 0)
(24.99960664875403 0.0003640767745775727 0)
(21.98170583225233 -2.340696685035617 0)
(24.75586745396634 0.01080123912684128 0)
(24.99801887366985 0.0006930585845807498 0)
(24.99988403168517 6.200843565157338e-06 0)
(22.24433670492989 -1.746218878079691 0)
(24.91408190050589 0.06683274420226067 0)
(25.00017477228302 0.001107637595998301 0)
(24.99999314141485 1.184249315921608e-05 0)
(22.26859006096974 -1.33501800098931 0)
(24.92414943956877 -0.0107313476412127 0)
(24.99985589596762 -1.06806602687637e-05 0)
(24.99999953212868 9.29742904270625e-07 0)
(22.6902035004726 -0.6348445060974907 0)
(24.95164476390708 0.006360009394125433 0)
(24.99996304726968 1.866961559781693e-05 0)
(24.99999998004402 -8.827847724042227e-09 0)
(23.40266793938068 0.09542517943566817 0)
(24.97171192013768 0.01019802291953527 0)
(24.99999376879568 4.448243706487199e-06 0)
(25.00000001114297 4.117860802909813e-09 0)
(25.00000000000002 5.952963404198204e-12 0)
(24.99999998202275 1.215463251132852e-08 0)
(24.99829039047245 0.0005554138818384669 0)
(24.71737477868032 -0.007624025048007518 0)
(24.99999999997173 4.181652046047457e-11 0)
(24.99999994453834 7.036271190645251e-08 0)
(24.99747977428661 0.001721988495760172 0)
(24.63271064241043 0.1593351238197517 0)
(24.99999999962681 2.564345064460581e-10 0)
(24.99999976113378 2.871492664189525e-07 0)
(24.99514584410903 0.003584293481676375 0)
(24.51362025848456 0.2644837254471598 0)
(24.99999999828476 -1.026062005954605e-09 0)
(24.99999881839032 1.167726810908107e-06 0)
(24.98908635466375 0.007016465798856997 0)
(24.13726786900913 0.4137219261048479 0)
(24.52529570820866 1.098963864310376e-10 0)
(24.35982282782335 0.1495542649960661 0)
(23.9740831708407 0.1736335805826061 0)
(23.03859868531812 0.01872140698692288 0)
(24.35982282803948 -0.1495542647790007 0)
(24.08847084342904 4.096449229319474e-11 0)
(23.40961884679201 -0.06031003076505923 0)
(21.96072047519635 -0.4863757046539201 0)
(23.97408317129244 -0.1736335804897556 0)
(23.40961884712275 0.06031003084090233 0)
(22.12867140372947 6.328125199094147e-11 0)
(20.03101708245844 -0.5819741478981852 0)
(23.03859868574699 -0.01872140700762927 0)
(21.96072047569715 0.4863757045949362 0)
(20.03101708278436 0.581974147853106 0)
(17.78923945563039 -2.401134285495906e-10 0)
(17.258829357303 2.521589327716799 0)
(17.8993986659344 2.917356649275788 0)
(19.54344889602568 2.655846473549668 0)
(21.08698852943939 1.88781041444303 0)
(18.24495444252684 4.246794635666081 0)
(18.30816970852053 4.203010870749102 0)
(19.04070445962707 4.114790056352736 0)
(20.0740255141865 3.952551843344747 0)
(17.6839062864574 5.193214619711071 0)
(18.85061456366403 4.491078613748767 0)
(19.52796678857365 4.691884339356784 0)
(20.05238315075726 4.563752445510083 0)
(18.33530304971934 5.754233717905781 0)
(19.70559388812383 4.717203719052929 0)
(20.20575531322754 4.89124187332368 0)
(20.49074162802737 4.805582510432778 0)
(20.7910041305792 4.932713133206108 0)
(21.02928879175529 5.061733989630224 0)
(21.40437819255282 5.120586230358992 0)
(22.16086486599881 5.280352369390358 0)
(20.72903850756534 4.994255546745144 0)
(21.03871679192373 5.101576062397132 0)
(21.53839096115143 5.117420223860153 0)
(22.65130233541216 5.500676359180503 0)
(20.4728821292653 4.931267005968129 0)
(20.97346360463568 5.105930180000787 0)
(21.5553896906682 5.15819909437188 0)
(24.10138432009964 5.943010036949296 0)
(18.97621440900124 5.8511297723587 0)
(19.59936162604981 5.875963858541574 0)
(20.50319450445604 5.734775559469162 0)
(25.83119990568524 7.125903433705288 0)
(25.8152733543873 3.18758186162246 0)
(26.40946134228968 0.8090334078054181 0)
(25.7218661185208 0.4870754059130618 0)
(25.59510334325368 0.3820578397293656 0)
(28.37612175461657 2.198781174802676 0)
(28.69592121566187 0.339745904570712 0)
(27.56801610532952 0.2832492879209906 0)
(26.89269746483506 0.313758783195841 0)
(31.5490395328955 1.904712606356089 0)
(30.14994191193239 0.04577483199284783 0)
(28.75772332122932 0.05144582132297183 0)
(27.77932851394565 0.09386724132817424 0)
(25.07990843861051 1.987942055445771 0)
(24.21746403389894 0.6522451385354401 0)
(24.07231997747747 0.08971387403532848 0)
(24.15978140036986 -0.2164436356928835 0)
(25.66540807010294 0.386774794322769 0)
(25.71341766307882 0.3198166585409529 0)
(25.70094096597047 0.2051510343714803 0)
(25.65341673917557 0.1716806361375981 0)
(26.53710198043761 0.3417409242886131 0)
(26.2245704802053 0.2915165879019055 0)
(25.94661059694686 0.1916041594124689 0)
(25.72125409837365 0.1306925887713144 0)
(27.15027727428455 0.1478466655943857 0)
(26.59221090800569 0.1471938223665024 0)
(26.09878393368862 0.09831136945406066 0)
(25.66595361096192 0.08514760835882999 0)
(24.13120678060386 -0.4622483914540422 0)
(23.90328605097737 -0.6207308013194838 0)
(23.70228862009443 -0.715436602741923 0)
(23.36990439246741 -0.6662400429235054 0)
(25.20566299284428 0.7715699289344561 0)
(20.09293755828974 5.098089195206137 0)
(13.72033855853061 3.924716571583751 0)
(9.345381834774587 1.059392572616311 0)
(24.6278326558184 1.255163963048951 0)
(16.07297295065503 4.951488950413629 0)
(8.864209781316177 2.741036771352718 0)
(4.471190245311671 -0.1763972030732364 0)
(23.43607123232494 1.294883558168953 0)
(11.69414772302354 3.634411149819152 0)
(3.14008559428292 2.029315913832447 0)
(-0.7689329101291111 0.2418252266207717 0)
(19.41453016369717 -0.7285629930965977 0)
(7.303496294952052 -0.7958775514322238 0)
(0.2339610010468902 0.5429257601842981 0)
(-2.595531741883903 0.1744234390720064 0)
(8.569260940519554 2.693935624665804 0)
(10.58532766289517 4.559485879183365 0)
(11.49754067229931 6.280296851073885 0)
(12.44947126333223 7.625618441029992 0)
(6.136827380192102 1.993756305701588 0)
(9.511418935287539 4.411071485170485 0)
(11.20123715656741 6.226169951426386 0)
(12.40425165994232 7.672156638737853 0)
(2.933463294185467 0.0120447588661843 0)
(7.442606205431598 3.332034285626389 0)
(10.26716687390223 6.036209824856916 0)
(12.02118266985963 7.596928954057205 0)
(0.2396027436226089 -0.106185259346721 0)
(3.470406706129053 2.476053930896716 0)
(7.538155137514802 3.976294867490765 0)
(10.63462919491775 5.464036503053206 0)
(13.63847075036316 8.986411621012454 0)
(14.77052556021582 10.00809990921424 0)
(15.91942442769548 10.56580524651451 0)
(16.81354000926322 10.85600336354979 0)
(13.5581312806812 8.920965950367735 0)
(14.71373128110623 9.954805059831306 0)
(15.82394955693896 10.54169252713769 0)
(16.69642136640707 10.88144607046832 0)
(13.23586570643815 8.764154726922429 0)
(14.51737010491198 9.77574816252393 0)
(15.74211303211104 10.47467001786602 0)
(16.62311358814665 10.96201976625561 0)
(13.11730077391508 6.748249867064654 0)
(14.67185528851835 8.448793460209515 0)
(15.76614455127641 10.30188430074244 0)
(16.64571166143856 10.93924699950099 0)
(17.82794791833463 11.27570210108681 0)
(19.4233996121528 11.76986519870742 0)
(21.77502884434786 11.69318720177011 0)
(24.77796064354319 10.42091572948064 0)
(17.62281990866571 11.27979685473773 0)
(19.07495148645031 11.72988270708311 0)
(21.21153105127147 11.74951494002546 0)
(24.97580516829107 12.47343436469934 0)
(17.47375778903624 11.36889951034826 0)
(18.72300905788359 11.78349076782972 0)
(21.34548904081401 12.5855393207274 0)
(31.48511599282847 18.45879888579343 0)
(17.43741621077135 11.39316544770061 0)
(18.64015172100511 11.79214913220351 0)
(22.06807907683612 13.17484888194866 0)
(43.24388417020607 25.51569486025888 0)
(30.59383874739434 5.261155783076576 0)
(32.03801071987401 -3.582393219304418 0)
(12.65431628235382 8.691671330929312 0)
(7.85822309282262 30.84050141082624 0)
(32.23130592212423 4.900194376406134 0)
(26.46667014067056 -1.952314119104961 0)
(8.976635577765574 17.41683949553263 0)
(8.448498913302279 29.02651846806031 0)
(31.97397555430489 3.292505318979304 0)
(17.20832810349928 -4.302724113769808 0)
(3.829027969918095 21.32872349325813 0)
(4.611877877144046 29.02617441825386 0)
(20.30819081573733 -8.299039464905956 0)
(7.327970851412168 -0.5715799718638426 0)
(2.08838067940415 24.81775340904291 0)
(2.648116345912084 28.73358756772773 0)
(7.018704709150315 24.62019708164264 0)
(2.699024979318481 17.69609557198321 0)
(-0.7736005672139545 14.87114944945491 0)
(-2.833212773478676 9.937824274206335 0)
(6.711989727371625 23.57238126202261 0)
(1.914568457979635 19.2469547203835 0)
(-0.4570933077013991 14.98140436612219 0)
(-1.253685116233404 7.687026122554047 0)
(3.278046843700911 22.6145367281836 0)
(1.430207516958328 18.1064725391338 0)
(-0.3155886170984677 12.35839772607728 0)
(-0.8159253274410035 4.900341076380306 0)
(0.7861270356337909 22.03849794027797 0)
(-0.4547553116169413 17.36642468474555 0)
(-1.909239266127281 10.96787714304005 0)
(-1.738816129982744 3.285131072227252 0)
(-6.073553174176916 3.289590322757642 0)
(-2.016282652233369 0.2618415375513328 0)
(2.429397897480143 -2.420788618619642 0)
(4.457274579564839 -6.632317565893718 0)
(-6.812080571967271 3.050926227866532 0)
(-5.955262356354544 0.3484179107752171 0)
(-1.266246985073801 -0.7976695977875328 0)
(2.679466053373562 -5.575744381676848 0)
(-6.212564780303079 2.126556738265659 0)
(-7.805954595453637 0.6685123983833008 0)
(-4.517329444686863 0.3045013932391903 0)
(0.03302489331101534 -4.086348714508744 0)
(-4.585550375824184 2.184193939626045 0)
(-7.136318542734089 2.668273378985178 0)
(-5.228842041419936 3.072635556049381 0)
(-0.6490347237467641 -1.052280993825735 0)
(2.361622909153612 -6.935564144553061 0)
(2.29352530840169 -7.541121868808123 0)
(3.157131637066363 -7.21591229179701 0)
(4.463187650298932 -6.469476443792607 0)
(1.465956129287731 -6.803653532005987 0)
(1.926849731620787 -6.275449340789473 0)
(3.127237807858123 -5.84094973007245 0)
(3.89988194383006 -4.924725663081882 0)
(0.4569899462465782 -4.751066649776442 0)
(0.6587944840379213 -3.491533535563974 0)
(1.655612658537072 -3.00379802516306 0)
(2.137507555931974 -1.923821887199074 0)
(1.659366546216605 -1.986950597349825 0)
(1.31146462151003 -0.752733449099072 0)
(1.877372966061678 -0.3123037625851439 0)
(1.653288370491544 0.6368097482837196 0)
(0.7800224870820435 1.14740281015046 0)
(-0.03310006322988704 1.284778965345388 0)
(-0.658838062464757 0.968319945737359 0)
(-0.9814408955506906 0.3366318218403139 0)
(1.587096651759782 -0.9805912231821599 0)
(0.5863687812596081 -0.4815996095054746 0)
(-0.2570613290509239 -0.05725612880004823 0)
(-0.6751505730706648 -0.02424539173991136 0)
(3.363952091692882 -3.806349827709751 0)
(2.444262568971785 -2.797148645114758 0)
(1.338254147506034 -1.705018842600526 0)
(0.6068630725644034 -0.6385758675105118 0)
(5.107229650340936 -4.81703278856103 0)
(4.970176780787181 -3.302666555241837 0)
(4.188239774362062 -2.0220523847598 0)
(3.72110929508723 -0.7293898423442259 0)
(-0.9814408955529663 -0.3366318218174314 0)
(-0.6751505730710425 0.0242453917497118 0)
(0.606863072564337 0.638575867504794 0)
(3.721109295088548 0.7293898423247303 0)
(-0.6588380624682149 -0.9683199457172709 0)
(-0.2570613290516403 0.05725612880951166 0)
(1.338254147510244 1.705018842597856 0)
(4.188239774392117 2.022052384741849 0)
(-0.03310006323370521 -1.28477896533219 0)
(0.5863687812582694 0.481599609512749 0)
(2.444262568973935 2.797148645116334 0)
(4.970176780806427 3.302666555241915 0)
(0.7800224870799584 -1.147402810140491 0)
(1.587096651762678 0.9805912231873845 0)
(3.363952091689405 3.806349827718296 0)
(5.107229650339693 4.817032788565738 0)
(4.463187650287507 6.469476443776502 0)
(3.157131637073028 7.215912291793575 0)
(2.293525308405216 7.541121868799689 0)
(2.361622909169887 6.935564144544359 0)
(3.89988194382923 4.924725663081414 0)
(3.12723780786685 5.840949730066129 0)
(1.926849731635081 6.275449340775746 0)
(1.465956129309495 6.803653531996465 0)
(2.137507555935602 1.923821887199218 0)
(1.655612658542811 3.003798025160034 0)
(0.6587944840481768 3.491533535561092 0)
(0.4569899462602435 4.751066649770362 0)
(1.653288370494715 -0.6368097482803363 0)
(1.877372966069309 0.3123037625894797 0)
(1.311464621520068 0.7527334491066642 0)
(1.659366546225174 1.986950597357719 0)
(-0.6490347237291515 1.052280993827703 0)
(-5.228842041386037 -3.072635556022794 0)
(-7.136318542697241 -2.66827337895428 0)
(-4.585550375796807 -2.184193939617607 0)
(0.03302489332632515 4.086348714506585 0)
(-4.517329444658187 -0.3045013932162874 0)
(-7.805954595396697 -0.6685123983659308 0)
(-6.212564780250381 -2.126556738238954 0)
(2.679466053386852 5.575744381668529 0)
(-1.266246985040824 0.7976695978111544 0)
(-5.955262356283749 -0.3484179107494037 0)
(-6.812080571920173 -3.050926227817012 0)
(4.457274579577456 6.632317565888961 0)
(2.429397897504545 2.420788618641107 0)
(-2.016282652145765 -0.2618415375301982 0)
(-6.073553174088763 -3.289590322694399 0)
(-2.833212773474 -9.937824274096032 0)
(-0.7736005672720436 -14.87114944946784 0)
(2.699024979358116 -17.69609557224556 0)
(7.018704708890058 -24.62019708179618 0)
(-1.253685116229226 -7.687026122490361 0)
(-0.457093307712614 -14.98140436609986 0)
(1.914568458068705 -19.24695472047206 0)
(6.711989727411142 -23.57238126204135 0)
(-0.8159253274426947 -4.900341076356166 0)
(-0.315588617103527 -12.35839772606839 0)
(1.430207516982342 -18.10647253914678 0)
(3.27804684371934 -22.61453672819816 0)
(-1.738816129977928 -3.285131072235463 0)
(-1.90923926613128 -10.96787714304612 0)
(-0.4547553116185565 -17.36642468475781 0)
(0.7861270356449338 -22.03849794032262 0)
(7.858223092470018 -30.84050141089213 0)
(12.65431628209319 -8.691671331240284 0)
(32.03801071978439 3.582393219347791 0)
(30.59383874734423 -5.261155783054083 0)
(8.448498913170237 -29.02651846812507 0)
(8.976635577706306 -17.41683949572295 0)
(26.46667014064397 1.952314119075278 0)
(32.23130592211707 -4.900194376385917 0)
(4.611877877162569 -29.02617441834202 0)
(3.829027969863001 -21.32872349336552 0)
(17.20832810349356 4.302724113723502 0)
(31.97397555428375 -3.292505318972077 0)
(2.648116345916873 -28.73358756778922 0)
(2.088380679381394 -24.81775340915697 0)
(7.327970851434747 0.5715799717995597 0)
(20.3081908157751 8.299039464898048 0)
(24.77796064353246 -10.4209157294607 0)
(21.77502884435764 -11.69318720175611 0)
(19.42339961218316 -11.76986519869899 0)
(17.82794791835235 -11.27570210109578 0)
(24.97580516829781 -12.47343436468829 0)
(21.2115310512594 -11.74951493999503 0)
(19.07495148645227 -11.72988270706771 0)
(17.62281990868969 -11.27979685474467 0)
(31.48511599283086 -18.45879888578456 0)