/*--------------------------------*- C++ -*----------------------------------*\
  =========                 |
  \\      /  F ield         | OpenFOAM: The Open Source CFD Toolbox
   \\    /   O peration     | Website:  https://openfoam.org
    \\  /    A nd           | Version:  11
     \\/     M anipulation  |
\*---------------------------------------------------------------------------*/
FoamFile
{
    format      ascii;
    class       volScalarField;
    location    "0.04";
    object      T;
}
// * * * * * * * * * * * * * * * * * * * * * * * * * * * * * * * * * * * * * //

dimensions      [0 0 0 1 0 0 0];

internalField   nonuniform List<scalar> 
880
(
500
500
500.0000000074965
500.0000004861257
500.0000000000001
500
500.0000000628079
500.0000170031925
500
500
500.0000028255344
500.0021887414135
500.0000000000001
500
499.9999936062361
500.0397511002401
500
500
500.0000000000001
500.000000001363
500
500.0000000000115
500.0000000008866
500.0000000315858
500.0002914678944
500.000891829188
500.0018271580892
499.9984372661448
500.6537050232835
502.4773576940353
504.0438236436825
504.5348883056999
500.0000000938022
500.0000001278953
500.0000001382227
500.0000001264892
500.0000065856879
500.0000095217539
500.0000102314903
500.0000083281541
500.0107186824575
500.0121286819869
500.0123005785791
500.0126759531817
504.8234581870485
505.2214822775238
505.2015997905391
505.8656332300238
504.4954308297255
502.6903865042021
501.104347120448
500.2272593047114
500.0206800028512
500.0151632352665
500.0067469678031
500.0013541272079
500.0000241632658
500.0000188293686
500.0000085680502
500.0000016242606
500.0000003384769
500.0000002470915
500.000000089192
500.0000000111759
500.0000000002832
499.9999999999959
500.0000000000001
500
500.0000000804494
500.0000000006268
499.9999999999974
499.9999999999999
500.0000760665723
500.0000007011853
499.9999999940177
499.9999999984804
500.014957395692
500.0001931480368
499.9999996952748
499.9999996611
499.9999999104743
499.9999999998613
500
500.0000000000001
499.9999953620003
499.9999997848578
499.99999999895
500.0000000000001
500.0030226445633
500.0000193438802
500.0000000828533
500.0000000016668
500.4244559414666
499.9943646686211
499.9998306120066
499.9999998635159
500.000000046017
499.9999975872176
500.0158731341799
511.5724311171322
500.0000006010906
500.0000492817597
500.0626380930686
521.5819652558387
500.0000008971401
500.0000753884212
500.0923767033969
527.4593515787228
500.0000011520821
500.0000946919927
500.1088642675141
529.5969631456945
531.0561370070506
500.1264945490881
500.0001185779935
500.0000014850805
532.7450140573652
500.1494675080978
500.0001517797722
500.0000019483452
534.3693109161773
500.1745804261869
500.0001912310343
500.0000025450615
536.5026659405622
500.2163507267001
500.0002642931183
500.0000036265834
500.0000033033316
500.0002407077257
500.2250511995343
538.7275045301773
500.0000040964014
500.0002935128189
500.2524887040843
539.0614958097483
500.0000050883248
500.0003316970444
500.2506131158772
534.5926520312958
500.0000023037844
500.0001707691703
500.1211192234729
518.487872526753
499.9999413676586
499.9987433088627
500.1392953337554
508.0730690304641
499.9999941371467
499.9964500173054
499.8270872093441
500.599565619676
499.9999980655392
499.9985165195474
499.6783143865062
491.6678394524664
499.9999983696537
499.998284872365
499.4998659988966
484.354473425251
488.0257907336076
499.7622107808348
499.9991655114208
499.9999986441576
487.5091764250012
499.7785604091465
499.999298007886
499.999998979531
491.0479985158984
499.8584866114924
499.9995739940222
499.9999993955791
489.6616294796411
499.8293699105979
499.9995266338192
499.999999377848
492.2679499976491
499.9530323093038
499.9998919147774
499.9999998458541
497.1895276771181
499.9926296687958
499.9999892337589
499.9999999892552
499.1913691620074
499.997313614068
499.9999954350054
499.9999999949921
499.0220599988581
499.9959943554031
499.9999920963775
499.9999999892333
498.3799661835564
499.9789029219558
499.9999162539659
499.9999998484527
498.3770688643535
499.9789166095582
499.9999163430807
499.999999848506
498.3493920826572
499.9788862865071
499.9999165171319
499.9999998478464
498.4099556595934
499.9791905438414
499.9999177791524
499.9999998482797
499.0220599988597
499.9959943553901
499.9999920963706
499.9999999892125
499.1913691620178
499.9973136140351
499.9999954349741
499.9999999949979
497.1895276770996
499.9926296687652
499.9999892337419
499.9999999892468
492.2679499976589
499.9530323092706
499.9998919147795
499.9999998458535
499.9999986441764
499.9991655114436
499.7622107809211
488.025790733439
499.9999989795267
499.9992980078792
499.7785604091117
487.5091764248302
499.9999993955876
499.9995739940143
499.8584866114484
491.0479985158152
499.9999993778507
499.999526633861
499.8293699106175
489.6616294797006
484.3544734251558
499.4998659988693
499.998284872347
499.9999983696586
491.667839452422
499.6783143865008
499.9985165195675
499.9999980655421
500.5995656196192
499.8270872093689
499.9964500172966
499.999994137154
508.0730690304555
500.1392953337039
499.998743308823
499.9999413676888
500.0000033033072
500.0002407077299
500.2250511996031
538.7275045303337
500.0000040964023
500.0002935128343
500.2524887040911
539.0614958098787
500.000005088303
500.0003316970562
500.2506131158767
534.5926520313053
500.0000023038061
500.0001707691493
500.1211192234733
518.4878725267446
536.5026659406886
500.2163507266778
500.0002642931396
500.000003626634
534.3693109162866
500.1745804261313
500.0001912310435
500.0000025450734
532.7450140574364
500.1494675081676
500.0001517797654
500.0000019483451
531.056137007064
500.1264945490412
500.0001185779928
500.0000014850821
500.0000000460217
499.9999975872366
500.015873134154
511.5724311171464
500.0000006011211
500.0000492818003
500.0626380930885
521.5819652558578
500.0000008971521
500.0000753884021
500.0923767033553
527.4593515787057
500.0000011520794
500.0000946920123
500.1088642675898
529.596963145701
499.9999998635156
500.0000000016622
499.9999999999999
500.0000000000001
499.9998306119701
500.0000000828369
499.999999998942
500
499.9943646685858
500.0000193439039
499.9999997848521
499.9999999998696
500.4244559414456
500.0030226445614
499.9999953620293
499.9999999104727
500
499.9999999999996
499.9999999984843
499.9999996611099
500.0000000000001
499.9999999999969
499.9999999940251
499.9999996952917
499.9999999999964
500.0000000006294
500.0000007011749
500.0001931480223
500.0000000002733
500.0000000804491
500.0000760665729
500.0149573956789
500.0000003384669
500.0000241632324
500.0206800028548
504.4954308297549
500.0000002470503
500.0000188294028
500.0151632352839
502.6903865041859
500.0000000892049
500.0000085680219
500.0067469677857
501.1043471203986
500.0000000111755
500.0000016242548
500.0013541272168
500.2272593047139
505.8656332300067
500.012675953151
500.0000083281452
500.0000001266127
505.2015997905124
500.0123005786128
500.0000102314668
500.0000001384796
505.2214822775273
500.012128682013
500.0000095217466
500.0000001274347
504.8234581870482
500.010718682465
500.0000065856514
500.0000000939366
504.5348883056882
499.9984372661537
500.0000000315922
500.0000000013739
504.0438236436758
500.0018271580741
500.0000000008509
500
502.4773576940357
500.0008918291858
500.0000000000117
500
500.6537050232766
500.0002914678745
500.0000000000001
499.9999999999999
500.0000000000001
500
500.0000000075056
500.0000004861255
500
500
500.0000000628127
500.0000170032085
500
500
500.00000282554
500.002188741419
500
500.0000000000001
499.9999936062239
500.0397511001914
500.0000071843245
500.0000617922796
500.0138676806566
500.4943734574651
500.0000617922647
500.0005650145041
500.1140463363001
502.6431437549317
500.0138676806599
500.1140463363053
501.7347766010457
510.8924331012858
500.4943734575195
502.6431437549995
510.892433101397
532.3201921466242
557.3557751950693
537.0624274088149
525.438668020054
512.2975087489391
554.5875859583072
549.2062859178524
545.7843777817808
535.8335678350817
553.6611536859677
553.4727559073058
553.2562600252173
549.6556252417546
555.5318414392344
557.0465460700774
557.9043803610383
555.3393929070916
556.9833571086491
557.1554431926949
557.2709813533576
559.1010602445629
559.5417116669109
559.6909487714195
559.7408991805535
562.7080229722283
558.192404257353
558.255688962553
558.25090562539
561.0260286853389
556.3367714125063
556.363136206385
556.3164674854316
553.6702266976696
531.8698272236381
514.6481478804437
505.6979089228981
501.1950716405538
519.5050008807793
506.319564716655
503.876230253413
501.2506268880442
507.6058234305285
504.9044099645542
504.6402657171704
501.6674721132778
489.1893286429579
501.5139430392314
502.4012485489072
500.555405463756
500.088717919677
500.0016186869329
499.9999947650349
499.9999958907757
500.128593993633
500.0027081362192
499.9999974375265
499.9999961478235
500.1774721098267
500.0038931109294
499.9999909653642
499.9999966465552
500.0192341321132
499.9997486541493
499.9999352740046
499.9999970196058
499.9999987222955
499.9999987157492
500.0766781454444
523.5719229752443
499.9999986004445
499.9999995062547
500.1206658366598
538.1145982062658
499.9999990965887
499.9999999646393
500.1954196425888
545.4444296542391
499.9999996800394
500.0000000776785
500.433670700335
545.9927321444271
613.2880441029881
628.8628893035667
641.9028538917927
645.2075355822398
631.2130450309872
632.4628830337844
641.8153712162519
645.9371180344328
634.2104429474231
628.2824103146659
635.300446114834
640.2845162590214
645.6300629151068
632.9369453663895
637.0393456653837
641.9651159861028
645.79308958679
646.2491516291199
646.5823712454348
647.1276226834569
646.3268866168833
646.3040383458597
646.1885600093226
646.0169209328009
641.0206624826617
641.0401822014832
640.9747210933261
640.6754277179688
643.000861194766
643.0693568297361
643.0521833179498
642.8006760392918
650.0805145748833
647.4441974391658
630.551162712591
588.1110235069858
646.9109057874979
644.6072815735181
630.7516162585493
611.9547112547928
640.5930623361712
638.7187154284138
628.7291267381077
628.6811087392285
642.1396903214546
640.4629085494822
634.1560044355556
629.1647455747653
544.3921297358575
502.7631685987328
395.5601246038953
357.3529812025961
557.8806550331752
463.6317218843119
356.2990097812226
314.401664694002
523.7400957702794
436.2381417948889
331.498015274885
292.897237426778
409.8389667645743
354.0432704780342
316.7057443861319
294.583000461864
359.2004912767736
359.0455248009681
361.2343315112809
347.6643760243932
309.4754925052637
312.895716858268
322.4948468991405
315.5437382814098
289.2253926197305
294.7647475865338
309.6462998631077
322.0582360227612
292.8824247723254
299.5174045242512
311.240337371353
313.0080563168908
446.5893150272339
471.0224927422715
478.8253268828983
476.0935993051259
435.4905046643784
457.7274480375407
462.961170367837
471.8864292613333
407.5049562476286
458.4879471882755
457.9692959577928
477.2003326558446
354.3111842637678
423.6534925224493
449.2948487433661
462.1874070039489
478.7661489189323
465.3144544006664
454.7978238986242
436.8698433140841
440.2235498148681
428.4936810994751
428.9378762649793
408.181277943928
390.9324054138104
303.5278344125738
359.363099331081
381.1295370252986
339.0949776065144
238.9702636515713
245.5501302769615
280.5792256582675
301.5324251706639
304.532471566516
293.8997543126678
271.0420074821013
377.6147384895772
362.692795475028
328.4858117081183
297.4591917987026
384.4730895431189
358.6112563297028
330.842363235067
319.2517277986755
418.1710870708205
404.0769480380603
395.4131951037371
393.0321787086492
271.0420074820902
297.459191798694
319.2517277986788
393.0321787086202
293.8997543126536
328.4858117080975
330.8423632350809
395.4131951037551
304.5324715665238
362.6927954750199
358.6112563297061
404.0769480380578
301.5324251706831
377.6147384895726
384.4730895431215
418.1710870708185
436.8698433141016
454.7978238986498
465.3144544006919
478.7661489189353
408.1812779439395
428.9378762649758
428.4936810994526
440.2235498148489
381.1295370253075
359.3630993310834
303.5278344126225
390.9324054138036
280.5792256582948
245.550130276997
238.9702636516097
339.0949776065125
462.1874070039408
449.294848743348
423.6534925224416
354.3111842638369
477.2003326558342
457.9692959577815
458.4879471882633
407.5049562476871
471.8864292613256
462.9611703678306
457.727448037533
435.4905046643839
476.0935993051214
478.8253268828977
471.0224927422572
446.5893150272203
347.6643760244003
361.234331511242
359.0455248008669
359.2004912766815
315.543738281467
322.4948468991549
312.8957168582793
309.4754925052859
322.0582360228451
309.6462998631638
294.7647475865787
289.2253926197537
313.0080563169799
311.2403373714144
299.5174045243169
292.8824247723526
357.3529812025259
395.5601246031635
502.7631685982834
544.3921297359208
314.4016646939697
356.299009780874
463.6317218841083
557.8806550331934
292.8972374267808
331.4980152746337
436.2381417946451
523.7400957703845
294.5830004618568
316.7057443859864
354.043270477976
409.8389667647168
588.1110235069392
630.5511627125787
647.4441974392569
650.0805145750146
611.9547112547918
630.751616258521
644.6072815735079
646.9109057875057
628.6811087392502
628.7291267380755
638.7187154283649
640.5930623361241
629.1647455748198
634.1560044355272
640.4629085494423
642.1396903214098
647.1276226835699
646.582371245549
646.2491516291643
645.7930895868221
646.016920932801
646.1885600093431
646.3040383458598
646.3268866168816
640.6754277179492
640.9747210933449
641.0401822015091
641.0206624826692
642.8006760392809
643.052183317973
643.0693568297768
643.000861194789
645.2075355822452
641.9028538917784
628.8628893036084
613.2880441030713
645.9371180344556
641.8153712162183
632.4628830338057
631.2130450310298
640.2845162590129
635.3004461148041
628.282410314667
634.2104429473711
641.9651159860981
637.0393456653491
632.9369453663777
645.6300629150072
523.5719229752286
500.0766781454415
499.999998715491
499.9999987223001
538.114598206249
500.1206658366384
499.9999995061232
499.9999986004658
545.444429654215
500.1954196425673
499.9999999646088
499.9999990966187
545.9927321443926
500.4336707002874
500.0000000775907
499.9999996800725
499.9999958907804
499.9999947650448
500.0016186869172
500.0887179196849
499.9999961478317
499.999997437529
500.002708136187
500.1285939936507
499.9999966465606
499.9999909653635
500.0038931108879
500.1774721098546
499.999997019604
499.9999352740059
499.999748654094
500.0192341321454
501.1950716405699
505.6979089228407
514.6481478804251
531.8698272236736
501.2506268880265
503.8762302533823
506.319564716659
519.5050008807993
501.6674721132433
504.6402657171604
504.9044099645772
507.6058234305227
500.5554054637127
502.4012485488958
501.5139430392434
489.1893286429603
559.1010602445567
557.2709813533663
557.1554431927179
556.9833571086823
562.7080229721977
559.7408991805653
559.6909487714507
559.5417116669288
561.0260286852775
558.2509056253796
558.255688962572
558.1924042573636
553.6702266976105
556.3164674854095
556.3631362063904
556.336771412507
555.3393929070476
549.6556252417513
535.8335678351407
512.2975087489781
557.9043803610185
553.2562600252485
545.7843777817975
525.4386680200205
557.0465460701153
553.4727559073617
549.2062859178352
537.0624274087145
555.5318414392779
553.66115368603
554.5875859582985
557.3557751950391
499.5136506502088
499.9960708813105
499.9999881994149
499.9999999813576
498.9898622136522
499.9912738266847
499.999970856628
499.9999999489668
498.5728321890811
499.9842415976626
499.999942951248
499.9999998979257
497.7476635506089
499.9752640621499
499.9999129832617
499.999999849961
499.9999998484761
499.9999162539688
499.9789029219545
498.3799661835278
499.9999998484894
499.999916343088
499.9789166095679
498.3770688643332
499.9999998478527
499.9999165171178
499.9788862865084
498.3493920826565
499.9999998483022
499.9999177791457
499.9791905438626
498.409955659591
499.999999849927
499.9999998979406
499.9999999489804
499.9999999813477
499.9999129832425
499.9999429512475
499.9999708566269
499.9999881994273
499.9752640621424
499.9842415976523
499.9912738267097
499.9960708813055
497.7476635505847
498.5728321890612
498.9898622136736
499.5136506502198
)
;

boundaryField
{
    back
    {
        type            empty;
    }
    inlet
    {
        type            zeroGradient;
    }
    front
    {
        type            empty;
    }
    top
    {
        type            zeroGradient;
    }
    outlet
    {
        type            fixedValue;
        value           uniform 500;
    }
    bottom
    {
        type            zeroGradient;
    }
    wall
    {
        type            zeroGradient;
    }
}


// ************************************************************************* //
