/*--------------------------------*- C++ -*----------------------------------*\
  =========                 |
  \\      /  F ield         | OpenFOAM: The Open Source CFD Toolbox
   \\    /   O peration     | Website:  https://openfoam.org
    \\  /    A nd           | Version:  11
     \\/     M anipulation  |
\*---------------------------------------------------------------------------*/
FoamFile
{
    format      ascii;
    class       volScalarField;
    location    "0.265";
    object      T;
}
// * * * * * * * * * * * * * * * * * * * * * * * * * * * * * * * * * * * * * //

dimensions      [0 0 0 1 0 0 0];

internalField   nonuniform List<scalar> 
880
(
500
500.0000000907178
500.0047083317507
501.5775529890233
500.0000000000001
500.000000045026
500.0082529897088
502.574009596891
500.0000000001177
500.0000001554643
500.0188325185104
503.979872498025
500.0000000018325
500.0000008776466
500.0469328175672
506.1755088352434
499.9999999627645
500.0000000299541
499.999999240317
500.0000799935214
500.000009700846
500.0000243365034
500.0007204918722
500.0010961664805
500.121323216757
500.2235000668168
500.4445861202274
500.3669481076729
511.1631879316807
516.8974126153257
521.8052418776481
524.0824025854869
500.0001987213751
500.0014000687369
500.0025030225634
500.0134536011222
500.0120045653758
500.0349294706799
500.0780162380846
500.1461198061784
501.3998776242402
502.3627992177283
503.4007680957187
504.6887198915936
526.5183662852268
529.6153236804842
530.8494358342639
530.700126691191
521.4561735567057
517.1902071805981
515.8134431539769
514.3598774920398
508.043452239619
509.4675156380404
510.5251432940168
510.7960341633884
500.5154632789421
500.9256188699902
501.4004061599066
501.8389692860021
500.048756460421
500.1314244284399
500.2609462202007
500.4271260886438
500.5974879678308
500.7249677169748
500.7689070800751
500.7473136502117
502.1569507641685
502.3515418586828
502.4685717010036
502.5738408402524
510.6083573914669
510.0825587582281
509.463082697829
508.6598143416621
513.0968841386973
512.0084782866995
511.3055529494513
510.4672779421628
508.6920791949209
507.8685303226517
502.5841445994908
500.6555606553
510.2950684812476
506.9205793796451
502.3389839929011
500.5319507546665
526.3786487070289
506.8954510778078
501.8450179983759
500.3561375782184
576.9192173667636
511.1009286839544
501.6984200630607
500.1976152483009
500.0789058555289
501.6204382794502
519.6820157784914
615.1665898197452
500.0733018333393
501.7333954298807
528.5938012977504
619.7991853479892
500.1697678936148
502.7176226637396
541.6453894530938
627.5560417522838
500.4292663357273
505.083954056938
555.3590830373222
630.4466231492931
631.4014873165344
571.0347504987069
509.6801388532388
500.9727458117739
629.5927832865096
585.0848902401918
517.4062409243074
502.0524540425954
626.0173896113871
594.4484586508675
527.3977369770981
503.8425723331904
618.518566415799
598.2229793295028
538.0665049330662
506.6727936349342
510.6573238862671
544.2239656536912
589.2842556752481
607.4392277982556
511.9330556613246
537.2322770219281
572.0639723268113
591.561380316575
511.3410155702545
529.3855171340914
553.6300005990079
569.3043874033366
509.2596494355788
520.1167548495683
533.8809282023068
540.1774057665799
509.0654161981764
515.3914329836496
519.2264436643594
508.1408503181387
506.7219604005331
509.1188748815134
503.8456231469276
465.2980245077391
504.4225813699016
505.1203508176538
502.7541120302087
443.8138086361739
502.7012970998367
504.8381271751695
506.5742684908499
461.2102917590313
514.4446835894568
506.2999828475438
503.0577838951859
501.2135158312868
540.7498531563532
508.1663759303502
502.0983833643295
500.3398453452504
551.8316691372479
510.3136903821225
501.0953861195235
499.9551256542046
542.7192127291984
511.0387181680164
499.7358387738861
499.7563474805983
526.9944995342133
504.1484765955383
498.1466710080126
499.611168258871
505.8256372351431
497.8836907512907
498.1867958855988
499.7803377417911
487.386599091769
494.4706738381665
498.4770109458569
499.9144907958866
479.624938862393
493.6479550827412
499.0460836897939
499.9644063400651
443.4818947968058
486.1137243189556
497.8093335625302
499.863026931205
448.0810906870796
485.9134888188275
497.6965979081688
499.8684159813345
454.6917382444922
485.3357355344135
497.5454865000082
499.8722236682939
462.8544451090035
484.9574537298516
497.373286541324
499.8725760063506
479.6249388623743
493.6479550829215
499.046083690282
499.964406339676
487.3865990918497
494.4706738380274
498.477010945733
499.9144907953137
505.8256372348885
497.8836907508336
498.1867958850179
499.7803377412282
526.994499534125
504.1484765948808
498.1466710076501
499.6111682586464
501.2135158312612
503.0577838953214
506.2999828479244
514.4446835893699
500.3398453452994
502.0983833643423
508.1663759304175
540.749853156426
499.955125654572
501.0953861196016
510.3136903809815
551.8316691369893
499.7563474808257
499.7358387743505
511.0387181674683
542.719212729172
461.2102917591882
506.5742684912626
504.8381271750957
502.7012970996404
443.8138086361997
502.7541120304365
505.1203508178621
504.4225813693943
465.2980245078409
503.8456231471168
509.1188748817822
506.7219604002656
508.1408503184709
519.2264436641715
515.3914329831571
509.0654161982235
510.657323886195
544.2239656552711
589.2842556764951
607.4392277986906
511.9330556608616
537.2322770222373
572.0639723272858
591.5613803170651
511.3410155697486
529.3855171343713
553.6300005990207
569.3043874036733
509.2596494355075
520.1167548489409
533.8809282022064
540.1774057669516
618.5185664160564
598.2229793296946
538.0665049331903
506.6727936359161
626.0173896116539
594.4484586508257
527.3977369770288
503.8425723330339
629.5927832867235
585.0848902402576
517.4062409237242
502.0524540427638
631.401487316777
571.0347504992346
509.6801388544119
500.9727458116169
500.078905855572
501.6204382793975
519.6820157782231
615.1665898193254
500.0733018339635
501.733395430644
528.5938012981597
619.7991853479834
500.1697678944702
502.7176226644671
541.6453894531757
627.5560417525955
500.4292663359416
505.083954056156
555.3590830371428
630.4466231493094
500.1976152481561
500.3561375780763
500.5319507550136
500.6555606553674
501.6984200623494
501.8450179980064
502.3389839927617
502.5841445993048
511.1009286835428
506.8954510781045
506.9205793791332
507.8685303223905
576.9192173663657
526.3786487070079
510.2950684812641
508.692079194961
500.7473136505094
502.5738408406121
508.6598143421111
510.4672779424766
500.768907080005
502.4685717013672
509.4630826982579
511.3055529494736
500.7249677170729
502.3515418589053
510.0825587582608
512.0084782863321
500.5974879675891
502.1569507640046
510.6083573916955
513.0968841385175
500.0487564601381
500.515463278735
508.0434522399653
521.4561735569442
500.1314244278113
500.925618869994
509.4675156387025
517.1902071806595
500.2609462204142
501.4004061596621
510.5251432937123
515.8134431532472
500.4271260883721
501.8389692858806
510.7960341637561
514.3598774915919
530.7001266911219
504.6887198916808
500.1461198061507
500.0134536014072
530.8494358342757
503.4007680958853
500.0780162377452
500.0025030223854
529.6153236808892
502.3627992177887
500.0349294697754
500.0014000681875
526.5183662854437
501.3998776240769
500.0120045649996
500.0001987219297
524.0824025855275
500.3669481079024
500.00109616647
500.0000799941785
521.8052418776971
500.4445861203207
500.0007204917739
499.9999992404228
516.897412615337
500.2235000667358
500.0000243362369
500.000000030019
511.1631879316706
500.1213232166637
500.0000097006474
499.9999999629333
500.0000000000001
500.000000091017
500.0047083317718
501.5775529828011
500
500.0000000446307
500.008252989688
502.5740095967292
500.000000000302
500.0000001552644
500.0188325184548
503.979872497879
500.0000000020527
500.0000008773853
500.0469328174817
506.1755088351495
503.1078799892538
504.9433816302123
508.0742485964468
515.5671961797329
504.9433816305196
507.2778552279471
512.8671537870772
524.3677203963039
508.0742485970542
512.8671537868523
522.372691610019
537.3101272616248
515.567196179558
524.3677203962416
537.3101272622432
554.390856508743
572.7532454318942
558.7306432697253
551.011649469551
538.0258504328691
570.308731423945
566.033109308048
564.5162671494293
558.1472845942661
570.9559396689958
569.5814895243752
568.6324212134597
566.2796863825318
568.3269659107867
567.742010977643
567.4379625580269
566.1939399663561
563.9674863794671
563.1580055602851
559.5797627983122
554.2316974194697
564.4231271479212
562.86555272206
559.4285782647228
554.7404624995079
564.5329247641105
563.0064694450051
559.54070531062
555.2263802539496
564.8529522929526
562.9270817781186
559.6362459522902
550.9089045240768
513.972706501094
495.2836271706012
493.3083907724496
494.5652548479047
503.1778688078939
491.0753341862713
493.6517778488584
495.1693623270176
492.3011493472534
491.0754829174095
495.1562121838357
496.7924670757509
470.2423892394003
486.193809662545
493.6076574013725
495.3947556858989
495.4924986255074
496.7059042240188
497.9860195079346
499.2618199374896
495.9914424843063
497.1896354398685
498.6619836604538
500.0696404359643
497.2753262383092
498.2094330887478
499.0524543531676
500.8956412385795
496.1743799364909
497.4277263642468
499.3538430332571
501.3125813417653
500.4921529397977
520.1666068038753
583.4075726290253
640.0617734657581
501.7545365203685
529.7571592443446
597.3159441895899
639.2693232453469
502.8265360828764
536.0917649331217
605.897242538472
638.5948320778886
503.2604356035878
541.2471693826319
612.2176531008464
638.8586043699
681.0781664536912
668.9699290649271
665.2577253384288
667.235784915621
689.5770276121364
676.6598446044778
669.3403209453288
670.5875742147839
696.7292365217296
684.955562339924
673.400285867925
672.4281729242506
695.5693434707991
689.8762312655891
676.1537287551326
673.7296925794192
663.595346837947
653.369183118976
641.9618179114794
630.6166732728825
666.8891679882329
656.9147632210045
644.7567839509106
633.807101534968
669.4558874461735
660.3913910294706
647.8356037174688
636.7374173154062
670.9139178331244
662.0785898372442
650.4981490561466
640.7048073090407
618.4768074444203
605.6898506569186
589.5795217018057
568.8118575027751
620.2090619776626
605.3130115974988
589.1800550044779
594.7170991701
621.417306555168
605.4330289560756
596.5628601140561
619.9043150641552
624.074209271393
608.8992344893214
609.2682743153456
602.9105778911812
524.6455923332074
450.6677621440154
333.3756899726787
290.8820911489219
511.7361614968199
409.2560051884657
268.9085546738546
241.2969923123022
469.1077088661599
356.1597594889388
243.3069497791126
232.2321290404653
369.8069179065129
277.8072037944888
230.9980264396561
232.6923752047049
377.5092758286854
431.5208125823589
467.1400455652629
490.3201479901836
324.4759241255883
382.6471749190801
423.590480807015
453.0379115989866
298.6070642048163
346.8063573233774
388.3565738494195
425.4053053346646
296.5591765536214
344.4295544606535
391.2419629759476
423.7085687831983
503.4518765082058
498.5487426839667
477.2026951983732
459.47539347818
466.4109287199095
483.3220649796326
477.5546772552402
467.4654869838551
432.0035412004848
459.3464028705558
472.2757049935324
489.1571102788685
410.3257863198654
439.9559554437345
462.4252394040977
517.9349737990766
451.2248997217567
449.0163632713306
453.6403829127975
449.3666386555387
446.1077306002854
454.5017746981292
469.932575642719
466.5532525389422
443.4667557441958
457.9942263650914
473.8331985515838
461.7407054240668
433.0772585656206
450.9449874174802
454.5869592083434
440.7231758450744
421.2109847528905
408.8283372996699
404.1957046707197
403.6717226316673
443.6136656799496
427.5190904994182
417.402796279234
414.7533534462259
458.4324858871088
447.7901926267612
435.5682939176435
429.5906968233473
442.383621760326
437.0603052999589
433.8614438018795
433.1782746664551
403.6717226316493
414.7533534462399
429.5906968233873
433.1782746665173
404.1957046706274
417.4027962791901
435.5682939176931
433.8614438021025
408.8283372994477
427.5190904992673
447.7901926267667
437.0603053002062
421.2109847525833
443.6136656797601
458.4324858870232
442.3836217603366
449.3666386553871
453.6403829126003
449.01636327108
451.2248997214596
466.5532525387873
469.9325756425662
454.5017746980105
446.1077306001084
461.740705423882
473.8331985514297
457.9942263649883
443.4667557440915
440.7231758447997
454.5869592081203
450.9449874173557
433.0772585655013
517.9349737988683
462.425239403993
439.9559554436829
410.3257863201009
489.1571102787335
472.2757049934
459.3464028704018
432.0035412006202
467.4654869837402
477.5546772551612
483.3220649794009
466.4109287200143
459.4753934780271
477.2026951983691
498.5487426837047
503.4518765080302
490.3201479903609
467.140045565682
431.5208125828544
377.5092758288591
453.0379115994041
423.5904808077235
382.6471749197756
324.4759241259833
425.4053053351174
388.3565738501732
346.8063573241718
298.6070642053967
423.7085687835083
391.2419629766241
344.4295544615925
296.5591765543714
290.8820911485811
333.3756899715863
450.6677621441887
524.6455923336342
241.2969923124001
268.9085546734298
409.2560051886384
511.7361614972141
232.2321290407522
243.3069497789783
356.159759489438
469.1077088665836
232.6923752052215
230.9980264396992
277.8072037951011
369.8069179071173
568.8118575031692
589.5795217021335
605.6898506571225
618.4768074445489
594.7170991705357
589.1800550047664
605.3130115976211
620.2090619776081
619.9043150646055
596.5628601142784
605.4330289560256
621.4173065550235
602.9105778916786
609.2682743154844
608.8992344892021
624.0742092712557
630.6166732730122
641.9618179117354
653.3691831192331
663.5953468381779
633.8071015348659
644.7567839510727
656.9147632211876
666.8891679883831
636.7374173152737
647.835603717618
660.3913910295829
669.4558874462683
640.7048073092391
650.4981490559728
662.078589837338
670.9139178331008
667.2357849159449
665.2577253385796
668.9699290646756
681.0781664532824
670.5875742149161
669.3403209454078
676.6598446040489
689.5770276116408
672.4281729243211
673.4002858679995
684.9555623392155
696.7292365211096
673.729692579553
676.1537287552203
689.8762312647626
695.5693434701464
640.0617734654094
583.4075726287341
520.1666068040212
500.4921529399737
639.269323245024
597.3159441893678
529.7571592443893
501.7545365205615
638.5948320774382
605.8972425383063
536.0917649331445
502.8265360830542
638.8586043694113
612.2176531006912
541.2471693826304
503.2604356037621
499.2618199378905
497.9860195079024
496.7059042235404
495.4924986253561
500.0696404363224
498.6619836602889
497.1896354392932
495.991442484115
500.8956412388892
499.0524543529594
498.2094330881444
497.2753262380763
501.3125813420833
499.35384303302
497.4277263636048
496.1743799362875
494.5652548473607
493.3083907719338
495.2836271708956
513.9727065013885
495.1693623263126
493.6517778483602
491.0753341866948
503.1778688081136
496.7924670749385
495.1562121833571
491.0754829178599
492.3011493473985
495.3947556850778
493.6076574007674
486.1938096628705
470.2423892394889
554.2316974196904
559.5797627986743
563.1580055609633
563.9674863798801
554.7404624996603
559.4285782650877
562.8655527226767
564.423127148246
555.2263802540406
559.5407053109495
563.0064694455644
564.5329247643837
550.908904524259
559.6362459526254
562.9270817786671
564.8529522932096
566.193939966194
566.2796863824042
558.147284594329
538.025850433165
567.4379625578969
568.6324212133369
564.5162671493413
551.0116494695368
567.7420109775576
569.581489524228
566.0331093077949
558.7306432694066
568.3269659107036
570.9559396688318
570.3087314236418
572.7532454313179
478.8161855898066
492.1512936907409
498.7718982663501
499.9540035829515
471.5091992508266
488.4270680381353
498.1532240494893
499.923444313681
472.0422914099415
486.4825029177829
497.6659865908896
499.894633633989
468.7418749170224
485.4983435848721
497.4057875320203
499.8779847115023
499.8630269309428
497.8093335627769
486.1137243187946
443.4818947968126
499.8684159812107
497.6965979084585
485.9134888185822
448.0810906872895
499.8722236684987
497.5454865001072
485.3357355341228
454.6917382447905
499.8725760064409
497.3732865412704
484.9574537296317
462.8544451090087
499.8779847113794
499.8946336336866
499.923444313948
499.9540035830944
497.4057875317789
497.6659865906154
498.1532240491056
498.7718982665508
485.498343584931
486.4825029179431
488.4270680385528
492.1512936911095
468.7418749168811
472.0422914097831
471.5091992505871
478.8161855896335
)
;

boundaryField
{
    back
    {
        type            empty;
    }
    inlet
    {
        type            zeroGradient;
    }
    front
    {
        type            empty;
    }
    top
    {
        type            zeroGradient;
    }
    outlet
    {
        type            fixedValue;
        value           uniform 500;
    }
    bottom
    {
        type            zeroGradient;
    }
    wall
    {
        type            zeroGradient;
    }
}


// ************************************************************************* //
