/*--------------------------------*- C++ -*----------------------------------*\
  =========                 |
  \\      /  F ield         | OpenFOAM: The Open Source CFD Toolbox
   \\    /   O peration     | Website:  https://openfoam.org
    \\  /    A nd           | Version:  11
     \\/     M anipulation  |
\*---------------------------------------------------------------------------*/
FoamFile
{
    format      ascii;
    class       volVectorField;
    location    "0.137";
    object      U;
}
// * * * * * * * * * * * * * * * * * * * * * * * * * * * * * * * * * * * * * //

dimensions      [0 1 -1 0 0 0 0];

internalField   nonuniform List<vector> 
880
(
(25 -7.768126373978579e-16 0)
(25 3.174687318088783e-16 0)
(25.00000000005243 -1.042599685889074e-10 0)
(24.99998314544121 -2.530709126962589e-06 0)
(25 1.210301178234613e-15 0)
(25 -2.276955546959238e-15 0)
(25.00000000020328 -9.63116230238337e-10 0)
(24.99980070411448 -0.0004404265752566126 0)
(25 0 0)
(25.00000000000001 2.535613030115412e-15 0)
(25.00000000407214 -1.035653341504903e-08 0)
(25.00005756439809 -0.001263034135463201 0)
(25 0 0)
(25 -1.704454933500167e-15 0)
(25.00000011130103 -1.024956185064229e-07 0)
(24.99748544273164 -0.01054698548601375 0)
(25 -5.072410407266538e-16 0)
(25 -3.305308409268656e-15 0)
(25.00000000000001 -1.149440133851711e-11 0)
(24.99999999866262 2.992421443560654e-09 0)
(25 -9.843097670777099e-15 0)
(25 1.867506396894634e-14 0)
(25.00000000000003 1.833403256319855e-12 0)
(25 -5.698842207792586e-12 0)
(25.00001414221598 -1.126806330368494e-05 0)
(24.99995578525861 3.520285120908055e-05 0)
(24.99938484168647 0.008175453480052089 0)
(25.00590693469578 -0.01498130687272546 0)
(24.83321939835524 0.03064268053801601 0)
(24.41621150017705 0.3360204660782439 0)
(24.21778066914538 0.7337065520466937 0)
(24.16384155130341 1.007133464885568 0)
(24.9999994972816 -1.203792819607648e-06 0)
(25.00000042773841 1.365414967303531e-06 0)
(24.99998409904871 -2.233942693721803e-05 0)
(24.99998596667521 -9.900507631054057e-06 0)
(24.999970062345 4.036129756624183e-06 0)
(24.99990956416406 5.917808712988916e-05 0)
(24.99989687409132 0.0002856076916879044 0)
(24.9999110363655 0.0002219162408717757 0)
(24.98266254919 0.005262794386727478 0)
(24.9738821829758 0.02403069678340216 0)
(24.97513205050078 0.0482504015223431 0)
(24.97260636854347 0.05250825948103734 0)
(24.16217353363075 1.261565135695445 0)
(24.06732026580785 1.610803529493436 0)
(24.19089199931742 1.754313309961462 0)
(23.99122867484554 2.064480967238421 0)
(24.49458968254183 2.342774830081516 0)
(24.93741029423516 2.258679594352561 0)
(25.32345445607324 1.9290836917545 0)
(25.56875895450104 1.440507180784203 0)
(24.95682142438858 0.09426052638983722 0)
(24.91164276762616 0.204365746723973 0)
(24.96548942883319 0.2947017164412497 0)
(25.03768245217577 0.2778605747153229 0)
(24.99973129982302 0.0006425001762093256 0)
(24.9987181788457 0.002017024086253883 0)
(24.99813082448713 0.004820474279674816 0)
(24.99956589394178 0.006416517273946342 0)
(24.99996765658039 -2.81426366608816e-05 0)
(24.99992035977751 -7.869577073287565e-05 0)
(24.99981046255978 -0.0001904298708985504 0)
(24.99970100963619 -0.0002356239959900567 0)
(24.9996861174424 -0.0002179702825732524 0)
(24.99973154602814 -0.0001570578104668067 0)
(24.99984074531565 -7.705748760561789e-05 0)
(24.9999457998481 -2.353502251484941e-05 0)
(25.00070674650551 0.006075917142954799 0)
(25.0014301190285 0.004976392298854057 0)
(25.00143024777376 0.002977311287080654 0)
(25.00072595607201 0.001092484864803316 0)
(25.06979721323954 0.2424435668969655 0)
(25.0854155718588 0.1821952551372757 0)
(25.07678956392274 0.1179856684650865 0)
(25.0497164681198 0.06081574900317973 0)
(25.66049828656651 0.9572529299123843 0)
(25.61617924875955 0.6258036640396548 0)
(25.51361781548449 0.4107903467195826 0)
(25.38515322437393 0.264522770865337 0)
(25.24714017822905 0.1528549516845575 0)
(25.01922429457684 0.01975228104146825 0)
(25.00015388993123 0.0001852146870825468 0)
(24.99999151005832 -3.373737438307652e-06 0)
(25.12120594452535 0.06816357084077281 0)
(25.00388517530781 0.003646173994007622 0)
(25.00001224654862 1.583937506120668e-05 0)
(24.9999994052996 -2.36867209005268e-07 0)
(25.02623443487163 0.01361323600449392 0)
(25.00029546241414 0.0001551799486776887 0)
(25.00000148695413 -2.825202414514214e-06 0)
(24.99999994338117 -9.776176272532664e-08 0)
(24.67536256453029 0.265474687851914 0)
(24.99758909720061 0.00302085447273622 0)
(25.0000220776318 6.542683745282512e-06 0)
(25.00000880411946 -1.430394098466547e-06 0)
(24.99999943968495 -6.516326417255637e-06 0)
(25.00000561969525 -2.555373371299143e-05 0)
(24.98156465043926 0.007256058647130956 0)
(22.25274977312459 0.9655373282471005 0)
(24.99999020443438 -7.001945821116106e-06 0)
(24.99984745574784 0.0001159413215114874 0)
(24.91750992922827 0.03789599806974411 0)
(20.62657100599208 2.313599512412131 0)
(24.99998615405823 -3.147736305851753e-05 0)
(24.99912047248046 0.0006103963908366564 0)
(24.81251463275233 0.1284516296160003 0)
(19.7874140675142 3.774325076091035 0)
(24.9998885841522 -9.818433017748558e-05 0)
(24.99880165665107 0.001883985361180106 0)
(24.72924829401285 0.2405274639137404 0)
(19.51951542614006 5.08480670931272 0)
(19.20154444767241 6.442347255376345 0)
(24.60637635035815 0.4481837593607436 0)
(24.99721926377931 0.003788338612035971 0)
(24.99985490085573 -0.000188695315214608 0)
(19.27650529439457 7.296214945954547 0)
(24.53494418279171 0.6493298960938612 0)
(24.99733066604823 0.007783565687152269 0)
(24.99959240892716 -0.0003678747010221301 0)
(19.23413961333496 8.082363797031022 0)
(24.43981084728563 0.8803818711282481 0)
(24.99507909248432 0.01007808230031107 0)
(24.99955038375303 -0.0004780959030610608 0)
(19.30956692571068 8.533707968911317 0)
(24.31568798961338 1.162578332227668 0)
(24.9938354196635 0.01748670182175415 0)
(24.99916533814533 -0.000792523265484601 0)
(24.99887781377932 -0.001054206019668936 0)
(24.99211556081062 0.02122498835946045 0)
(24.16348043432187 1.420640399300078 0)
(18.99898347851347 9.070797946443271 0)
(24.99843452370544 -0.001632930508077971 0)
(24.9843892362841 0.03491360032069884 0)
(23.95582629606159 1.849027306178532 0)
(19.46641292631001 9.279768014073264 0)
(24.99861099082693 -0.003013060283272036 0)
(24.98689899433124 0.0487267167209306 0)
(24.18598340381062 1.860416357734338 0)
(20.69510944368258 8.688011923077484 0)
(24.99645297203186 -0.001240798263469197 0)
(24.9831430830438 0.02567067475957792 0)
(24.4294885802203 1.336463919403961 0)
(22.63762175084381 6.904199727778641 0)
(24.99665516155085 -0.002046594355123883 0)
(24.99956833571374 0.1071317505027359 0)
(25.23727024733766 1.481210504219759 0)
(26.20561711127445 4.497816959750889 0)
(24.99269562446815 -0.001088991595244357 0)
(25.07177762368536 0.09145118156576497 0)
(25.70591140664396 0.739269163633225 0)
(28.44434617546161 1.87831811726055 0)
(24.9980699452051 -0.0002302074290546543 0)
(25.066201830791 0.02444954082387877 0)
(25.6209986520769 0.02309522019032734 0)
(28.02904959963853 -0.6270482383293046 0)
(25.00036154451922 -0.0003248923294737571 0)
(25.01794916965101 -0.01714006199503859 0)
(25.1468415137822 -0.5032753521754877 0)
(24.59427031336491 -2.746300706372729 0)
(21.3037822676727 -3.833273583774552 0)
(24.75985805874657 -0.7084911215684403 0)
(24.99244971622991 -0.02847590039966989 0)
(25.00002326493887 -0.000516047313135492 0)
(19.15954083424461 -4.462755167621628 0)
(24.42268942119505 -0.760493936211598 0)
(24.98056173148189 -0.03218011074391774 0)
(24.99977187877661 -0.0003684263735091661 0)
(18.30115967201367 -3.64006647253528 0)
(24.23600672732206 -0.6177698480340724 0)
(24.97820359261796 -0.02375172966795448 0)
(24.99991927576167 -0.0001485570729505508 0)
(16.99978951500752 -2.804567879342128 0)
(24.05517547457614 -0.5590783239333986 0)
(24.97375329248894 -0.02118916798241526 0)
(24.99989780005029 -0.0001369337556376345 0)
(18.15467815496359 -0.9148218228548202 0)
(24.28473956068138 -0.2497156497284584 0)
(24.98676318085507 -0.007879943524606761 0)
(24.99995693242244 -4.339287535089577e-05 0)
(19.9998060392623 0.3982135964143961 0)
(24.60175176583412 -0.1145410189887064 0)
(24.99567448624358 -0.002590386237592508 0)
(24.99998848476577 -1.111558844307546e-05 0)
(21.72311084151657 0.6592559648649416 0)
(24.8058941767327 -0.06198311104676806 0)
(24.998615481407 -0.0009529839293127313 0)
(24.99999711581253 -3.627737199154885e-06 0)
(23.23067387525374 0.6519406773323728 0)
(24.94419889159713 -0.07084000313785285 0)
(24.99996441126408 -0.000661253927760076 0)
(24.99999939031278 -2.1587561855526e-06 0)
(23.01555336784561 -0.2588154775778533 0)
(24.83602226322451 -0.008223263846883891 0)
(24.99518207429356 -8.599967960253072e-05 0)
(24.99995333308187 -3.408585971993301e-07 0)
(23.18302344536307 -0.6364638537017179 0)
(24.84559203360074 -0.02034570850686624 0)
(24.99522063345481 -0.0001973740876781024 0)
(24.9999528690989 -7.304311671319785e-07 0)
(23.09886901504727 -0.9208048593903065 0)
(24.83933645366547 -0.0411433554492087 0)
(24.99513255548982 -0.0003863053679507659 0)
(24.99995137060218 -9.549941580353098e-07 0)
(23.05133117326664 -0.9039811697003767 0)
(24.84975518980998 -0.05659229453636934 0)
(24.99525898392512 -0.0009505619496806095 0)
(24.999948802443 -5.559509368192236e-06 0)
(23.23067387533606 -0.6519406774106757 0)
(24.94419889165087 0.07084000316223919 0)
(24.99996441138159 0.0006612540130464114 0)
(24.99999939012955 2.159028579866206e-06 0)
(21.72311084154593 -0.6592559646904452 0)
(24.80589417682214 0.06198311108040636 0)
(24.99861548164616 0.0009529840223377643 0)
(24.99999711578002 3.627613400899588e-06 0)
(19.99980603922036 -0.3982135962031266 0)
(24.60175176574722 0.1145410191915458 0)
(24.99567448623109 0.002590386425308814 0)
(24.99998848476451 1.11156010454157e-05 0)
(18.15467815483719 0.9148218227448787 0)
(24.28473956047278 0.2497156495927407 0)
(24.98676318080464 0.007879943441497341 0)
(24.99995693248818 4.339285496019587e-05 0)
(25.00002326473349 0.000516047182728599 0)
(24.99244971611767 0.0284759001799727 0)
(24.75985805867408 0.708491121447406 0)
(21.30378226758634 3.833273583746362 0)
(24.99977187847685 0.0003684265457983085 0)
(24.98056173140537 0.03218011076481221 0)
(24.42268942116793 0.7604939361007839 0)
(19.15954083419896 4.462755167456092 0)
(24.99991927596718 0.0001485570429742933 0)
(24.97820359242925 0.02375172960800501 0)
(24.23600672731132 0.6177698480324062 0)
(18.30115967197563 3.640066472425152 0)
(24.99989780002402 0.0001369337459839304 0)
(24.97375329242162 0.02118916805199663 0)
(24.05517547437571 0.5590783237722333 0)
(16.99978951503191 2.804567879437294 0)
(24.59427031352944 2.746300706506205 0)
(25.14684151392487 0.5032753522395862 0)
(25.01794916982481 0.01714006180080493 0)
(25.0003615447168 0.0003248921464308425 0)
(28.02904959984874 0.6270482384228275 0)
(25.62099865224902 -0.02309522016019218 0)
(25.06620183099612 -0.02444954057463145 0)
(24.99806994562162 0.0002302073648187679 0)
(28.44434617545799 -1.878318117268958 0)
(25.70591140682426 -0.7392691636029063 0)
(25.07177762375897 -0.09145118155076133 0)
(24.99269562446037 0.001088992076590873 0)
(26.20561711125601 -4.497816959770677 0)
(25.23727024742911 -1.481210504263384 0)
(24.99956833576879 -0.1071317502548663 0)
(24.99665516102173 0.002046594369506567 0)
(24.99887781384825 0.001054206095617192 0)
(24.99211556089654 -0.02122498839480206 0)
(24.16348043424294 -1.420640399148279 0)
(18.99898347839024 -9.070797946342415 0)
(24.99843452371131 0.001632930488236453 0)
(24.98438923604136 -0.03491360051710471 0)
(23.9558262959848 -1.849027306134241 0)
(19.46641292630673 -9.279768014020384 0)
(24.9986109902276 0.003013060279424927 0)
(24.98689899429523 -0.04872671663644088 0)
(24.18598340389428 -1.860416357644979 0)
(20.69510944370091 -8.68801192305358 0)
(24.99645297240148 0.001240798066418884 0)
(24.98314308296045 -0.02567067459452885 0)
(24.42948858024093 -1.336463919292958 0)
(22.63762175086374 -6.90419972778698 0)
(19.30956692543414 -8.533707968929095 0)
(24.31568798937005 -1.162578332437835 0)
(24.993835419007 -0.01748670209174304 0)
(24.99916533814579 0.0007925232635127808 0)
(19.23413961314534 -8.082363796987803 0)
(24.43981084701803 -0.88038187110151 0)
(24.99507909269904 -0.01007808220452839 0)
(24.99955038367654 0.0004780958910657887 0)
(19.2765052944224 -7.296214945931027 0)
(24.53494418285666 -0.6493298958789381 0)
(24.99733066588199 -0.00778356594384645 0)
(24.99959240901011 0.0003678747004834071 0)
(19.20154444756069 -6.442347255410656 0)
(24.60637635062453 -0.4481837596880504 0)
(24.99721926380617 -0.003788338607678613 0)
(24.99985490092875 0.0001886953146704408 0)
(24.99999943960106 6.51635511612151e-06 0)
(25.00000561958245 2.555375880586408e-05 0)
(24.9815646504998 -0.007256058557858005 0)
(22.25274977317801 -0.965537328231284 0)
(24.99999020452681 7.001941816777667e-06 0)
(24.9998474559938 -0.0001159412712699306 0)
(24.91750992903663 -0.03789599817328651 0)
(20.62657100624913 -2.313599512383289 0)
(24.99998615421666 3.147735491929264e-05 0)
(24.99912047245519 -0.0006103962766919669 0)
(24.81251463271096 -0.1284516294596217 0)
(19.78741406733759 -3.774325076131704 0)
(24.99988858435986 9.818433498602727e-05 0)
(24.99880165645099 -0.001883985519795151 0)
(24.72924829399591 -0.2405274639988428 0)
(19.51951542613606 -5.084806709268561 0)
(25.00000880402444 1.430385296141169e-06 0)
(24.99999994329214 9.776868867908941e-08 0)
(24.99999940528735 2.36854920216516e-07 0)
(24.99999151007638 3.373770274107465e-06 0)
(25.00002207774515 -6.542661464059492e-06 0)
(25.00000148693032 2.825167894428926e-06 0)
(25.00001224636329 -1.583935854827151e-05 0)
(25.00015389004153 -0.0001852146185096033 0)
(24.99758909715404 -0.003020854487378047 0)
(25.00029546235032 -0.0001551799219810196 0)
(25.00388517549548 -0.003646173933250319 0)
(25.01922429458795 -0.01975228123142272 0)
(24.67536256454012 -0.2654746877621629 0)
(25.02623443483404 -0.01361323593307355 0)
(25.12120594446992 -0.06816357104496115 0)
(25.24714017826334 -0.1528549515477735 0)
(24.99994580004613 2.353500177598418e-05 0)
(25.00072595608628 -0.001092484965000849 0)
(25.04971646792687 -0.06081574907694159 0)
(25.38515322429995 -0.2645227708108325 0)
(24.99984074537727 7.705745645407821e-05 0)
(25.00143024783022 -0.002977311265355935 0)
(25.07678956374751 -0.1179856682871619 0)
(25.51361781546674 -0.4107903466210978 0)
(24.99973154586013 0.0001570578384266516 0)
(25.00143011905132 -0.004976392327242059 0)
(25.08541557193642 -0.1821952552017935 0)
(25.61617924878604 -0.6258036640534956 0)
(24.99968611741598 0.0002179703533480712 0)
(25.00070674645058 -0.006075917288584178 0)
(25.06979721316953 -0.2424435668558332 0)
(25.66049828666997 -0.9572529298488825 0)
(24.99996765680354 2.814253264618083e-05 0)
(24.99973129996688 -0.0006425002766419327 0)
(24.95682142412754 -0.09426052667013089 0)
(24.49458968254061 -2.342774830173604 0)
(24.9999203600085 7.869571446992854e-05 0)
(24.99871817891365 -0.002017024004786988 0)
(24.91164276757076 -0.2043657467709719 0)
(24.93741029435189 -2.258679594454024 0)
(24.99981046265837 0.0001904298982326514 0)
(24.998130824284 -0.004820474177465598 0)
(24.96548942883142 -0.294701716439539 0)
(25.32345445618013 -1.929083691809935 0)
(24.99970100971677 0.0002356240195914835 0)
(24.999565893798 -0.006416517307657414 0)
(25.03768245223056 -0.2778605746476571 0)
(25.56875895458074 -1.440507180857517 0)
(23.99122867485329 -2.064480967115125 0)
(24.97260636823534 -0.05250825948378156 0)
(24.99991103650477 -0.0002219162966736338 0)
(24.99998596680692 9.900437130921216e-06 0)
(24.19089199920531 -1.75431331000083 0)
(24.97513205042258 -0.04825040135484471 0)
(24.99989687413177 -0.0002856077302883304 0)
(24.99998409873264 2.233967945522341e-05 0)
(24.06732026567918 -1.610803529316342 0)
(24.97388218350718 -0.02403069639354984 0)
(24.99990956412559 -5.917806412971717e-05 0)
(25.00000042800109 -1.365616372415132e-06 0)
(24.16217353355088 -1.261565135824311 0)
(24.98266254976801 -0.005262794695397126 0)
(24.99997006239208 -4.036095733132469e-06 0)
(24.9999994972137 1.203793993443954e-06 0)
(24.16384155119255 -1.007133464893821 0)
(25.00590693394387 0.01498130665116395 0)
(25 5.862491085160467e-12 0)
(24.99999999861462 -2.971189462496161e-09 0)
(24.21778066917182 -0.733706552009213 0)
(24.99938484221942 -0.008175453166202764 0)
(25 -1.897938344467941e-12 0)
(25.00000000000001 1.162527661811951e-11 0)
(24.41621150011958 -0.3360204659882825 0)
(24.999955785322 -3.52028383756191e-05 0)
(25 -8.574795232152009e-15 0)
(25.00000000000001 2.304757470015167e-15 0)
(24.83321939825131 -0.03064268065516526 0)
(25.00001414226511 1.126805796645819e-05 0)
(25 -1.740569908252977e-15 0)
(25.00000000000002 -7.268489456465405e-15 0)
(25 1.420908939734042e-15 0)
(25 2.515172001402823e-15 0)
(25.00000000002979 1.061584338483419e-10 0)
(24.99998314817584 2.530537592593156e-06 0)
(24.99999999999999 -2.843418720158383e-19 0)
(25 4.250727366673949e-15 0)
(25.00000000018774 9.639464129924021e-10 0)
(24.99980070527289 0.0004404267633909749 0)
(25 -1.366459512028481e-15 0)
(25 -3.466228711940507e-15 0)
(25.00000000406125 1.034618334550756e-08 0)
(25.00005756455301 0.00126303428573239 0)
(25 -2.918511360487817e-15 0)
(25 -1.688415485980927e-15 0)
(25.00000011141818 1.024644694859291e-07 0)
(24.99748544283209 0.01054698562846757 0)
(24.99994866727632 -1.409494146195969e-09 0)
(24.99978823935685 0.0005929322514504658 0)
(24.99879315604144 0.002405409032380243 0)
(24.96888980585836 0.003066966336432945 0)
(24.99978823622975 -0.0005929416514543923 0)
(24.99969122406404 -7.093977637576952e-09 0)
(24.99727808195286 -0.0006886218935062894 0)
(24.86709019623668 -0.0473686470131103 0)
(24.99879314869123 -0.002405410992074189 0)
(24.99727808097817 0.0006886114933452978 0)
(24.93801174457604 2.096579073554588e-08 0)
(24.16396639294401 -0.1838396128433715 0)
(24.96888980177037 -0.003066963551509423 0)
(24.86709020209933 0.04736863171818202 0)
(24.16396640886144 0.1838396369441848 0)
(21.55941049232219 -9.135287310977536e-09 0)
(19.18047656538744 2.470085063184066 0)
(20.20628622059612 3.125678009735553 0)
(22.70319296085472 2.296358913088494 0)
(24.02950569487226 1.06898518874796 0)
(19.735388943181 4.463533585324495 0)
(19.95765780003895 4.601485607031351 0)
(20.96960745250627 4.406938461722984 0)
(22.22198123529214 3.661076074704948 0)
(20.04316210794217 5.554494470197514 0)
(20.80174326571638 4.874155422470404 0)
(21.56036194430889 5.078227675974127 0)
(22.44492104953459 4.793694486826124 0)
(20.68213197408944 6.017550331871884 0)
(21.45227723420962 5.088779581579878 0)
(22.02953212792034 5.261646171818004 0)
(22.62966504962524 5.084223239144647 0)
(22.81436197784354 5.176592675112559 0)
(22.9417343937554 5.334797073640876 0)
(23.08783115498769 5.417040384809048 0)
(23.06644503289834 5.663028101405927 0)
(22.45805382784764 5.396844085647259 0)
(22.77760733376363 5.500320433897984 0)
(22.95269383313824 5.543262648737549 0)
(23.50628792198156 5.940713224746731 0)
(21.95445070768915 5.30063222642186 0)
(22.53074273517319 5.506088016980788 0)
(22.7773441472361 5.59567098991786 0)
(24.98679731702375 6.36755193810365 0)
(20.76893012190789 6.193713784512147 0)
(20.98587371991215 5.971847518273287 0)
(21.27453053290827 5.5782177046318 0)
(26.79894369705294 7.550380262591682 0)
(25.17331518302674 4.170729075309418 0)
(26.97132410682846 1.608758323102139 0)
(26.52340917791294 0.2999896015384105 0)
(26.2451116193208 0.2538494987633859 0)
(26.59542836005631 3.344816220280467 0)
(28.52225706640592 0.4828255006530655 0)
(27.63274909770044 0.01210671182296593 0)
(27.0428391935739 0.1630514770771008 0)
(29.39050631417741 2.673225280094696 0)
(30.01328747347626 -0.108464501475198 0)
(28.42152411343631 -0.127682103219936 0)
(27.39358353914795 0.03707071080207734 0)
(21.60225072023681 1.649971553412381 0)
(22.26646230470739 0.6916943512518215 0)
(22.37462758537702 0.1107117951787523 0)
(22.41128997778138 0.005183151391654389 0)
(26.01168283584808 0.1627622475470135 0)
(25.83691851645357 0.08656762051187848 0)
(25.65594217321939 0.06925983422242118 0)
(25.48919653640333 0.071257343858022 0)
(26.50975743920878 0.155961249218497 0)
(26.19852524582852 0.07902139782961283 0)
(25.90156301100194 0.03527181790378511 0)
(25.67486808769992 0.03476189494820228 0)
(26.7665499286614 -0.01347559591549819 0)
(26.38513781747186 -0.08103799206297185 0)
(26.06985614847232 -0.08216345120725449 0)
(25.83332828186107 -0.04763662629609081 0)
(22.72774584116483 -0.2029883043419632 0)
(23.27986216795248 -0.4546169483423972 0)
(23.85646640135064 -0.5324204362309843 0)
(24.37222567816579 -0.4358252270393637 0)
(25.40490668476656 0.0218712013179372 0)
(25.27466402126264 0.04979983974055872 0)
(25.08624157693391 0.02682662250156065 0)
(22.05225088140989 3.059788671864318 0)
(25.53993151268997 0.009337689569560267 0)
(25.38415841919343 0.007109712458660152 0)
(25.15271994469129 0.04288572147200793 0)
(19.42720656360551 3.447860140048272 0)
(25.65994628584903 -0.02761116861635777 0)
(25.48176108540048 -0.0347861539154867 0)
(25.17405986422533 0.04674860993034979 0)
(16.69625255078599 2.389986929771795 0)
(24.71794496327113 -0.3029499153487575 0)
(24.83823924675836 -0.2519334082268572 0)
(24.66473271314804 -0.04359974442978035 0)
(11.66942525020978 0.6133942149453121 0)
(14.87933922483912 7.613839320046751 0)
(15.06729455331338 7.814098836991407 0)
(15.19231277113435 8.632631589162399 0)
(15.78362608869879 9.541229167699644 0)
(12.81203819005469 7.844911942491117 0)
(14.22957133850772 8.02895446713322 0)
(14.95818414082474 8.848606683348217 0)
(15.69886201033318 9.716801143651212 0)
(10.32999126149577 6.715345335683165 0)
(12.46749205366086 7.648375469907834 0)
(14.09092984389311 8.874357548870687 0)
(15.29883089362669 9.783512289585472 0)
(6.814527769265909 2.765319762170459 0)
(9.233250779467358 4.127378003092216 0)
(11.71020877753449 6.206881825581316 0)
(13.4370347780922 8.312191520162155 0)
(16.02978283815437 10.41611541285756 0)
(16.21609845852508 10.80047085457182 0)
(16.43670035588196 11.08978001668014 0)
(16.63222249285089 11.15165180878409 0)
(16.03972559434246 10.38024405937705 0)
(16.19362331912035 10.68170437731808 0)
(16.37460165132271 10.90929787439655 0)
(16.56380431009308 10.99836514509904 0)
(15.84423071865051 10.34310661693197 0)
(16.06409779991986 10.6286772836082 0)
(16.2654262833162 10.83941239541862 0)
(16.44166092698867 10.94011914792069 0)
(14.57253772321579 9.760001231068578 0)
(14.94791216506971 10.59199185511234 0)
(15.30099835845876 10.74168344573035 0)
(15.40012048597185 10.80041062444027 0)
(16.91233740715485 11.28219408875688 0)
(17.50799482957985 11.26495910053984 0)
(19.07249546153574 10.85072311911273 0)
(21.24836576419426 9.69937018187256 0)
(16.87972384131671 11.13780271377808 0)
(17.46067526669828 11.14366038727262 0)
(18.8136577903609 10.91452844932907 0)
(22.01681178862828 11.44409469243026 0)
(16.75483409969785 11.09252205426367 0)
(17.20955282813089 11.10070362464435 0)
(19.07280087067412 11.38818355142361 0)
(27.31762535810518 16.7365140328707 0)
(15.97269134032397 11.008768416375 0)
(16.74847772788891 10.78281587287315 0)
(19.44547122002362 11.79136055774099 0)
(37.6680276168662 22.43015123450101 0)
(26.54194411817855 5.351295701514077 0)
(30.26083129905042 -2.382523973095184 0)
(8.667472874971581 -5.090102081189743 0)
(5.93489879358906 -0.6022085822567371 0)
(27.611372114329 4.836947949126407 0)
(25.37387640360484 -1.987152972607791 0)
(4.859774471489944 -4.53812272994372 0)
(2.929121445562308 0.8206309835095584 0)
(27.19238122766402 4.082042971524197 0)
(17.6354298910489 -5.810103652377214 0)
(1.958481047876749 -1.518122183130919 0)
(1.534879488553181 1.39254152186845 0)
(17.64861932856273 -6.763175928592547 0)
(6.802644774738115 -6.94207947409564 0)
(0.05337198870620108 1.031878676097224 0)
(0.294790494948805 0.8629976436989718 0)
(3.213263603303234 -0.3473640283474518 0)
(1.161555499021655 -0.8721002903088079 0)
(-0.06760977277110577 -0.7834337313635426 0)
(-1.445786565451133 0.5756103786735023 0)
(1.497155716543266 1.583025708117559 0)
(-0.1231823305534616 1.237345658694187 0)
(-1.080895752660219 1.48115794327026 0)
(-1.298110523650095 2.471195971958026 0)
(0.6430519902565701 1.273015273992119 0)
(-0.05190358933344343 1.807491190193433 0)
(-0.003962844916313358 2.860679277998456 0)
(-0.7349500227239277 3.959484988755437 0)
(0.187937494840035 0.7067010585045689 0)
(-0.1002555393113365 1.866453657127193 0)
(-0.3883263915166124 3.709945642547586 0)
(-1.158884351644436 4.291183697622562 0)
(6.064539434128117 -4.062615144675235 0)
(13.28386293238353 -4.87730322826129 0)
(18.0357309042337 -4.585534795330688 0)
(21.90474884704619 -4.062387460118316 0)
(2.527002304576121 -1.367384654980281 0)
(9.932476907131615 -2.818845928580024 0)
(15.58585177181247 -3.496764744777551 0)
(20.22038783649423 -4.264810209862208 0)
(-1.171159200489441 -1.119031882765553 0)
(4.266564929210947 -2.605755368648493 0)
(11.21592131308617 -3.733787039037305 0)
(19.1271985972211 -3.458918211070181 0)
(-2.038902530215188 1.090302585925838 0)
(1.394681400565776 0.7033224452883895 0)
(8.905445634791402 1.656028001706997 0)
(21.84612289167468 -1.763879210139278 0)
(23.00171954489949 -7.704588905914126 0)
(23.4501600743908 -13.96687184205942 0)
(23.52000938371045 -18.98044014639393 0)
(21.32135175775882 -14.71179176766429 0)
(21.47045874410455 -8.280300069179814 0)
(22.16987715891065 -15.90942195326587 0)
(20.12467009792664 -13.53709919707277 0)
(15.24101993989764 -4.369766262743874 0)
(20.78354573804516 -10.29428394144669 0)
(18.31853391123305 -13.19438544527504 0)
(12.22579262533498 -3.564183390452724 0)
(5.847704078217348 1.106828171922567 0)
(15.12728410743694 -10.89076108345143 0)
(5.710739137930665 -5.268302790224721 0)
(3.718816345166711 1.938586470205678 0)
(1.330429420781577 3.854397257238477 0)
(-0.5362952615883673 4.176499765240265 0)
(-1.500997364724424 2.869016274208874 0)
(-2.271400121539883 1.781359950375243 0)
(-2.116128126965182 0.7071158567197797 0)
(1.597601727143621 2.406203616968027 0)
(-1.082307432748 2.032165007461328 0)
(-3.075064618829999 1.350898581724211 0)
(-3.691929651892852 0.3566000752228927 0)
(6.95302791301764 -2.523677808011296 0)
(0.8171444008959228 -1.231942045457441 0)
(-2.59961245602115 -0.6031521468940688 0)
(-3.695503092148403 -0.2742391076539621 0)
(15.47201931993433 -7.471242220527055 0)
(9.199024913734128 -4.088491843763289 0)
(5.342853652242169 -2.423318016582495 0)
(4.315151351331751 -0.7309679969062655 0)
(-2.116128126962388 -0.7071158567041225 0)
(-3.691929651888718 -0.3566000752372454 0)
(-3.69550309214443 0.2742391076014022 0)
(4.315151351227287 0.7309679967443975 0)
(-2.27140012152847 -1.781359950368253 0)
(-3.075064618825117 -1.35089858172461 0)
(-2.599612456020318 0.6031521468338592 0)
(5.342853652220974 2.423318016435773 0)
(-1.500997364724866 -2.869016274210296 0)
(-1.082307432756804 -2.032165007461059 0)
(0.8171444008801253 1.231942045370706 0)
(9.199024913700162 4.088491843611855 0)
(-0.5362952615935372 -4.176499765246176 0)
(1.597601727128328 -2.406203616980526 0)
(6.953027912980628 2.523677807948217 0)
(15.47201931989084 7.471242220402194 0)
(21.32135175776634 14.71179176757701 0)
(23.52000938378067 18.98044014636885 0)
(23.45016007450236 13.966871842043 0)
(23.00171954500225 7.704588905928597 0)
(15.24101993988016 4.369766262681733 0)
(20.12467009791665 13.53709919701469 0)
(22.16987715893605 15.90942195324614 0)
(21.47045874416296 8.2803000691859 0)
(5.847704078212466 -1.106828171954117 0)
(12.22579262533451 3.564183390416249 0)
(18.31853391121199 13.19438544524902 0)
(20.78354573806118 10.2942839414459 0)
(1.330429420778761 -3.854397257260566 0)
(3.718816345157835 -1.938586470219709 0)
(5.710739137929077 5.268302790169058 0)
(15.12728410744061 10.89076108344434 0)
(21.84612289168843 1.763879210137155 0)
(8.905445634776383 -1.656028001730661 0)
(1.394681400542149 -0.7033224453148542 0)
(-2.038902530197892 -1.090302585921352 0)
(19.12719859722901 3.458918211066702 0)
(11.21592131303058 3.733787039054244 0)
(4.266564929115649 2.605755368595517 0)
(-1.171159200497664 1.119031882724151 0)
(20.22038783652504 4.264810209861008 0)
(15.58585177174252 3.496764744837301 0)
(9.932476907000691 2.818845928486391 0)
(2.527002304518546 1.36738465489472 0)
(21.90474884710903 4.062387460095514 0)
(18.03573090413042 4.585534795442039 0)
(13.28386293225424 4.87730322820102 0)
(6.064539434066044 4.062615144547577 0)
(-1.445786565366318 -0.5756103786338411 0)
(-0.06760977281507875 0.7834337314035469 0)
(1.161555498936145 0.8721002901741878 0)
(3.21326360324839 0.3473640281725933 0)
(-1.298110523558628 -2.471195971924427 0)
(-1.080895752662081 -1.481157943211968 0)
(-0.1231823306318561 -1.237345658785596 0)
(1.497155716535991 -1.583025708310678 0)
(-0.7349500226803196 -3.959484988700671 0)
(-0.003962844925432624 -2.860679277932355 0)
(-0.05190358937669554 -1.807491190261022 0)
(0.6430519902413169 -1.273015274175293 0)
(-1.158884351615132 -4.291183697563954 0)
(-0.3883263915012264 -3.709945642476219 0)
(-0.100255539331213 -1.866453657181531 0)
(0.1879374948188633 -0.7067010586269084 0)
(5.934898793650313 0.6022085822545961 0)
(8.667472874860875 5.090102081163144 0)
(30.26083129909516 2.382523973089771 0)
(26.54194411820999 -5.351295701538964 0)
(2.929121445639728 -0.8206309836454045 0)
(4.859774471507055 4.538122729893086 0)
(25.37387640367422 1.987152972556224 0)
(27.61137211442692 -4.836947949165809 0)
(1.534879488585212 -1.392541522003458 0)
(1.958481047817139 1.518122183096692 0)
(17.63542989109949 5.810103652369695 0)
(27.19238122775317 -4.082042971622713 0)
(0.2947904949242826 -0.8629976438339105 0)
(0.05337198866919492 -1.031878676151868 0)
(6.802644774811213 6.942079474094704 0)
(17.64861932864963 6.763175928555693 0)
(21.24836576419301 -9.699370181860521 0)
(19.07249546149277 -10.85072311906844 0)
(17.50799482952705 -11.2649591004923 0)
(16.91233740705374 -11.28219408865348 0)
(22.01681178865251 -11.44409469245043 0)