/*--------------------------------*- C++ -*----------------------------------*\
  =========                 |
  \\      /  F ield         | OpenFOAM: The Open Source CFD Toolbox
   \\    /   O peration     | Website:  https://openfoam.org
    \\  /    A nd           | Version:  11
     \\/     M anipulation  |
\*---------------------------------------------------------------------------*/
FoamFile
{
    format      ascii;
    class       volScalarField;
    location    "6.325";
    object      p;
}
// * * * * * * * * * * * * * * * * * * * * * * * * * * * * * * * * * * * * * //

dimensions      [0 2 -2 0 0 0 0];

internalField   nonuniform List<scalar> 
4455
(
7223.7842
7237.2502
7260.5266
7294.0711
7336.4237
7396.5223
7467.7132
7577.2317
7646.6612
7151.7877
7173.1071
7204.6769
7244.9501
7294.0956
7359.823
7445.228
7565.8477
7686.8733
7076.1755
7106.0358
7146.095
7193.2461
7247.4479
7319.4223
7414.7064
7549.0367
7692.9405
6997.9117
7037.2111
7085.2876
7138.3123
7197.2611
7275.8973
7379.573
7528.8886
7697.816
6918.8746
6967.3764
7022.7813
7080.9869
7144.3343
7228.4687
7341.79
7506.0788
7710.4127
6840.3803
6897.5488
6959.2295
7021.5319
7088.9489
7178.5262
7301.2754
7481.1485
7719.7492
6763.9433
6828.2936
6895.0118
6960.5579
7031.5711
7126.3901
7258.2324
7453.2765
7727.0892
6690.6648
6760.3779
6831.022
6899.3775
6973.3671
7072.417
7211.4602
7420.9937
7729.5764
6621.5683
6694.7477
6768.0645
6838.4763
6914.5528
7017.3309
7162.6291
7384.8602
7725.5757
6557.3698
6498.586
6445.94
6399.6377
6360.0124
6326.9848
6300.7015
6281.2686
6269.0113
6631.675
6571.4421
6515.2674
6463.5579
6416.4833
6374.3183
6337.6164
6306.7774
6281.8933
6705.6003
6644.0546
6585.2193
6529.3766
6476.7279
6427.515
6381.3789
6338.1191
6296.6763
6776.3499
6713.1621
6651.3567
6591.5444
6533.8574
6478.3409
6425.2804
6374.9296
6327.045
6853.201
6788.7954
6724.7936
6661.6982
6599.5092
6538.3363
6478.1886
6419.6364
6361.604
6958.6261
6894.4916
6829.1843
6763.588
6697.5628
6631.6215
6566.4679
6503.3593
6441.0628
7108.5962
7045.0905
6978.5453
6908.9402
6835.2313
6758.6268
6679.8558
6600.8304
6521.5771
7341.3428
7279.0679
7206.2218
7126.4142
7041.6649
6954.3559
6865.6662
6776.0994
6684.9398
7712.6117
7639.402
7519.7774
7377.6073
7225.271
7064.9543
6900.6099
6736.3062
6577.5527
6266.3574
6262.6333
6255.3407
6244.2196
6230.6096
6214.0011
6194.3107
6171.825
6145.4936
6268.5104
6254.0594
6235.1391
6213.0338
6187.4488
6159.4504
6128.6891
6094.6361
6057.672
6267.6393
6245.1306
6221.9855
6196.5628
6168.0283
6137.4204
6104.6923
6068.5159
6028.7773
6292.2566
6264.4841
6235.8842
6205.4137
6172.4734
6136.9044
6098.4461
6057.0158
6012.4851
6315.7695
6281.5217
6248.8579
6215.3827
6179.6821
6141.0696
6099.1566
6053.8031
6005.1143
6389.4254
6349.0295
6309.5463
6268.6263
6225.0822
6178.2535
6128.2801
6075.0578
6019.2637
6455.8107
6405.3008
6357.6758
6308.7808
6256.9216
6201.6191
6142.6193
6080.3045
6015.9888
6599.2787
6516.8013
6430.3873
6343.9052
6258.3795
6171.8393
6085.5568
6000.4687
5918.5505
6446.8761
6336.0825
6224.6498
6110.5733
5997.7994
5887.6024
5780.9152
5677.8453
5582.2685
5512.7689
5448.4203
5403.339
5390.1276
5410.2607
5452.8841
5511.2309
5575.5874
5642.8646
5846.6175
5780.3147
5719.2602
5666.3151
5621.7771
5585.6747
5558.2759
5538.0307
5525.682
5953.4033
5892.9354
5832.7224
5773.7065
5717.0568
5663.603
5613.5896
5566.698
5523.5963
5963.22
5907.041
5849.2626
5791.045
5732.8961
5674.9163
5616.8822
5558.8552
5501.0463
5954.6025
5902.732
5848.4488
5792.2853
5734.4674
5675.2819
5614.6079
5552.4817
5488.6703
5965.8115
5917.0175
5865.2092
5810.6648
5753.613
5694.0643
5631.7696
5566.7476
5499.0917
5986.1543
5941.3799
5893.9083
5843.7776
5791.081
5735.2567
5676.2212
5613.9644
5548.2655
6016.7329
5972.2122
5924.8022
5873.7882
5819.5036
5762.2587
5701.8576
5637.8486
5570.0047
6111.8456
6072.2907
6031.9566
5990.1807
5945.9255
5897.4736
5844.1785
5786.1089
5723.8016
5656.8307
5585.3661
5509.2139
5428.2644
5342.1552
5251.4864
5155.044
5053.218
4945.8133
5498.1169
5422.641
5343.3696
5260.2886
5173.2024
5082.3287
4987.0537
4887.4418
4783.7238
5479.1726
5406.755
5330.9633
5251.6458
5169.0119
5082.5903
4992.2435
4897.7364
4799.0698
5428.9262
5356.1475
5280.7968
5202.8055
5122.2451
5038.8317
4952.5273
4862.9095
4769.9098
5423.1589
5355.9883
5287.4249
5217.5424
5146.4364
5073.6903
4999.1667
4922.0933
4842.1608
5443.1737
5385.3543
5327.7856
5270.111
5212.5354
5154.4561
5095.803
5035.7182
4973.5231
5483.2422
5446.9112
5413.5814
5381.9871
5352.8412
5324.2241
5296.3997
5267.9931
5240.2029
5519.8558
5518.152
5522.4435
5531.7653
5545.2934
5563.6554
5584.224
5607.9532
5633.1588
5715.4731
5788.4518
5865.7203
5945.8284
6026.9139
6111.5921
6198.936
6287.9335
6381.3937
6477.0239
5659.5409
5208.9971
4908.2658
4758.3144
4672.9182
4695.844
4674.7678
4832.8377
6575.0213
5685.7891
5175.0634
4839.4447
4669.3583
4571.5482
4588.0335
4561.789
4713.4567
6674.4553
5709.9562
5137.8009
4765.5501
4576.8919
4464.918
4474.7366
4443.8175
4588.5918
6774.8597
5730.381
5094.225
4685.9009
4477.6502
4352.3446
4356.3048
4319.059
4457.0456
6872.5046
5744.6336
5043.8349
4600.3067
4371.0395
4234.0185
4232.2137
4190.7539
4319.4342
6966.8816
5750.3207
4984.6196
4505.4388
4258.2832
4108.2355
4101.4552
4056.3619
4175.1957
7044.7142
5745.3409
4913.5062
4400.5972
4136.842
3975.6766
3964.8257
3915.5535
4024.8547
7103.7003
5724.305
4829.6767
4286.1677
4004.5346
3836.1152
3822.3348
3769.9143
3869.3183
7120.3774
5678.671
4726.9895
4156.0888
3861.9545
3685.8491
3669.8496
3618.611
3709.0548
3550.9137
3462.1851
3511.7433
3527.6297
3705.2889
4007.4949
4597.2197
5593.8372
7081.758
3396.9311
3299.6242
3345.6252
3359.2507
3530.6485
3831.3126
4420.7353
5422.3424
6807.3213
3220.7162
3131.8752
3167.3313
3177.5066
3337.5005
3623.8089
4194.9535
5179.5427
6478.3788
3030.2524
2957.9054
2984.1197
2987.2623
3129.8949
3396.4887
3938.8985
4901.6497
6159.8644
2835.026
2777.9975
2795.205
2786.2515
2906.9731
3149.7793
3659.5585
4606.4508
5849.2397
2639.5368
2593.084
2597.8813
2575.4644
2669.9996
2884.2385
3364.4292
4295.5746
5532.2515
2444.0363
2406.9456
2398.2293
2359.1036
2421.9117
2604.0338
3049.6134
3964.567
5204.1208
2249.2208
2219.6473
2197.3198
2139.0832
2168.61
2312.1941
2715.4787
3609.9998
4861.7343
2057.0986
2032.0915
1993.7093
1913.6516
1905.023
2004.796
2360.5547
3228.9501
4504.8612
4133.8768
2822.7604
1982.9226
1685.6699
1636.0621
1688.002
1791.4662
1848.5263
1869.9075
3748.4799
2384.7324
1582.6735
1353.989
1362.1971
1462.0225
1594.2443
1669.8462
1689.8652
3344.4531
1915.9366
1167.0021
1013.9141
1088.4476
1239.0954
1400.1817
1497.0198
1519.9992
2918.2662
1415.0673
730.27664
667.65425
815.18407
1021.1084
1215.6226
1335.3894
1363.6957
2452.0265
882.21452
281.58633
320.72833
549.22697
813.83084
1042.2678
1185.8979
1223.0943
1949.6756
313.01156
-179.71745
-23.273466
292.45413
617.16898
882.53108
1050.0216
1101.7465
1401.6608
-287.9624
-644.64988
-357.23601
51.089249
436.95054
739.60645
932.72044
1001.0022
808.37871
-925.72223
-1113.0406
-676.64142
-171.78657
276.18857
616.95358
836.03628
923.05754
172.74632
-1598.0357
-1569.3983
-972.72415
-369.91763
136.78369
515.8218
762.61957
875.16606
856.82767
711.32928
438.39751
20.881389
-546.54743
-1249.6186
-2029.0522
-2350.5386
-580.45116
866.71667
683.77244
390.98341
-62.708303
-687.03425
-1485.6965
-2456.3833
-3184.2033
-1536.7133
905.82
681.92983
374.33794
-110.7064
-783.25595
-1663.9934
-2814.4793
-4021.1533
-2639.6546
972.11144
703.77329
390.54526
-123.42099
-833.53078
-1774.0951
-3081.0579
-4803.5407
-3913.9806
1067.1666
751.37165
434.84602
-104.51986
-843.67717
-1819.0501
-3239.4812
-5472.6139
-5449.4184
1186.095
822.25969
508.97245
-55.765562
-814.96709
-1803.6136
-3262.3958
-5921.9219
-7326.8101
1327.4848
914.95856
606.40227
19.941737
-754.27066
-1743.635
-3144.0655
-6075.6112
-9560.6302
1488.2884
1026.0316
727.49816
121.41598
-666.77094
-1654.0295
-2913.2672
-5876.3805
-11688.16
1664.1879
1150.7348
864.68264
242.57077
-563.14628
-1566.7089
-2676.7034
-5231.6635
-13285.325
1839.1689
1284.3806
1017.3253
378.42422
-453.16893
-1523.2202
-2535.7158
-4475.2761
-14768.184
2002.4622
1419.5595
1152.2796
478.61237
-417.12743
-1607.187
-2747.6625
-5368.1361
-16905.571
2189.9616
1557.541
1264.3555
542.18526
-452.1568
-1796.4814
-3252.533
-6922.1063
-19256.074
2389.8861
1705.1889
1369.728
601.15606
-496.26395
-2029.0156
-3790.6679
-8376.567
-18368.862
2595.0801
1865.5647
1487.3237
685.98584
-522.0595
-2248.7104
-4264.3281
-9880.0942
-14427.599
2798.7971
2039.5405
1616.3659
794.33859
-518.52078
-2445.5027
-4675.0027
-11540.278
-13707.952
3004.7067
2225.4933
1754.3626
923.19611
-496.95206
-2625.6745
-5106.3617
-13170.181
-15226.71
3207.1771
2421.5025
1899.2608
1061.6996
-454.53754
-2786.4558
-5628.5091
-14503.405
-16504.948
3408.9255
2626.4981
2050.7304
1215.9188
-398.09921
-2920.2972
-6177.5284
-15197.737
-16919.963
-16968.703
-15425.936
-6543.3508
-2979.5314
-317.57348
1372.8335
2204.0422
2835.0491
3606.8083
-17074.187
-15541.868
-6709.3268
-2968.4843
-209.81651
1540.5124
2357.6813
3046.5814
3797.2845
-17091.594
-15585.836
-6792.0817
-2908.5519
-66.743153
1724.946
2520.0795
3260.9847
3982.3303
-17084.103
-15597.873
-6839.7742
-2824.8309
95.905165
1914.6487
2689.1843
3477.9343
4150.2507
-17032.374
-15587.846
-6871.4474
-2734.0801
264.63315
2105.5905
2863.0293
3692.1924
4310.4023
-16971.997
-15503.708
-6885.1529
-2645.5748
438.85033
2291.2896
3039.3897
3902.3155
4458.7246
-16848.376
-15348.249
-6878.7282
-2547.4205
618.03598
2476.2943
3215.4111
4105.6432
4592.7158
-16802.718
-15129.419
-6852.5297
-2428.4607
803.63357
2658.1574
3392.1146
4303.5397
4710.7354
-16751.126
-14884.783
-6800.5831
-2275.2461
997.46713
2840.4104
3570.9102
4491.6414
4811.4327
-16621.601
-14014.685
-6364.125
-1887.8914
1388.0192
3165.3012
3888.8564
4795.5562
4947.5469
-15936.621
-13108.592
-5850.0498
-1216.3594
1962.4593
3619.0001
4289.3629
5131.0603
5001.6814
-14776.749
-12268.393
-5224.9389
-430.24469
2571.2852
4069.136
4728.3452
5397.9867
4887.7795
-13788.867
-11537.953
-4455.5737
436.59825
3132.1122
4442.5725
5028.6069
5474.8229
4572.9019
-13190.04
-10945.513
-3617.4071
1224.7589
3547.0793
4700.4131
5274.5202
5369.3591
4022.9462
-13022.66
-10458.605
-2722.3392
1919.5726
3909.0805
4861.6376
5350.2814
5030.9355
3408.3871
-12972.272
-10050.723
-1780.0778
2510.9201
4190.2893
4997.796
5295.3017
4516.4742
2678.9751
-13099.6
-9692.5974
-787.65939
3000.2276
4325.9433
4968.7618
5060.6146
3840.1411
1991.4504
-12830.31
-9356.3249
211.86869
3221.2262
4284.9569
4957.8759
4801.2901
3066.5797
1375.5909
-8963.56
-7521.2393
-5051.1357
-4039.4971
-2302.0799
-1122.1958
-24.617908
326.62203
60.785505
-9224.9238
-7746.9302
-5001.5805
-3264.9288
-1935.9939
-899.71375
68.820175
107.47226
-150.13032
-9477.4838
-7971.5295
-4909.1558
-2492.8719
-1534.7601
-635.45781
209.51051
-119.76927
-353.27652
-9721.4331
-8180.2092
-4782.903
-1747.0745
-1109.7651
-345.20046
383.96267
-346.17285
-531.43498
-9951.1644
-8368.9602
-4643.1191
-1052.18
-686.63113
-31.491989
589.84491
-557.52212
-667.0261
-10166.091
-8529.5048
-4457.8317
-442.91805
-270.88479
305.2919
824.33149
-740.1817
-747.67068
-10369.876
-8659.4545
-4195.5314
81.856383
138.87743
654.83366
1085.7893
-865.3663
-761.96783
-10552.557
-8761.0281
-3886.8144
537.98541
550.06323
1013.2567
1357.9418
-920.67805
-714.67317
-10738.639
-8848.3065
-3547.7827
946.73836
959.40105
1385.0598
1634.5161
-870.92757
-630.25993
-3673.0994
-2123.4056
-5268.2429
-6024.0041
-539.95798
594.96722
1426.3397
1259.6209
614.38328
-3497.2114
-2038.1709
-5165.5245
-6076.7793
-1090.0394
422.67355
1345.3351
1444.3358
838.69065
-3319.6693
-1902.31
-4795.4253
-6082.3434
-1594.3959
152.14491
1196.8066
1538.2414
1029.8985
-3198.2048
-1747.2073
-4406.5935
-6020.8664
-2023.5209
-155.42586
989.86078
1531.9958
1174.192
-3194.3806
-1575.13
-3927.2751
-5865.1585
-2373.6961
-482.67968
726.59102
1445.0511
1273.5008
-3201.6499
-1391.4133
-3409.0334
-5590.2132
-2610.7529
-786.81702
450.65041
1255.5887
1294.0398
-3127.3693
-1189.7574
-2784.5245
-5165.3366
-2715.9842
-1062.6371
184.60435
1001.8402
1274.283
-3069.4761
-966.4271
-2229.8052
-4623.548
-2689.911
-1210.7935
-47.89691
754.44208
1193.4012
-3078.4449
-713.76772
-1498.7386
-4009.6988
-2515.1757
-1274.0136
-212.46763
502.8611
1063.7141
402.6275
137.90309
-12.410189
-426.95271
-810.67081
-1232.6035
415.36576
1509.984
-2272.8877
427.80573
98.465534
-97.150216
-575.2955
-1036.2017
-1579.8444
430.54376
1380.9392
-2317.6546
469.66614
78.599859
-168.16235
-711.49398
-1254.8209
-1931.3088
345.36965
1194.8586
-2384.3757
519.51834
77.197118
-223.65855
-837.12734
-1462.6869
-2273.3211
185.79621
985.24119
-2464.9593
579.05516
95.320002
-263.26077
-949.53703
-1658.1441
-2604.2868
-24.136414
721.7327
-2560.3975
646.09406
132.4022
-287.34865
-1045.0661
-1841.8964
-2907.1115
-266.57439
443.24744
-2671.7295
722.75691
186.33462
-298.17183
-1125.8293
-2015.3924
-3195.694
-541.69711
165.51677
-2768.0704
804.6128
255.44297
-295.37651
-1192.7222
-2178.8652
-3446.894
-816.36984
-129.9075
-2881.0852
906.16473
339.28931
-278.02909
-1243.5923
-2328.9659
-3704.7738
-1117.4117
-432.7654
-2985.9922
-2150.086
1742.545
306.64238
-863.78088
-558.51317
-254.37928
88.586492
202.46674
390.84552
-1938.0113
2158.8038
306.09627
-472.42712
-275.33005
-53.175863
204.36674
295.46935
400.35311
-1644.7034
2379.8241
394.96073
-119.24358
14.85838
157.52092
329.20358
407.92974
429.42723
-1292.0871
2736.8686
538.41263
194.26222
306.86613
383.68453
473.86491
527.57348
485.087
-678.5254
3232.9198
672.29027
468.06955
587.20943
610.22722
632.18204
656.27494
558.01921
-1460.0086
3598.4887
823.15376
715.6741
846.43329
830.26296
797.07394
795.80722
637.66502
-2207.2527
3728.4328
1189.2624
957.10612
1083.989
1046.664
979.20302
948.41691
730.03697
-1445.3803
3635.5017
1635.0298
1217.8028
1316.6006
1267.0498
1174.2258
1116.8574
850.95893
-721.27943
3385.216
2073.1962
1527.0747
1561.0802
1489.8758
1382.9949
1303.4442
1009.8224
3225.6831
3539.5056
3624.9081
3772.7803
3964.4004
4086.5644
4397.8834
4514.4971
5621.3987
2971.3786
3276.1229
3364.1753
3511.8457
3693.1434
3810.9804
4099.1015
4099.4803
5085.1922
2694.7859
3008.553
3101.1498
3246.2252
3419.2692
3537.265
3814.1573
3697.5243
4473.7856
2415.4763
2742.1214
2838.0895
2980.47
3142.8785
3265.0111
3549.0649
3341.5137
3781.423
2147.2382
2478.4949
2577.5752
2716.2975
2869.6698
2993.6909
3313.213
3056.0115
2994.7021
1895.3194
2221.7127
2317.881
2449.5679
2598.8169
2715.5899
3096.1785
2862.6988
2095.5881
1658.1228
1972.8561
2067.2879
2192.4006
2327.7252
2435.6165
2889.6102
2788.2844
1164.21
1441.7741
1734.5385
1827.0246
1947.9086
2064.9184
2146.8427
2674.6947
2857.0136
285.59386
1215.2323
1509.8167
1599.5511
1716.6533
1814.2561
1851.0515
2444.6292
3110.36
-313.12002
6054.1988
4898.4751
4693.1566
4350.9232
4224.5577
4027.9024
3881.8987
3797.1015
3484.2767
6420.608
5252.3616
4980.3549
4605.5982
4477.6891
4271.3713
4131.4587
4047.024
3755.9269
6765.6829
5596.0526
5267.1813
4861.2012
4726.6565
4512.3269
4378.5191
4291.5579
4028.7334
7089.5751
5929.6747
5551.1439
5114.3715
4969.542
4748.6301
4618.7318
4529.2013
4295.2742
7397.4565
6248.6213
5830.1338
5363.0839
5207.3468
4978.0576
4853.4424
4758.5883
4555.4028
7690.2976
6554.0524
6101.4655
5606.1527
5438.214
5197.6814
5081.0566
4980.4863
4806.4071
7973.4801
6846.7194
6363.2726
5842.6098
5659.9232
5412.6636
5300.4428
5193.9931
5048.9177
8246.1725
7125.2979
6613.9918
6068.8516
5873.9925
5616.0741
5507.6458
5397.1567
5279.9834
8511.6226
7391.3425
6853.1046
6285.2642
6075.9933
5808.2779
5706.32
5592.2673
5499.288
6888.6427
6863.9701
6999.969
7069.3724
7408.768
7654.444
8361.7365
9037.0854
10467.908
6798.0031
6766.5625
6902.0722
6978.1106
7317.8625
7570.2328
8282.1839
8965.2478
10373.828
6692.4159
6658.6353
6792.3493
6871.3015
7209.0099
7460.5548
8166.1462
8832.0471
10172.911
6561.1204
6540.6506
6670.1272
6755.7084
7081.776
7330.5846
8023.6032
8671.9242
9957.7164
6411.7124
6409.9348
6536.6132
6625.3635
6941.9054
7186.9146
7861.9051
8496.0797
9733.5218
6249.351
6268.031
6391.8617
6484.3617
6790.8722
7030.8362
7685.7336
8307.2667
9505.1403
6079.2768
6114.6599
6236.0871
6331.0695
6626.2323
6862.5065
7496.346
8101.923
9267.064
5898.2106
5951.0194
6069.5048
6167.155
6453.8376
6682.7973
7294.1676
7880.512
9022.3207
5705.4847
5776.3471
5893.8412
5994.2504
6270.1417
6489.9278
7079.288
7642.843
8770.6842
6977.2456
7061.907
7139.7656
7210.657
7274.3171
7331.6253
7382.0518
7426.9961
7466.2328
6953.5285
7035.7683
7111.482
7179.4564
7241.0671
7296.9267
7346.9295
7391.9302
7431.7311
7086.3938
7161.7795
7229.4374
7289.023
7344.1435
7391.7551
7434.3407
7471.6479
7505.8577
7152.8445
7226.3622
7291.9712
7352.0915
7404.0785
7450.9914
7491.0981
7526.1068
7558.1129
7479.8329
7535.6067
7583.273
7623.3392
7656.8242
7686.4308
7708.7022
7728.5685
7745.2514
7719.6514
7772.3017
7812.8647
7845.1312
7869.7144
7886.8466
7898.3717
7905.012
7908.36
8401.8679
8422.5627
8429.6299
8426.9783
8417.336
8403.547
8385.0319
8362.1428
8336.9734
9045.2639
9036.3738
9013.2918
8979.5916
8936.5117
8885.4721
8828.2138
8767.4184
8702.6441
10395.556
10317.094
10228.807
10136.332
10038.219
9934.3603
9826.6432
9713.7414
9596.7547
7500.9201
7467.5516
7535.7062
7584.6769
7757.1856
7909.5561
8309.9422
8635.6737
9477.0133
7530.5715
7498.2503
7561.1367
7607.2633
7768.244
7908.3745
8281.2591
8567.7546
9352.645
7556.5232
7526.4537
7583.2891
7628.3465
7776.0833
7905.5173
8252.2588
8502.8706
9235.8552
7578.9006
7551.3762
7604.845
7646.19
7782.7928
7900.7624
8222.6785
8441.5172
9126.341
7598.1183
7573.1898
7621.9832
7661.1879
7788.8114
7896.5604
8193.5
8382.2975
9014.7875
7614.8048
7591.8954
7636.2254
7674.2298
7792.5172
7891.8918
8164.7283
8323.9484
8900.6611
7629.116
7608.961
7650.3646
7685.0761
7796.8391
7886.6403
8137.2825
8268.4796
8786.9475
7641.1378
7623.5602
7661.8892
7693.8551
7798.7428
7882.7782
8112.0604
8217.5617
8674.9116
7650.8425
7634.4597
7670.4291
7701.3347
7800.5184
7878.9247
8089.9714
8171.544
8569.1068
7679.2976
7676.3918
7700.695
7718.806
7793.7285
7856.0046
7996.8328
8020.7356
7961.4865
7678.861
7675.5303
7701.3663
7719.3905
7797.494
7858.3879
7999.9056
8014.3263
7959.5638
7677.8721
7674.2448
7700.6074
7719.7568
7800.8023
7861.2201
8005.2694
8011.4291
7978.3763
7675.9016
7672.517
7698.896
7720.5354
7803.2478
7864.2338
8013.201
8012.3392
8024.6751
7673.2921
7669.5066
7697.0922
7720.9746
7804.5182
7867.2323
8021.6988
8019.951
8095.0998
7670.5614
7665.7417
7692.8587
7719.734
7804.6221
7870.0445
8030.7566
8035.9311
8177.6858
7667.3782
7660.7354
7688.8705
7717.275
7804.0549
7872.1865
8041.5044
8060.1852
8267.2764
7663.4247
7654.1271
7684.5867
7713.6514
7803.016
7874.5911
8054.9615
8092.3269
8363.8257
7658.2731
7645.1481
7677.4748
7708.2833
7802.2514
7876.2649
8071.0528
8129.39
8466.1817
7967.2467
8033.3337
7994.2085
7854.4711
7789.7321
7717.1518
7699.369
7676.7489
7678.715
7986.9709
8051.5588
7992.5684
7851.798
7785.3863
7714.8771
7697.7394
7676.3756
7677.8232
8026.2633
8072.4061
7992.1844
7847.1245
7780.6346
7711.584
7695.7863
7675.4009
7676.7766
8071.5865
8093.4385
7991.6246
7839.8325
7775.199
7706.834
7693.6854
7673.9576
7675.8126
8116.5561
8109.4341
7989.4226
7829.8152
7768.8226
7701.3334
7691.3133
7672.3016
7674.8794
8170.4121
8121.253
7983.7239
7818.3548
7761.2347
7695.6062
7688.5909
7670.5711
7674.1244
8230.6376
8131.0961
7973.9458
7806.0299
7752.5159
7689.6307
7685.4061
7669.0255
7673.584
8292.1372
8139.6237
7962.8122
7795.1638
7743.4507
7684.3233
7681.8394
7667.9961
7673.407
8347.8452
8148.6272
7956.1493
7788.6797
7735.812
7682.0288
7678.4307
7667.6716
7673.2406
8404.2758
8161.8874
7958.1346
7790.8828
7731.8128
7684.6143
7675.1305
7668.3092
7672.1231
8464.107
8176.7392
7959.5255
7794.7278
7727.7773
7686.2455
7671.7694
7667.818
7670.1639
8518.6322
8186.8892
7958.8451
7797.3916
7724.7869
7685.349
7668.543
7665.8485
7667.7537
8567.3415
8191.872
7954.76
7796.9145
7721.3463
7681.9826
7664.5853
7662.4098
7664.5934
8604.0369
8188.4486
7945.0548
7792.6762
7716.3558
7676.6114
7659.3383
7657.3989
7660.3466
8620.2886
8174.0695
7928.4481
7784.5984
7709.0709
7669.1812
7652.2059
7650.58
7654.6584
8594.8608
8145.6596
7905.4247
7772.4301
7698.9777
7659.4732
7642.8928
7641.7146
7647.1681
8494.1099
8105.6544
7877.3432
7756.6666
7686.097
7647.2231
7630.983
7630.5109
7637.458
8340.2906
8054.024
7845.2095
7737.1936
7669.8556
7631.994
7616.1
7616.6309
7624.9794
7290.8837
7297.5426
7313.3454
7340.9768
7379.8567
7436.0927
7501.4956
7603.3953
7672.0718
7352.2629
7353.3754
7364.1292
7387.7223
7426.3554
7482.3757
7552.1147
7652.9771
7754.3988
7407.7599
7404.0564
7410.3579
7431.5492
7468.8799
7525.3405
7594.4051
7699.877
7796.8588
7456.6629
7449.3401
7452.292
7471.5631
7508.1895
7565.0271
7635.8199
7748.3149
7851.0938
7498.8647
7489.2752
7490.0149
7507.5764
7544.0494
7601.6444
7676.2806
7798.2373
7915.209
7534.6705
7524.0834
7523.1853
7539.6366
7576.4633
7635.4786
7714.5894
7849.5216
7981.1591
7564.6011
7553.7515
7552.0449
7568.1914
7605.2875
7665.4352
7749.9452
7901.34
8051.9325
7589.2116
7578.6871
7577.098
7592.9673
7629.7302
7692.1534
7782.5073
7951.5011
8128.9691
7609.0984
7599.5248
7598.2273
7613.8175
7650.8132
7715.2481
7812.7104
7999.9162
8214.8702
7919.4277
7992.1689
8064.8393
8153.9728
8261.5548
8386.077
8534.698
8715.9072
8932.8924
7966.4171
8035.7888
8112.7688
8206.6181
8318.1174
8446.5776
8598.4071
8781.8401
8998.1144
8015.9262
8087.0122
8168.304
8265.6129
8379.4663
8511.1004
8665.7693
8851.9701
9073.8296
8074.0225
8147.1998
8231.4197
8330.0482
8445.0234
8577.7802
8734.8894
8924.9815
9156.6727
8137.6519
8212.4266
8297.3788
8395.1629
8509.1137
8641.7871
8798.8887
8995.9768
9242.9566
8202.3451
8276.1092
8359.9162
8455.9138
8567.5923
8699.4707
8856.3273
9053.5064
9305.3207
8258.7243
8329.503
8409.7307
8501.6885
8610.6644
8740.21
8898.4478
9098.849
9338.2434
8294.033
8361.3927
8438.5362
8526.7103
8629.2114
8750.4799
8900.405
9100.8605
9276.5234
8295.5207
8357.4741
8429.889
8512.49
8604.6666
8716.3404
8823.8051
9067.2347
9153.358
8187.8097
8657.0237
8439.4018
8580.0298
8465.1385
8430.5233
8364.2098
8300.0292
8239.5499
7783.2049
7933.6159
7945.1881
8045.7721
8042.8206
8073.6189
8064.3879
8047.4444
8012.5579
7568.0156
7621.0316
7623.8855
7677.8502
7689.4424
7719.0755
7730.8309
7740.5672
7732.257
7373.9187
7411.2277
7400.0237
7431.7242
7431.6155
7451.1378
7456.6929
7469.3913
7468.8375
7203.2413
7228.6592
7220.275
7238.8044
7234.7714
7244.6279
7245.7607
7252.9285
7254.7584
7047.6536
7061.9513
7055.3343
7069.2309
7063.3941
7070.7759
7067.8187
7070.208
7069.604
6901.3545
6907.7973
6902.7707
6908.791
6904.0008
6906.0487
6903.4289
6903.1914
6902.0558
6754.0197
6753.0397
6747.2136
6749.5844
6743.6155
6744.9418
6740.972
6740.1064
6737.5417
6601.2798
6593.8989
6586.0167
6582.6832
6575.5828
6571.6871
6566.9642
6563.5369
6558.1947
6375.4602
6195.9552
6000.5425
5777.9329
5530.067
5222.7186
4877.3469
4490.5539
4220.4355
6382.8749
6204.0158
6006.3647
5781.6256
5524.8686
5216.9539
4857.9021
4475.6397
4146.9763
6385.9884
6206.7603
6004.8777
5778.995
5514.3274
5204.163
4831.6246
4438.3613
4053.8323
6393.5961
6211.5656
6009.7848
5779.5207
5511.8407
5192.9818
4810.4053
4384.816
3942.6963
6398.2894
6217.3215
6012.4215
5782.7735
5510.5066
5186.0758
4790.4383
4328.5033
3824.6215
6407.8422
6224.9667
6019.2287
5787.1068
5514.5001
5183.0132
4775.7366
4272.6331
3705.424
6415.3633
6232.8611
6028.3177
5796.2864
5522.9381
5191.6735
4769.0078
4240.9199
3611.0693
6423.2392
6240.3178
6031.0828
5804.1346
5526.3039
5195.5871
4767.9223
4207.4961
3590.9908
6437.852
6255.83
6053.5818
5819.1536
5558.2972
5221.2465
4797.1051
4236.1015
3468.6402
4255.2448
4456.5079
4759.6735
5009.1006
5165.6168
5274.7307
5382.4442
5496.9993
5608.4829
4140.3465
4356.549
4715.6035
4988.6174
5149.691
5262.4792
5374.0159
5491.3087
5606.7138
4000.8049
4252.0654
4679.8422
4973.5828
5133.7682
5250.2969
5365.2452
5484.8383
5601.9066
3833.4696
4141.9166
4643.4159
4953.3762
5116.8739
5242.4896
5365.2673
5487.6193
5606.2937
3623.7608
4040.0859
4608.5337
4922.9459
5084.568
5216.6656
5346.8269
5473.8099
5595.2063
3319.9537
3963.2475
4619.0528
4930.5929
5091.9732
5228.8061
5359.9659
5486.106
5605.7652
2901.9509
3796.1551
4552.9443
4869.3829
5044.8143
5194.8125
5337.3559
5468.597
5592.4114
2465.7539
3841.528
4609.412
4887.9598
5061.9305
5212.4728
5351.3933
5480.4454
5601.0619
1454.009
3678.7903
4578.2177
4851.5881
5039.9766
5199.0473
5342.7428
5473.0502
5595.6957
5714.4733
5814.9045
5916.052
6017.4989
6124.3336
6237.7679
6362.4461
6492.3315
6642.3564
5714.8692
5818.1424
5919.3894
6022.6137
6129.6415
6245.1118
6370.6481
6503.5153
6654.3518
5712.0673
5816.6428
5919.8057
6024.1812
6132.8236
6249.94
6376.952
6512.8495
6665.3242
5716.5053
5822.914
5925.4551
6031.2717
6139.6022
6258.0122
6385.1285
6523.4301
6676.587
5707.8946
5816.5013
5921.0954
6028.4504
6138.4859
6258.5317
6386.9501
6527.8844
6682.2723
5717.4526
5825.8834
5930.2503
6037.5709
6147.4251
6267.8837
6396.4293
6538.5456
6693.7599
5705.5886
5817.5625
5922.7075
6032.6562
6142.7523
6265.2658
6393.8908
6538.1473
6693.4059
5713.8321
5823.9998
5929.6265
6038.4554
6148.6955
6271.0028
6399.958
6544.3568
6701.5048
5709.1732
5820.9519
5926.755
6036.6943
6147.1078
6270.084
6399.0778
6544.3132
6701.3967
6801.1741
6985.2093
7182.7576
7410.886
7651.0868
7920.4631
8183.4256
8450.3911
8644.9031
6816.9773
7002.8403
7206.2735
7438.1144
7688.6719
7966.4503
8245.4455
8531.3412
8743.9056
6831.9659
7020.0858
7229.2853
7465.2781
7725.5019
8011.9258
8309.5548
8611.3597
8842.8758
6846.5861
7036.5213
7250.8586
7491.0047
7759.7825
8054.2212
8370.2607
8685.6307
8938.546
6856.1047
7048.0496
7267.0598
7511.6183
7788.6833
8091.8688
8425.4278
8755.0178
9031.4098
6869.1158
7062.715
7284.8787
7532.2822
7816.3125
8128.0196
8477.4294
8819.7891
9117.5948
6871.7191
7066.3996
7292.4391
7542.7979
7834.4334
8151.5763
8517.7787
8868.694
9194.5678
6879.5268
7075.8707
7302.4035
7556.1509
7849.8213
8174.0814
8548.6581
8913.9127
9266.4158
6880.2877
7076.711
7304.9474
7558.8272
7855.6092
8180.8321
8563.1791
8931.4096
9290.2105
8679.7889
8031.448
7530.3055
7146.0916
6763.7685
6373.1914
5979.2804
5595.3995
5204.0124
8808.9407
8130.9901
7613.0451
7220.4388
6833.2122
6434.6133
6035.7961
5645.2732
5253.8509
8943.9763
8227.6551
7690.0603
7290.5865
6896.7707
6492.9459
6092.4529
5697.2875
5305.8552
9080.1974
8323.156
7767.7205
7359.8365
6956.3985
6546.4419
6144.9114
5743.2351
5353.5017
9219.1263
8418.4953
7846.5499
7434.5297
7026.4618
6610.2754
6204.5625
5802.2972
5409.3175
9358.118
8517.1295
7916.6661
7488.1544
7072.6594
6653.3639
6248.1386
5836.207
5444.756
9478.447
8624.3729
8014.6572
7571.9177
7151.1731
6728.1199
6321.6245
5911.6662
5516.884
9581.0899
8690.3047
8054.4468
7600.9422
7175.8354
6750.5583
6341.4918
5924.6872
5530.7659
9693.7493
8840.5255
8178.5581
7701.6141
7270.906
6843.2501
6434.2425
6016.7843
5618.5985
4818.7652
4426.4938
4024.4683
3609.4439
3193.702
2754.2121
2270.1772
1731.5239
1151.1425
4867.7923
4474.5632
4071.1602
3651.9705
3225.5357
2786.8983
2302.4933
1769.2111
1194.9023
4917.5992
4525.2778
4122.9934
3706.7655
3285.8993
2847.4776
2372.9467
1837.3782
1269.9851
4964.0814
4574.5322
4170.3478
3752.2597
3318.1885
2883.2122
2404.5594
1881.6902
1319.7935
5018.7601
4628.3538
4225.6534
3813.468
3388.6523
2951.6524
2485.8601
1962.1149
1403.2778
5054.6437
4668.4974
4261.891
3845.8598
3410.2564
2974.6463
2500.7503
1987.7255
1432.3896
5124.2603
4735.4752
4332.2569
3926.2441
3492.7648
3062.1749
2594.9804
2088.5606
1532.9194
5141.66
4754.2482
4349.0936
3936.8978
3504.5398
3069.3288
2600.8017
2095.1325
1545.9864
5227.8414
4840.5451
4438.0938
4030.336
3598.8765
3167.5095
2707.8694
2212.9537
1660.746
469.10262
-335.4845
-1173.4062
-2098.3061
-2969.2183
-3722.5094
-4681.4774
-6515.6606
-9378.488
522.51316
-259.54485
-1075.6446
-1961.865
-2810.8064
-3518.8406
-4349.3328
-6050.0392
-8840.8571
607.49806
-152.20237
-945.89391
-1802.2115
-2682.2093
-3487.2392
-4347.3742
-5892.6458
-8305.2146
681.00334
-53.104422
-820.49701
-1650.926
-2534.2087
-3369.5078
-4236.9012
-5643.5387
-7664.9707
764.08379
51.515905
-694.65059
-1498.1089
-2362.3555
-3200.5893
-4060.3641
-5297.2559
-6831.2919
823.42429
132.60109
-581.74648
-1362.285
-2203.295
-3060.1935
-3919.4017
-5012.8348
-5848.2482
932.28556
266.56702
-413.93235
-1175.6369
-1979.6834
-2875.346
-3659.4203
-4835.485
-4630.983
964.20658
303.23478
-349.0555
-1095.6299
-1875.3551
-2751.5064
-3676.9229
-4514.2368
-5022.6729
1096.6583
481.36436
-130.4111
-835.18637
-1543.2745
-2381.9932
-3188.7446
-4967.9005
23.532001
-12911.389
-15990.709
-17967.562
-16499.531
-16408.86
-16359.37
-16518.167
-16520.762
-16574.227
-12649.174
-16109.396
-17784
-16298.93
-16208.43
-16176.393
-16388.934
-16441.664
-16509.546
-12554.216
-16363.567
-17442.739
-16192.001
-16297.339
-16282.452
-16388.231
-16404.437
-16431.541
-12677.778
-16622.492
-17035.439
-16086.672
-16186.993
-16141.127
-16329.332
-16358.168
-16380.995
-12953.103
-16790.296
-16455.125
-16053.522
-16258.723
-16287.424
-16306.704
-16313.13
-16302.35
-12713.359
-16579.724
-16195.827
-16078.017
-16139.811
-16125.854
-16267.578
-16289.998
-16260.366
-11635.869
-16125.863
-16076.619
-16083.955
-16233.107
-16261.036
-16248.885
-16248.674
-16209.729
-12765.038
-16905.826
-15915.497
-16151.824
-16179.43
-16202.445
-16229.571
-16234.037
-16184.993
-25680.352
-14303.723
-16246.424
-16147.146
-16207.533
-16227.136
-16220.073
-16208.047
-16144.553
-16200.839
-15711.459
-14781.018
-13842.752
-13067.636
-12347.05
-11937.823
-12805.738
-13013.351
-16151.43
-15576.565
-14618.681
-13686.427
-12858.375
-12115.718
-11654.509
-12722.068
-12866.472
-16053.738
-15396.395
-14439.837
-13483.809
-12625.1
-11906.38
-11542.286
-12733.512
-13078.637
-15956.766
-15236.596
-14254.634
-13245.393
-12364.111
-11679.616
-11504.404
-12642.175
-13330.397
-15849.08
-15076.328
-14066.123
-13005.571
-12089.994
-11448.33
-11469.88
-12478.062
-13445.436
-15759.762
-14934.158
-13887.538
-12781.829
-11831.585
-11233.275
-11435.694
-12400.671
-13526.109
-15657.141
-14796.553
-13711.853
-12574.299
-11603.19
-11064.638
-11419.202
-12413.532
-13520.704
-15620.088
-14717.202
-13596.393
-12424.468
-11424.881
-10953.596
-11391.164
-12466.655
-13340.121