/*--------------------------------*- C++ -*----------------------------------*\
  =========                 |
  \\      /  F ield         | OpenFOAM: The Open Source CFD Toolbox
   \\    /   O peration     | Website:  https://openfoam.org
    \\  /    A nd           | Version:  11
     \\/     M anipulation  |
\*---------------------------------------------------------------------------*/
FoamFile
{
    format      ascii;
    class       surfaceScalarField;
    location    "3";
    object      phi;
}
// * * * * * * * * * * * * * * * * * * * * * * * * * * * * * * * * * * * * * //

dimensions      [0 3 -1 0 0 0 0];

internalField   nonuniform List<scalar> 
8667
(
15.890144
1.7890159
0.098617514
13.995394
1.6319478
0.26280249
12.098869
1.4559333
0.44059201
10.201697
1.3573654
0.53980616
8.3042728
1.2604095
0.63701495
6.4273924
1.1726296
0.70425078
4.5406463
1.1071622
0.77958395
2.7289229
0.95771618
0.85400718
0.82529643
0.96406669
0.93955979
15.88947
3.6773236
13.992654
3.5287641
12.092288
3.3562991
10.187409
3.2622443
8.2965177
3.1513012
6.4112305
3.0579168
4.5381893
2.9802034
2.7266709
2.7692346
2.6279709
0.92399647
15.889279
5.5658229
13.989466
5.4285768
12.086357
5.2594078
10.179489
5.1691124
8.2858702
5.0449202
6.3993329
4.9444542
4.5240939
4.8554424
2.7156278
4.5777007
4.4408357
0.90276295
15.889093
7.4545078
13.987327
7.3303428
12.082252
7.1644833
10.173874
7.0774898
8.2756761
6.9431183
6.3873564
6.8327739
4.505961
6.7368379
2.6907374
6.3929242
6.2501885
0.88138458
15.888767
9.3435163
13.987225
9.2318856
12.07896
9.0727476
10.167926
8.9885239
8.2671762
8.8438683
6.3752908
8.7246593
4.495428
8.6167006
2.6759326
8.2124196
8.0499606
0.8761606
15.88836
11.232934
13.987424
11.132822
12.077185
10.982986
10.165243
10.900467
8.2617615
10.747349
6.3609134
10.625507
4.4742267
10.503387
2.6467391
10.039907
9.8451075
0.85159221
15.888261
13.122451
13.987178
13.033905
12.076934
12.89323
10.161832
12.815569
8.256037
12.653144
6.3543682
12.527176
4.4650206
12.392735
2.627606
11.877322
11.634408
0.83830588
15.888281
15.011949
13.987226
14.93496
12.076619
14.803836
10.162714
14.729475
8.2517008
14.564157
6.3391809
14.439696
4.4436081
14.288308
2.593141
13.727789
13.409995
0.8175536
15.888489
16.901238
13.98901
16.834438
12.078021
16.714825
10.162096
16.6454
8.2509612
16.475292
6.3367863
16.353871
4.4350952
16.189999
2.5677963
15.595088
15.185841
0.79195022
18.728043
15.950973
20.55414
15.951681
22.379935
15.951989
24.205558
15.952157
26.030758
15.95256
27.855067
15.953471
29.677738
15.955109
31.498787
15.956731
15.958923
33.317645
18.668974
14.116437
20.503117
14.117538
22.336323
14.118783
24.168664
14.119816
25.999745
14.121479
27.829877
14.123339
29.661242
14.123744
31.495597
14.122375
14.120356
33.334164
18.561956
12.269306
20.408406
12.271087
22.254441
12.272749
24.099319
12.274938
25.944199
12.276598
27.785729
12.28181
29.621498
12.287975
31.449117
12.294756
12.30186
33.267613
18.497349
10.417357
20.349767
10.41867
22.200595
10.42192
24.050852
10.424681
25.900667
10.426783
27.753628
10.428849
29.617416
10.424187
31.483141
10.429031
10.429724
33.355277
18.33121
8.5614389
20.189179
8.5607013
22.055936
8.5551635
23.92313
8.5574863
25.791692
8.5582214
27.655375
8.5651662
29.509999
8.5695634
31.363355
8.5756752
8.5828451
33.210234
18.222368
6.6929421
20.099841
6.6832281
21.988511
6.6664939
23.888861
6.6571356
25.800458
6.6466244
27.725512
6.6401122
29.656618
6.6384581
31.59623
6.6360629
6.6374118
33.541663
18.037676
4.8452648
19.906121
4.8147834
21.784996
4.7876184
23.687338
4.754794
25.595195
4.7387669
27.52114
4.7141677
29.44965
4.7099478
31.392062
4.693651
4.7088282
33.320646
17.448119
2.9922336
19.377418
2.8854842
21.357638
2.8073982
23.405644
2.7067886
25.491778
2.6526331
27.614253
2.5916928
29.748804
2.5753959
31.908783
2.5336723
2.5468599
34.070751
16.952712
1.225363
18.947345
0.8908505
21.18594
0.56880382
23.517488
0.3752407
25.864551
0.3055701
28.211185
0.24505889
30.594972
0.1916083
32.988827
0.13981786
35.379442
0.15624394
33.190598
0.12704672
33.064195
0.1264027
32.938039
0.12615586
32.812952
0.12508711
32.688404
0.12454782
32.565916
0.12248892
32.444469
0.12144674
32.326971
0.11749747
0.1159482
32.211023
33.215744
0.24546656
33.099334
0.24281277
32.98478
0.24071027
32.873382
0.23648497
32.764484
0.23344522
32.660732
0.22624119
32.560068
0.22211084
32.466397
0.21116839
0.20643252
32.375913
33.150411
0.3626687
33.038014
0.35520917
32.928059
0.35066546
32.824261
0.34028326
32.725112
0.33259447
32.630646
0.32070666
32.544136
0.30862158
32.463585
0.29171909
0.2816903
32.388327
33.2603
0.45764516
33.172956
0.44255391
33.091152
0.43246859
33.01617
0.4152662
32.945327
0.40343749
32.881528
0.38450475
32.820979
0.36917082
32.767193
0.34550544
0.33282212
32.716061
33.132024
0.5358543
33.062347
0.5122317
32.997804
0.49701087
32.94079
0.47228065
32.888183
0.4560446
32.846174
0.42651333
32.805177
0.41016765
32.77464
0.37604299
0.36167881
32.745783
33.507381
0.57013631
33.485725
0.53388778
33.467569
0.51516657
33.457533
0.48231673
33.449717
0.46386064
33.444668
0.43156264
33.43988
0.41495567
33.433952
0.38197093
0.36854421
33.427087
33.323379
0.56740301
33.330642
0.52662492
33.345349
0.50045969
33.358563
0.46910231
33.374816
0.44760758
33.386808
0.41957075
33.402908
0.39885567
33.413886
0.37099352
0.35607769
33.426352
34.243142
0.39501216
34.402572
0.36719558
34.560233
0.34279816
34.698399
0.3309366
34.837864
0.30814275
34.957968
0.29946629
35.068446
0.28837756
35.15422
0.28521989
0.29849844
35.211799
35.618096
0.15635822
35.775707
0.20958543
35.880376
0.23812878
35.971341
0.23997124
36.051525
0.22795928
36.114836
0.23615532
36.153725
0.24948803
36.099759
0.33918629
35.968668
0.42958965
35.863733
0.67855948
-0.57362483
35.619682
0.64354964
-0.39949828
35.257773
0.61375505
-0.25184615
34.814802
0.5779515
-0.13498113
34.357696
0.53347739
-0.076371212
33.942305
0.49660664
-0.081215018
33.582459
0.47682195
-0.11697601
33.264719
0.46887648
-0.15113662
0.46913218
33.004978
-0.20939146
35.356655
0.53370387
35.444324
0.55588028
35.484797
0.57328255
35.47729
0.58545849
35.414818
0.59594854
35.306346
0.60507918
35.171474
0.61169367
35.019487
0.62086374
0.62888496
34.859734
33.5607
0.3993561
33.692881
0.42369958
33.811632
0.45453129
33.921114
0.47597672
34.012522
0.50454045
34.092659
0.52494199
34.150709
0.55364402
34.196955
0.5746172
0.60495885
34.220881
33.535281
0.29116122
33.64806
0.31092063
33.755117
0.34747495
33.864023
0.36707087
33.96298
0.4055831
34.062512
0.42540975
34.150901
0.46525513
34.23995
0.48556844
0.5274344
34.317474
32.847749
0.18919549
32.953338
0.2053311
33.063501
0.23731222
33.176652
0.25392039
33.291714
0.29052019
33.409347
0.3077772
33.526397
0.3482048
33.644668
0.36729808
0.40995717
33.762145
32.792231
0.11302577
32.873202
0.12435987
32.960329
0.15018535
33.052298
0.16195135
33.15081
0.19200796
33.250767
0.20782049
33.362371
0.23660042
33.470309
0.2593604
0.28775667
33.592509
32.446899
0.054453869
32.511347
0.059911726
32.58256
0.07897245
32.660385
0.084126258
32.745914
0.10647893
32.83774
0.11599416
32.938138
0.13620295
33.045831
0.15166754
0.17325919
33.160328
32.415022
0.015344452
32.458212
0.016721845
32.510711
0.026473332
32.566416
0.028421744
32.631061
0.041833351
32.703887
0.043168181
32.781238
0.058852157
32.873063
0.059842739
0.078423213
32.967899
32.226368
32.243089
32.269563
32.297985
32.339818
32.382986
32.441838
32.501681
32.580104
32.658732
-0.078628133
32.758166
-0.099433979
32.861724
-0.10355726
32.985638
-0.12391435
33.115983
-0.13034476
33.268285
-0.15230209
33.430946
-0.16266161
33.611862
-0.18091613
-0.20167712
33.81354
33.079195
-0.18992386
33.194487
-0.21472634
33.325194
-0.23426397
33.463881
-0.26260186
33.61838
-0.2848437
33.781963
-0.31588444
33.962968
-0.34366739
34.152695
-0.37064326
-0.41093188
34.36195
33.285402
-0.31499715
33.416359
-0.34568374
33.557715
-0.37562039
33.703785
-0.40867151
33.864055
-0.44511405
34.022544
-0.4743732
34.197098
-0.51822139
34.377769
-0.55131369
-0.59411925
34.560956
33.709214
-0.43170177
33.84065
-0.4771198
33.965164
-0.50013406
34.104428
-0.54793551
34.23712
-0.57780581
34.3855
-0.6227535
34.527135
-0.65985692
34.688754
-0.71293195
-0.74834877
34.842983
33.879223
-0.54877966
33.995356
-0.59325291
34.111099
-0.61587675
34.227521
-0.6643579
34.339417
-0.68970204
34.459443
-0.7427795
34.572178
-0.77259123
34.692346
-0.83310054
-0.86779257
34.81179
34.395858
-0.62716342
34.460927
-0.65832163
34.529405
-0.68435472
34.583167
-0.71812066
34.643125
-0.74965943
34.689295
-0.78894939
34.743715
-0.82701121
34.784981
-0.87436685
-0.91998235
34.837171
34.236392
-0.64267372
34.233705
-0.65563466
34.224629
-0.67527924
34.201984
-0.69547564
34.175849
-0.723524
34.135166
-0.74826674
34.090803
-0.78264808
34.03772
-0.82128421
-0.87160517
33.989343
34.697898
-0.48083716
34.53398
-0.49171664
34.366803
-0.50810295
34.189806
-0.5184779
33.998428
-0.53214599
33.79672
-0.54655876
33.594491
-0.58041996
33.386206
-0.61299904
-0.66818305
33.182784
32.774559
-0.25041852
32.552158
-0.26931492
32.321038
-0.27698305
32.046317
-0.24375748
31.749594
-0.23542281
31.468074
-0.26503884
31.211422
-0.32376758
30.926104
-0.32768143
30.606452
-0.34853071
0.72076444
30.210609
-0.32492113
0.92406029
32.979488
0.97912066
33.934283
0.93735287
34.878939
0.81400333
34.935139
0.63633352
35.020653
0.43304519
34.764244
0.21458152
34.580414
34.028121
0.78991078
29.752102
-0.33140378
0.98104229
32.788357
1.0306529
33.884672
0.97669525
34.932896
0.85005691
35.061778
0.67898744
35.191722
0.47984545
34.963386
0.24126596
34.818993
34.269387
0.82661797
29.233444
-0.30796031
1.0434685
32.571506
1.1013817
33.826759
1.0576269
34.976651
0.92910703
35.190298
0.72995993
35.390869
0.5041921
35.189154
0.25533889
35.067847
34.524726
0.87290993
28.736152
-0.37561777
1.1024489
32.341967
1.1570148
33.772193
1.0995915
35.034074
0.96533579
35.324553
0.7750163
35.581189
0.55712707
35.407043
0.28577067
35.339203
34.810497
0.90359457
28.249188
-0.41663056
1.1755167
32.070045
1.240695
33.707015
1.1919075
35.082862
1.0559366
35.460524
0.83117541
35.80595
0.58099687
35.657222
0.3005477
35.619652
35.111044
0.96257209
27.82563
-0.5390147
1.2364456
31.796172
1.3009415
33.642519
1.2379606
35.145843
1.0965545
35.60193
0.8830507
36.019454
0.64090995
35.899363
0.33342792
35.927134
35.444472
1.022973
27.369465
-0.56680795
1.324111
31.495034
1.3999067
33.566723
1.3425624
35.203187
1.1976226
35.74687
0.94494686
36.27213
0.66790774
36.176402
0.35210093
36.242941
35.796573
1.1146222
26.96668
-0.7118365
1.3922528
31.217403
1.461774
33.497202
1.3898653
35.275096
1.2374532
35.899282
0.99699604
36.512587
0.73013409
36.443264
0.38529611
36.587779
36.181869
1.2077883
26.381309
-0.62241789
1.5053045
30.919887
1.5844914
33.418015
1.5132062
35.346381
1.3585893
36.053899
1.0714755
36.799701
0.76071346
36.754026
0.40671368
36.941779
36.588583
-0.069125413
36.657708
-0.067833084
36.940486
-0.01668826
36.702881
0.097831817
36.685181
0.22373664
35.927994
0.42519302
35.144925
0.64402223
33.199186
0.96443521
30.599474
26.292766
1.0529789
-0.076976142
36.734685
-0.073882324
36.937393
-0.068968089
36.697967
0.00042425267
36.615788
0.11148707
35.816932
0.30048287
34.955929
0.48680492
33.012864
0.73064497
30.355634
26.257249
0.76616156
-0.10155115
36.836236
-0.12650521
36.962347
-0.09122032
36.662682
0.0065310882
36.518037
0.10608237
35.71738
0.28675036
34.775261
0.46011756
32.839496
0.68290297
30.132848
26.199429
0.7407226
-0.10538185
36.941618
-0.13435276
36.991318
-0.15458839
36.682917
-0.10334124
36.46679
-0.0094468525
35.623486
0.15813362
34.60768
0.30859672
32.689033
0.48907087
29.952374
26.184222
0.50427788
-0.12864216
37.07026
-0.17382981
37.036505
-0.15885228
36.66794
-0.084275744
36.392213
-0.0017979779
35.541008
0.16629992
34.439582
0.3070608
32.548272
0.47877136
29.780664
26.133867
0.52912632
-0.13441454
37.204674
-0.19056048
37.092651
-0.22678688
36.704166
-0.18688287
36.352309
-0.10587081
35.459996
0.041262826
34.292449
0.16462226
32.424913
0.32269553
29.62259
26.089011
0.36755181
-0.1563904
37.361065
-0.2181438
37.154405
-0.22096656
36.706989
-0.15906135
36.290404
-0.082542315
35.383477
0.066324413
34.143582
0.1855575
32.30568
0.34288674
29.465261
25.997641
0.43425691
-0.15873829
37.519803
-0.23008346
37.22575
-0.27993586
36.756841
-0.25459501
36.265063
-0.18765074
35.316533
-0.054782278
34.010714
0.056765246
32.194132
0.21076352
29.311263
25.906129
0.30227504
-0.17987309
37.699676
-0.2512257
37.297102
-0.27051532
36.776131
-0.21766325
36.212211
-0.14690541
35.245775
-0.010267399
33.874076
0.097996229
32.085869
0.24965779
29.159601
25.779824
0.37596279
-0.12861033
25.656353
0.25208185
0.020832533
29.010158
0.13070206
31.975999
0.24849086
33.756287
0.29721866
35.197047
0.3118233
36.197606
0.25812757
36.829827
0.17964486
37.375585
37.879321
-0.18265029
25.509828
0.32917483
-0.036492091
28.864
0.069012555
31.870495
0.19068502
33.634614
0.25503851
35.132694
0.29966053
36.152984
0.26524696
36.86424
0.19053205
37.4503
38.069853
-0.072613267
25.358381
0.22406096
0.071090326
28.720297
0.1779241
31.763661
0.28191942
33.530619
0.32181715
35.092796
0.33160355
36.143198
0.26855105
36.927293
0.18751589
37.531335
38.257369
-0.14072624
25.19231
0.30679662
0.0017602452
28.57781
0.096091273
31.66933
0.20627809
33.420432
0.25946625
35.039608
0.29408049
36.108584
0.25689905
36.964474
0.18897412
37.59926
38.446343
-0.046531104
25.022075
0.2167662
0.091790949
28.439488
0.19062301
31.570498
0.28580529
33.32525
0.32284689
35.002566
0.32806751
36.103363
0.26048708
37.032055
0.18450148
37.675246
38.630844
-0.13228293
24.853342
0.30101633
0.0021745559
28.305031
0.08618424
31.486488
0.18916033
33.222274
0.23333364
34.958393
0.26523831
36.071459
0.23455951
37.062733
0.17380753
37.735998
38.804652
-0.058238892
24.697294
0.21428672
0.068596657
28.178195
0.16168256
31.393402
0.25621675
33.12774
0.29068265
34.923927
0.29348638
36.068655
0.23138037
37.124839
0.16523251
37.802145
38.969884
-0.16332747
24.563709
0.29691222
-0.045267814
28.060135
0.03583963
31.312295
0.13908053
33.024499
0.17743164
34.885576
0.20956249
36.036524
0.18803915
37.146363
0.14252755
37.847657
39.112412
-0.10994083
24.469112
0.20453861
0.0035030003
27.946692
0.09240627
31.223391
0.1913459
32.925559
0.21971842
34.857203
0.22549462
36.030748
0.17760799
37.194249
0.12659675
37.898668
39.239009
0.043692002
39.195317
0.13311863
37.809242
0.22580053
37.101568
0.32632055
35.930228
0.4097843
34.77374
0.51765754
32.817686
0.59374958
31.147299
0.58142367
27.959017
24.576233
0.47430211
0.07953213
39.115785
0.16512
37.723654
0.23389193
37.032796
0.32230019
35.841819
0.39510933
34.70093
0.49891924
32.713876
0.59685153
31.049367
0.56348199
27.992387
24.797764
0.34195095
0.13044431
38.98534
0.26182041
37.592278
0.38075292
36.913863
0.49499
35.727582
0.58746186
34.608459
0.69937286
32.601965
0.81857934
30.930161
0.81704809
27.993918
25.106584
0.50822801
0.17700467
38.808336
0.30560779
37.463675
0.40429384
36.815177
0.50886262
35.623014
0.59071628
34.526605
0.70439643
32.488285
0.86104193
30.773515
0.89494937
27.960011
25.588168
0.41336603
0.23268393
38.575652
0.41433991
37.282019
0.57468893
36.654828
0.71071197
35.486991
0.80728921
34.430028
0.91684205
32.378732
1.0903344
30.600023
1.2100552
27.84029
26.259759
0.53846378
0.28571306
38.289939
0.47343683
37.094295
0.61855821
36.509707
0.74837666
35.357172
0.83510455
34.3433
0.93679216
32.277044
1.1372561
30.399559
1.3623194
27.615227
26.861634
0.76044473
0.34844194
37.941497
0.59584658
36.84689
0.80100817
36.304545
0.96560171
35.192579
1.0722109
34.236691
1.1549183
32.194337
1.3242194
30.230258
1.688639
27.250807
27.565462
0.98481076
0.40563588
37.535861
0.66144983
36.591076
0.85608818
36.109907
1.0197238
35.028943
1.1250839
34.13133
1.183844
32.135577
1.3531829
30.060919
1.8950328
26.708957
27.785506
1.6749887
0.47358873
37.062272
0.7969405
36.267724
1.0687363
35.838111
1.2952766
34.802403
1.4249858
34.001621
1.460912
32.099651
1.5707745
29.951056
2.1932947
26.086437
27.463962
2.5148384
-1.3486649
38.410937
-2.7915785
37.710638
-4.3100905
37.356623
-5.7506499
36.242962
-7.0240041
35.274975
-8.122586
33.198233
-8.7628492
30.59132
-9.0910966
26.414684
28.420568
-10.047702
-1.3225935
39.733531
-2.7739115
39.161956
-4.2697725
38.852484
-5.7650407
37.73823
-7.1260783
36.636013
-8.2271704
34.299325
-8.9130004
31.27715
-8.9514428
26.453127
27.757374
-8.288249
-1.2647144
40.998245
-2.7215412
40.618783
-4.2735651
40.404508
-5.8398879
39.304553
-7.2292287
38.025354
-8.3130039
35.3831
-8.942245
31.906391
-8.3795763
25.890458
22.494163
-3.1163648
-1.2193225
42.217567
-2.6892833
42.088744
-4.227078
41.942303
-5.8384777
40.915953
-7.3354871
39.522363
-8.4324431
36.480056
-8.8580129
32.331961
-7.7078138
24.740259
14.879775
-0.093425533
-1.1575412
43.375109
-2.6355293
43.566732
-4.2110981
43.517871
-5.8849894
42.589844
-7.4093539
41.046728
-8.5287453
37.599447
-8.7597651
32.56298
-6.7577996
22.738293
8.1606756
-0.038700644
-1.0981115
44.47322
-2.5806242
45.049245
-4.1388178
45.076065
-5.8650479
44.316074
-7.4895245
42.671204
-8.6423331
38.752256
-8.4854516
32.406099
-5.1736032
19.426445
2.3510517
0.63602079
-1.012954
45.486174
-2.4989383
46.535229
-4.1069822
46.684109
-5.8950538
46.104146
-7.5587277
44.334878
-8.6475876
39.841116
-7.7256773
31.484189
-2.6520863
14.352854
-1.0110601
0.71002541
-0.9559885
46.442163
-2.4174168
47.996657
-4.0041946
48.270887
-5.8574828
47.957434
-7.5982949
46.07569
-8.6125068
40.855328
-6.7787184
29.6504
-1.6913321
9.2654677
-3.4449494
0.74255722
-0.86382078
47.305983
-2.3267384
49.459575
-3.9602758
49.904424
-5.8615851
49.858743
-7.6046686
47.818774
-8.4289168
41.679576
-5.3564552
26.577938
-0.4706804
4.3796929
-4.9011244
0.98549447
-0.13440396
-5.3204271
0.55370674
2.6385471
1.6067418
5.1329274
24.083558
4.566243
42.24626
3.3594567
49.02556
2.0645771
51.153623
1.0629888
50.906012
0.25998383
50.26258
47.565967
-0.36621988
-5.5506894
0.5964821
2.2761846
-1.0356627
5.0335863
21.326156
4.506587
42.77326
3.2662542
50.265893
1.9719437
52.447933
0.9434901
51.934466
0.17138974
51.03468
47.737357
-0.40838623
-5.7207848
0.57848166
2.1240725
-3.5681213
4.8965213
18.553708
4.4636979
43.206083
3.1828241
51.546767
1.8398447
53.790913
0.84004316
52.934268
0.12767068
51.747053
47.865028
-0.28731434
-5.9917256
0.55825512
2.1794646
-6.0349003
4.7417404
15.991432
4.374269
43.573554
3.0754872
52.845548
1.7286614
55.137739
0.71112105
53.951808
0.045417478
52.412756
47.910445
-0.13496295
-6.2503933
0.39363073
2.236673
-8.4065361
4.615348
13.612757
4.3172119
43.871691
2.9721354
54.190625
1.5857327
56.524141
0.61172507
54.925815
0.011330827
53.01315
47.921776
-0.033426626
-6.5331396
0.31617281
2.2294694
-10.669432
4.4796694
11.362557
4.2061264
44.145234
2.8509457
55.545806
1.4691081
57.905979
0.48347705
55.911447
-0.059860818
53.556488
47.861915
0.059804363
-6.7534711
0.1605273
2.2096637
-12.819292
4.3305667
9.2416539
4.1392528
44.336547
2.7342953
56.950763
1.3267321
59.313542
0.38532556
56.852853
-0.09342876
54.035243
47.768486
0.12678801
-7.1543792
0.27412004
2.2166051
-14.909109
4.1764314
7.2818276
4.0020609
44.510918
2.6007996
58.352024
1.2002926
60.714049
0.25693451
57.796211
-0.15373263
54.44591
47.614754
0.17099463
-7.2463216
-0.079052168
2.113275
-16.851389
4.0026001
5.3925025
3.945206
44.568312
2.4698697
59.827361
1.054088
62.129831
0.15857204
58.691727
-0.17396966
54.778451
47.440784
2.2662414
-10.238749
0.72618626
5.0211068
-19.606254
4.2294174
6.1841919
1.4405045
47.357225
-1.2394317
62.507297
-2.7941567
63.684556
-3.0572928
58.954863
-1.9860408
53.707199
45.454743
3.0135826
-13.596685
0.34435275
5.086121
-21.678793
3.5743141
7.6959988
0.40846937
50.52307
-2.7106573
65.626424
-3.9765399
64.950438
-3.6290828
58.607406
-2.1018784
52.179995
43.352865
3.3046384
-17.039473
0.13815038
5.0018344
-23.375989
2.7006003
9.997233
-0.84480629
54.068476
-3.3925088
68.174126
-4.1856811
65.743611
-3.82606
58.247785
-2.0942052
50.44814
41.25866
3.5220017
-19.96817
-0.59330536
4.8617097
-24.715697
2.1139871
12.744956
-1.8875205
58.069984
-4.5884788
70.875085
-5.2604793
66.415611
-4.2798191
57.267125
-1.9606852
48.129006
39.297975
3.5638335
-21.687918
-1.8440853
4.6087386
-25.760602
1.1008469
16.252847
-3.11232
62.283151
-5.1918046
72.954569
-5.3108318
66.534638
-3.8899799
55.846273
-1.875175
46.114201
37.4228
3.4425731
-22.906023
-2.2244682
4.4083686
-26.726397
0.51476172
20.146454
-3.936438
66.73435
-6.0251631
75.043294
-5.9580388
66.467514
-4.3856315
54.273866
-2.4556076
44.184178
34.967192
3.3275741
-24.760519
-1.4730774
4.0085484
-27.407372
-0.54916351
24.704166
-5.0772678
71.262455
-6.3767781
76.342804
-5.6740751
65.764811
-3.7925181
52.392309
-1.9019105
42.29357
33.065281
3.2425123
-27.018813
-0.98421849
3.7778005
-27.94266
-1.0437536
29.52572
-5.7228372
75.941538
-6.9553134
77.575281
-6.2840633
65.093561
-4.0049152
50.11316
-1.7128421
40.001497
31.352439
3.1466678
-1.1151765
-29.050305
3.2173957
-28.013388
-2.4343074
35.177423
-7.1381309
80.645362
-7.2895703
77.72672
-5.6618552
63.465846
-2.809677
47.260982
-0.49216331
37.683983
30.860276
-1.0762624
13.891239
0.4832593
-13.298236
-1.2142492
56.325589
-56.187602
0.4806234
57.690018
-59.38489
4.4775731
-5.3628251
1.3658754
6.9471198
-39.307847
36.838301
8.2108764
-50.809172
49.545416
8.5131978
-55.908063
55.605741
8.019644
-45.830927
46.324481
-3.126189
3.0312158
-1.1250046
14.537657
0.47858655
-1.213546
56.41413
0.86239099
55.614081
4.9610977
-9.4615318
7.4669674
-41.813717
8.8533154
-52.19552
9.0906063
-56.145353
8.3252885
-45.06561
-3.2631818
-1.1612049
15.234943
0.46391902
-1.1605791
56.413504
1.2749579
53.178544
5.5007109
-13.687285
8.0413165
-44.354323
9.5445003
-53.698704
9.8033905
-56.404244
8.8210284
-44.083248
-3.4330285
-1.2064712
15.964708
0.47670598
-1.1040718
56.311105
1.7341576
50.340314
6.0829818
-18.036109
8.6608086
-46.932149
10.271235
-55.30913
10.534105
-56.667114
9.3681675
-42.91731
-3.6916736
-1.2375236
16.734907
0.4673252
-0.99945995
56.073041
2.2228596
47.117995
6.6758527
-22.489102
9.2665815
-49.522878
10.892827
-56.935375
11.074604
-56.848891
9.7932505
-41.635957
-4.1902153
-1.2736659
17.536546
0.47202659
-0.86969026
55.669066
2.7372318
43.511073
7.2849724
-27.036843
9.8795427
-52.117449
11.426987
-58.48282
11.394061
-56.815964
9.9950095
-40.236906
-4.973233
-1.3636457
18.428052
0.47213993
-0.80719323
55.112613
3.3046281
39.399251
7.9147187
-31.646933
10.475472
-54.678202
11.903848
-59.911196
11.639115
-56.551231
10.15075
-38.748541
-6.059925
-1.4387427
19.386101
0.48069449
-0.69733125
54.371202
3.9247016
34.777218
8.5059692
-36.228201
11.063069
-57.235302
12.38949
-61.237617
11.776285
-55.938027
10.267138
-37.239393
-7.5662545
-1.5053562
0.47089192
20.420565
-0.52746031
53.393306
4.579272
29.670486
9.0707697
-40.719698
11.670445
-59.834977
12.930562
-62.497734
11.917979
-54.925443
10.455516
-35.77693
-9.5752284
-4.98387
-15.229748
-1.8081694
22.021787
-9.2017887
-72.228837
76.446755
-6.9097603
-70.875667
68.583639
-1.240915
-38.196332
32.527487
4.8088116
-9.1076985
3.0579719
8.4603695
-6.0387294
2.3871715
6.6510867
-25.253612
27.062895
1.1771554
-46.85492
52.328851
-63.477946
64.655101
-3.8700092
-7.4011918
-3.9585474
-8.5635248
-67.535322
-7.315205
-72.123987
-2.0613983
-43.450139
4.4788637
-15.647961
8.4289598
-9.9888254
7.7251887
-24.549841
2.851551
-41.981282
-60.626395
-3.555658
0.79941339
-4.6449472
-8.447174
-62.643806
-7.6032242
-72.967936
-2.3267103
-48.726653
4.2398141
-22.214485
7.7242999
-13.473311
6.9977748
-23.823316
2.9150964
-37.898604
-57.711299
-2.6943118
8.1589765
-4.6652513
-7.8944733
-57.443644
-8.2479645
-72.614445
-3.7897107
-53.184907
2.9395037
-28.943699
6.861907
-17.395714
7.3994124
-24.360822
3.9710041
-34.470195
-53.740295
-2.3309654
14.959353
-4.4694113
-7.5564288
-52.218181
-8.2284961
-71.942378
-5.0506432
-56.362759
0.51511059
-34.509453
4.9200261
-21.80063
5.7166178
-25.157414
3.6774846
-32.431062
-50.06281
-1.4921902
20.309867
-3.8583246
-6.9310115
-46.779359
-8.4660183
-70.407372
-5.9740354
-58.854742
-1.072145
-39.411343
3.4009613
-26.273736
5.4034836
-27.159936
4.0859903
-31.113569
-45.97682
-1.4512453
23.613006
-1.8518949
-6.4458339
-41.784771
-8.151129
-68.702076
-6.3892901
-60.616581
-2.3335889
-43.467045
1.5315861
-30.138911
3.5244547
-29.152804
3.3643175
-30.953432
-42.612502
-1.070211
24.431138
0.25207771
-5.6195135
-37.235469
-7.8100532
-66.511536
-6.8788965
-61.547738
-3.6313328
-46.714608
0.1544539
-33.924698
2.634258
-31.632609
2.9339558
-31.25313
-39.678546
-0.9016188
24.129377
1.203379
-4.7806911
-33.356397
-7.3127916
-63.979436
-7.0447176
-61.815812
-4.3606419
-49.398684
-1.1058171
-37.179523
1.1498034
-33.888229
2.2119665
-32.315293
-37.46658
-0.24293094
32.006097
-31.763166
-0.16319593
33.584012
-33.663747
-0.18070197
35.740621
-35.723114
-0.27371422
39.386364
-39.293352
-0.98339815
46.112224
-45.40254
-2.1976354
53.556241
-52.342004
-3.2893638
56.934622
-55.842894
-1.816763
45.051785
-46.524386
-7.699601
5.2179565
0.66488129
-0.33077359
32.33687
-0.20618847
33.459427
-0.17923827
35.71367
-0.21388997
39.421016
-0.84588657
46.74422
-1.9951251
54.70548
-3.0492915
57.988788
-1.6312192
43.633713
-10.013111
0.68229034
-0.38123261
32.718103
-0.25669713
33.334892
-0.17836552
35.635339
-0.12416227
39.366813
-0.7353395
47.355397
-1.8738051
55.843945
-2.8720565
58.98704
-1.5154574
42.277114
-12.258473
0.72990528
-0.49976347
33.217866
-0.33532171
33.17045
-0.20333177
35.503349
-0.069676042
39.233157
-0.58996533
47.875687
-1.6751863
56.929166
-2.627847
59.9397
-1.3345726
40.983839
-14.383156
0.79011017
-0.59559447
33.813461
-0.42100515
32.995861
-0.23058112
35.312925
-0.017110269
39.019686
-0.50208139
48.360658
-1.5636964
57.990781
-2.4537888
60.829793
-1.0636785
39.593729
-16.513845
1.0670101
-0.73652836
34.549989
-0.53589449
32.795227
-0.28313933
35.06017
0.033948248
38.702599
-0.33683677
48.731443
-1.3524938
59.006438
-2.2138118
61.691111
-0.76771576
38.147632
-18.590033
1.3084714
-0.84188164
35.391871
-0.66252715
32.615872
-0.33735404
34.734997
0.063058979
38.302186
-0.26508806
49.05959
-1.2520829
59.993433
-2.0537368
62.492765
-0.5142031
36.608098
-20.580509
1.4762724
-0.97608621
36.367957
-0.80478886
32.444575
-0.42162413
34.351832
0.093208052
37.787353
-0.095931206
49.248729
-1.029678
60.92718
-1.827408
63.290496
-0.25240661
35.033096
-22.53803
1.7051137
-1.0986228
-0.96934047
-0.50573775
0.10209304
-0.047862049
-0.93649419
-1.6254342
0.05126416
1.642611
4.1589645
0.4569176
0.60207436
7.2500192
-49.615441
5.5896438
-54.182518
3.5291943
-50.281555
2.1300683
-44.003414
1.4272405
-38.590524
0.92028082
-35.216155
0.58163547
-33.325102
-31.18153
6.6621461
-5.7484849
-0.4567436
7.8377316
-50.791027
5.7897376
-52.134524
3.6382549
-48.130072
2.2087056
-42.573864
1.4810195
-37.862838
0.92900953
-34.664145
0.5309493
-32.927042
-30.650581
8.5834239
-13.495304
-0.83660516
8.0492504
-50.256853
5.9190941
-50.004368
3.8301638
-46.041142
2.3941919
-41.137892
1.5560824
-37.024729
0.93908885
-34.047151
0.51244784
-32.500401
-30.138133
9.1328213
-22.102576
-0.52554927
8.2297482
-49.35378
6.0523401
-47.82696
3.9250077
-43.913809
2.4810979
-39.693983
1.6227029
-36.166334
0.97326736
-33.397716
0.47792929
-32.005063
-29.660204
9.77545
-31.48405
-0.39397527
8.2930917
-47.871422
6.1233107
-45.657179
4.0901842
-41.880683
2.6534079
-38.257206
1.7089588
-35.221885
1.0046347
-32.693392
0.47470034
-31.475128
-29.185503
10.291626
-40.962795
-0.81288131
8.5486281
-46.128424
6.1452252
-43.253776
4.163386
-39.898844
2.7402129
-36.834033
1.7834368
-34.265108
1.0575619
-31.967517
0.46090243
-30.878469
-28.724601
10.71411
-45.60956
-6.0673448
8.5788667
-43.993181
6.1571516
-40.832061
4.286549
-38.028241
2.8988009
-35.446285
1.871457
-33.237765
1.1016652
-31.197725
0.47046427
-30.247268
-28.254137
10.978199
-44.739288
-11.848471
8.3536486
-41.36863
6.1292572
-38.607669
4.3389531
-36.237937
2.975684
-34.083016
1.9465655
-32.208646
1.159015
-30.410175
0.47377617
-29.562029
-27.780361
10.89718
-42.389461
-13.247007
8.186572
-38.658022
6.1144602
-36.535557
4.4316576
-34.555134
3.1069663
-32.758325
2.0323756
-31.134055
1.2027158
-29.580515
0.49351897
-28.852832
-27.286842
0.65386538
33.920635
-34.574501
1.203141
34.35813
-34.907406
1.6872407
35.024822
-35.508922
2.0890712
35.877162
-36.278992
2.3676263
36.764025
-37.04258
2.4081338
37.689156
-37.729663
2.0799842
37.708844
-37.380694
1.3325099
35.582361
-34.834886
28.835259
-28.021186
0.51843683
0.7125174
33.208118
1.2890131
33.781634
1.8257197
34.488116
2.2547732
35.448109
2.5494969
36.469301
2.6601115
37.578541
2.3327858
38.036169
1.4763823
36.438764
29.780037
0.53160369
0.74824888
32.459869
1.3693539
33.160529
1.9422822
33.915187
2.4349732
34.955418
2.8194303
36.084844
3.0228254
37.375146
2.8066103
38.252385
1.9473805
37.297994
31.193314
0.53410324
0.7962018
31.663667
1.4450274
32.511704
2.0688142
33.2914
2.5842019
34.44003
2.9907996
35.678247
3.2663198
37.099626
3.1506146
38.36809
2.2978635
38.150745
32.89755
0.59362825
0.82863028
30.835037
1.5098558
31.830478
2.1768679
32.624388
2.7576562
33.859242
3.2517442
35.184159
3.615611
36.735759
3.6871143
38.296586
2.9957947
38.842065
35.093303
0.80004136
0.86023876
29.974798
1.5729969
31.11772
2.2792818
31.918103
2.8793746
33.259149
3.3980853
34.665448
3.8566391
36.277205
4.0569349
38.096291
3.5787408
39.320259
37.494649
1.1773952
0.87962933
29.095169
1.616516
30.380834
2.3662903
31.168329
3.0351073
32.590332
3.6242584
34.076297
4.1515022
35.749961
4.5637615
37.684031
4.3345591
39.549461
39.558781
2.2704271
0.90093758
28.194231
1.6551047
29.626666
2.4309588
30.392475
3.1222069
31.899084
3.7397807
33.458723
4.3180089
35.171733
4.7625434
37.239497
4.9760482
39.335956
41.35316
3.1816694
0.90738965
1.6812239
2.4931842
3.2582125
3.9586108
4.5752092
5.2791488
5.9570831
4.9207813
-0.58100215
-27.783406
0.34322291
-1.0901265
-34.325762
-1.4251683
-37.045652
-1.4997726
-37.655059
-1.4152903
-37.127063
-1.1985141
-36.495769
-0.87467203
-35.832764
-0.48847063
-35.293607
-35.062971
-0.57932693
-27.593098
0.3890186
-0.99899141
-33.906097
-1.2897173
-36.754926
-1.3777528
-37.567023
-1.2788211
-37.225994
-1.0763783