/*--------------------------------*- C++ -*----------------------------------*\
  =========                 |
  \\      /  F ield         | OpenFOAM: The Open Source CFD Toolbox
   \\    /   O peration     | Website:  https://openfoam.org
    \\  /    A nd           | Version:  11
     \\/     M anipulation  |
\*---------------------------------------------------------------------------*/
FoamFile
{
    format      ascii;
    class       volVectorField;
    location    "3";
    object      U;
}
// * * * * * * * * * * * * * * * * * * * * * * * * * * * * * * * * * * * * * //

dimensions      [0 1 -1 0 0 0 0];

internalField   nonuniform List<vector> 
4455
(
(99.962961 -0.42891 0)
(99.919548 -1.1291448 -1.8829887e-18)
(99.67094 -1.9049509 6.466639e-18)
(99.443654 -2.3404532 2.3084467e-20)
(98.889944 -2.6894542 6.1298627e-18)
(98.406539 -3.0100562 -2.3021825e-17)
(97.559898 -3.120052 1.021919e-17)
(96.688545 -3.6567218 0)
(95.164135 -3.5560165 -6.237074e-17)
(99.940828 -0.39021359 -1.2433907e-17)
(99.882819 -1.0586599 1.2125791e-17)
(99.661503 -1.7881698 -1.4894358e-17)
(99.366791 -2.1705991 2.478421e-17)
(98.808254 -2.5590677 -4.7466478e-17)
(98.286064 -2.9144939 5.183044e-17)
(97.356143 -3.1755954 -4.9424895e-18)
(96.418612 -3.8113093 7.2137524e-18)
(94.492127 -4.4855284 2.7140389e-16)
(99.923937 -0.35421964 -1.3212522e-17)
(99.864475 -0.96475446 1.6650809e-17)
(99.637729 -1.6469674 1.4561697e-17)
(99.331444 -1.9677988 -1.4474963e-17)
(98.73568 -2.3816759 6.3704674e-17)
(98.202445 -2.6623289 -3.5822455e-17)
(97.190604 -2.8804172 4.6255718e-18)
(96.196657 -3.7585444 -1.0256751e-16)
(94.39981 -3.799896 -1.9214171e-16)
(99.911022 -0.31498418 -1.5047204e-19)
(99.855606 -0.86069538 -1.6542292e-18)
(99.620866 -1.4952235 3.5003308e-17)
(99.317629 -1.7900609 4.7663551e-18)
(98.681677 -2.1456917 2.5011515e-19)
(98.103027 -2.4419307 -6.9316369e-18)
(97.095952 -2.4562505 7.6980414e-17)
(95.820978 -3.5463222 2.0543614e-16)
(93.763488 -3.1374187 1.6089662e-16)
(99.902154 -0.27691235 2.5542912e-17)
(99.852932 -0.75242894 -2.8530899e-17)
(99.624685 -1.353774 3.6610405e-17)
(99.287715 -1.574768 1.7242023e-20)
(98.645487 -1.9333677 -4.3986218e-17)
(98.023614 -2.1650628 -1.3514752e-17)
(96.964016 -2.2434642 -6.0668381e-17)
(95.63303 -3.3168234 -9.6896546e-17)
(93.386228 -2.8348775 -4.7620119e-16)
(99.900145 -0.23726346 0)
(99.853947 -0.65602101 0)
(99.629368 -1.1971983 -6.3526114e-17)
(99.279712 -1.3774731 -7.3306157e-17)
(98.648382 -1.6845188 0)
(97.970532 -1.9192378 -9.8536502e-17)
(96.807253 -1.8150826 -8.3235771e-18)
(95.236906 -2.9775428 -5.8215676e-18)
(92.592471 -2.2636777 5.9015155e-16)
(99.904733 -0.2013558 0)
(99.857761 -0.56538072 -1.7388714e-18)
(99.635698 -1.0314292 1.9571809e-18)
(99.287235 -1.1939143 7.1646595e-17)
(98.609367 -1.5054627 -5.2851801e-18)
(97.96442 -1.6247181 2.1029956e-16)
(96.784348 -1.5841611 0)
(95.075001 -2.6873211 0)
(92.177602 -1.6977543 2.7431941e-16)
(99.911509 -0.16816761 4.9452366e-17)
(99.866141 -0.47774203 0)
(99.642172 -0.89382635 0)
(99.291672 -0.99134367 0)
(98.666239 -1.2606066 0)
(97.916122 -1.3467495 -1.0524939e-16)
(96.636142 -1.1270988 -1.1320523e-16)
(94.719233 -2.2438662 1.632603e-16)
(91.227226 -0.95833007 4.9014224e-18)
(99.920429 -0.13748552 -4.8696391e-17)
(99.878115 -0.39664 -1.6893928e-18)
(99.661747 -0.753127 -1.8973999e-18)
(99.319948 -0.82579567 4.310981e-18)
(98.675245 -1.0661099 1.6608221e-16)
(97.990866 -1.097418 1.8715138e-16)
(96.687865 -0.92436982 3.6166559e-16)
(94.600259 -1.8047536 -1.6033669e-16)
(90.685518 -0.28520032 -4.7259368e-16)
(99.930891 -0.11435542 0)
(99.942054 -0.092965757 9.1565749e-17)
(99.952769 -0.076124485 -9.0820491e-17)
(99.962054 -0.061796412 8.7496989e-17)
(99.97061 -0.049840536 -8.5522536e-17)
(99.976669 -0.040548701 1.71429e-16)
(99.981898 -0.032868814 -1.664295e-16)
(99.983206 -0.030669904 0)
(99.98904 -0.025648315 0)
(99.887363 -0.32590453 0)
(99.899411 -0.26683668 1.5808382e-18)
(99.908936 -0.2153241 0)
(99.918492 -0.17100602 4.5143197e-18)
(99.928725 -0.13176387 9.2557695e-17)
(99.940282 -0.096185619 -2.7681747e-16)
(99.952934 -0.066600036 1.7930284e-16)
(99.966407 -0.041675482 -2.7385943e-18)
(99.983218 -0.01433824 1.7346276e-16)
(99.684583 -0.62142575 1.1391952e-16)
(99.701985 -0.50262355 -2.2491865e-16)
(99.72719 -0.39349143 2.1554584e-16)
(99.749707 -0.29746558 -6.4623739e-18)
(99.775486 -0.21872718 -1.0217376e-16)
(99.803206 -0.14738051 -3.1159772e-18)
(99.829663 -0.10209546 0)
(99.847025 -0.059496577 5.9177843e-18)
(99.861101 -0.044070591 -2.8864178e-18)
(99.34559 -0.64934429 1.1858683e-16)
(99.388396 -0.48544387 -2.4132244e-16)
(99.430984 -0.35950545 2.3048502e-16)
(99.489279 -0.2366839 -1.1185881e-16)
(99.53347 -0.14236513 -7.0338884e-18)
(99.60491 -0.041411413 3.4059414e-18)
(99.650134 0.017410513 0)
(99.740892 0.11943434 -3.2226029e-18)
(99.794985 0.15791475 1.9426673e-16)
(98.740396 -0.86256473 -1.333729e-16)
(98.786052 -0.6394121 0)
(98.860965 -0.44313671 -1.2487958e-16)
(98.927158 -0.25188152 1.2872741e-16)
(98.983072 -0.1035003 -1.1700481e-16)
(99.076385 0.068719311 1.208602e-16)
(99.120809 0.15155136 0)
(99.209785 0.31096385 0)
(99.234295 0.31413043 6.8856069e-18)
(97.938628 -0.7657943 -1.6325806e-16)
(98.057762 -0.39613866 -1.574393e-16)
(98.030971 -0.071773579 1.5134059e-16)
(98.198334 0.28357112 1.4608704e-16)
(98.268471 0.51552468 -1.4082597e-16)
(98.495385 0.87041967 0)
(98.61494 1.024612 2.6277736e-16)
(98.873861 1.3703964 -1.4469439e-19)
(98.991315 1.4149855 -4.9157678e-16)
(96.571907 -0.48327534 -1.9189098e-16)
(96.636508 -0.051506427 0)
(96.621291 0.30527194 0)
(96.737628 0.74248055 5.3778848e-18)
(96.760959 1.0218554 0)
(96.907959 1.5303398 0)
(97.018624 1.7884492 0)
(97.233683 2.3062221 0)
(97.322623 2.4160199 0)
(94.254283 -1.272668 7.4720757e-18)
(94.150139 -0.11770508 0)
(93.97476 0.63536332 6.8316782e-18)
(94.083346 1.9278104 -1.2761811e-17)
(94.28603 2.5997855 -1.936055e-16)
(94.722583 3.8326053 -1.847851e-16)
(95.152418 4.3208133 3.5367292e-16)
(95.717304 5.4387317 3.4352953e-16)
(96.305023 5.525137 -3.2516936e-16)
(89.250821 0.75294275 9.0497027e-16)
(88.187319 3.022647 -5.5721518e-16)
(87.630624 4.5669611 5.3482071e-16)
(87.898057 7.0428654 -5.0156205e-16)
(88.401166 8.3764114 -7.2008497e-16)
(89.34628 10.298769 1.3577777e-15)
(90.2033 11.262182 -8.5826172e-16)
(91.32314 12.88857 -4.0947125e-16)
(92.424501 13.266197 3.8523582e-16)
(99.983925 -0.045165777 -2.2849343e-19)
(99.985664 -0.05724918 2.3450383e-16)
(99.988854 -0.068994758 3.0098161e-21)
(99.992303 -0.081372337 -2.3631825e-16)
(99.996603 -0.093838196 2.3163147e-19)
(100.00335 -0.10562057 2.3820585e-16)
(100.01376 -0.1161964 -2.3936963e-16)
(100.0301 -0.12541024 -2.3443226e-19)
(100.05605 -0.13162454 -1.207717e-16)
(100.00595 0.00084356136 -2.4926744e-16)
(100.00419 0.026299848 2.5131376e-16)
(100.02728 0.043162386 -2.5133391e-16)
(100.02308 0.075216425 0)
(100.0524 0.097376513 2.5413184e-16)
(100.04942 0.14716901 5.3908983e-19)
(100.09666 0.17823352 7.7670646e-19)
(100.10195 0.26346993 -2.5639604e-16)
(100.18528 0.30205502 1.2939801e-16)
(99.862073 -0.018285745 2.6691632e-16)
(99.836665 0.0062277193 -2.6721096e-16)
(99.847965 0.032102073 -2.6955767e-16)
(99.829927 0.087998647 2.6999677e-16)
(99.878536 0.13330919 -2.7299936e-16)
(99.866542 0.234506 2.7226554e-16)
(99.953385 0.29321618 -2.7580818e-16)
(99.953425 0.43542329 -5.8378028e-19)
(100.07821 0.49817459 2.7681065e-16)
(99.89439 0.2583359 -2.8402881e-16)
(99.873852 0.40533017 -1.1211936e-18)
(99.940866 0.48798116 1.1320846e-18)
(99.956737 0.66134646 0)
(99.927057 0.78469905 -5.6103089e-21)
(100.03467 0.94972682 -2.9204374e-16)
(99.967308 1.1599551 2.9711578e-16)
(100.10948 1.4002177 1.1631006e-18)
(100.12661 1.5677805 1.1686452e-18)
(99.329352 0.49256445 -1.2025628e-18)
(99.2304 0.691663 -3.1127187e-16)
(99.319699 0.86032866 -1.5436661e-18)
(99.214002 1.1052627 3.1477975e-16)
(99.363245 1.284887 3.1822118e-16)
(99.296431 1.5916729 -3.1984024e-16)
(99.519995 1.7707368 -1.246778e-18)
(99.493605 2.1192256 -1.2534391e-18)
(99.773269 2.2798164 -1.2603948e-18)
(99.241477 1.7185513 3.3664161e-16)
(99.186738 2.1505442 0)
(99.386714 2.4137575 0)
(99.274994 2.8079821 3.4248236e-16)
(99.49553 3.0857127 -3.4703661e-16)
(99.393121 3.5462596 -3.4975819e-16)
(99.648895 3.8384088 7.0084879e-16)
(99.592353 4.3953402 1.183944e-19)
(99.904455 4.6741252 -7.0963648e-16)
(97.559446 2.8675118 -1.4810603e-18)
(97.51926 3.498426 0)
(97.633786 3.8236244 1.498265e-18)
(97.598921 4.3965603 3.8422674e-16)
(97.812148 4.7232115 -3.8658364e-16)
(97.93672 5.2405383 3.890105e-16)
(98.269836 5.5126623 -3.8986295e-16)
(98.451348 5.9602202 -1.5369088e-18)
(98.835971 6.1519839 3.9487813e-16)
(96.847574 6.3597456 -4.1946902e-16)
(97.232852 7.1279103 4.2503424e-16)
(97.660426 7.7439341 -4.2838593e-16)
(98.135022 8.2780913 4.2618344e-16)
(98.577926 8.7553086 -4.2587347e-16)
(99.088216 9.2725462 -6.5311891e-19)
(99.516337 9.8210737 4.3223076e-16)
(100.05871 10.442927 3.3836502e-18)
(100.45514 10.900825 2.1667795e-16)
(93.43687 14.329485 0)
(94.032194 14.840283 -4.769261e-16)
(95.128626 15.463232 3.7347686e-18)
(95.681545 15.569314 5.3430519e-18)
(96.613815 16.185704 9.531585e-16)
(97.122044 16.138955 -4.762652e-16)
(98.346457 16.273831 -4.7612115e-16)
(98.977411 15.947864 4.7841957e-16)
(100.28651 15.243879 2.4113613e-16)
(100.92773 13.747462 -2.8176032e-16)
(101.87779 12.175081 0)
(102.24295 10.942685 2.8313783e-16)
(102.55265 9.5512748 -2.8314799e-16)
(102.26783 7.8700791 0)
(102.12742 6.4691572 0)
(101.35051 5.6886236 0)
(100.70213 5.3335954 -2.9860341e-16)
(99.694967 5.3442139 2.9856513e-16)
(100.81319 11.578509 -2.4679609e-16)
(101.11929 11.968199 0)
(101.38873 12.252039 0)
(101.68633 12.402756 0)
(101.86761 12.479266 0)
(101.86052 12.501911 0)
(101.77262 12.500716 0)
(101.62661 12.550415 2.4909725e-16)
(101.32157 12.532052 -4.9942056e-16)
(98.997345 6.4829188 1.1964081e-19)
(99.462487 6.8632681 -4.3433223e-16)
(99.611125 7.2029515 0)
(100.05399 7.5099767 -2.1766495e-16)
(100.18749 7.7895464 2.176644e-16)
(100.61699 8.0856344 0)
(100.69635 8.378582 0)
(101.05581 8.6904071 0)
(101.02081 9.0021051 0)
(99.898286 5.2723454 3.8190285e-16)
(100.19115 5.6110744 0)
(100.20947 6.1847518 1.9104223e-16)
(100.52131 6.5073213 -3.8213463e-16)
(100.56041 7.0769196 1.9108867e-16)
(100.89394 7.3857365 0)
(100.93965 7.9516965 0)
(101.31271 8.2636472 0)
(101.35903 8.8583224 1.913183e-16)
(99.761469 2.6562301 0)
(100.08349 2.8558715 3.4293633e-16)
(100.08076 3.2775743 -5.1438729e-16)
(100.45621 3.4894346 1.7149907e-16)
(100.47318 3.9676664 1.7154164e-16)
(100.90798 4.1983442 -1.4623864e-20)
(100.93297 4.717341 -3.4308916e-16)
(101.40796 4.9629814 3.430415e-16)
(101.43356 5.5135609 -1.7152469e-16)
(100.26923 1.9016953 0)
(100.33838 2.0904447 1.5507201e-16)
(100.50688 2.4443688 -1.55072e-16)
(100.60455 2.6371493 0)
(100.7781 3.0504934 -3.1002581e-16)
(100.95373 3.2405694 3.1002211e-16)
(101.14478 3.7077796 1.5488601e-16)
(101.35716 3.9230695 -3.0972597e-16)
(101.67622 4.4080018 1.5480412e-16)
(100.0949 0.6754749 0)
(100.26156 0.74495092 0)
(100.31329 0.97673963 0)
(100.50499 1.0476428 -1.4228065e-16)
(100.67907 1.3129271 2.845078e-16)
(100.78395 1.4804258 -2.8421989e-16)
(101.12188 1.6598431 1.4207308e-16)
(101.21464 1.9651288 -1.419192e-16)
(101.5936 2.1230341 2.8370921e-16)
(100.20787 0.42621506 -2.6251465e-16)
(100.33126 0.4670853 2.8091863e-20)
(100.37541 0.62545312 1.3124648e-16)
(100.53751 0.66138055 -1.3116341e-16)
(100.61375 0.85552581 1.3116286e-16)
(100.82507 0.88125638 0)
(100.94751 1.1182355 1.3090776e-16)
(101.21938 1.1252174 -2.6167417e-16)
(101.39759 1.4091852 1.308033e-16)
(100.0766 -0.12468694 6.1938255e-21)
(100.12889 -0.13829676 1.2223124e-16)
(100.17645 -0.10623353 1.2229905e-16)
(100.285 -0.10453015 -1.2229908e-16)
(100.35251 -0.03739565 0)
(100.49874 -0.036285132 0)
(100.58733 0.032924983 -1.2212555e-16)
(100.78192 0.047256373 2.4416936e-16)
(100.90273 0.12662968 -1.2201704e-16)
(101.18035 0.14981022 0)
(101.35214 0.25114787 -1.2161868e-16)
(101.71878 0.31198942 2.207335e-19)
(101.96706 0.41472547 2.573663e-19)
(102.41355 0.48014444 2.9975315e-19)
(102.7426 0.60613254 1.2084081e-16)
(103.28265 0.68952079 1.2009713e-16)
(103.705 0.81941176 -1.2009714e-16)
(104.35297 0.92621825 0)
(101.70847 1.3935436 0)
(102.02527 1.6985198 0)
(102.31712 1.7201986 -1.2994532e-16)
(102.77455 2.0153859 3.2095811e-19)
(103.10251 2.0788197 3.6571878e-19)
(103.68347 2.3821188 1.2928044e-16)
(104.04088 2.503104 1.2840342e-16)
(104.7828 2.732039 -1.284034e-16)
(105.16931 3.0295971 0)
(101.71698 2.4732453 -1.4175473e-16)
(102.20439 2.6776765 0)
(102.35342 3.0515967 0)
(102.90452 3.3366632 -1.4090723e-16)
(103.09956 3.7224031 2.8149096e-16)
(103.73953 4.0545639 -3.6267423e-19)
(103.97217 4.4973373 -4.051619e-19)
(104.70984 4.8168922 -1.3981906e-16)
(104.98652 5.3451351 0)
(101.83843 4.6780147 -1.5449892e-16)
(102.25412 5.168699 1.5449879e-16)
(102.44324 5.4778254 0)
(102.93846 5.9426415 0)
(103.10414 6.3859467 1.5355148e-16)
(103.75506 6.7216299 -1.5355212e-16)
(103.92221 7.2789192 1.5283285e-16)
(104.63561 7.7142847 -7.6637363e-17)
(104.88461 8.1615083 -7.6181469e-17)
(101.92869 5.7727708 -1.7144812e-16)
(101.97355 6.3828092 1.7144678e-16)
(102.43932 6.632186 0)
(102.60828 7.3277193 0)
(102.99624 7.6120779 0)
(103.21876 8.3629196 0)
(103.67245 8.7052611 0)
(103.81815 9.5535514 0)
(104.42629 9.9641206 0)
(101.74572 9.1847299 -1.913181e-16)
(101.7235 9.7930588 1.9145708e-16)
(102.15722 10.1651 -1.9146944e-16)
(102.07573 10.794813 1.9167179e-16)
(102.52624 11.205976 -1.9169215e-16)
(102.43071 11.90559 0)
(102.91186 12.37987 0)
(102.78661 13.184406 0)
(103.32384 13.725076 0)
(101.30111 9.333696 0)
(101.17055 9.6564157 -2.2058953e-16)
(101.39368 10.055243 2.2057229e-16)
(101.15353 10.433606 0)
(101.36127 10.955437 2.2281813e-16)
(100.98962 11.428005 -2.2282421e-16)
(101.2159 12.082234 0)
(100.71519 12.688803 1.1262959e-16)
(101.00126 13.496366 -2.2567669e-16)
(101.15884 12.685826 2.5032108e-16)
(100.74454 12.818033 2.5329346e-16)
(100.55093 13.102028 -2.5331883e-16)
(99.978668 13.421013 2.5687915e-16)
(99.752453 13.863409 -5.1599565e-16)
(99.023398 14.239821 5.1998716e-16)
(98.787336 14.760411 -5.236533e-16)
(97.913963 15.47106 2.6283578e-16)
(97.686048 16.380027 0)
(99.079196 5.6263492 -3.0612046e-16)
(98.156073 5.9123219 3.0611775e-16)
(97.648771 6.255125 0)
(96.758856 6.3323853 0)
(96.193111 6.4183068 0)
(94.998221 6.5817245 0)
(94.432195 7.3153586 0)
(93.190782 7.8123748 -1.6790981e-16)
(92.528792 8.9856045 1.6792294e-16)
(90.821514 10.040398 1.7218189e-16)
(96.741974 17.350505 0)
(100.38883 14.307691 1.1307198e-16)
(103.20162 14.674703 0)
(104.4927 10.91532 0)
(105.64001 8.7976024 0)
(105.8326 5.6705646 6.9112058e-17)
(106.04742 3.1516123 6.3307223e-17)
(104.91047 1.0585673 5.9249065e-17)
(89.761732 11.67626 -1.7218146e-16)
(96.622846 18.368117 0)
(100.79549 15.227784 0)
(103.78724 15.281996 9.5988906e-17)
(105.24459 11.382825 0)
(106.01108 9.2020276 -7.5290186e-17)
(106.15665 6.2428549 -1.3787423e-16)
(106.51013 3.5347773 -1.2625514e-16)
(105.66042 1.1966827 -1.1815258e-16)
(87.827867 11.99486 0)
(95.69753 19.484612 0)
(100.17185 16.234555 1.1413577e-16)
(103.66557 16.380063 -9.5989788e-17)
(105.35704 12.497805 0)
(106.79781 9.9983943 7.5290169e-17)
(107.12524 6.6049184 6.8767669e-17)
(107.53439 3.6658954 6.2938755e-17)
(106.35644 1.3426626 5.8903509e-17)
(86.917261 12.74913 1.7835595e-16)
(95.628186 20.520996 0)
(100.66512 17.204786 -2.285633e-16)
(104.35586 17.058413 0)
(106.08201 12.968117 0)
(107.29415 10.397765 -7.4453073e-17)
(107.51715 7.2407151 -6.7953109e-17)
(108.06362 4.1141617 0)
(107.24682 1.4852706 -5.807001e-17)
(85.022332 12.69723 -1.7835258e-16)
(94.537655 21.774289 -1.3839804e-16)
(100.08539 18.438825 1.1439999e-16)
(104.23708 18.311457 0)
(106.41699 14.238764 0)
(108.20443 11.3194 7.4453044e-17)
(108.62077 7.5950229 6.7953082e-17)
(109.24666 4.2423886 0)
(108.08632 1.6473528 5.8070003e-17)
(84.46647 13.90369 0)
(94.426605 22.821651 1.3834716e-16)
(100.60352 19.468761 -1.1465039e-16)
(105.07434 19.057733 0)
(107.12634 14.76167 0)
(108.78176 11.767066 -7.337343e-17)
(109.08383 8.3400296 -6.6926895e-17)
(109.85669 4.7226259 0)
(109.11973 1.8057431 -5.7022905e-17)
(82.382119 14.678671 0)
(93.293557 24.347296 0)
(100.0199 20.938314 1.1465027e-16)
(105.01145 20.522336 -4.7339157e-17)
(107.56143 16.157391 -4.1526294e-17)
(109.82278 12.814693 1.0973919e-16)
(110.35796 8.6994276 1.0008667e-16)
(111.21178 4.9104335 0)
(110.11039 1.9828768 8.5229597e-17)
(82.133272 16.8949 0)
(93.304465 25.596402 -6.9854873e-17)
(100.62597 22.014366 0)
(105.91459 21.274549 4.7326063e-17)
(108.43434 16.703889 4.1508849e-17)
(110.57581 13.224281 -3.5777712e-19)
(110.91262 9.4849147 -6.5987043e-17)
(111.90797 5.3982824 0)
(111.29163 2.1384391 -2.8206694e-17)
(79.819171 18.385176 -9.3089583e-17)
(92.215229 27.546505 6.9837908e-17)
(100.12238 23.916151 0)
(106.03647 23.014513 0)
(108.93929 18.335759 0)
(111.6478 14.524254 -7.1593748e-17)
(112.34768 9.8718975 3.830178e-19)
(113.41034 5.6342485 0)
(112.43365 2.3178594 0)
(113.97246 2.49031 0)
(114.24865 6.1089817 0)
(113.07223 10.715089 -1.5772731e-18)
(112.66479 14.734448 3.7354239e-17)
(109.99628 18.670445 0)
(107.07508 23.669482 -5.9255941e-18)
(101.04507 24.868496 -5.7929634e-19)
(92.515564 29.046792 -5.8089057e-17)
(79.678755 20.948996 1.7409798e-16)
(115.42126 2.6139966 -1.347016e-17)
(115.89445 6.239408 -1.8390765e-18)
(114.75219 10.931682 1.6315347e-17)
(113.6995 16.025676 -6.7882876e-20)
(110.86325 20.184044 -1.7401377e-17)
(107.40524 25.380466 2.2549232e-17)
(101.00155 27.020947 -7.1931282e-18)
(91.827352 31.821014 7.5450844e-17)
(78.553347 26.245071 -8.893784e-17)
(116.91292 2.7160475 2.6954516e-17)
(116.86944 6.694305 0)
(115.61203 11.669253 3.1818822e-17)
(115.09018 16.059732 -1.7292491e-17)
(112.1498 20.406316 1.7594292e-17)
(108.90135 25.911896 -4.2674468e-17)
(102.67519 27.839819 -3.4654952e-17)
(93.575655 33.198779 1.7193249e-17)
(81.247887 29.062534 1.8050889e-18)
(118.51632 2.818204 -1.3503371e-17)
(118.70624 6.7701523 -1.8172207e-18)
(117.56498 12.0148 -1.4010741e-17)
(116.22101 17.489932 1.9756628e-17)
(113.47296 21.979785 7.4272282e-18)
(109.52001 27.769123 2.2916954e-17)
(103.15581 30.225911 2.795018e-17)
(93.802978 36.105085 9.0826253e-18)
(81.509835 33.788938 -1.0402024e-17)
(120.23877 2.9231815 3.2579959e-18)
(119.8635 7.1985869 -3.5237602e-18)
(118.56906 12.545263 -1.9755081e-18)
(117.78813 17.350721 6.4143121e-18)
(114.84411 22.132044 -7.486177e-18)
(111.36498 28.096007 -8.3757121e-18)
(105.23982 30.808845 -7.2020078e-18)
(96.00953 37.225025 8.1329081e-18)
(84.214838 35.462773 -1.2055009e-17)
(122.05813 3.0267753 -3.2963364e-18)
(121.88365 7.3159671 3.5661288e-18)
(120.73891 13.061585 -1.9565325e-18)
(119.25133 18.7692 -1.0336014e-20)
(116.46037 23.683298 -2.4017672e-18)
(112.22836 30.026528 5.6917869e-18)
(106.06048 33.221231 -7.172751e-18)
(96.539835 40.038232 8.1206249e-18)
(84.703144 39.155937 0)
(123.96283 3.1222671 -3.1483575e-18)
(123.23707 7.7320791 -1.7569161e-18)
(121.88557 13.389977 -1.8838565e-18)
(120.78745 18.609657 -2.1712441e-18)
(118.02984 23.672711 -2.4250795e-18)
(114.19882 30.170659 5.8563888e-18)
(108.31467 33.548221 -1.3681974e-17)
(98.895716 40.799059 1.7116859e-17)
(87.469549 40.161635 -1.0432064e-17)
(125.94609 3.2048699 9.3487389e-18)
(125.3896 7.8005017 6.740893e-18)
(124.23464 13.879657 9.3710815e-18)
(122.69357 19.91781 1.0324538e-17)
(119.75875 25.259172 7.3339497e-18)
(115.33167 32.112627 -2.7178116e-18)
(109.41905 35.903365 -7.0713936e-18)
(99.764513 43.431235 -9.3243775e-19)
(88.233547 43.481462 -1.1484679e-17)
(128.0103 3.2658453 -1.8262797e-17)
(126.89268 8.1999292 -6.8249479e-18)
(125.50226 14.119412 -2.4031504e-17)
(124.11579 19.759227 -6.3253461e-18)
(121.49411 25.041085 1.6273337e-17)
(117.4502 32.058758 8.4141203e-18)
(111.79799 36.014926 -3.9874749e-17)
(102.28399 43.870464 7.9846506e-18)
(91.098162 44.215633 2.248434e-17)
(92.171183 47.53309 -2.2090568e-17)
(103.44525 46.413677 8.8453882e-18)
(113.18371 38.359594 5.941831e-17)
(118.8587 34.020195 -8.2926597e-18)
(123.42011 26.602531 4.0351645e-18)
(126.39883 20.796387 1.1839159e-17)
(128.06744 14.544353 1.6650296e-17)
(129.20783 8.2697874 -8.1536427e-19)
(130.15488 3.3039886 2.4610554e-17)
(95.107867 48.02202 8.6612556e-17)
(106.15072 46.624979 7.8045835e-18)
(115.65171 38.246061 -8.4701305e-17)
(121.07138 33.712066 -2.6021645e-18)
(125.24041 26.216467 -1.6341795e-17)
(127.84195 20.692057 -1.4200259e-17)
(129.42609 14.679699 -2.9705966e-17)
(130.78061 8.5547639 0)
(132.37673 3.321659 -1.1828266e-17)
(96.505762 51.215084 -1.10978e-16)
(107.65679 49.244987 7.8704931e-17)
(117.37085 40.555954 4.5705152e-17)
(122.82673 35.609893 -2.5504951e-18)
(127.43555 27.689675 3.5273049e-17)
(130.30788 21.584486 6.8563906e-20)
(132.13712 15.068973 4.6334435e-18)
(133.26697 8.632591 2.2882352e-17)
(134.66109 3.3162336 2.1806651e-17)
(99.395771 51.389854 -2.1680864e-17)
(110.47353 49.223334 1.3196113e-17)
(119.90792 40.152741 -6.5331762e-18)
(125.12383 35.039074 0)
(129.31317 27.109693 -3.5788979e-17)
(131.88344 21.218921 0)
(133.63837 14.908861 2.5859435e-17)
(134.89762 8.7969937 -4.6928917e-17)
(136.99528 3.2840963 -1.1491415e-18)
(101.01919 54.32819 -9.9677291e-18)
(112.30484 51.786488 -6.1684653e-17)
(121.99989 42.331295 6.3713987e-18)
(127.12993 36.840965 0)
(131.74102 28.459313 -3.5347695e-17)
(134.4413 22.210866 2.8698232e-17)
(136.41969 15.254138 1.649936e-18)
(137.5022 8.9125351 4.6823519e-17)
(139.36415 3.2227084 -2.1171063e-17)
(103.9159 54.167887 -9.4810272e-17)
(115.22937 51.425119 -5.0698793e-17)
(124.54329 41.589885 -4.6623654e-19)
(129.48715 35.9643 -5.0177785e-18)
(133.69583 27.640158 -3.3641463e-19)
(136.21143 21.45937 -5.6664325e-17)
(138.081 14.956796 1.5910357e-18)
(139.14584 8.911407 -2.3138794e-17)
(141.75827 3.1323786 0)
(105.91561 56.96044 6.5179792e-17)
(117.29024 53.636383 7.4495011e-17)
(126.95648 43.521614 -4.3694077e-19)
(131.73364 37.617667 -4.853152e-18)
(136.27769 28.883037 3.0821175e-17)
(138.78106 22.443197 2.9840651e-17)
(140.82398 15.166097 1.4887829e-18)
(141.86967 9.0199053 -1.3641824e-18)
(144.15676 3.0097216 0)
(108.9209 56.440246 0)
(120.41906 53.025488 -6.7683657e-18)
(129.44965 42.425244 5.7685414e-18)
(134.06392 36.466404 -6.7257632e-17)
(138.27173 27.768419 -1.9506717e-18)
(140.67762 21.444938 4.9273695e-17)
(142.60314 14.655284 -4.3043532e-17)
(143.51759 8.8673582 3.9827454e-17)
(146.53746 2.8516372 3.35606e-17)
(111.44251 59.20237 1.4679072e-16)
(122.6109 54.754703 1.1691911e-16)
(132.12736 44.090093 -5.5286075e-18)
(136.53778 37.961964 7.091473e-17)
(141.04592 28.855405 -1.7928488e-18)
(143.18728 22.23696 -5.013407e-17)
(145.33175 14.775982 4.6536586e-17)
(146.25768 8.9020137 -4.1619325e-17)
(148.86872 2.6697934 -2.5984235e-18)
(151.30336 2.3933243 -3.1086621e-17)
(147.94053 8.6327321 3.4353324e-17)
(147.05484 13.922027 0)
(145.34926 21.018671 -2.941939e-18)
(142.96263 27.485065 5.4339953e-17)
(138.81579 36.421338 5.8806768e-17)
(134.58497 42.516927 0)
(126.12506 53.741297 -8.2084391e-18)
(114.95545 58.205072 -1.4354111e-16)
(153.3592 2.0733157 0)
(150.64247 8.4290811 -3.5537992e-17)
(149.89422 13.958538 0)
(147.81539 21.510724 -2.7862014e-18)
(146.11864 28.194304 -9.761562e-17)
(141.74713 37.650188 -6.4199744e-17)
(137.7129 43.832805 7.282192e-17)
(128.90149 54.934378 -8.7395612e-17)
(119.12532 61.454368 1.0616165e-16)
(155.39933 1.6896922 0)
(152.35319 7.9584288 0)
(151.51394 12.798626 -3.3987579e-17)
(150.05461 20.0242 0)
(148.05039 26.482287 4.9530009e-17)
(144.07091 35.735751 -5.2722666e-17)
(140.34252 41.902125 -6.6456388e-17)
(132.89661 53.367142 -4.8647955e-18)
(123.443 59.592355 -2.408756e-17)
(157.31297 1.2891136 0)
(154.90643 7.6199893 0)
(154.33712 12.721989 3.4693103e-17)
(152.64508 20.304698 3.3839882e-17)
(151.24468 27.02894 4.2228805e-17)
(147.07366 36.728848 5.7389866e-17)
(143.21228 42.716812 0)
(135.59681 53.725867 6.859986e-17)
(129.05162 62.411268 -1.1658131e-16)
(159.04673 0.88769247 3.5606858e-19)
(156.47899 7.0663514 -3.9130905e-19)
(155.79004 11.374304 0)
(154.47592 18.417946 -3.7188397e-18)
(153.15416 24.963595 -8.527611e-17)
(149.42857 34.595343 2.9637078e-18)
(145.77354 40.645133 5.9378632e-17)
(139.21234 51.708423 -7.5563094e-17)
(133.64674 59.614887 8.4822373e-17)
(160.58468 0.4877165 -3.2064706e-19)
(158.80468 6.5887528 3.5297533e-19)
(158.47112 11.096009 0)
(157.3015 18.478661 -3.628959e-17)
(156.11743 25.17836 4.4964219e-17)
(152.52743 35.306629 -2.738833e-18)
(148.40019 41.29419 -6.1420881e-17)
(141.25872 51.29323 0)
(140.86741 61.068005 -8.2707143e-17)
(161.91212 0.092558807 2.8610401e-19)
(160.09546 5.8794385 2.0244531e-17)
(159.74856 9.5802654 -8.0944766e-19)
(158.7433 16.407571 2.6634023e-17)
(158.16984 22.876632 3.4646603e-17)
(154.73658 32.926476 0)
(151.02674 39.31973 0)
(143.93329 48.641709 -6.514066e-17)
(144.94923 57.970296 0)
(163.09088 -0.3416693 0)
(162.17159 5.3470795 -2.0984148e-17)
(162.02597 9.1562184 0)
(161.33903 16.294431 -2.9987184e-17)
(160.68747 22.716996 -3.1491101e-17)
(157.89475 33.323384 3.3573766e-17)
(153.35272 40.048424 0)
(144.97561 47.884988 7.0237609e-17)
(152.27426 57.554304 -5.7325883e-18)
(163.61476 -0.68649934 0)
(163.09385 4.4281017 0)
(163.18063 7.5482163 -6.4626484e-19)
(162.73253 13.631345 -7.9885371e-19)
(163.09676 19.712209 1.7009635e-18)
(160.51048 30.321055 -3.4656965e-17)
(157.31868 37.942119 0)
(146.47264 45.306634 0)
(153.53085 52.572163 2.9647494e-18)
(164.68003 -0.81468606 -3.729455e-19)
(164.72809 3.883974 -6.0951128e-20)
(164.94538 7.0582735 1.5598372e-17)
(164.69085 14.153125 0)
(164.47212 20.04749 0)
(162.98343 30.814089 -1.700438e-18)
(158.22475 40.028026 -2.9725091e-17)
(145.91164 47.702981 1.6915656e-18)
(158.71895 51.950614 0)
(165.3099 -1.0660271 -3.0614872e-19)
(165.39335 3.5613632 -4.8296782e-20)
(166.20687 6.6357343 -1.4144846e-17)
(166.07729 12.890472 0)
(166.69695 19.919956 0)
(165.31642 31.635494 1.2023841e-18)
(160.62639 41.556543 6.7348121e-17)
(145.98867 49.239821 -1.5366049e-18)
(154.45286 48.938592 -8.2026268e-17)
(165.37033 -1.4624079 0)
(166.60621 2.8128955 1.7737242e-17)
(167.40322 5.7215556 0)
(168.07221 13.195374 7.5140417e-19)
(168.09404 20.409727 -8.2036397e-19)
(166.96977 32.15734 -7.6304413e-19)
(161.58335 43.963226 -5.7842488e-17)
(143.19766 50.750842 1.3336214e-18)
(139.49586 45.240067 7.7974959e-17)
(165.27776 -1.7072062 1.1113998e-17)
(166.94468 2.2288339 -1.695257e-17)
(168.55946 5.2018159 1.4316393e-17)
(169.4716 11.913157 1.4470648e-17)
(170.20233 20.020224 -1.5565428e-17)
(168.6023 33.152215 1.1290651e-17)
(164.21754 45.238151 2.1182851e-17)
(137.43602 49.083586 1.172923e-16)
(120.16088 50.512017 0)
(165.05297 -1.9890797 -2.0633664e-17)
(167.88374 1.2825077 1.1064158e-17)
(169.48811 4.3111706 -1.3849277e-17)
(171.23065 11.748156 -5.5945313e-18)
(171.75598 20.246248 1.4751763e-17)
(170.20459 33.535785 -8.1605229e-18)
(164.87025 47.010861 0)
(131.48456 51.809877 -1.1246264e-16)
(87.78478 62.579118 0)
(164.60097 -2.2507637 1.7639307e-17)
(167.88856 0.51387901 -1.0586102e-17)
(170.24195 3.4169212 7.10007e-18)
(172.77504 10.16456 -8.3052932e-18)
(174.20032 19.440398 -2.673428e-20)
(172.0711 34.425115 -2.6741576e-18)
(163.94618 50.305324 -3.205894e-18)
(121.03448 51.317906 7.8936781e-17)
(48.71978 35.861259 5.0032067e-17)
(163.89739 -2.4822263 -8.292625e-18)
(168.57143 -0.81052116 2.1258155e-19)
(171.1111 2.412155 -6.780881e-18)
(174.5555 9.658449 -6.6720672e-20)
(175.9023 19.389376 7.1975643e-20)
(173.6167 35.07551 1.4728893e-17)
(161.08094 50.963663 9.8847478e-18)
(98.65382 42.19145 -7.4583412e-17)
(-6.9326185 -7.532868 -4.7426208e-17)
(162.94795 -2.6997177 -9.1985199e-20)
(168.38216 -1.5595965 9.9139182e-20)
(171.19114 1.1729089 1.6114081e-18)
(175.74968 7.8332354 -6.784449e-18)
(178.21521 18.451019 1.5110608e-17)
(175.30695 35.38793 -3.8057392e-17)
(155.79348 52.466571 -1.636805e-17)
(70.05669 33.789391 5.1544879e-17)
(-11.855149 -5.5865863 6.482906e-17)
(161.78117 -2.9130531 7.5057402e-18)
(168.63916 -3.0822554 -2.8415583e-20)
(172.20976 0.30510142 -1.9350701e-18)
(177.30852 6.8404841 6.5792227e-18)
(179.79977 18.141113 -1.3935137e-17)
(175.90924 35.685023 2.2869562e-17)
(145.64173 52.104091 8.0710616e-18)
(34.523301 14.034242 -4.9122401e-17)
(-18.030826 -1.8717797 -6.1773523e-17)
(-20.122924 -3.8886528 -1.1815733e-16)
(13.480658 4.1662973 -1.8260887e-19)
(136.12878 53.739418 4.777797e-19)
(176.19978 35.382535 -4.0831326e-19)
(181.50673 17.089197 0)
(178.01641 4.9598979 1.1838119e-19)
(171.72036 -1.2358596 2.4640227e-18)
(168.02844 -3.7566444 -2.1075178e-18)
(160.40206 -3.1087476 -1.5427683e-17)
(-21.246728 -3.1280975 1.135352e-16)
(0.56227792 -0.33624324 0)
(126.94304 52.876803 0)
(176.99513 34.314489 1.2266915e-16)
(182.64648 15.191107 0)
(178.9846 3.4146781 -3.5657139e-17)
(172.26498 -2.4477392 -9.2684891e-18)
(167.57734 -5.3056376 2.0349036e-18)
(158.82645 -3.2786763 -9.4332653e-18)
(-21.181848 -3.2814836 3.0197848e-19)
(-4.3137155 4.2673213 -2.4383643e-19)
(116.00152 52.472323 0)
(176.6334 33.630364 -1.197699e-16)
(183.9028 13.999371 0)
(179.50366 1.4158902 3.519736e-17)
(171.6211 -4.021359 6.8906299e-18)
(166.59661 -5.9533783 -2.8230197e-20)
(157.07402 -3.4211632 1.7149174e-17)
(-21.153063 -2.2662804 2.3718157e-16)
(-1.286296 15.226743 4.1006269e-17)
(107.99643 50.585673 -5.6522544e-20)
(176.39848 32.012778 0)
(184.66857 11.878318 -9.0087756e-17)
(179.98475 -0.3097751 0)
(171.61709 -5.3896184 -2.26145e-20)
(165.70097 -7.4611164 -2.8828745e-20)
(155.18447 -3.5113914 4.4760049e-20)
(-19.543109 0.013088965 -2.2847581e-16)
(1.6405776 25.85409 -2.1557616e-17)
(98.788892 50.602527 5.2210351e-17)
(175.26827 31.283613 -7.7660149e-19)
(185.55191 10.513852 -8.945648e-18)
(180.1247 -2.6126141 0)
(170.85816 -6.8757665 -1.0817072e-17)
(164.2966 -8.0424754 0)
(153.24521 -3.5324869 0)
(-17.580603 2.8307497 4.6466867e-19)
(2.2253421 32.158648 -1.8475621e-17)
(92.628264 49.271207 -1.1637972e-16)
(174.31251 29.520773 1.8621945e-16)
(185.80825 8.1077135 9.5585864e-17)
(180.24598 -4.2322998 5.0429173e-17)
(170.26724 -8.3684233 1.0424921e-17)