/*--------------------------------*- C++ -*----------------------------------*\
  =========                 |
  \\      /  F ield         | OpenFOAM: The Open Source CFD Toolbox
   \\    /   O peration     | Website:  https://openfoam.org
    \\  /    A nd           | Version:  11
     \\/     M anipulation  |
\*---------------------------------------------------------------------------*/
FoamFile
{
    format      ascii;
    class       volScalarField;
    location    "0.3592375";
    object      p;
}
// * * * * * * * * * * * * * * * * * * * * * * * * * * * * * * * * * * * * * //

dimensions      [0 2 -2 0 0 0 0];

internalField   nonuniform List<scalar> 
880
(
80.0000000000004
80.00000016385775
80.01345704147573
81.88036466707125
80.00000000017729
80.0000004813165
80.01669083690425
82.76391896813512
80.00000000090172
80.00000187777135
80.03089555986575
83.82261452918645
80.0000000120275
80.00000824579752
80.063810430174
85.40758757824828
79.9999999446778
80.00000002780087
80.00000611614516
80.00009435568548
80.00003799793812
80.00014607049127
80.00091100901709
80.00134651919129
80.1446002574713
80.23457677753946
80.38549259990556
80.53779515942374
88.34441006955996
91.39564532394236
94.00071584901097
95.2350341857353
80.00023343419846
80.0019027377473
80.00718983876475
80.02228136343665
80.01262437255862
80.05407696045843
80.10847896623928
80.22876042677888
81.27050792592594
81.90768070400505
82.71484111696311
83.76515350263413
96.38513253679098
97.95093467803405
98.27353589068954
97.50852339913286
90.98667199621298
87.50957540521604
85.83750368697257
84.74257004447294
85.69177942044527
86.37145164908941
86.77400553205284
86.80862669434099
80.63880794987756
81.1235555204275
81.63902330855362
82.02325803698848
80.0790897476285
80.19129097525789
80.36116409909849
80.59966631677293
80.87776732465916
81.15710244381305
81.43364424753858
81.64007456480284
82.3128839486603
82.4808411080836
82.56763486204049
82.57337407738315
86.44909348437396
85.9497007933788
85.29455597158432
84.61630736239883
83.58709157866345
82.89851896815289
82.50697621113055
82.07910545997133
82.08343418583358
84.14365465055619
82.5205279535905
81.76640511657926
87.74246599899874
83.86378444113927
82.36951567644132
81.74670018775997
120.5578199827396
85.26208204312235
82.18752929575066
81.49460371126857
158.3480552215376
93.05775666570335
82.67021863669069
81.40189672728039
81.37300703617696
83.39327495253092
102.7715712982667
175.0767002861059
80.87273905042134
84.75166946617055
113.734545862398
174.2795062918324
81.08515830101075
87.90166482099598
128.3730075979489
176.1372239116834
81.89144238023164
93.5858465418283
142.2713047667737
173.4126417531821
167.7072429316372
149.9509710519385
102.2401985976121
83.66791342538278
160.7381584865396
151.1909563567889
111.8303347827599
86.84042180936081
153.3429249621663
148.9208309443397
120.1259924561265
91.94303526195215
145.6346004530834
138.9086866115274
121.4590661723672
98.31280487849592
103.949287179335
117.3639460909163
126.5675515086071
136.6078257102705
103.1379470926465
109.2149517340516
113.4275160283741
123.6649820201278
100.8369866334982
101.4843455275266
100.6812434583773
107.3274554276907
97.84678575894296
95.22414163622688
89.17503666765279
88.30750045434321
95.46853806028798
89.32759006491072
78.72363209771974
66.39560533587742
91.68583023697674
83.96084618520595
69.93150601979089
43.06373167714355
88.80557472673419
81.54220834976292
63.23932101440013
26.39394424445852
86.35658360943606
80.46176262509015
58.99069625916591
14.84822222251069
15.60521153370072
60.56879383546057
79.58678228866283
84.17256343336456
24.76280405227288
61.36472557535498
78.99415901839579
82.70516843976449
27.33953521739855
61.04497857600376
78.13595603718159
81.7138961003262
25.83936259353707
60.43831778879101
77.52975310192487
81.17541340238235
31.26900883023478
63.0663498104953
77.20205438373173
80.23978126383656
36.95805734250231
65.60874132695886
77.11654224271949
79.68640527781841
43.59635621631319
68.84961412761645
77.31445167544132
79.66584472301625
51.41998462926215
71.09833568257001
77.69924763344265
79.7391364415237
53.28240802933317
58.94004422263752
73.28901168982317
79.26089760187361
51.93681879319023
60.14519641951895
73.51414892405036
79.25267695175314
49.49689556948532
61.86250397873099
74.01474814069671
79.25457878827757
47.17472369374369
63.82091286390227
74.73195298406475
79.31309775348132
51.41998462929853
71.09833568255537
77.69924763335224
79.73913644118937
43.59635621645904
68.84961412720965
77.31445167517505
79.66584472221012
36.9580573425487
65.6087413268237
77.11654224231792
79.68640527741582
31.26900883027224
63.06634981003741
77.20205438358688
80.23978126369605
84.17256343355848
79.58678228884907
60.56879383536024
15.60521153342636
82.70516843964188
78.99415901837706
61.3647255751163
24.76280405194946
81.71389610048378
78.1359560375453
61.04497857557337
27.33953521736844
81.17541340259805
77.52975310223617
60.43831778869947
25.83936259346734
14.84822222266404
58.99069625920191
80.46176262530884
86.35658360963758
26.39394424433829
63.23932101434862
81.54220834992687
88.80557472650472
43.06373167699793
69.93150602033437
83.96084618539271
91.68583023735177
66.39560533609909
78.72363209756855
89.32759006433331
95.46853806067966
103.9492871796981
117.3639460915375
126.5675515091667
136.607825710147
103.1379470924794
109.2149517338806
113.4275160287598
123.6649820199907
100.8369866331553
101.484345527436
100.6812434584972
107.3274554277404
97.84678575890959
95.22414163592568
89.17503666737663
88.30750045456058
145.6346004530226
138.9086866113068
121.4590661727202
98.31280487924279
153.342924961979
148.9208309442017
120.1259924562848
91.94303526198026
160.7381584865743
151.1909563564279
111.8303347824892
86.84042180975868
167.7072429313792
149.9509710522075
102.2401985979826
83.66791342533153
81.37300703598574
83.39327495241663
102.7715712983082
175.0767002856367
80.87273905083454
84.75166946626641
113.7345458623733
174.279506291372
81.08515830166353
87.90166482182445
128.37300759762
176.1372239113562
81.89144238034604
93.58584654202571
142.2713047666934
173.4126417530874
81.40189672730594
81.49460371108923
81.74670018816479
81.76640511664108
82.67021863629378
82.18752929548479
82.36951567683104
82.5205279534802
93.05775666518842
85.26208204307278
83.86378444082747
84.14365465042108
158.3480552207988
120.5578199823612
87.74246599928964
82.08343418584205
81.64007456509938
82.57337407762884
84.61630736257055
82.07910545981669
81.43364424721058
82.56763486208071
85.29455597139852
82.50697621102043
81.1571024438457
82.48084110811301
85.94970079365676
82.89851896781195
80.87776732438944
82.31288394826609
86.44909348441774
83.58709157878434
80.07908974749665
80.63880794955763
85.6917794205025
90.98667199613293
80.1912909751784
81.1235555201003
86.3714516492207
87.50957540486606
80.36116409952591
81.63902330787434
86.77400553215713
85.83750368624017
80.59966631667042
82.02325803694346
86.80862669430944
84.74257004417204
97.50852339903081
83.76515350286529
80.22876042671044
80.02228136352117
98.27353589060553
82.71484111707441
80.10847896602277
80.00718983874745
97.95093467780201
81.90768070382808
80.05407695969846
80.0019027378661
96.38513253696048
81.2705079256808
80.01262437231694
80.00023343417051
95.23503418554057
80.53779515962125
80.0013465191419
80.00009435613113
94.00071584856363
80.38549259989858
80.00091100895085
80.00000611643321
91.39564532355054
80.23457677749066
80.00014607057074
80.0000000276608
88.34441006931053
80.14460025727568
80.00003799741719
79.99999994537085
80.00000000002807
80.00000016396199
80.01345704149433
81.88036466697777
80.00000000026193
80.00000048100623
80.01669083721514
82.7639189677808
80.00000000110963
80.00000187755403
80.03089555983058
83.82261452951985
80.00000001233936
80.00000824571168
80.06381043022532
85.40758757848104
83.5240200019699
85.09531651093964
87.64373609019462
92.78689262166925
85.09531651122131
87.15064972690055
90.99723205385669
98.69110778925585
87.64373609035169
90.99723205373728
97.31200959861924
106.8208764516298
92.78689262196606
98.6911077887017
106.8208764522292
117.1820310841484
127.9924593545663
119.0252394150939
115.1014027948786
106.8656399460143
126.2797481656581
123.6456928179039
123.6041150025609
119.5301683547786
126.3198705073815
125.4943734325138
125.0507153433324
123.6401810092639
123.7373923314141
123.3303096705786
123.2435083322153
122.392916209001
119.6768333198377
117.8559594088932
114.2518291523457
109.3400971851643
119.9429516256908
118.0398279565752
114.3868079903738
109.8050827349914
120.2786374460789
118.2215974468647
114.3690029881627
110.2398944052849
120.4534161952935
118.1133387752811
114.5207874712716
108.560149401661
82.83049071932855
71.90501739126945
70.60488374847249
70.98544541615239
75.8208600235597
69.03041591766454
69.65702962053977
70.38168795384126
69.99730687357035
68.89582297204919
70.22939904201458
70.9298455271316
60.73660636923245
66.59794921769178
69.23777436486796
70.1983867666636
70.93001768241471
71.29228890612303
72.10767270644173
73.05109770070348
70.47270068836372
70.85088095405642
71.73547963900725
72.92897913756457
70.90444413604337
71.13415689177194
71.87245786813256
72.80669931529611
70.29685471247602
70.6180198289795
71.55363352682483
72.84650552488222
78.67379789075164
114.0355556832572
165.0711480747814
181.4274804306022
81.36369644103281
121.5221397641921
162.5396634157668
173.2947356213714
83.49480091275851
125.2968655491518
161.3143890379738
171.9960406767806
84.86403430465992
130.7128149192855
161.6596163243046
171.9732132067638
218.1624697152366
209.3372387416971
201.7901529603071
190.537142340053
219.3304088758598
212.1162721422479
203.9473487391379
192.3777114593856
218.3262361645494
213.6469266938408
205.0478795305117
193.4984728606213
213.2095094787978
215.5718538841361
206.9708548398385
195.2365628123334
178.1479082782718
167.8952076837522
158.2744454512693
153.3866754040187
180.1461427263758
169.2793375427971
158.9644989953109
153.7600176115411
181.2946669519704
169.4883775704697
159.5122018270793
153.7252844203401
183.7010121530419
170.9138324004885
161.1736925803439
154.8234742510504
148.5698511115763
140.6582457119973
126.7741649009695
105.8850704941225
149.2636804696428
142.1819430990449
128.8939360556525
114.359977838311
149.2080339620676
142.6098440462343
130.6898261409046
119.6674547371137
150.3701807505737
144.955013929161
134.0437551254957
134.5834669929827
64.62300876903906
16.54896736943173
2.69060339456726
1.283634167312134
49.95160861164769
10.39444895779827
2.242181571189891
1.464407876374991
34.73867384359161
6.571932263592036
1.963412953151346
1.620795836356353
19.55113493773441
3.060982971563737
1.726182279365892
1.813247573502245
1.92926972605043
4.153423628049437
6.785696504349725
10.67153468729101
2.736336524246077
5.087823129705566
7.800659242551584
11.94478708991443
3.199528329404459
5.47292887736642
8.645970970565621
12.64693621311678
3.753835167677335
6.19943117975501
10.09293855574413
13.79308972109304
12.51724397289088
18.94022927662431
26.0330077079306
34.74100783903415
12.1297940274371
17.87725447630007
24.71997941489199
33.23094638703065
12.4405025561926
16.35103338966236
22.87548069879345
32.23952564669522
11.69544576007919
14.46071461402297
19.06065496418768
30.28200779250271
35.03374432695252
33.2076377992315
32.54784671832855
33.17750179472331
31.86518934040579
31.78645211858614
32.24760768996526
32.35380506783576
31.01257168361059
32.65715343958028
32.98668038203103
33.02246715889335
29.23693486222116
31.45584112454054
31.77608467056621
32.50247229060298
32.92036816364705
33.23124212039475
33.49120569239489
33.61773325951894
32.97860001834933
32.93616509516846
32.84465369440692
32.95082152427968
32.92858489565086
33.39766172457269
33.83627412696026
34.09489465003774
34.75156779230936
35.80227049214262
36.54011459569482
36.54214218733668
33.61773325952083
32.9508215242837
34.09489465003568
36.54214218734108
33.4912056923772
32.84465369438426
33.83627412695336
36.5401145957237
33.23124212039082
32.93616509518156
33.39766172465109
35.80227049216588
32.92036816371765
32.9786000183506
32.92858489572117
34.75156779232729
33.17750179486652
32.54784671837643
33.20763779930798
35.03374432701945
32.35380506785411
32.2476076900135
31.78645211860811
31.86518934046468
33.02246715897277
32.98668038215123
32.65715343960241
31.01257168366753
32.5024722906405
31.77608467059527
31.45584112460391
29.23693486227194
30.28200779258906
19.06065496432372
14.46071461412406
11.69544576016498
32.23952564677284
22.87548069884161
16.35103338976907
12.44050255633947
33.23094638710887
24.71997941498924
17.87725447641361
12.12979402754472
34.7410078390968
26.03300770804143
18.94022927669586
12.51724397305943
10.67153468735414
6.785696504380476
4.15342362801496
1.929269726084767
11.94478708997235
7.800659242600632
5.087823129695134
2.736336524254682
12.64693621318137
8.645970970644878
5.472928877352801
3.199528329401999
13.79308972115904
10.09293855577808
6.199431179775596
3.753835167684791
1.283634167353077
2.690603394531791
16.54896736927368
64.62300876885816
1.46440787639865
2.24218157117314
10.39444895770338
49.95160861172087
1.620795836359591
1.963412953139202
6.571932263609486
34.73867384369503
1.813247573497381
1.726182279352466
3.060982971563463
19.55113493778507
105.8850704941806
126.7741649010991
140.6582457116658
148.5698511118471
114.3599778380769
128.8939360551734
142.1819430989783
149.263680469216
119.6674547373767
130.689826140798
142.6098440468324
149.2080339620242
134.5834669932327
134.0437551249894
144.955013929522
150.3701807504198
153.3866754039463
158.2744454510743
167.895207683614
178.1479082774918
153.7600176114946
158.9644989953904
169.2793375419233
180.1461427255958
153.7252844206511
159.5122018266356
169.4883775698001
181.2946669514949
154.8234742507651
161.1736925802455
170.913832400128
183.70101215241
190.537142339561
201.7901529601095
209.3372387414311
218.1624697154369
192.3777114590542
203.947348738855
212.1162721419173
219.3304088759363
193.4984728605189
205.047879530283
213.6469266937655
218.3262361643774
195.2365628122204
206.9708548397242
215.5718538835202
213.2095094791792
181.4274804306031
165.0711480745214
114.035555683319
78.67379789103248
173.2947356212868
162.5396634155937
121.5221397642327
81.36369644133281
171.99604067669
161.3143890378257
125.2968655491412
83.49480091307112
171.9732132064042
161.6596163241612
130.7128149192712
84.86403430498306
73.05109770092567
72.10767270614545
71.29228890560786
70.9300176819349
72.92897913782073
71.7354796389406
70.85088095353086
70.47270068814238
72.80669931557443
71.87245786801587
71.13415689126562
70.90444413582232
72.84650552515758
71.55363352659798
70.61801982845526
70.29685471204004
70.98544541570801
70.60488374812833
71.90501739140355
82.83049071946579
70.38168795341159
69.65702962012276
69.03041591788426
75.82086002364603
70.92984552670336
70.22939904158233
68.8958229723045
69.99730687362003
70.19838676622746
69.23777436435375
66.59794921793211
60.73660636931229
109.3400971851984
114.2518291523646
117.855959409234
119.6768333196591
109.8050827351181
114.3868079905989
118.0398279566172
119.9429516254048
110.2398944052292
114.369002988133
118.2215974468365
120.2786374458392
108.5601494016324
114.520787471593
118.1133387755515
120.4534161951347
122.3929162084009
123.6401810080791
119.5301683543379
106.8656399460057
123.2435083312134
125.0507153427269
123.6041150014465
115.1014027943026
123.3303096698216
125.4943734315443
123.6456928166194
119.025239413804
123.737392330716
126.3198705064226
126.2797481637762
127.9924593524422
54.09175566088054
71.27149682308634
77.56388098273143
79.75943485239976
50.81834540737884
69.89464471849885
76.93565997792471
79.66602918768348
48.22182431044827
68.23881713289514
76.32173035402802
79.54988804158134
46.39891922242641
65.93394080904527
75.50433597748963
79.42095046049583
79.26089760171713
73.2890116898936
58.94004422255958
53.28240802949494
79.2526769515988
73.51414892404057
60.14519641935311
51.93681879321441
79.25457878816925
74.01474814080642
61.86250397852067
49.49689556963222
79.31309775331839
74.73195298403576
63.82091286375199
47.17472369387382
79.42095046009618
79.54988804151893
79.66602918731282
79.75943485202181
75.5043359772213
76.32173035391502
76.93565997738253
77.56388098220411
65.93394080923848
68.2388171327367
69.89464471866228
71.27149682328648
46.39891922244146
48.22182431036778
50.81834540737849
54.09175566102535
)
;

boundaryField
{
    back
    {
        type            empty;
    }
    inlet
    {
        type            zeroGradient;
    }
    front
    {
        type            empty;
    }
    top
    {
        type            zeroGradient;
    }
    outlet
    {
        type            fixedValue;
        value           uniform 80;
    }
    bottom
    {
        type            zeroGradient;
    }
    wall
    {
        type            zeroGradient;
    }
}


// ************************************************************************* //
