/*--------------------------------*- C++ -*----------------------------------*\
  =========                 |
  \\      /  F ield         | OpenFOAM: The Open Source CFD Toolbox
   \\    /   O peration     | Website:  https://openfoam.org
    \\  /    A nd           | Version:  11
     \\/     M anipulation  |
\*---------------------------------------------------------------------------*/
FoamFile
{
    format      ascii;
    class       surfaceScalarField;
    location    "0.3592375";
    object      phi;
}
// * * * * * * * * * * * * * * * * * * * * * * * * * * * * * * * * * * * * * //

dimensions      [0 3 -1 0 0 0 0];

internalField   nonuniform List<scalar> 
1652
(
1.706212168242977
0.5337381654478366
-1.763034163104749e-13
1.172474003768361
0.5337381584211898
9.350298313393068e-13
0.6387445850717668
0.5335571542956705
4.811706588725428e-13
0.529169519997061
-8.919753824443433e-12
0.1057111343645785
1.706212168247671
1.067476330876201
1.172474005829486
1.067476302840064
0.6387502463387751
1.067105506499266
1.053469952724766
0.1085008315076905
1.706212168244342
1.601214496297515
1.17247401370237
1.601214386895109
0.6388068711913459
1.600473897245847
1.575038120783248
0.1089061379518692
1.706212168319533
2.134952661525121
1.172474043756484
2.134952228721354
0.6388942763679212
2.133493274362809
2.097351329627424
0.1052259032878435
2.651191214816885
1.723711780177983
3.16742976378215
1.723711779125782
3.683668090044201
1.723711851207521
1.723712858920389
4.199906971628181
2.651189460767047
1.207473399365123
3.167421594044961
1.207473287109659
3.68364704831998
1.207475968362647
1.207511808192742
4.199820705020164
2.649581359555086
0.6899954877895147
3.166040552239377
0.6888415027915138
3.68270242587082
0.6872903283494901
0.6887247552745318
4.194525724126454
2.650874557915417
0.1168378562693125
3.273932134009731
0.04172460292360641
3.912955254106704
0.01811960139273944
4.554446675115308
0.01129148065126373
4.164891486820322
0.03501639695282721
4.129861133386311
0.03500481661891897
4.094845353939536
0.03485880909317429
0.03478328147495968
4.059707998116362
4.164989932819196
0.06971402106441887
4.130355905663984
0.06893655941332516
4.096344161627335
0.06750052453611788
0.06567960179137999
4.062546353954792
4.1747652673579
0.08242247494291671
4.160204232042654
0.07410487809884952
4.152940770491152
0.06155643791704529
0.05298169647748097
4.147974973835725
4.603056464277353
0.006229203359066182
4.647547577661412
0.005264132252342457
4.680684018460898
0.006631578033350294
4.71291703508796
0.007741204337826046
4.670365462617883
0.1044175868781628
-0.06872497658674767
4.585724731947002
0.1015336588844616
-0.0183818872894963
4.503680233733778
0.09666922764520131
-0.00894177068636326
0.08785848488283771
4.43157253799018
-0.006796809616217869
4.22009653067192
0.01360746432200771
4.275163220749866
0.02651450422711144
4.314340012357573
0.03726919103685522
0.04540995224725586
4.338142673591197
4.068844798950864
0.00107323296507722
4.08131983200193
0.002963620298583547
4.098854863650867
0.005655628758798659
0.009950150436957128
4.118433509074821
4.059561394845129
4.059934641353133
4.061254175592612
4.064432390767982
4.069795871305276
-0.01554495969369318
4.077679579435668
-0.02162150132320906
4.087623642994997
-0.02801787789270382
-0.03210808012443722
4.096917350041546
4.138847641312108
-0.0536959830338587
4.158817517104368
-0.06003544916865883
4.176997582346436
-0.06322002624711187
-0.06156530378446434
4.19097487129075
4.34763389815091
-0.07864945456211175
4.345713675474707
-0.06822784909118745
4.333663736935023
-0.05402394969670876
-0.04809071331754705
4.319208216351589
4.36505953377918
-0.007518737216650306
4.316425285708075
-0.005960742725929696
4.27321575643216
-0.003535192204190851
4.244284065623531
-0.002871858906285413
0.04263143388912638
4.22867475938831
-0.01748003063323503
0.05775063748872866
4.308730502260981
0.03447605293748279
4.199832151839615
4.101809219479738
0.0404192970858967
4.249422210719503
-0.1456639182048707
0.0476074775415295
4.301615445650312
0.03368355339193918
4.206144257287486
4.102833169710465
0.07818288639108412
3.985001980409151
-0.1400048876564984
0.04627183129618317
4.308885262199156
0.02810080035683626
4.211434525597731
4.098034531360486
0.1746618033877934
3.682271294628636
-0.04233651445790276
0.06565804434743372
4.316410859369497
0.02803785308173123
4.226445951055209
4.100477113541459
0.07033213572639641
3.97981502364076
0.123556011559031
4.132435892350044
0.08027864271422147
4.217518589226986
3.560889758512845
0.1473564569795419
0.06627736922340199
3.876833332241086
0.08925288215142568
4.04279317926123
0.008554423404950273
4.094875762128485
3.434664434342358
0.1117999915104064
0.0527977918768705
3.7849383632044
0.01845168615217985
3.955720755398133
-0.07013800976904716
3.934667096442114
3.332934764289899
0.05847373574338111
0.02148916809893642
3.70544270591437
-0.08849442230766191
3.861475355507871
-0.1185521096981845
3.745428106933125
3.239255737101339
0.02716049700458112
0.140153745981295
3.15519181656341
0.002272422787998774
0.188086770900025
3.58408584380054
0.03402802523553494
3.73448462126851
3.642165664840849
0.1485178539934449
3.077802936181969
-0.006619675557762217
0.2559953605617502
3.472520944310807
0.1028866337611088
3.584916134305705
3.592149125264484
0.1404617298779909
2.995520649695652
0.002475318534748916
0.2945975768946273
3.34635240724116
0.1909932136640377
3.45009187887853
3.557359846369675
0.1099856914622416
2.890871619484774
0.01568640093013463
0.2666312944902312
3.221602994901146
0.2510993163242304
3.304255871625133
3.515473202163402
-0.2198604847867806
3.46440597202155
-0.1874175996757671
3.230011814023134
-0.04683112788140886
3.107244683857917
2.789611223492571
0.04415745747933708
-0.1620750919201912
3.402434072948665
-0.1271062410915609
3.139808811163478
0.001551299692343355
3.00499767724996
2.707307546365821
0.06647367968250206
-0.1025097892954199
3.328926150849015
-0.05274286116355997
3.057281529956226
0.06928481385532309
2.911614676719223
2.641312439081809
0.1219613506714781
-0.03597101558143356
3.224305053822838
0.0338717089762669
2.967054028884722
0.1556889160092557
2.819841572466817
2.569307852481066
0.2296404481910669
-0.3468341749156423
3.454814733328098
-0.5764961467490389
3.185794106525153
-0.7153241481712783
3.000044023037729
2.633113720788309
-0.7690708034639478
-0.3002084399822682
3.659652604561329
-0.5257819757277886
3.407277579780563
-0.6286982213024929
3.176610087967845
2.281261905651699
-0.2632235899400088
-0.2736583119540769
3.844646466530751
-0.4821409095278193
3.621430894002519
-0.5140374819355993
3.331023002893061
1.803008009379343
-0.02966557489408796
-0.2402581584312836
4.011170232475717
-0.4394775930221343
3.827814447330546
-0.3630695164049377
3.43890318456144
1.417724688425357
-0.01228115723500654
0.1576801268905532
1.459258657817815
-0.01047812225260435
0.2075841929516772
3.529867509108044
0.1042119078602515
3.938194955280708
4.062977975197001
0.1656290671641026
1.439673780450342
-0.007978949926820132
0.1877442456469679
3.625673442304506
0.0947236435897521
4.050910413475948
4.108050927569865
0.1503821795784021
1.343317006678873
-0.003393887092541056
0.1686297293553672
3.723209950924054
0.08924755726546779
4.16021367131551
4.149926180348214
0.1199113267579444
1.254282220073491
0.002202874547623336
0.1500455462496171
3.816527385722047
0.0890340921444997
4.257716287138624
4.196627304514863
-0.235952164068545
1.57020127039685
-0.01567256163896415
-0.1845881967378497
3.985440846160239
-0.04698273966050204
4.197997650028469
4.097718417059411
-0.2649893974881024
1.927845101883389
0.005973714983550094
-0.1781059025380666
4.069002712355756
-0.03211465462841501
4.113304466334796
4.060050903354542
-0.2623644176720245
2.245152409372269
0.03358697053476448
-0.134446047517377
4.10220665403809
-0.02063100002731422
4.067476565656204
4.056536002533025
-0.2321308199178414
0.08786566129454401
2.498255444993212
-0.1113845656588262
4.099525086822572
-0.01648787821673281
4.039832644561454
4.056691346580055
0.3370435503918147
-0.4386161492392791
-0.0128716754106769
5.609290809616141e-12
0.8928670193141762
-0.4130668451059254
-3.370637102761975e-13
1.633808944658251
-0.4646875172684131
7.496225862269057e-13
-0.5171011128058458
-1.254907289194307e-11
0.334116009177631
-0.8918353553990186
-0.01277404115740261
0.9068197966944336
-0.8655177319717735
1.634734824712404
-0.942508769081047
-1.035758968455255
0.3307524870753273
-1.351359352731113
-0.01558015624417558
0.9266010042905846
-1.34338187763132
1.638842281930179
-1.451593418031949
-1.556743628514145
0.3240811272353194
-0.01607244969799615
-1.703817002161244
0.9567798475348583
-1.851430720659305
1.647526081728968
-1.983871156629803
-2.082285558478286
-0.2321308199184638
-2.245152409376572
0.08786566129457418
2.498255444987621
-0.1113845656546086
-4.102206654039161
4.099525086824088
-0.01648787821304398
-4.067476565653134
4.039832644560962
-4.056536002523678
4.056691346575813
-0.2623644176701087
-1.927845101886526
0.03358697053559866
-0.1344460475206816
-4.069002712368389
-0.0206310000287897
-4.113304466340129
-4.060050903359693
-0.264989397489325
-1.570201270402715
0.005973714983905587
-0.1781059025402679
-3.985440846165291
-0.03211465463354291
-4.197997650029582
-4.097718417054897
-0.2359521640679312
-1.254282220075227
-0.01567256163871916
-0.1845881967421279
-3.816527385734891
-0.04698273966539568
-4.257716287139247
-4.196627304507983
-0.1042119078554697
4.062977975215738
-4.011170232500987
-0.207584192939252
3.938194955302897
-3.827814447360572
-0.1576801268843205
3.52986750908521
-3.438903184531696
1.459258657789575
-1.417724688403165
-0.01047812225283429
-0.09472364358399193
4.108050927573242
-0.1877442456323989
4.050910413488905
-0.1656290671591553
3.625673442291895
1.439673780439952
-0.007978949926938667
-0.08924755726009348
4.149926180342022
-0.1686297293375286
4.160213671325566
-0.150382179573449
3.723209950921923
1.34331700667767
-0.003393887092268819
-0.08903409213746605
-0.1500455462336312
-0.1199113267528633
0.002202874547489776
0.3630695164087133
-1.803008009366166
-0.01228115723500665
0.4394775930370387
-3.331023002879371
0.240258158446516
-3.621430894028563
-3.844646466549872
0.5140374819397077
-2.281261905639164
-0.0296655748933282
0.4821409095422201
-3.176610087963322
0.2736583119657024
-3.407277579802555
-3.659652604576848
0.6286982213097699
-2.633113720785424
-0.2632235899387432
0.525781975742739
-3.000044023035581
0.3002084399924363
-3.185794106536173
-3.454814733334573
0.7153241481786126
-2.569307852481587
-0.7690708034659218
0.5764961467615559
-2.819841572468132
0.346834174918295
-2.967054028891297
-3.224305053821923
-0.2198604847853641
3.46440597203446
-3.515473202178148
-0.1874175996692939
3.230011814038498
-3.304255871647964
-0.04683112787603871
3.107244683847217
-3.221602994881854
2.78961122348346
-2.89087161947308
0.04415745747515576
-0.162075091912806
3.402434072955009
-0.1271062410834874
3.139808811171789
0.001551299699293018
3.004997677240817
2.707307546357631
0.06647367968204621
-0.1025097892927445
3.328926150852673
-0.05274286115600679
3.057281529962973
0.06928481385966428
2.911614676715098
2.641312439078983
0.1219613506704492
-0.03597101557682603
0.03387170898572311
0.1556889160123122
0.2296404481914776
0.1099856914650658
-2.995520649684094
0.01568640093128626
0.2666312944948911
-3.346352407233615
0.2510993163277372
-3.450091878893032
-3.557359846381103
0.1404617298805668
-3.077802936177342
0.002475318534271409
0.2945975769009019
-3.472520944307466
0.1909932136689801
-3.584916134313012
-3.592149125271673
0.1485178539965132
-3.15519181655597
-0.006619675558993676
0.2559953605672035
-3.584085843804166
0.1028866337605558
-3.734484621272009
-3.642165664842996
0.1401537459835148
-3.239255737104485
0.00227242278774975
0.1880867709077298
-3.74542810693352
0.03402802523948856
-3.861475355508333
-3.705442705912222
0.07033213572768959
3.979815023641738
-4.100477113539752
0.1235560115594115
4.13243589235082
-4.22644595105304
0.08027864271812346
4.217518589230768
-4.316410859371999
3.560889758516002
-3.682271294631386
0.1473564569779126
0.06627736922540706
3.87683333224247
0.08925288215239358
4.042793179263119
0.008554423407116096
4.094875762132408
3.434664434342386
0.1117999915084587
0.05279779187825195
3.784938363206183
0.01845168616075488
3.955720755401467
-0.07013800976911166
3.934667096448536
3.332934764289046
0.05847373574258119
0.02148916810108337
-0.08849442230101889
-0.1185521096977314
0.02716049700547074
-4.098034531360004
-0.02803785308089879
-4.102833169711949
-0.02810080035597418
-4.101809219481127
-0.03368355339153117
-0.03447605293772527
-4.096917350042719
-4.211434525599079
-0.06565804435009182
-4.206144257286245
-0.04627183129663809
-4.199832151834436
-0.04760747754036915
-0.05775063748842485
-4.19097487128607
-4.30888526220262
-0.1746618033846123
-4.301615445654769
-0.07818288638982795
-4.308730502260904
-0.04041929708716591
-0.04263143388897672
-4.31920821635273
-3.98500198041791
-0.04233651445818343
-4.249422210720871
-0.1400048876572109
-4.228674759387194
-0.1456639182017839
-4.244284065623793
-0.01748003063310882
-0.03210808012304611
-4.087623642993357
-0.06156530378303726
-4.176997582341637
-0.04809071331610187
-4.333663736939636
-4.273215756432516
-0.002871858907388725
-0.0280178778938166
-4.077679579436391
-0.06322002624487888
-4.158817517099144
-0.05402394969485891
-4.345713675480618
-4.316425285706569
-0.003535192202182263
-0.02162150132133001
-4.069795871306833
-0.06003544916966891
-4.138847641305833
-0.06822784909008378
-4.347633898159603
-4.365059533778775
-0.005960742726422247
-0.01554495969074476
-4.064432390774309
-0.0536959830349179
-4.118433509067961
-0.07864945456195405
-4.338142673602641
-4.431572537991389
-0.007518737214582821
-0.001073232966852911
4.059561394846326
-4.059707998110225
-0.01360746432409793
4.068844798933792
-4.062546353935225
-0.1044175868816528
4.220096530689126
-4.147974973853908
4.670365462627191
-4.7129170351003
-0.06872497658684759
-0.002963620299668568
4.05993464135326
-0.0265145042322385
4.081319831988743
-0.1015336588878054
4.275163220763374
4.585724731954651
-0.01838188729072884
-0.005655628766030651
4.061254175593909
-0.03726919104673082
4.098854863638815
-0.09666922764927838
4.314340012369986
4.503680233738149
-0.008941770688278311
-0.00995015043889691
-0.0454099522509282
-0.08785848488568521
-0.006796809616006039
-0.05298169648258988
-4.680684018468793
0.007741204337376739
-0.06567960180523125
-4.152940770498261
-0.03478328147994791
-4.096344161619023
-4.094845353938693
-0.06155643792280585
-4.647547577666375
0.006631578032907093
-0.06750052454906452
-4.160204232041862
-0.03485880909639716
-4.130355905667956
-4.129861133395309
-0.07410487810619343
-4.603056464280657
0.005264132251089071
-0.06893655942513477
-4.17476526735205
-0.03500481661966182
-4.164989932837788
-4.164891486817174
-0.08242247494695765
-4.554446675097478
0.006229203361190594
-0.06971402107702512
-4.194525724113174
-0.03501639695626724
-4.199820705046831
-4.199906971634674
-0.6887247552727107
-3.912955254076742
0.01129148065138874
-1.207511808184879
-3.682702425859234
-1.723712858925806
-3.683647048338063
-3.683668090044014
-0.6872903283474333
-3.273932133976455
0.01811960139643626
-1.207475968355173
-3.166040552235151
-1.72371185120907
-3.167421594059706
-3.167429763785814
-0.6888415027911511
-2.650874557887768
0.04172460291926783
-1.207473287105993
-2.649581359554162
-1.723711779126117
-2.651189460769082
-2.65119121482299
-0.6899954877895055
-2.097351329615726
0.1168378562626906
-1.207473399365386
-2.133493274368302
-1.723711780188847
-2.134952228727069
-2.134952661529127
1.706212168246033
0.5337381654428739
1.172474003772977
0.5337381584278409
0.6387445850750019
0.5335571542957718
0.5291695199866429
0.1057111343681223
1.706212168248594
1.067476330870285
1.172474005829732
1.067476302839399
0.6387502463394064
1.06710550650794
1.053469952713313
0.1085008315088303
1.706212168246498
1.601214496294727
1.172474013702255
1.601214386892852
0.638806871190591
1.600473897248024
1.575038120783876
0.1089061379511129
1.706212168319974
1.172474043754092
0.6388942763649871
0.105225903286409
0.1054762322671659
0.1054762322713065
0.1054653928213782
0.1079721229287368
0.1059225148747548
0.1078287801312924
0.1026793025017212
0.1077871476632316
0.1079721229261578
0.1054653928257222
0.107678212714117
0.1076782127165863
0.1081688414567867
0.1066956973551414
0.09903950573529724
0.1111325215835159
0.107828780132469
0.1059225148780975
0.1066956973555667
0.1081688414595083
0.1063680701841846
0.106368070184241
0.09589778789652416
0.1089243866541696
0.1026793025064348
0.1077871476650835
0.09903950573778778
0.1111325215851888
0.09589778790117968
0.1089243866536345
0.0956781681127115
0.0956781681176752
-0.03916482994268894
0.1340424799450265
-0.06253202910150207
0.1313125513145864
-0.08851460177228077
0.1359908479338625
0.1348760667243389
-0.005682160155244698
0.1388609320358779
-0.01617533004191241
0.1408669231651537
-0.02705987351992467
0.1458977399753294
0.1484336034134019
-0.0009897307137398115
0.1391851853418164
-0.007344023966806335
0.1464985063459631
-0.01313438411629342
0.1509051595489345
0.1525076595167033
-0.001218720021233022
0.1398031332502834
-0.006135057730751348
0.1507757993887897
-0.009219358221343565
0.1533082189721393
0.1538215349332395
0.1533031134818433
0.00616957289487774
0.1533720789362457
0.004948539329575785
0.1526200888772564
0.007183194215639344
0.006669560785448669
0.1537744732474
0.1535206690092496
0.005391474252062101
0.1538379573167494
0.004325677056521426
0.1539161410104973
0.006914482063635874
0.003199577969146661
0.1574316187309169
0.1528814068564585
0.002725278307679324
0.1538629207892552
0.003033509124963529
0.1547047542682967
0.005885411797621309
-0.009752649509674582
0.1676840089608508
0.1419776217991113
0.1446515478205512
0.1502910735266427
0.1404652894252001
0.1402988871336426
-0.05510089325905179
0.1310927645538218
-0.008870382171324298
0.129668756926715
-0.006961209373719024
-0.006209407316502713
0.1296550790407249
0.1446496124965858
-0.04222971372798587
0.1388102679995596
-0.002739835108032274
0.1356409757867711
-0.003209404541509864
-0.003925129506933162
0.1339572554268007
0.1511964574063508
-0.02570026492265551
0.1456022983920371
0.003129657978668682
0.1416372628151654
0.00132678523048721
8.871134137922176e-05
0.1382175497271169
0.1147562556199225
0.1181759035785476
0.1201040405369803
0.1208093752815034
0.1299200781801185
-0.006882541705215212
0.1308441436806386
-0.005824211546744812
0.1320143927472875
-0.00376706722519754
-0.003038490052460041
0.1331207288813194
0.132714947694769
-0.004747773814667761
0.1322448507523057
-0.004284422109191444
0.1322700808849143
-0.002830329244531998
-0.002528160052216843
0.1326950922526825
0.1355128365010549
-0.001149126452523963
0.1336078478230475
-0.001296573723580829
0.1325487130691018
-0.0007878278579724063
-0.00111549677288339
0.1321948477273298
0.1205604386883551
0.1203302942963435
0.1204691393143871
0.1203652515399092
0.1377885668147037
-0.02482891997634024
0.1348824739441984
-0.1505007344655727
0.1107594059658908
-0.1229654362119798
-0.01104194125852642
0.08051121448185142
0.1322027298982383
-0.02831656924276391
0.1023247474354984
-0.1270275894381727
0.05610800401717835
-0.08144698267564698
-0.002616529139428669
0.04679659482205899
0.1239351763404654
-0.02441178014185505
0.0539122582822478
-0.06299661238103155
0.002564265715006439
-0.03524034708136958
-0.006634763057425219
0.004849146850433111
0.09095603476450809
0.02205279282193867
-0.01732392320610646
-0.0268779282351687
0.1047429669812564
0.1254177530235129
0.1177022039658572
0.1030275370385417
0.1245918539194039
0.05756165147407188
0.02675351416789062
0.1298439831919449
0.08613644193045591
0.08814299302378803
0.1121676314825087
0.08104220362275605
0.1233710845705215
0.050403662022389
0.0249620661223342
0.1295953028588357
0.05318265103261542
0.04164872017943122
0.09764511619378463
0.04051980700651658
0.1175438923439791
0.03378392697548205
0.02014577510463622
0.1261441732287061
0.01606343847349453
0.06047001064298457
0.09669634488485843
0.1200202761685793
0.1350664792375585
0.003068010389644771
0.1400248295653515
-0.006417188849318078
0.1434898070222317
0.001381702281929797
0.01112162657029248
0.1477709724986061
0.1347762005421931
0.00505462328148365
0.1395685739922025
-0.002602846587009711
0.1424687811509727
0.001754800075998264
0.006795090419620564
0.1464998346956803
0.1319894652584916
0.00620517665376541
0.1376968710593481
0.0001345962487000474
0.1417125140004918
0.001461609623333082
0.003119783784843011
0.1452932485989753
0.1330968896930282
0.1388412536401093
0.1429866356482187
0.1462794955330196
0.1586638527446815
0.03178754902786873
0.1726591708441886
0.05121756891368523
0.1922475657277228
0.1023172831812603
0.1805134240813552
0.2412399737691057
0.1566728800560219
0.01993623070181116
0.1704612186854698
0.03610933099906899
0.1914988988298757
0.08113529452840279
0.1229079595954765
0.2492073200950746
0.1538903260846234
0.009770593399666683
0.1672302688274392
0.02142002891288475
0.1942631712780022
0.0534521366098189
0.03428840270408356
0.2830991304325282
0.1546647515897125
0.174662570277674
0.2273712942362384
0.2615308877864574
0.12200142560038
-0.6494854692213949
0.01214932465136852
-0.152650891170568
-0.002597095798149589
-0.01384690067012953
-0.009765665372883783
-0.003860703316915043
0.08463895907913656
-0.4845211123518827
0.001807040248802344
-0.06912177059889443
-0.004315317323964368
-0.0067989593657519
-0.006316569569177087
-0.006748261328054512
0.04503313637275931
-0.246329850409443
-0.002596036573714536
-0.02080253178780959
-0.005881477783065281
-0.002576848467129272
-0.003320576696223736
-0.008045756796353803
0.01517956722376392
-0.004926147133404227
-0.00665948865472007
-0.009082445053479403
-0.005367074743487917
-0.007899546715660028
-0.006842741668084244
-0.005047407806364078
-0.00851931318865866
-0.0008105637842049686
0.003538089799527827
-0.009128798125996608
-0.0081925580467296
-0.005611303986220423
-0.009147300751057352
-0.002763190187853926
-0.009653881098042227
0.0007065622775908886
0.003168489429051513
-0.008476757287472559
-0.009688763966703305
-0.002882239378225538
-0.009469009597874029
-0.001545658869722164
-0.008702839096142202
0.000929033235582348
0.002634957290065257
-0.007328894497219579
-0.01079234128130831
-0.0109498741368576
-0.009120770626640271
-0.005723282787274003
-0.008421329212087119
-0.01576932540439058
0.001942902347057313
-0.002849736626749755
0.02247347026215622
0.01461997964778772
0.07047364641910611
0.0424365318072202
-0.009509197358533535
-0.01396212721453269
-0.007053959607002978
-0.00368197981457024
0.008908710963629426
4.051050653404442e-05
0.04770540440641254
0.03388570223326692
-0.01176768559649991
-0.00857513149973519
-0.01145464228302921
-0.002555970958347739
-0.003607624241851057
-0.006446051188052776
0.0255733267152695
0.02032639460985215
-0.01309204581534911
-0.01388678770210382
-0.01901307540537901
0.008975503453575354
0.04129049830196709
-0.006356696461892623
0.01063471837656622
0.03999937444639474
-0.007445339434139511
0.01126592466312809
0.03677219634015198
-0.01237312946637185
0.01704040739466377
-0.01696904983995242
0.02817963614157432
0.02546619013926744
0.03266444541213159
-0.003783775997201061
0.03078324100995227
-0.004784034772816206
0.02748551538902205
-0.008732111999079431
-0.01083073132548264
0.02109968863803247
0.01849744557694243
-0.001709110740706177
0.01641329845624686
-0.002220579732522963
0.01257199943870824
-0.004436917087162442
-0.005015126441664904
0.006837763380921243
0.006532938640999832
0.00458268347585563
0.0002902158915677813
-0.004408699795161279
-0.006411055533452101
0.002584388690135279
-0.006056213358771552
0.0007783943003713684
-0.003634239430010823
-0.0008802444325639487
-0.001874204305868377
-6.216555048510486e-14
0.003495811414017176
0.006009660866396132
0.001027952932470433
0.00363945121393729
-4.024982087142553e-05
0.0009232034786028388
-0.000916464421545124
-2.882416527683063e-14
0.01669099960668696
0.01018017422841674
0.01132010702001932
0.008928050700843571
0.00568073541967528
0.006652465275985786
0.005072933700202609
1.677130656574377e-14
0.02173978013384571
0.0143132596395356
0.007707624838697628
5.662831314978689e-14
-0.001874204305877175
0.003634239429914456
-0.0009164644215470252
4.024982085640283e-05
0.005072933700201499
-0.005680735419636186
-0.007707624838581652
0.01287167541056705
-0.0008802444325694825
0.006056213358676302
0.0009232034785986165
-0.001027952932573205
0.006652465276015113
-0.01132010702013235
-0.01431325963948253
0.01277404115752045
0.0007783943003504615
0.006411055533317403
0.003639451213935489
-0.003495811413974786
0.008928050700983348
-0.01669099960670981
-0.02173978013384572
0.01558015624392822
0.00258438869020787
0.00440869979520573
0.006009660866393703
-0.006837763381001165
0.01018017422852601
-0.02109968863798103
-0.02817963614180938
0.01607244969776768
-0.03677219634006461
-0.01696904983971836
0.02546619013952782
-0.03999937444640868
-0.01237312946633135
0.01704040739461384
-0.04129049830197549
-0.007445339434093444
0.01126592466319938
-0.006356696461970346
-0.04243653180725989
0.01063471837651785
-0.02748551538906555
-0.01083073132550667
-0.03078324100987861
-0.008732111999134144
-0.03266444541220266
-0.004784034772853878
-0.003783775997264406
-0.03388570223333626
-0.01257199943878673
-0.005015126441617151
-0.0164132984562107
-0.004436917087063869
-0.01849744557712198
-0.00222057973259121
-0.001709110740735584
-0.02032639460993257
-0.0002902158915663172
-0.004582683475909163
-0.006532938641016388
-0.008975503453666267
0.0190130754052325
-0.0255733267153359
0.01388678770208926
0.006446051188429017
0.01309204581533383
0.002555970958290042
0.008575131499494605
0.005723282787289754
0.00360762424185733
-0.04770540440646528
0.01145464228294503
-4.051050677138235e-05
0.01176768559637785
0.003681979814476058
0.01396212721465821
0.00732889449723588
-0.008908710963754576
-0.07047364641913736
0.007053959606893399
-0.01461997964802357
0.009509197358430673
0.002849736626787724
0.01576932540406141
0.00847675728745551
-0.02247347026235703
-0.001942902347128218
0.008421329211890424
0.00912879812600657
0.008519313188662409
0.00353808979954014
0.006842741668158327
-0.0008105637841601954
0.005367074743545065
-0.00504740780650201
-0.007899546715714807
0.003860703316869844
0.009653881098032573
0.003168489429041244
0.009147300751096016
0.0007065622775522598
0.008192558046741081
-0.002763190187921212
-0.005611303986259485
0.006748261328061194
0.008702839096092967
0.002634957290075027
0.009469009597907885
0.00092903323573406
0.00968876396671005
-0.00154565886980499
-0.002882239378271154
0.008045756796353359
0.009120770626706623
0.01094987413688973
0.01079234128133326
0.009082445053479608
0.002597095798122678
-0.009765665372812754
-0.01214932465084518
-0.01384690066986709
-0.1220014255994238
-0.1526508911698815
-0.6494854692219849
-0.2412399737681322
0.004315317324006694
-0.006316569569101321
-0.001807040248615773
-0.006798959365652418
-0.08463895907846349
-0.06912177059865282
-0.4845211123518565
-0.2492073200952033
0.005881477783094103
-0.003320576696210905
0.002596036573781616
-0.002576848467083032
-0.04503313637246468
-0.02080253178765842
-0.246329850409391
-0.283099130432601
0.006659488654726126
0.004926147133436067
-0.01517956722370722
-0.2615308877867006
-0.1922475657278402
0.1805134240824433
-0.1726591708439091
0.102317283183441
-0.1586638527448656
0.05121756891615448
0.03178754902957115
-0.1477709724986306
-0.1914988988296373
0.1229079595938206
-0.1704612186856561
0.08113529452729856
-0.1566728800558028
0.03610933100082647
0.01993623070030859
-0.1464998346956228
-0.1942631712776443
0.03428840270447969
-0.1672302688276621
0.05345213661100306
-0.1538903260842309
0.02142002891680461
0.009770593400248662
-0.1452932485991638
-0.2273712942355566
-0.174662570278381
-0.1546647515895052
-0.1462794955330615
-0.1434898070223002
0.01112162657022042
-0.1400248295652348
0.001381702281711639
-0.1350664792369797
-0.006417188848294897
0.003068010389387532
-0.1298439831918574
-0.1424687811511311
0.006795090417978433
-0.1395685739917492
0.001754800079345031
-0.1347762005418468
-0.002602846587067331
0.005054623280873471
-0.1295953028586846
-0.1417125140002436
0.003119783787137065
-0.137696871059078
0.001461609622424476
-0.1319894652580844
0.0001345962486013486
0.006205176654934585
-0.1261441732286632
-0.142986635648338
-0.1388412536399828
-0.1330968896927151
-0.1200202761684354
-0.1245918539196304
0.02675351416777183
-0.1177022039658531
0.05756165147393466
-0.1047429669814664
0.1030275370378581
0.1254177530237623
-0.08051121448196795
-0.1233710845705309
0.02496206612145824
-0.112167631482523
0.05040366202087909
-0.0861364419307685
0.08104220362071568
0.08814299302532036
-0.04679659482215286
-0.117543892343898
0.0201457751048455
-0.09764511619415625
0.03378392697526689
-0.05318265103265836
0.0405198070085746
0.04164872017677801
-0.004849146851014979
-0.09669634488452016
-0.06047001064256423
-0.0160634384737911
0.02687792823575112
-0.1107594059663641
-0.01104194125854818
-0.1348824739446544
-0.1229654362126256
-0.1377885668149039
-0.1505007344645345
-0.02482891997599207
-0.1331207288815947
-0.05610800401753274
-0.00261652914036925
-0.1023247474361493
-0.08144698267606248
-0.1322027298985009
-0.1270275894377199
-0.02831656924247572
-0.1326950922528808
-0.002564265715217742
-0.006634763057207838
-0.05391225828285709
-0.03524034708140927
-0.1239351763407409
-0.06299661238095383
-0.0244117801416974
-0.1321948477274705
0.01732392320610614
-0.02205279282198107
-0.0909560347646404
-0.1203652515398708
-0.1320143927473622
-0.003038490051787829
-0.130844143680438
-0.003767067224980797
-0.1299200781802073
-0.005824211546920116
-0.006882541705654749
-0.129655079040568
-0.1322700808849745
-0.002528160051686823
-0.1322448507521618
-0.002830329244054658
-0.1327149476946707
-0.004284422109449432
-0.004747773814606754
-0.1339572554267806
-0.1325487130689817
-0.001115496772652408