/*--------------------------------*- C++ -*----------------------------------*\
  =========                 |
  \\      /  F ield         | OpenFOAM: The Open Source CFD Toolbox
   \\    /   O peration     | Website:  https://openfoam.org
    \\  /    A nd           | Version:  11
     \\/     M anipulation  |
\*---------------------------------------------------------------------------*/
FoamFile
{
    format      ascii;
    class       volVectorField;
    location    "0.3592375";
    object      U;
}
// * * * * * * * * * * * * * * * * * * * * * * * * * * * * * * * * * * * * * //

dimensions      [0 1 -1 0 0 0 0];

internalField   nonuniform List<vector> 
880
(
(24.99999999999999 -2.806371306201018e-12 0)
(24.99999998203183 -1.217502309013772e-08 0)
(24.99829020131137 -0.0005554014085168526 0)
(24.71736000675073 0.007624759590278908 0)
(24.99999999998872 -2.83153815047343e-11 0)
(24.99999994445427 -7.040086461890599e-08 0)
(24.99747952824528 -0.001722110987614973 0)
(24.63269314318007 -0.159336118413219 0)
(24.99999999963697 -2.437937332704331e-10 0)
(24.99999976102305 -2.871958426696607e-07 0)
(24.99514546249874 -0.003584520444635043 0)
(24.5135984715962 -0.2644846151025598 0)
(24.99999999829957 1.052161434785472e-09 0)
(24.9999988181946 -1.167881968263025e-06 0)
(24.98908565642518 -0.007016856278532413 0)
(24.13724107717313 -0.4137218455740334 0)
(25.0000000111903 -4.114216271300439e-09 0)
(24.99999998001881 8.778104568930144e-09 0)
(24.99999953213299 -9.298778246603636e-07 0)
(24.99999314126271 -1.184406057945865e-05 0)
(24.99999376780932 -4.448789709771703e-06 0)
(24.99996304581329 -1.867030608892236e-05 0)
(24.99985588969164 1.067065554701848e-05 0)
(25.00017477398763 -0.001107695300694977 0)
(24.97171045100597 -0.01019843550514274 0)
(24.95164257070618 -0.006360525033960607 0)
(24.92414599479123 0.01073090862580894 0)
(24.91407692177827 -0.06683477920249152 0)
(23.40263653681014 -0.09542144233880508 0)
(22.69016791497941 0.6348517092893364 0)
(22.26854832706416 1.335029056852738 0)
(22.24429609063696 1.746230775347358 0)
(24.99988402622624 -6.196977913140323e-06 0)
(24.99960661080048 -0.0003640910262445901 0)
(24.99925373793836 -0.001529079928232969 0)
(24.99747565922236 -0.004522287599735963 0)
(24.99801874040945 -0.0006931111600182543 0)
(24.99019669888352 -0.0003535782934810145 0)
(24.97715004997936 0.005493432602057836 0)
(24.95441894906382 0.00891112764335532 0)
(24.75585945207847 -0.01080217089678457 0)
(24.63017593516073 0.09839524014658148 0)
(24.46164840635653 0.2785208999888857 0)
(24.31834316825323 0.4062595297244275 0)
(21.98166609911091 2.340710507605555 0)
(21.98732019988542 2.779775428445193 0)
(21.8851158929449 3.317365238245055 0)
(22.33925359874688 3.758414541184175 0)
(23.38567131287904 4.323118788959767 0)
(24.11422102884607 4.173027209112499 0)
(24.45809533009841 3.766272372945487 0)
(24.81732734726634 3.316638689543304 0)
(24.07885494660572 0.7464012203540469 0)
(24.09385389160743 1.104404450116176 0)
(24.19611340135179 1.349491876530672 0)
(24.38212982721728 1.475563835680724 0)
(24.875639633303 0.03529382503584805 0)
(24.77190063460469 0.1155052914743504 0)
(24.679537009787 0.2412747797909547 0)
(24.63421140493792 0.3945592612822177 0)
(24.98787356485087 -0.01055583772999959 0)
(24.97236254983283 -0.02426037414697094 0)
(24.95024638798256 -0.04404427961259841 0)
(24.92405035031587 -0.07056255103573825 0)
(24.9014899130475 -0.1010178461362594 0)
(24.88770965450304 -0.131132564179677 0)
(24.88284477674205 -0.1445286459754702 0)
(24.88832586660708 -0.1379829896343496 0)
(24.63263428336422 0.5574781841081848 0)
(24.67445410707661 0.7120285106995845 0)
(24.76091938739697 0.8382289515621594 0)
(24.87668882255899 0.8925738050387513 0)
(24.54953606468751 1.60877720189357 0)
(24.75257555836437 1.65494936777414 0)
(24.94052403562789 1.627186948685844 0)
(25.09323094308344 1.555471159542681 0)
(24.99115118990758 2.905795405710044 0)
(25.17872599951788 2.489601361400115 0)
(25.29112369669381 2.094360456016706 0)
(25.36345119499066 1.778077698619452 0)
(25.42831254243978 1.377473770779231 0)
(25.24434932306625 1.453736424916998 0)
(24.99915762484796 0.9127443454079849 0)
(24.89607370728775 -0.1212271475217158 0)
(24.54802920254224 1.559502910343872 0)
(25.34338360238484 1.289322914080225 0)
(25.14340242058801 0.8617845077215028 0)
(24.90333189964775 -0.09618383731506591 0)
(19.15439194220625 1.728678339598119 0)
(25.15904311330992 1.297222489417441 0)
(25.25814652694998 0.7517661250468215 0)
(24.91621879728423 -0.08053527142411776 0)
(14.12711887776516 2.0959627894217 0)
(23.70232195960165 1.628805861431113 0)
(25.27711739366824 0.7747473522379033 0)
(24.94896290744476 -0.09185172473630564 0)
(24.95453215103538 -0.06679677193082176 0)
(25.21733259005101 0.7182296180578053 0)
(22.05146616390779 2.26936043168211 0)
(12.48983617833753 3.860307947234812 0)
(24.83136442344307 -0.08882990047967569 0)
(24.99459541246546 0.8082461920418439 0)
(20.60598505742755 3.314570314579246 0)
(12.79857033718754 5.640555329050451 0)
(24.78950431363672 -0.1158523254994849 0)
(24.47444443407629 1.156912303536032 0)
(18.82494659885547 4.64949130550973 0)
(12.64751688259095 7.078642873165141 0)
(24.69831353423017 -0.1634678012789766 0)
(23.59933464723534 1.928830381275076 0)
(17.58774438298865 6.058381681099474 0)
(13.13582959026858 8.144174726879305 0)
(14.04754582480027 8.855722355574166 0)
(16.96791262694686 7.293803370989772 0)
(22.43001781901402 3.156649519523837 0)
(24.51831242615476 -0.1864962124965071 0)
(15.13573207765499 9.3932880048278 0)
(17.24087174165398 8.219381744287062 0)
(21.21728132008433 4.641961924668192 0)
(24.19843975812418 -0.07129523158304164 0)
(16.37659218580268 9.684258755722306 0)
(18.11055364321502 8.754312971257798 0)
(20.70754151129584 5.995940599883143 0)
(23.69387218491826 0.2364255206685207 0)
(17.54806525850805 9.756782568927479 0)
(19.39763049399718 8.854122833469342 0)
(20.87608474653268 7.035992026225641 0)
(23.19626366341876 0.7229282615262733 0)
(22.91096832145729 0.8509741245039418 0)
(22.04903278400054 7.091151324174522 0)
(21.12109704104977 8.806649251725883 0)
(18.96386209790146 9.897789986794892 0)
(23.45621171240893 0.6463932933521833 0)
(23.50851182378555 6.648124067920078 0)
(23.10798751651788 8.415241896116013 0)
(20.90706796668265 9.81049344508085 0)
(24.04000163984988 0.3441238424238208 0)
(24.93162679811968 5.875077095095352 0)
(25.19364681537364 7.620150060206129 0)
(23.44736115391978 9.238278255061514 0)
(24.51868803961954 -0.2494372612209391 0)
(26.06333082224224 4.606850816765996 0)
(27.1663909672048 6.226688499014364 0)
(26.40060367743789 7.616390893825952 0)
(24.88419940030398 -0.3075618430041105 0)
(26.92926843978291 3.628092395248123 0)
(29.04980389663231 4.804324757511082 0)
(30.68347268291113 4.759032765517424 0)
(25.30047469301893 -0.498952026210048 0)
(27.49766760480317 2.60174095100813 0)
(30.11086133028363 3.390624247901266 0)
(34.00252452431847 0.7046258988943795 0)
(25.54328049159669 -0.5425604923089359 0)
(27.54997098407946 1.647316120069036 0)
(30.83478993910453 1.256059434623529 0)
(36.34819267141371 -4.253916133440401 0)
(25.65369992115669 -0.5437407640552154 0)
(27.22446643092205 1.022789476178118 0)
(30.3123997579051 -0.310782416474678 0)
(37.77948793015575 -9.25200065169687 0)
(34.01918927515617 -7.328117634398988 0)
(29.13041920005954 -1.417317632552549 0)
(26.94234011759734 0.3554860101186176 0)
(25.69372137219498 -0.5467538261116001 0)
(25.63454535549725 -3.215032083778327 0)
(28.24647497034969 -1.93657387457624 0)
(26.64811989702718 -0.1001464586421767 0)
(25.62906179277162 -0.4720600776409288 0)
(23.08908466999707 -3.61273172488648 0)
(27.75007203704652 -2.841732355285759 0)
(26.39350759779373 -0.5594341782347033 0)
(25.50627445756981 -0.3592952465764058 0)
(19.90315609429236 -3.659488450686012 0)
(26.97783962936364 -3.450134367733362 0)
(26.04931711775092 -0.9532409404076877 0)
(25.38980419471887 -0.2751108065626706 0)
(18.08531529419804 -4.760138899393632 0)
(25.72430394946024 -4.391146141651634 0)
(25.48602490744849 -1.289830304193303 0)
(25.1802225223324 -0.2156737355436444 0)
(15.43327373285454 -6.813592793608922 0)
(24.0865036969078 -4.635068705800336 0)
(24.89652402918252 -1.125744549119882 0)
(25.00123715959141 -0.1079283131030547 0)
(14.37829100539231 -6.976641010029533 0)
(23.0253286493395 -4.048556464745995 0)
(24.6519286891861 -0.7359164734332675 0)
(24.97081059157843 -0.04913648061318697 0)
(14.33664766953582 -5.861267648649136 0)
(22.80033103175694 -3.600490336967709 0)
(24.67303510229184 -0.6014615447777778 0)
(24.9760844632438 -0.03608005563105019 0)
(14.22224452772648 -0.6632500980178241 0)
(20.3430196118666 -0.1132529169497494 0)
(23.64824244585784 0.01057911517571105 0)
(24.85559086338433 0.001982472012436079 0)
(14.20382466453464 -1.755738664524215 0)
(20.33966283903474 -0.5378153507393975 0)
(23.66315586276782 0.000628718413674283 0)
(24.85253399550042 0.004365017101568237 0)
(14.41814071194058 -3.25605885918473 0)
(20.34757601247484 -0.9879243446295659 0)
(23.7024789321148 -0.07176111184343818 0)
(24.85178408619182 0.000250119240219926 0)
(14.46994952061229 -4.649571427511345 0)
(20.55617548784601 -1.352457412511257 0)
(23.80221544077205 -0.1947227986513625 0)
(24.86017072892901 -0.01139092617884881 0)
(14.33664766954318 5.861267648625772 0)
(22.80033103177864 3.600490336959687 0)
(24.67303510242152 0.6014615447310836 0)
(24.97608446335601 0.03608005561168666 0)
(14.37829100538914 6.976641009988186 0)
(23.02532864943926 4.048556464801488 0)
(24.65192868927271 0.7359164734187778 0)
(24.97081059172854 0.04913648065943978 0)
(15.43327373289221 6.813592793626111 0)
(24.08650369692589 4.635068705838604 0)
(24.89652402917235 1.125744549164113 0)
(25.00123715960763 0.1079283131533469 0)
(18.08531529422766 4.76013889939684 0)
(25.72430394960982 4.391146141729105 0)
(25.48602490747234 1.28983030422802 0)
(25.18022252230185 0.2156737355914273 0)
(25.69372137216435 0.5467538260532183 0)
(26.94234011758737 -0.3554860101525856 0)
(29.13041920009524 1.417317632545298 0)
(34.01918927508227 7.328117634527221 0)
(25.62906179278733 0.4720600775898415 0)
(26.64811989703349 0.1001464586348775 0)
(28.2464749704455 1.936573874584488 0)
(25.63454535559358 3.215032083885287 0)
(25.5062744574913 0.3592952465298976 0)
(26.39350759769767 0.5594341782590941 0)
(27.75007203713178 2.841732355418396 0)
(23.08908466991262 3.61273172492779 0)
(25.38980419460225 0.2751108065416807 0)
(26.04931711767002 0.9532409403789815 0)
(26.97783962938082 3.450134367810048 0)
(19.90315609438789 3.659488450719405 0)
(37.77948793012801 9.252000651823167 0)
(30.31239975787138 0.3107824164690439 0)
(27.22446643090235 -1.022789476184003 0)
(25.6536999211203 0.5437407640074472 0)
(36.34819267142488 4.253916133489818 0)
(30.83478993915884 -1.256059434582802 0)
(27.54997098410414 -1.647316120074784 0)
(25.54328049163315 0.5425604923222993 0)
(34.00252452434989 -0.7046258988531519 0)
(30.11086133015136 -3.390624247873963 0)
(27.49766760480238 -2.601740950981968 0)
(25.30047469287263 0.49895202627847 0)
(30.68347268284659 -4.759032765494007 0)
(29.04980389666522 -4.804324757480105 0)
(26.9292684399271 -3.628092395225703 0)
(24.88419940014574 0.3075618430914759 0)
(22.9109683213778 -0.8509741244849914 0)
(22.04903278394234 -7.091151324178704 0)
(21.12109704099972 -8.806649251726201 0)
(18.96386209793039 -9.897789986800612 0)
(23.45621171240395 -0.6463932933080296 0)
(23.50851182379321 -6.648124067915763 0)
(23.10798751644313 -8.415241896088812 0)
(20.90706796672458 -9.810493445095799 0)
(24.040001639891 -0.3441238424036525 0)
(24.93162679814623 -5.875077095104367 0)
(25.19364681531383 -7.620150060173208 0)
(23.44736115391703 -9.238278255048472 0)
(24.5186880395696 0.2494372612904546 0)
(26.06333082232487 -4.606850816745946 0)
(27.16639096724505 -6.226688498988478 0)
(26.40060367739355 -7.616390893808697 0)
(17.54806525853043 -9.756782568934286 0)
(19.39763049405384 -8.854122833506111 0)
(20.87608474649386 -7.035992026223166 0)
(23.19626366329199 -0.7229282615427469 0)
(16.37659218584259 -9.684258755744528 0)
(18.1105536432696 -8.754312971280001 0)
(20.70754151127937 -5.995940599891553 0)
(23.69387218490012 -0.2364255206654119 0)
(15.13573207766507 -9.393288004840995 0)
(17.24087174173763 -8.219381744302021 0)
(21.21728132010993 -4.641961924643785 0)
(24.19843975801552 0.07129523159000056 0)
(14.04754582483293 -8.855722355576992 0)
(16.96791262695548 -7.293803370960026 0)
(22.43001781892706 -3.156649519489839 0)
(24.5183124261505 0.1864962124981634 0)
(24.95453215108586 0.06679677195358721 0)
(25.21733259008638 -0.7182296180324514 0)
(22.05146616391123 -2.269360431693432 0)
(12.48983617839467 -3.860307947245663 0)
(24.83136442335902 0.08882990047798872 0)
(24.99459541246766 -0.8082461919984317 0)
(20.60598505745416 -3.31457031457973 0)
(12.79857033723316 -5.640555329075615 0)
(24.789504313496 0.1158523254929171 0)
(24.47444443392283 -1.156912303470917 0)
(18.82494659892892 -4.649491305491741 0)
(12.6475168826316 -7.078642873177886 0)
(24.69831353418138 0.1634678012821601 0)
(23.59933464720308 -1.928830381194498 0)
(17.58774438307282 -6.058381681082369 0)
(13.13582959027435 -8.144174726878015 0)
(24.94896290742032 0.0918517247501177 0)
(24.91621879732581 0.08053527143676731 0)
(24.90333189956303 0.09618383734468544 0)
(24.89607370727898 0.121227147518078 0)
(25.27711739374658 -0.7747473522393679 0)
(25.25814652701945 -0.7517661250377931 0)
(25.1434024204634 -0.8617845077069699 0)
(24.99915762484442 -0.9127443454243649 0)
(23.70232195970671 -1.628805861450965 0)
(25.15904311334076 -1.297222489422632 0)
(25.34338360245223 -1.289322914093592 0)
(25.24434932309586 -1.453736424909962 0)
(14.12711887784822 -2.095962789427873 0)
(19.1543919422727 -1.728678339593783 0)
(24.54802920247423 -1.55950291031568 0)
(25.42831254243143 -1.377473770753625 0)
(24.88832586655196 0.1379829896415459 0)
(24.87668882247804 -0.8925738050170503 0)
(25.09323094307339 -1.555471159517557 0)
(25.36345119507838 -1.778077698573351 0)
(24.88284477681314 0.1445286459562607 0)
(24.76091938737565 -0.8382289515555129 0)
(24.94052403572756 -1.627186948668927 0)
(25.29112369674854 -2.094360455978005 0)
(24.88770965448846 0.1311325641703434 0)
(24.67445410707188 -0.7120285106475527 0)
(24.75257555834588 -1.654949367781711 0)
(25.17872599957066 -2.489601361399963 0)
(24.90148991310145 0.1010178460553563 0)
(24.63263428342496 -0.5574781840872225 0)
(24.54953606473567 -1.608777201891953 0)
(24.99115118991301 -2.905795405700344 0)
(24.98787356485645 0.01055583764486522 0)
(24.87563963341502 -0.03529382494202649 0)
(24.07885494665056 -0.7464012203472631 0)
(23.38567131291864 -4.323118788945528 0)
(24.97236254983069 0.02426037403099816 0)
(24.77190063467534 -0.1155052914029696 0)
(24.09385389165832 -1.104404450082789 0)
(24.11422102893891 -4.173027209127023 0)
(24.95024638786192 0.04404427958565404 0)
(24.679537009958 -0.2412747797205101 0)
(24.19611340139052 -1.349491876531129 0)
(24.45809533025196 -3.766272373001236 0)
(24.9240503503283 0.07056255096759485 0)
(24.63421140494133 -0.394559261228439 0)
(24.38212982733468 -1.475563835648001 0)
(24.81732734731825 -3.316638689568495 0)
(22.33925359877199 -3.758414541171882 0)
(24.31834316821605 -0.4062595297270691 0)
(24.95441894912909 -0.00891112754854219 0)
(24.99747565922915 0.004522287586474188 0)
(21.88511589298253 -3.317365238230314 0)
(24.46164840634446 -0.2785208999929182 0)
(24.97715005004825 -0.005493432564081737 0)
(24.99925373797066 0.001529079897207377 0)
(21.98732019997539 -2.779775428440601 0)
(24.63017593522318 -0.09839524015252929 0)
(24.99019669904459 0.0003535783004871575 0)
(24.9996066107385 0.0003640909045789107 0)
(21.98166609907681 -2.340710507585006 0)
(24.75585945215673 0.01080217088928666 0)
(24.998018740486 0.0006931111751700801 0)
(24.99988402628937 6.196992179190192e-06 0)
(22.24429609062276 -1.746230775333462 0)
(24.91407692175873 0.06683477920697554 0)
(25.00017477403249 0.001107695319981651 0)
(24.99999314123308 1.184410381279288e-05 0)
(22.26854832701258 -1.335029056839666 0)
(24.9241459948033 -0.01073090862898871 0)
(24.99985588970918 -1.067065638456038e-05 0)
(24.99999953209123 9.298870948059481e-07 0)
(22.69016791482577 -0.6348517092981169 0)
(24.95164257073363 0.006360525025068132 0)
(24.99996304580434 1.867029684050645e-05 0)
(24.99999998004261 -8.823522335681729e-09 0)
(23.40263653656887 0.09542144229174836 0)
(24.97171045108515 0.01019843549986066 0)
(24.9999937679888 4.448802767038977e-06 0)
(25.00000001114298 4.117385231043077e-09 0)
(25.00000000000002 5.955271155123462e-12 0)
(24.99999998201898 1.215831354876005e-08 0)
(24.9982902013039 0.000555401390618687 0)
(24.7173600067174 -0.00762475943355633 0)
(24.99999999997173 4.182570188182822e-11 0)
(24.99999994453042 7.037739218105331e-08 0)
(24.99747952817173 0.001722110965233612 0)
(24.63269314303787 0.1593361184839918 0)
(24.99999999962681 2.565005881296073e-10 0)
(24.99999976109916 2.871995412993965e-07 0)
(24.99514546252526 0.003584520431281568 0)
(24.51359847124192 0.2644846150331394 0)
(24.99999999828481 -1.026269687310783e-09 0)
(24.99999881823999 1.167894622892056e-06 0)
(24.98908565643061 0.007016856268243925 0)
(24.13724107688039 0.4137218455182244 0)
(24.52527126797118 1.098663404834344e-10 0)
(24.35979289679659 0.1495549214288927 0)
(23.97404369639167 0.1736328083760051 0)
(23.03854917910231 0.01871668241803124 0)
(24.35979289701341 -0.1495549212119961 0)
(24.08843311003765 4.09676584450946e-11 0)
(23.4095716310804 -0.06031097962578267 0)
(21.96066359301736 -0.4863803903749967 0)
(23.97404369683457 -0.1736328082830802 0)
(23.40957163144947 0.0603109797017782 0)
(22.12861678150099 6.328966858811553e-11 0)
(20.03095963665401 -0.5819753920122647 0)
(23.0385491794735 -0.01871668243862743 0)
(21.9606635936058 0.4863803903180404 0)
(20.03095963690766 0.5819753919652692 0)
(17.78918789607687 -2.400780197133513e-10 0)
(17.25878537824272 2.521584557591476 0)
(17.89935144276843 2.917349423626389 0)
(19.54339579275258 2.655843874893903 0)
(21.08693598890614 1.887816013933449 0)
(18.24491085523914 4.246787829498051 0)
(18.30812541709042 4.203002349408718 0)
(19.0406587480141 4.114780856427656 0)
(20.0739768920641 3.952547062716141 0)
(17.68385723181373 5.193200018878374 0)
(18.85057479813785 4.491073032158658 0)
(19.52792330466651 4.691878810592825 0)
(20.05233534236826 4.563749700440989 0)
(18.33525242996603 5.754218756281293 0)
(19.7055556712845 4.717193539481039 0)
(20.20571563818013 4.891232298815271 0)
(20.49069999362002 4.80557392278594 0)
(20.79096446088055 4.93270540110259 0)
(21.02925730584864 5.061730883816749 0)
(21.40435105196493 5.120578702249336 0)
(22.16084871668453 5.280348218499193 0)
(20.72900217011728 4.994246827562901 0)
(21.03868909591483 5.101569359776706 0)
(21.53836723887436 5.117412536440213 0)
(22.65128592742206 5.50067120431602 0)
(20.4728467795894 4.931258496099337 0)
(20.97343812008497 5.105922194825474 0)
(21.55536531354095 5.158190001660295 0)
(24.10136874612328 5.943006712989185 0)
(18.97616741309978 5.851119240178511 0)
(19.59932899653244 5.875946607120225 0)
(20.50317360307775 5.73475722996141 0)
(25.83118869046398 7.125897464183568 0)
(25.81525265852953 3.18758204140602 0)
(26.40945077718776 0.8090350439870678 0)
(25.72185568987259 0.4870793741071525 0)
(25.5950979172751 0.3820585579966187 0)
(28.37610517330664 2.198782571992983 0)
(28.69592339092473 0.3397478255579401 0)
(27.56801992459029 0.2832497459373727 0)
(26.89269662777447 0.3137577951665125 0)
(31.54901922462162 1.904715608539814 0)
(30.14995170628284 0.04577675786885432 0)
(28.75773869732653 0.05144593079321089 0)
(27.7793323659348 0.09386621150533536 0)
(25.0799064467487 1.987932691302497 0)
(24.21747568497393 0.6522736165777531 0)
(24.07232499070581 0.08970165165913918 0)
(24.15978705000047 -0.2164447395476554 0)
(25.66543087493554 0.3867733580211964 0)
(25.71344364456058 0.3198128809281657 0)
(25.70095995590042 0.20513698219851 0)
(25.65343662512728 0.1716673822176101 0)
(26.53712694419821 0.3417375433853513 0)
(26.22460540677025 0.2915140595965068 0)
(25.94663782559579 0.1915939145446345 0)
(25.72127759021212 0.1306861402616545 0)
(27.15030562213151 0.1478463772650976 0)
(26.59225244987037 0.1471934635137762 0)
(26.09881460636112 0.09830273930939594 0)
(25.66598855518182 0.0851412619363219 0)
(24.13124458329923 -0.4622504541613216 0)
(23.90332560047712 -0.6207341395376816 0)
(23.70232803051495 -0.7154386297359788 0)
(23.36994869708493 -0.6662491805698346 0)
(25.20552392781604 0.7717325517978418 0)
(20.09237247316455 5.098313889660299 0)
(13.71992313063466 3.924516688308844 0)
(9.345200738694874 1.059319909644599 0)
(24.6275870075889 1.255385416097532 0)
(16.07221468995881 4.951630213900857 0)
(8.863779137605956 2.740810167536736 0)
(4.471025170105798 -0.176440663187326 0)
(23.43565659388921 1.295065520077776 0)
(11.69327922052752 3.634463075834789 0)
(3.139638657976199 2.029122525881194 0)
(-0.7690345955701449 0.2418312302869274 0)
(19.41392370895383 -0.7286218967042467 0)
(7.302778491622802 -0.7957810376617145 0)
(0.2337022861175957 0.5430039828744256 0)
(-2.595592547278884 0.1743936624291169 0)
(8.56914996434765 2.693894896904737 0)
(10.58536441900785 4.559499909876298 0)
(11.49761338592862 6.280353353690331 0)
(12.44952523709108 7.625635250301524 0)
(6.136677656649328 1.993685501667598 0)
(9.511369892855202 4.411050743705199 0)
(11.20129037548036 6.226228471505776 0)
(12.40431770289046 7.672156815776009 0)
(2.933309504009072 0.01197839527891985 0)
(7.442479991903502 3.331963088687447 0)
(10.2671434329891 6.036195117799516 0)
(12.02123268902945 7.596918235260524 0)
(0.2395592146026738 -0.106257884888637 0)
(3.470283686381635 2.475984945523357 0)
(7.538050345597542 3.97618794478395 0)
(10.63465959727649 5.463978254869883 0)
(13.63849046468267 8.986494432351391 0)
(14.77053640364224 10.00815491649414 0)
(15.91945296821301 10.56578343745756 0)
(16.813529788138 10.85599126885838 0)
(13.55816596614127 8.921004400776331 0)
(14.71383489527067 9.954781847605441 0)
(15.8239688691453 10.54167005561631 0)
(16.69639743708496 10.88141881286998 0)
(13.23585678405081 8.76417557902842 0)
(14.51737971335568 9.775719409484985 0)
(15.74209154009427 10.47462215366152 0)
(16.62306761800578 10.96197706285894 0)
(13.11738712528647 6.748232334547839 0)
(14.67205478343853 8.448528331072296 0)
(15.76611483057388 10.30179470267312 0)
(16.6456542662288 10.93921131016676 0)
(17.82791888959234 11.27568371599887 0)
(19.42337449303605 11.76984752183322 0)
(21.77504943738851 11.69323108573129 0)
(24.77798110280882 10.4209668473293 0)
(17.62277767701004 11.27976189994342 0)
(19.0749211428358 11.72985120370328 0)
(21.2115366611119 11.74952431079248 0)
(24.97582697499449 12.47347889253779 0)
(17.47369923403407 11.36885530792328 0)
(18.72297026224921 11.78345864240316 0)
(21.34547235179812 12.58553908727898 0)
(31.48515985718883 18.45884343468699 0)
(17.43734910913951 11.39312000030713 0)
(18.64011543726163 11.7921088538092 0)
(22.0680682496819 13.17483840009925 0)
(43.24394622571153 25.51574023179155 0)
(30.59388268833618 5.261215890787109 0)
(32.0381301842835 -3.582409192749084 0)
(12.65433651374814 8.691216652141637 0)
(7.857681543362224 30.84084381514307 0)
(32.23135625300137 4.900234406560352 0)
(26.46681796014249 -1.952400461931494 0)
(8.976509318379192 17.41678134714211 0)
(8.448169831562872 29.02686483920736 0)
(31.97401233262223 3.292520008584136 0)
(17.208483069443 -4.302878581917661 0)
(3.828893628624792 21.3288809752617 0)
(4.612010349969037 29.02659313265616 0)
(20.30819314176114 -8.299019812641683 0)
(7.328073004654506 -0.5716313684285289 0)
(2.088263183770466 24.81810210792478 0)
(2.648163132674085 28.73396766658355 0)
(7.017427232246562 24.62071209828202 0)
(2.699594838116357 17.69715778841673 0)
(-0.7733982595748371 14.8715578849932 0)
(-2.833089578494643 9.937955152950508 0)
(6.712212932978868 23.572493686363 0)
(1.915090768962733 19.24747804408571 0)
(-0.4568043696096677 14.98172160590755 0)
(-1.253574758842322 7.687183868973369 0)
(3.278217293177608 22.61477044600217 0)
(1.430419598113686 18.10668397267427 0)
(-0.3153820255488291 12.35862250839272 0)
(-0.8159269974298249 4.900439671285088 0)
(0.7861807097967436 22.03876426743189 0)
(-0.4547188814541635 17.36658032727653 0)
(-1.909241156106553 10.96804994750275 0)
(-1.738862971992755 3.285192611608197 0)
(-6.073837262328436 3.28975514118578 0)
(-2.016750006154806 0.2621840842887451 0)
(2.428965930448263 -2.420475381251168 0)
(4.456982311336992 -6.632190015205798 0)
(-6.812465446594913 3.051138343306197 0)
(-5.955787139826992 0.3487726893849292 0)
(-1.266792891908706 -0.7973305106143286 0)
(2.679121099074728 -5.575480935883647 0)
(-6.212921538649329 2.126705711692802 0)
(-7.806445707013316 0.6687360938083844 0)
(-4.517950622498518 0.3046723342089291 0)
(0.03240406424980664 -4.086206817564932 0)
(-4.585761626666997 2.184289904773725 0)
(-7.136664135099704 2.66860953131701 0)
(-5.229535987428477 3.072722311060374 0)
(-0.6499907445452404 -1.052224983010527 0)
(2.361364898651632 -6.935600093814949 0)
(2.293276104678577 -7.541104529959902 0)
(3.15691042719568 -7.215753823844516 0)
(4.462967894240566 -6.469122571480177 0)
(1.465742504380394 -6.803502092779816 0)
(1.926623629590176 -6.275223092017979 0)
(3.127021313636641 -5.840664622190821 0)
(3.899664667603224 -4.924348553218042 0)
(0.4567221768038456 -4.750743360268394 0)
(0.6584874412518686 -3.491291070856572 0)
(1.655324190147968 -3.003638750095381 0)
(2.137333726923669 -1.923649951171154 0)
(1.65884717512189 -1.986304465104358 0)
(1.311079377771187 -0.7524851093541473 0)
(1.877022555479426 -0.3122920471740642 0)
(1.653193384222513 0.6367054453156257 0)
(0.7800812307766698 1.147311850686384 0)
(-0.03298708614742041 1.284708781914605 0)
(-0.6587038440532613 0.968281995049196 0)
(-0.9812961151135385 0.3366270529494282 0)
(1.586996393653437 -0.980429527743544 0)
(0.5863065125724536 -0.4815281388811141 0)
(-0.2570286794906662 -0.0572333863054658 0)
(-0.6750549637200827 -0.02422227606996928 0)
(3.363726064536345 -3.805960826283711 0)
(2.444041828286849 -2.796829136064492 0)
(1.33801581450516 -1.704862902985129 0)
(0.6067203216057334 -0.6385136113182809 0)
(5.106994294904124 -4.816644059808314 0)
(4.969838057637661 -3.302368609415399 0)
(4.187851737496926 -2.021999917100445 0)
(3.720937547559841 -0.7293594098759469 0)
(-0.9812961151158276 -0.3366270529265425 0)
(-0.6750549637201233 0.02422227607974875 0)
(0.6067203216059633 0.6385136113129415 0)
(3.720937547561148 0.7293594098564508 0)
(-0.6587038440575201 -0.9682819950302611 0)
(-0.2570286794915737 0.057233386314991 0)
(1.338015814509685 1.704862902982756 0)
(4.187851737524602 2.021999917081161 0)
(-0.03298708615123331 -1.284708781901136 0)
(0.5863065125710949 0.4815281388883615 0)
(2.444041828285488 2.796829136061818 0)
(4.969838057658555 3.302368609416601 0)
(0.7800812307739209 -1.147311850675271 0)
(1.586996393655935 0.9804295277486095 0)
(3.363726064525452 3.805960826284164 0)
(5.106994294908548 4.816644059818548 0)
(4.462967894219027 6.469122571450355 0)
(3.156910427197782 7.215753823831481 0)
(2.293276104681053 7.541104529947495 0)
(2.36136489866549 6.935600093799197 0)
(3.899664667603139 4.924348553218378 0)
(3.127021313645485 5.840664622184525 0)
(1.926623629606846 6.275223092011812 0)
(1.46574250440107 6.803502092765348 0)
(2.137333726923694 1.923649951168113 0)
(1.65532419015022 3.003638750085913 0)
(0.6584874412629818 3.491291070858124 0)
(0.4567221768175125 4.750743360262384 0)
(1.653193384223605 -0.6367054453114318 0)
(1.877022555487073 0.312292047178422 0)
(1.311079377780079 0.7524851093610661 0)
(1.658847175130503 1.986304465112267 0)
(-0.649990744527782 1.052224983012842 0)
(-5.229535987390414 -3.072722311031474 0)
(-7.136664135063048 -2.668609531286068 0)
(-4.585761626639611 -2.184289904765247 0)
(0.03240406426512071 4.086206817562906 0)
(-4.517950622479715 -0.3046723341866196 0)
(-7.806445706956439 -0.6687360937910122 0)
(-6.212921538579576 -2.126705711660233 0)
(2.679121099087973 5.575480935875175 0)
(-1.266792891876953 0.7973305106386676 0)
(-5.955787139756109 -0.3487726893591446 0)
(-6.812465446541906 -3.051138343254055 0)
(4.456982311349719 6.632190015200877 0)
(2.428965930472552 2.420475381272574 0)
(-2.016750006069687 -0.2621840842679604 0)
(-6.073837262222918 -3.289755141112743 0)
(-2.833089578487971 -9.937955152835523 0)
(-0.7733982596324545 -14.87155788499373 0)
(2.699594838153411 -17.69715778867257 0)
(7.017427231968028 -24.62071209837316 0)
(-1.253574758838051 -7.68718386890948 0)
(-0.4568043696206029 -14.98172160587739 0)
(1.915090769051544 -19.24747804417098 0)
(6.712212933008639 -23.57249368634994 0)
(-0.8159269974314226 -4.900439671260241 0)
(-0.315382025553227 -12.35862250835713 0)
(1.430419598140269 -18.10668397271974 0)
(3.278217293194921 -22.61477044600911 0)
(-1.738862971987465 -3.285192611615536 0)
(-1.909241156114352 -10.96804994752989 0)
(-0.4547188814554181 -17.366580327276 0)
(0.7861807098062674 -22.03876426743119 0)
(7.857681542994028 -30.84084381514847 0)
(12.6543365134782 -8.691216652445958 0)
(32.03813018426003 3.582409192800148 0)
(30.59388268838424 -5.26121589078044 0)
(8.448169831409517 -29.02686483919855 0)
(8.976509318330466 -17.41678134735268 0)
(26.46681796020587 1.952400461908259 0)
(32.23135625292585 -4.900234406530427 0)
(4.612010349983568 -29.0265931327184 0)
(3.82889362857182 -21.32888097538028 0)
(17.20848306938026 4.302878581857369 0)
(31.97401233253828 -3.292520008570568 0)
(2.648163132680024 -28.73396766665752 0)
(2.088263183749315 -24.81810210805858 0)
(7.328073004677981 0.5716313683642874 0)
(20.30819314174996 8.299019812613489 0)
(24.77798110279693 -10.42096684730892 0)
(21.77504943735813 -11.69323108569534 0)
(19.42337449308617 -11.76984752183695 0)
(17.82791888956086 -11.27568371597577 0)
(24.9758269750351 -12.47347889254533 0)
(21.2115366611694 -11.7495243108017 0)
(19.07492114283388 -11.72985120368568 0)
(17.62277767707226 -11.27976189997415 0)
(31.48515985710954 -18.45884343463027 0)