/*--------------------------------*- C++ -*----------------------------------*\
  =========                 |
  \\      /  F ield         | OpenFOAM: The Open Source CFD Toolbox
   \\    /   O peration     | Website:  https://openfoam.org
    \\  /    A nd           | Version:  11
     \\/     M anipulation  |
\*---------------------------------------------------------------------------*/
FoamFile
{
    format      ascii;
    class       volScalarField;
    location    "4.8";
    object      p;
}
// * * * * * * * * * * * * * * * * * * * * * * * * * * * * * * * * * * * * * //

dimensions      [0 2 -2 0 0 0 0];

internalField   nonuniform List<scalar> 
5472
(
97.91936
95.59872
93.271246
90.981278
88.71991
86.482808
84.328695
82.257906
80.27936
78.41341
76.652148
75.026716
73.513288
72.154926
70.953515
69.893784
69.090453
68.456029
67.9764
98.661084
96.510359
94.342838
92.183309
90.026185
87.883494
85.806603
83.794665
81.857122
80.017125
78.280097
76.661859
75.151946
73.798037
72.593409
71.537399
70.718927
70.002285
69.500502
99.338597
97.378428
95.379543
93.344886
91.295644
89.257872
87.257826
85.297591
83.425501
81.601361
79.881654
78.264008
76.767186
75.416579
74.202203
73.165799
72.307753
71.592935
71.100094
99.9458
98.168138
96.327583
94.435436
92.506406
90.555589
88.641821
86.762432
84.929007
83.15388
81.467172
79.85279
78.362081
77.008773
75.795995
74.75097
73.875306
73.178246
72.660534
100.51841
98.893814
97.183367
95.427817
93.612236
91.773284
89.9391
88.126261
86.362202
84.634477
82.979587
81.394486
79.911666
78.569257
77.35499
76.316724
75.444081
74.742251
74.219751
101.02395
99.529257
97.954493
96.333151
94.646608
92.917742
91.166389
89.446698
87.75017
86.060734
84.431165
82.87257
81.419664
80.087367
78.8846
77.857941
76.979079
76.291454
75.778375
101.45104
100.07696
98.642603
97.149354
95.576059
93.955853
92.307013
90.677627
89.04774
87.423058
85.83102
84.303955
82.874349
81.561967
80.382127
79.358079
78.483082
77.784241
77.248824
101.83502
100.56956
99.250585
97.864264
96.414932
94.91871
93.372664
91.815558
90.256095
88.711868
87.173148
85.684419
84.275667
82.979028
81.821738
80.816629
79.958806
79.283108
78.768817
102.136
101.01064
99.822669
98.530194
97.182269
95.786938
94.350889
92.882425
91.392206
89.908079
88.425684
86.996993
85.627224
84.356042
83.219065
82.214643
81.365581
80.69474
80.182838
102.38681
101.37465
100.29547
99.119839
97.883737
96.574293
95.241939
93.875658
92.473413
91.04453
89.617972
88.231135
86.896087
85.674956
84.570259
83.587137
82.755816
82.085816
81.580743
102.65008
101.73553
100.73057
99.641162
98.49757
97.289715
96.049783
94.766558
93.454215
92.097636
90.747838
89.406248
88.119087
86.927533
85.841303
84.888226
84.075842
83.418968
82.925018
102.84619
102.0218
101.11965
100.14263
99.071135
97.951186
96.804839
95.607929
94.363105
93.068223
91.783833
90.511847
89.279763
88.118436
87.072515
86.139183
85.344911
84.701375
84.214526
103.03321
102.26857
101.43728
100.53728
99.565745
98.551566
97.481801
96.365933
95.197228
93.987978
92.760992
91.545493
90.367544
89.246855
88.233522
87.318079
86.549852
85.923422
85.454429
103.18123
102.50712
101.76247
100.92641
100.02382
99.07863
98.084404
97.052252
95.952289
94.810955
93.648535
92.499928
91.376678
90.311545
89.332632
88.446746
87.696303
87.079979
86.625675
103.30868
102.67031
102.00241
101.26298
100.44277
99.560489
98.641484
97.684658
96.666725
95.594273
94.484642
93.389823
92.313753
91.29935
90.356214
89.507184
88.784328
88.193739
87.750592
103.43694
102.87549
102.24825
101.55072
100.8038
99.989764
99.137316
98.240516
97.290672
96.287456
95.251945
94.212164
93.19362
92.218979
91.304976
90.48952
89.781419
89.220323
88.802542
103.51951
103.02236
102.45433
101.82025
101.13148
100.38916
99.604145
98.761258
97.866329
96.920633
95.951571
94.969328
94.011906
93.079537
92.206836
91.418323
90.734599
90.187656
89.778551
103.63803
103.17313
102.64698
102.06246
101.42095
100.73778
100.01262
99.229405
98.388015
97.499649
96.583062
95.657613
94.747931
93.859432
93.027015
92.266534
91.618736
91.094036
90.702386
103.72242
103.31018
102.83544
102.29579
101.69594
101.06108
100.38806
99.659179
98.87136
98.034367
97.166098
96.292172
95.425083
94.58001
93.777148
93.045085
92.414858
91.913001
91.5459
103.81764
103.43848
103.00015
102.49792
101.94527
101.35244
100.71894
100.03787
99.301323
98.516142
97.698187
96.87019
96.044535
95.235522
94.470528
93.776028
93.15892
92.658657
92.298637
103.91361
103.57686
103.1753
102.71122
102.19853
101.64022
101.03971
100.39413
99.693943
98.950382
98.176533
97.382821
96.592037
95.815585
95.079616
94.421718
93.850124
93.38146
93.020703
103.99357
103.6888
103.32524
102.89723
102.41977
101.90332
101.34381
100.73373
100.06692
99.358978
98.622301
97.866745
97.102684
96.337356
95.608669
94.941413
94.366515
93.919862
93.594493
104.10778
103.8344
103.49955
103.10127
102.6513
102.15739
101.62094
101.03854
100.4066
99.73149
99.021526
98.302091
97.586868
96.874424
96.194766
95.566328
94.999856
94.529815
94.171011
104.18197
103.95458
103.66277
103.30986
102.89915
102.43659
101.92286
101.35584
100.73308
100.05854
99.346955
98.611827
97.875564
97.148186
96.457906
95.832678
95.30464
94.890301
94.572397
104.27094
104.07505
103.82017
103.50562
103.13257
102.70964
102.24018
101.72315
101.15381
100.53228
99.865979
99.171609
98.460028
97.74477
97.052376
96.392621
95.806824
95.327734
94.970494
104.35032
104.20558
103.99702
103.71313
103.35668
102.93191
102.44515
101.8997
101.29881
100.65321
99.96455
99.248295
98.519251
97.801232
97.113186
96.48742
95.954999
95.514794
95.184268
104.39376
104.33692
104.21848
104.03483
103.78105
103.4537
103.04859
102.56614
102.01164
101.38592
100.69978
99.965478
99.192439
98.40469
97.621978
96.891268
96.249371
95.727044
95.368555
67.699717
67.480175
67.478126
67.726692
68.065114
68.620496
69.305482
69.993827
70.863337
71.729788
72.725622
73.743946
74.841227
75.961029
77.096296
78.237425
79.36563
80.397448
81.353093
69.140662
69.001325
69.138468
69.391779
69.831987
70.495009
71.234568
72.111749
73.102512
74.148873
75.314794
76.512309
77.766877
79.014739
80.300355
81.57448
82.818863
83.958989
85.041991
70.732636
70.636765
70.757428
71.061607
71.621273
72.334927
73.197988
74.23716
75.335676
76.549634
77.856281
79.210458
80.586649
81.981534
83.375043
84.77097
86.095391
87.389547
88.57472
72.308355
72.211832
72.343079
72.736117
73.37311
74.168888
75.178202
76.31701
77.541617
78.896918
80.308045
81.769612
83.247223
84.73181
86.223169
87.700286
89.133712
90.534558
91.851532
73.835494
73.759369
73.930582
74.39488
75.102429
76.003998
77.119867
78.34707
79.694684
81.138484
82.64605
84.200559
85.750763
87.311074
88.871317
90.417123
91.93175
93.411405
94.847279
75.4161
75.327105
75.515214
76.048365
76.811621
77.817005
79.000316
80.339328
81.790068
83.317216
84.901234
86.510273
88.120714
89.741827
91.354526
92.949603
94.504989
96.034853
97.489062
76.870099
76.803891
77.067983
77.643598
78.486365
79.587103
80.841624
82.281597
83.788903
85.391854
87.024774
88.683258
90.344236
91.995214
93.629628
95.231178
96.775809
98.28684
99.683199
78.404094
78.333001
78.608305
79.227959
80.137599
81.30492
82.642429
84.142777
85.712471
87.369783
89.037203
90.734474
92.406705
94.060395
95.674695
97.229286
98.714534
100.12955
101.39016
79.80698
79.737344
80.08914
80.742901
81.737996
82.962757
84.364866
85.911533
87.532104
89.220291
90.912682
92.609391
94.262159
95.879435
97.419552
98.888232
100.25106
101.48248
102.54735
81.209686
81.189512
81.550585
82.243732
83.300169
84.552728
86.024183
87.594281
89.263707
90.962497
92.645652
94.314191
95.915841
97.450344
98.882885
100.2087
101.37017
102.3939
103.23411
82.561242
82.556905
82.933428
83.691096
84.774705
86.074034
87.587122
89.178519
90.872151
92.535712
94.203425
95.806181
97.322653
98.745513
100.02989
101.17147
102.14275
102.9502
103.56416
83.85468
83.870785
84.28328
85.07628
86.174895
87.529312
89.060249
90.676475
92.346637
93.976079
95.591199
97.090747
98.501423
99.776994
100.89866
101.86007
102.64476
103.27764
103.76643
85.100462
85.140603
85.577871
86.389005
87.509991
88.904237
90.429797
92.041383
93.668848
95.251963
96.774941
98.167987
99.460375
100.57736
101.53747
102.32075
102.95909
103.47798
103.86875
86.287138
86.346586
86.791841
87.621132
88.774932
90.187051
91.696181
93.290964
94.857918
96.366114
97.781243
99.060856
100.20766
101.16671
101.98015
102.60377
103.12482
103.5098
103.77202
87.413361
87.476953
87.938634
88.791065
89.965642
91.365706
92.855215
94.408047
95.895899
97.321159
98.627116
99.780995
100.77386
101.59093
102.24797
102.71897
103.09389
103.28904
103.38373
88.482199
88.539833
89.019744
89.888724
91.067149
92.439501
93.907974
95.392183
96.795936
98.126339
99.302839
100.31932
101.16311
101.83835
102.32765
102.65219
102.85535
102.89423
102.82002
89.46966
89.531808
90.038978
90.903278
92.072912
93.425981
94.865222
96.252905
97.575275
98.796923
99.840297
100.72436
101.42179
101.94612
102.27707
102.47221
102.54524
102.52103
102.42436
90.389266
90.46385
90.974905
91.824223
92.983188
94.297718
95.647773
96.977597
98.219444
99.320214
100.23363
100.98912
101.55118
101.93881
102.16389
102.29339
102.33001
102.33197
102.34479
91.239785
91.325154
91.818646
92.676395
93.826807
95.093734
96.397093
97.636909
98.780851
99.755002
100.5496
101.17844
101.62665
101.91891
102.10234
102.2291
102.30943
102.39823
102.50084
92.012113
92.092125
92.579663
93.435274
94.543901
95.778332
97.00886
98.171165
99.209397
100.07387
100.77702
101.30573
101.68292
101.93106
102.11193
102.27478
102.41143
102.55684
102.6928
92.720221
92.799317
93.293802
94.142391
95.235927
96.441743
97.575636
98.652365
99.590792
100.36969
100.99478
101.44191
101.77417
102.01155
102.21304
102.40556
102.56654
102.73098
102.86435
93.321064
93.401502
93.885592
94.707916
95.761864
96.852969
97.996711
99.027261
99.904184
100.62136
101.17458
101.57726
101.89396
102.13922
102.36408
102.56023
102.71966
102.85027
102.90803
93.873872
93.964645
94.454434
95.300909
96.342728
97.444224
98.493808
99.443088
100.25114
100.88718
101.37739
101.75847
102.04649
102.28854
102.49364
102.6239
102.71082
102.73529
102.65701
94.301342
94.382304
94.861572
95.679528
96.688874
97.751538
98.802282
99.729371
100.49162
101.09671
101.57972
101.95786
102.24213
102.45466
102.57112
102.61308
102.58389
102.42344
102.17902
94.687001
94.786986
95.326486
96.216512
97.267424
98.338647
99.312703
100.17257
100.87562
101.42136
101.82445
102.11406
102.29888
102.38778
102.3933
102.31995
102.12846
101.84751
101.55951
94.913721
95.007441
95.532362
96.385269
97.408233
98.465872
99.500563
100.38694
101.08324
101.61861
102.00697
102.26313
102.40496
102.43327
102.33778
102.11592
101.79052
101.42287
101.03556
95.082331
95.23984
95.920831
96.954397
98.115548
99.24892
100.22367
101.00961
101.58586
101.96236
102.18307
102.27438
102.21594
102.0415
101.77148
101.43727
101.08667
100.74336
100.44719
82.247435
83.0017
83.629323
84.14609
84.427393
84.551908
84.568206
84.24368
83.586051
82.859698
81.661854
79.827094
77.992761
76.034223
73.504122
71.039719
68.683453
66.745181
66.040974
85.994847
86.802514
87.430588
87.989198
88.32194
88.574262
88.697908
88.585834
88.195027
87.451024
86.37201
84.816226
82.752302
80.266281
77.436057
74.384591
71.06011
68.073989
65.49179
89.679136
90.552193
91.258565
91.871977
92.242602
92.596823
92.867725
92.835403
92.50311
91.893764
90.755165
88.840011
86.638589
83.831921
80.085828
75.708545
71.023308
66.293235
61.393207
93.088224
94.047294
94.852949
95.433462
95.924307
96.391554
96.718312
96.813012
96.528942
95.786055
94.422308
92.522835
89.957002
86.093426
81.209631
75.594253
69.063066
61.461081
53.081482
96.15141
97.189739
97.943153
98.555801
99.123833
99.658768
100.08716
100.21014
99.914044
99.19625
97.79679
95.656646
92.296642
87.496716
81.474163
74.103407
65.154111
54.453089
42.093235
98.806868
99.811345
100.52256
101.17105
101.79161
102.43965
102.88768
103.07279
102.91123
102.20754
100.74848
98.138495
93.957754
88.621635
82.720327
75.666606
66.869752
56.467214
44.306751
100.9489
101.8565
102.54646
103.21133
103.91597
104.58879
105.09655
105.36627
105.18249
104.44503
102.94713
100.02752
95.6702
90.779966
85.331083
79.098231
71.910766
63.768311
54.831489
102.50399
103.28649
103.93945
104.57354
105.25752
105.86852
106.34281
106.52347
106.29299
105.57609
104.17262
101.70752
98.121888
94.059179
89.426632
84.356677
78.776572
72.764803
66.768717
103.44451
104.08828
104.63871
105.15803
105.71584
106.15233
106.46242
106.52957
106.3091
105.78969
104.87693
103.18686
100.5627
97.312383
93.510415
89.379572
85.228934
81.112552
77.166598
103.88811
104.40764
104.82242
105.21511
105.59924
105.85945
106.02406
106.02719
105.99587
105.7267
104.94974
103.49928
101.32315
98.601178
95.635969
92.410738
89.241177
86.573895
84.540636
104.09451
104.513
104.83154
105.15918
105.44026
105.63482
105.71981
105.70043
105.62726
105.1613
104.13799
102.35311
100.04458
97.34212
94.704207
92.34064
90.089982
88.136821
86.876624
104.21187
104.5341
104.79001
105.04541
105.20793
105.22213
104.97104
104.68942
104.41047
103.4613
101.61227
99.072089
96.122831
93.112914
90.406656
88.477428
87.287339
86.650617
86.580105
104.2168
104.4587
104.68175
104.85597
104.83573
104.59143
103.93284
102.92413
101.02491
98.573812
95.602275
92.053871
88.353997
84.93657
82.543376
81.297981
81.045734
81.760761
83.392087
103.96665
104.13582
104.37834
104.50418
104.4427
104.11655
103.16625
101.5359
97.705417
92.760638
87.66348
82.112347
76.807622
72.419298
68.779125
66.470207
66.956085
69.705278
73.766712
103.31805
103.41493
103.57996
103.6144
103.47391
103.08476
102.3035
101.00235
98.154806
92.924042
84.755735
75.487758
65.483239
56.080207
47.856957
42.22569
41.428831
45.831992
54.200077
102.56459
102.54264
102.53446
102.33485
101.88214
101.10692
99.864522
97.936414
94.611577
89.131069
81.645141
72.77677
63.299455
54.465733
47.94091
44.299079
44.939639
50.246744
58.843784
102.19883
102.14905
102.06256
101.80275
101.36084
100.67714
99.708097
98.299359
96.267468
93.286132
89.219933
84.327559
79.028475
73.730251
69.468681
66.862325
66.29883
68.273641
72.386484
102.3081
102.33391
102.27404
102.14496
101.88391
101.52039
101.0359
100.31057
99.329696
97.964884
96.122767
93.830151
91.148363
88.308005
85.615585
83.230268
81.667281
81.613807
82.748423
102.62916
102.728
102.73759
102.69327
102.59672
102.46579
102.28593
101.92648
101.4352
100.74869
99.761875
98.505126
96.951224
95.143399
93.202035
91.343013
89.93397
88.850413
88.075408
102.93175
103.11981
103.1904
103.20636
103.28482
103.35172
103.36425
103.25363
103.04661
102.65043
102.06083
101.21029
100.09927
98.815636
97.324133
95.522098
93.544909
91.45493
89.268524
103.11353
103.26917
103.35029
103.49597
103.666
103.84811
103.91371
103.95381
104.07291
103.73251
102.58811
101.43904
100.68874
99.504481
97.442907
94.609254
91.078412
86.970565
82.923287
103.03387
103.13372
103.25447
103.44499
103.60839
103.75635
103.88753
103.86042
103.67923
103.308
103.00084
102.55168
101.77836
100.43585
98.448183
95.881964
92.653549
88.894621
84.918756
102.57545
102.65273
102.84779
103.00708
103.15514
103.24674
103.38842
103.33321
103.24272
102.85801
101.7269
100.92789
100.09446
98.740069
97.230155
95.56753
93.796149
92.066425
90.557388
101.91399
101.97234
102.10478
102.20647
102.3029
102.32949
102.35441
102.23156
102.04646
101.86286
100.39812
97.916192
95.672542
94.14556
93.176774
92.703331
92.70216
93.149153
94.048536
101.25722
101.25329
101.29795
101.33432
101.32437
101.29352
101.27958
101.21259
100.9781
100.37639
99.471468
98.667539
97.600388
96.199439
94.501631
92.590312
92.053445
92.218703
92.999772
100.69568
100.59236
100.54479
100.47735
100.36537
100.24188
100.08302
99.861952
99.651426
99.325137
98.593695
97.664357
96.360179
94.808991
93.458154
92.616649
92.582938
93.299372
94.55735
100.23151
100.22113
100.18632
100.10981
100.00232
99.86381
99.696756
99.468269
99.122163
98.628224
97.945687
97.073908
96.525837
96.567186
96.787008
97.096364
97.498758
97.989647
98.568263
66.655312
68.498079
71.781402
76.865588
83.59833
91.703654
100.73213
109.23153
116.60061
122.0258
125.11667
125.90108
123.05715
120.19529
117.20779
114.33234
111.67626
109.14478
106.80815
63.587761
63.312787
65.036603
68.567738
74.067909
81.53111
90.555399
99.741578
108.17511
115.14207
120.2421
123.13977
122.33669
120.04395
117.42703
114.87901
112.47976
110.24505
108.17935
57.080322
54.18794
53.207137
54.826568
59.189283
65.919795
75.259121
86.06098
96.213922
104.91314
112.03786
116.6211
118.24778
117.85355
116.40246
114.63513
112.69651
110.88233
109.12516
44.650742
37.199273
32.229943
31.558855
35.943214
44.064012
55.205557
68.220978
80.45636
90.676348
99.261995
106.46738
110.48159
112.18025
112.49069
112.06143
111.18814
110.12892
108.98693
28.931253
16.124471
5.6658286
0.88612157
3.8674815
13.823138
28.558651
45.787182
62.807169
78.406281
88.194865
95.018037
100.97224
104.49574
106.58039
107.55038
107.85484
107.72903
107.4338
30.819705
17.494744
6.3098814
0.12942396
0.24088484
6.9051319
18.822448
33.892704
49.82913
64.587963
77.020094
86.51629
93.520729
98.060678
101.08677
103.00428
104.11175
104.73592
105.12741
45.444445
36.592623
29.833998
26.647658
27.583731
32.499901
40.531634
50.296905
60.667157
70.37357
79.08135
86.085484
91.459759
95.47133
98.30884
100.33334
101.62488
102.47875
103.18783
61.171304
56.409938
53.217401
52.493625
54.360925
58.131418
63.29008
69.101156
74.985549
80.558581
85.468582
89.69694
93.062641
95.842285
98.044606
99.673305
100.82222
101.56157
102.20878
73.79295
71.622965
70.856563
71.059672
72.012655
74.104019
77.293753
81.036061
84.685922
88.075782
90.9676
93.493782
95.644739
97.403268
98.952487
100.15063
101.05482
101.62342
102.05683
83.07097
81.999333
81.262514
81.345408
82.610977
84.482285
86.533728
88.70495
90.917568
93.029503
94.905767
96.522753
97.930695
99.104956
100.14877
101.0431
101.71972
102.19334
102.45445
86.3911
86.552295
87.205603
88.025793
89.145024
90.603073
92.21497
93.820054
95.339244
96.754795
97.948649
99.007533
99.92868
100.70542
101.37544
102.01803
102.51819
102.86726
103.04684
87.106366
88.159482
89.661296
91.32368
92.794811
94.283006
95.79789
97.102763
98.247305
99.34996
100.2656
101.00188
101.62047
102.12162
102.55414
102.97978
103.33882
103.56191
103.63504
85.45555
87.636806
90.027029
92.410501
94.434336
96.096348
97.801425
99.168481
100.20367
101.02877
101.76001
102.36201
102.85186
103.21671
103.51708
103.8008
104.05686
104.24248
104.2445
78.220065
82.546949
86.741938
90.621575
93.757582
96.062455
98.084625
99.814668
100.94813
101.81346
102.55372
103.11973
103.57191
103.89451
104.16079
104.38572
104.56091
104.69748
104.71021
64.0709
73.406905
81.341142
87.71462
92.346838
95.428412
97.929844
100.07745
101.37757
102.25939
103.0209
103.64761
104.11339
104.42237
104.64223
104.84144
104.97672
105.04678
105.02466
68.199597
76.82513
84.198829
90.386005
94.657537
97.589153
99.477452
101.10635
102.89595
103.77235
104.12975
104.54244
104.9124
105.14809
105.26624
105.34016
105.41526
105.42578
105.34199
77.508993
82.89867
88.084215
92.694802
96.448642
99.384864
101.7332
103.45778
103.56334
103.60455
104.7139
105.45023
105.70703
105.79113
105.83416
105.80001
105.78251
105.75003
105.62468
84.609639
87.002704
89.766633
92.608572
95.285746
97.730318
99.906599
101.69799
103.15945
104.16419
104.83004
105.2933
105.65405
105.94472
105.97376
105.93288
105.84932
105.81187
105.71382
87.92458
88.379605
89.474474
91.042164
92.763829
94.52517
96.126554
97.880006
99.868712
101.96254
104.10338
105.11446
105.53072
105.84107
105.88802
105.83628
105.70809
105.57347
105.51061
87.273855
85.579839
84.331102
83.918597
84.526762
86.096027
88.406196
92.190565
97.397198
101.51077
103.71953
104.54119
104.97431
105.15697
105.20355
105.18902
105.09284
104.96598
104.90165
79.500228
77.24642
76.59306
77.527303
79.95727
83.653204
87.992285
92.386972
96.160828
99.249514
101.66253
102.88027
103.43408
103.78543
104.00377
104.14539
104.17451
104.14857
104.14964
81.217859
78.618876
77.556469
78.134602
80.515948
84.409489
88.796332
92.986573
96.557336
99.188237
100.88085
101.94557
102.57475
103.00666
103.27962
103.48085
103.58788
103.63609
103.70405
89.520052
89.419632
90.437984
92.020577
93.833846
95.948443
98.098164
99.941301
101.34328
102.24424
102.7632
103.073
103.2353
103.37235
103.41495
103.4548
103.44913
103.41224
103.43135
95.211081
96.520395
98.133457
99.904333
101.41177
102.50336
103.40075
103.84676
103.86557
103.82815
103.82103
103.74096
103.59428
103.50159
103.41915
103.34775
103.28011
103.22252
103.18589
94.347461
95.985602
97.436693
98.761278
100.09478
101.09115
101.56478
102.01846
102.89989
103.43118
103.49605
103.42407
103.31604
103.14903
103.05271
102.9622
102.86715
102.76315
102.73437
96.172522
97.917224
99.473413
100.71666
101.61702
102.06993
101.97866
101.98289
102.74346
102.73967
102.71099
102.65265
102.57864
102.52309
102.41414
102.33383
102.24664
102.08071
102.00224
99.231093
99.968211
100.74656
101.51175
102.23578
102.87732
103.58804
103.36761
102.69778
102.15686
101.81007
101.5532
101.34
101.27358
101.21856
101.20125
101.19879
101.12634
101.06614
104.59841
102.56575
100.64377
98.856365
97.175399
95.645996
94.257381
92.985124
91.832306
90.783473
89.846043
88.984441
88.244245
87.599506
87.051252
86.592343
86.277861
86.050961
85.986404
106.2082
104.29213
102.46672
100.73259
99.087674
97.541798
96.107035
94.752817
93.501367
92.33718
91.296928
90.343273
89.49356
88.760786
88.14226
87.630347
87.298373
87.065681
86.994463
107.4681
105.78182
104.10578
102.47549
100.88915
99.361561
97.89276
96.480792
95.154017
93.898162
92.741246
91.694383
90.747119
89.914377
89.240536
88.679469
88.294527
88.082613
87.996727
107.79311
106.52713
105.1489
103.7396
102.27969
100.83344
99.40328
97.993119
96.637635
95.349199
94.118485
92.987773
91.976651
91.070816
90.314355
89.729954
89.285167
89.071658
89.006883
107.00753
106.34883
105.44866
104.38828
103.18944
101.90202
100.58303
99.251208
97.91608
96.631073
95.394341
94.214566
93.146908
92.202412
91.37699
90.757463
90.29053
90.038018
90.000914
105.48137
105.47748
105.14921
104.51152
103.67795
102.64319
101.51948
100.28989
99.033135
97.780827
96.559518
95.374852
94.269244
93.295525
92.440026
91.757621
91.2884
91.004208
90.978672
103.91996
104.34574
104.4858
104.26197
103.79505
103.05997
102.19678
101.13195
99.978731
98.793776
97.618844
96.458517
95.341592
94.324466
93.459715
92.734035
92.252391
91.962967
91.932197
102.89848
103.44047
103.77202
103.85476
103.6765
103.23851
102.61999
101.76458
100.77506
99.682307
98.566965
97.439167
96.34877
95.315576
94.440302
93.704817
93.191178
92.908477
92.872294
102.5641
102.94989
103.24019
103.46456
103.47512
103.28231
102.86873
102.22002
101.40669
100.43527
99.413711
98.324598
97.276773
96.249606
95.358662
94.625909
94.094225
93.822325
93.776426
102.70457
102.88148
103.06569
103.22571
103.29327
103.25075
102.99532
102.52931
101.88851
101.06573
100.14079
99.12245
98.123427
97.129698
96.227526
95.505223
94.956273
94.70388
94.666798
103.11207
103.12696
103.16961
103.22676
103.25632
103.24414
103.0772
102.75825
102.25127
101.57035
100.7434
99.841856
98.884947
97.95029
97.057416
96.339533
95.782063
95.536848
95.527758
103.60332
103.53565
103.46189
103.40788
103.37356
103.32845
103.1758
102.94521
102.53565
101.9933
101.26634
100.47058
99.582408
98.695579
97.834165
97.126331
96.57871
96.315429
96.3518
104.10969
103.97631
103.83771
103.71303
103.59244
103.49084
103.32312
103.12412
102.78868
102.33827
101.72561
101.01827
100.19642
99.369618
98.558601
97.864491
97.354053
97.059254
97.132754
104.57767
104.41582
104.23143
104.05643
103.87787
103.72779
103.53659
103.32525
103.02692
102.64201
102.11795
101.49529
100.75512
99.985348
99.229616
98.539215
98.081527
97.786725
97.844293
104.88452
104.77771
104.6051
104.40398
104.19135
103.99367
103.77624
103.55559
103.26992
102.92181
102.46225
101.91291
101.27202
100.5196
99.831188
99.1718
98.72864
98.489037
98.527786
105.12727
105.04059
104.89737
104.71504
104.49202
104.27594
104.03821
103.79487
103.5114
103.18527
102.79713
102.27798
101.70897
101.01298
100.36715
99.77273
99.320693
99.12934
99.168853
105.38527
105.27
105.11461
104.95457
104.75849
104.53671
104.2955
104.04505
103.77223
103.43861
103.09031
102.60994
102.08867
101.48727
100.84997
100.31917
99.876893
99.706308
99.7738
105.521
105.41886
105.27222
105.12088
104.95403
104.75251
104.53106
104.26106
104.00277
103.68102
103.32467
102.91385
102.42283
101.8985
101.28944
100.79235
100.39373
100.23122
100.32823
105.45215
105.43606
105.34897
105.22898
105.09848
104.91633
104.72737
104.47535
104.21307
103.92758
103.58255
103.19361
102.72838
102.28181
101.71099
101.22272
100.87299
100.71731
100.83888
105.07564
105.19613
105.25009
105.21495
105.14505
105.0072
104.84344
104.636
104.3612
104.06674
103.72734
103.37602
102.94313
102.45309
102.0351
101.58643
101.27789
101.14752
101.28885
104.46453
104.71161
104.92633
105.03472
105.06728
105.0258
104.91488
104.76894
104.54997
104.30025
103.99355
103.64258
103.24859
102.77824
102.34688
101.93219
101.65473
101.56122
101.70655
103.95129
104.21613
104.49847
104.73321
104.86751
104.92735
104.89558
104.7955
104.62067
104.39
104.10336
103.75979
103.40398
102.98725
102.57055
102.21
101.94772
101.87904
102.04079
103.57839
103.80876
104.04935
104.31355
104.53969
104.69879
104.77981
104.77519
104.68852
104.52117
104.30018
104.00575
103.64541
103.24778
102.8308
102.47431
102.23879
102.19776
102.37486
103.25325
103.53193
103.80063
104.05018
104.29711
104.50789
104.65481
104.70694
104.67411
104.54958
104.34065
104.07299
103.74374
103.37168
102.98908
102.6489
102.4426
102.41987
102.59515
102.85718
103.12142
103.36601
103.6112
103.85352
104.10293
104.32843
104.49542
104.57909
104.56611
104.45802
104.2552
103.96752
103.59589
103.1928
102.83689
102.634
102.62747
102.82685
102.41354
102.84639
103.21828
103.5224
103.80077
104.06519
104.27805
104.4509
104.55212
104.56702
104.47548
104.28989
104.01341
103.65874
103.27338
102.92437
102.72652
102.75799
102.93972
101.51684
101.90014
102.3042
102.69741
103.09172
103.45038
103.77852
104.06909
104.30707
104.4532
104.49446
104.43182
104.25112
103.91197
103.47494
103.07887
102.81668
102.81878
103.04739
86.056043
86.282172
86.675892
87.178415
87.811655
88.610825
89.545602
90.60282
91.800807
93.12233
94.533746
96.029001
97.629664
99.295813
100.98519
102.73476
104.51892
106.32891
108.13418
87.102047
87.306964
87.715175
88.26216
88.936503
89.760033
90.693582
91.753519
92.948088
94.249953
95.636399
97.112314
98.653302
100.23699
101.85027
103.52258
105.19343
106.82181
108.4929
88.130865
88.364128
88.769794
89.345507
90.03948
90.874074
91.833246
92.892801
94.076255
95.358138
96.718623
98.164165
99.64758
101.16285
102.70156
104.25524
105.78526
107.31101
108.83701
89.142051
89.416627
89.846655
90.41412
91.128201
91.968195
92.931522
93.999188
95.160687
96.427871
97.753586
99.161056
100.59453
102.02783
103.46784
104.90066
106.35026
107.74883
109.08871
90.145305
90.430597
90.873111
91.460112
92.182179
93.034409
93.984141
95.051908
96.203606
97.444111
98.741116
100.09995
101.47585
102.83343
104.18218
105.48425
106.79852
108.09637
109.32197
91.143704
91.447122
91.896875
92.506155
93.222783
94.07532
95.022324
96.072222
97.207932
98.41
99.670148
100.96362
102.28794
103.56714
104.8012
106.00869
107.19471
108.33242
109.4471
92.116901
92.434816
92.883999
93.490959
94.225932
95.068322
96.019419
97.04162
98.151344
99.316749
100.53507
101.77193
103.00189
104.21475
105.37055
106.44489
107.50582
108.56549
109.60213
93.074043
93.402632
93.872698
94.46454
95.205398
96.034177
96.964536
97.977862
99.054159
100.17184
101.34381
102.51864
103.67596
104.78119
105.82454
106.83471
107.79494
108.73562
109.6388
94.001871
94.330101
94.791769
95.386928
96.133591
96.959078
97.871147
98.84743
99.888712
100.96679
102.08191
103.18848
104.25969
105.30067
106.24125
107.13671
108.01529
108.84855
109.67305
94.909986
95.249646
95.72595
96.320902
97.041817
97.830603
98.721358
99.676975
100.66981
101.70402
102.74161
103.79383
104.78864
105.71742
106.58454
107.40233
108.18557
108.9592
109.68861
95.765783
96.105417
96.572227
97.143783
97.850347
98.66
99.517827
100.45097
101.4078
102.38926
103.35761
104.32116
105.23856
106.09873
106.89058
107.63282
108.33654
109.0028
109.64742
96.597722
96.943855
97.408581
97.999602
98.68062
99.457617
100.28349
101.17121
102.07491
102.98803
103.90369
104.80103
105.64971
106.43683
107.15754
107.81356
108.42845
109.01748
109.59468
97.384061
97.734488
98.180789
98.753186
99.407305
100.16131
100.96977
101.8155
102.68433
103.54193
104.39783
105.22512
105.99973
106.71573
107.36698
107.9615
108.51093
109.02119
109.52388
98.1194
98.471653
98.923183
99.479234
100.12336
100.84706
101.63046
102.43401
103.25178
104.04887
104.83686
105.59541
106.30188
106.94803
107.53302
108.05768
108.55157
109.0203
109.45344
98.82531
99.166327
99.620895
100.15724
100.78132
101.47321
102.21818
102.97728
103.73915
104.47941
105.20787
105.90486
106.55824
107.1566
107.68886
108.16564
108.59704
108.99757
109.37136
99.476072
99.812826
100.2588
100.78187
101.37883
102.03994
102.74924
103.47581
104.19919
104.89147
105.56059
106.20241
106.79557
107.33427
107.80206
108.21502
108.58653
108.93627
109.26949
100.08429
100.41991
100.8538
101.36175
101.93576
102.57281
103.24673
103.93189
104.60434
105.24332
105.8476
106.42921
106.96802
107.45794
107.88346
108.2694
108.6145
108.92155
109.20385
100.6415
100.9745
101.3961
101.89075
102.4455
103.05357
103.68585
104.32649
104.9505
105.54982
106.11082
106.64289
107.14015
107.59725
107.98952
108.32399
108.6108
108.86869
109.12118
101.15338
101.48113
101.89362
102.37351
102.90445
103.48257
104.0764
104.67923
105.2672
105.82707
106.35161
106.83541
107.28331
107.69142
108.04133
108.33962
108.59656
108.82352
109.04637
101.60697
101.93204
102.33709
102.79854
103.30756
103.85902
104.42362
104.99958
105.55823
106.07341
106.55117
106.99138
107.40154
107.78203
108.10491
108.37902
108.6168
108.82262
109.02142
102.02646
102.3473
102.74025
103.19332
103.68818
104.22141
104.76503
105.2985
105.80914
106.28178
106.72396
107.14045
107.52726
107.87683
108.17353
108.41401
108.62713
108.80958
108.97437
102.36601