/*--------------------------------*- C++ -*----------------------------------*\
  =========                 |
  \\      /  F ield         | OpenFOAM: The Open Source CFD Toolbox
   \\    /   O peration     | Website:  https://openfoam.org
    \\  /    A nd           | Version:  11
     \\/     M anipulation  |
\*---------------------------------------------------------------------------*/
FoamFile
{
    format      ascii;
    class       surfaceScalarField;
    location    "4.8";
    object      phi;
}
// * * * * * * * * * * * * * * * * * * * * * * * * * * * * * * * * * * * * * //

dimensions      [0 3 -1 0 0 0 0];

internalField   nonuniform List<scalar> 
10792
(
0.071606938
-0.04399516
-0.072218489
0.044606711
0.070962378
-0.041940579
0.042585139
0.07023289
-0.039934747
0.040664235
0.06946391
-0.03770107
0.03847005
0.068656609
-0.035631339
0.03643864
0.06771358
-0.033133476
0.034076506
0.066893384
-0.030917897
0.031738093
0.066030378
-0.028596079
0.029459086
0.065163065
-0.026147165
0.027014477
0.064434846
-0.023881003
0.024609222
0.063683248
-0.021388819
0.022140417
0.06297204
-0.018894733
0.019605941
0.062399411
-0.016369875
0.016942504
0.061851485
-0.01393245
0.014480377
0.061383109
-0.011256376
0.011724751
0.061042911
-0.0088560124
0.0091962101
0.060758377
-0.006228255
0.0065127884
0.06058889
-0.003802527
0.0039720144
-0.0011499609
0.060731968
0.0010068823
0.075622248
-0.043412858
-0.07620455
0.074969565
-0.041287895
0.074206505
-0.039171688
0.073478985
-0.03697355
0.072562784
-0.034715138
0.071739161
-0.032309854
0.070970604
-0.030149341
0.070086474
-0.027711949
0.069369117
-0.025429808
0.068604659
-0.023116545
0.067797948
-0.020582107
0.067159718
-0.018256503
0.066537369
-0.015747526
0.065964419
-0.0133595
0.065585271
-0.010877228
0.065241959
-0.0085127005
0.065034262
-0.006020558
0.064950293
-0.0037185586
-0.0011891897
0.064989522
0.080315805
-0.042766222
-0.080962441
0.079671741
-0.040643831
0.078959579
-0.038459525
0.078151918
-0.036165889
0.077307486
-0.033870706
0.076574881
-0.031577248
0.075724553
-0.029299013
0.074905275
-0.026892671
0.074114686
-0.024639218
0.073248989
-0.022250848
0.072508194
-0.019841312
0.071830817
-0.017579126
0.071160224
-0.015076934
0.070646928
-0.012846204
0.070210029
-0.01044033
0.069794984
-0.0080976554
0.069615594
-0.0058411685
0.06938448
-0.0034874449
-0.001178677
0.069373968
0.084757322
-0.042149471
-0.085374073
0.084112359
-0.039998868
0.083304392
-0.037651558
0.082544602
-0.035406099
0.081811634
-0.033137738
0.081019553
-0.030785167
0.080176943
-0.028456403
0.079357401
-0.026073129
0.078539375
-0.023821193
0.077767221
-0.021478694
0.077107552
-0.019181643
0.076407382
-0.016878955
0.075832617
-0.014502168
0.075287383
-0.012300971
0.074821103
-0.0099740501
0.074504132
-0.007780685
0.074270241
-0.0056072776
0.074105098
-0.0033223018
-0.0012332355
0.074159656
0.090073941
-0.041555512
-0.090667901
0.089404257
-0.039329184
0.088713524
-0.036960826
0.088075101
-0.034767676
0.087289902
-0.032352539
0.086501891
-0.029997156
0.085628459
-0.027582972
0.084801988
-0.025246657
0.083980043
-0.022999248
0.083211941
-0.020710592
0.082480698
-0.018450401
0.081742631
-0.016140889
0.081103486
-0.013863023
0.080480317
-0.011677802
0.080016925
-0.0095106586
0.079644019
-0.0074077786
0.079393285
-0.005356544
0.07928955
-0.0032185667
-0.0012414183
0.079297733
0.095374159
-0.041006301
-0.09592337
0.094677259
-0.038632283
0.094022079
-0.036305646
0.093219636
-0.033965233
0.092341238
-0.031474141
0.091511459
-0.029167376
0.090634463
-0.026705976
0.089867834
-0.024480028
0.089037021
-0.022168435
0.088275801
-0.019949372
0.087544278
-0.017718877
0.086870893
-0.015467504
0.086298573
-0.013290703
0.085759656
-0.011138886
0.085336027
-0.00908703
0.085016836
-0.0070885876
0.084785518
-0.0051252258
0.084693181
-0.0031262308
-0.0012169755
0.084668739
0.10154816
-0.040373744
-0.10218071
0.10066645
-0.03775058
0.099948668
-0.03558786
0.099077775
-0.03309434
0.098346994
-0.03074336
0.097605041
-0.028425423
0.096855717
-0.025956652
0.09607534
-0.023699651
0.095214992
-0.021308087
0.094449884
-0.019184264
0.093681383
-0.016950377
0.093049703
-0.014835824
0.092436331
-0.012677331
0.091894426
-0.010596981
0.091431719
-0.0086243237
0.091041531
-0.0066984002
0.090741121
-0.0048248157
0.090623952
-0.0030090616
-0.0012212877
0.090628264
0.10760648
-0.039520188
-0.10846004
0.10672545
-0.036869547
0.10598376
-0.03484617
0.10509182
-0.032202408
0.10434226
-0.029993795
0.10344846
-0.027531623
0.10263752
-0.025145717
0.10179463
-0.022856756
0.10098702
-0.020500474
0.10024472
-0.018441965
0.099540389
-0.016246048
0.098941098
-0.014236533
0.098329771
-0.012066004
0.097797364
-0.010064574
0.097292364
-0.0081193233
0.096936534
-0.0063425707
0.096659593
-0.0045478747
0.096568632
-0.0029181007
-0.001190522
0.096537866
0.11450531
-0.038443607
-0.11558189
0.11369818
-0.03606242
0.11288702
-0.034035006
0.11203029
-0.031345682
0.11123184
-0.029195345
0.11028181
-0.026581585
0.10952994
-0.024393852
0.1087159
-0.022042713
0.10796998
-0.019754556
0.1071356
-0.017607583
0.10635138
-0.015461834
0.10567019
-0.013555337
0.1050712
-0.011467022
0.10459828
-0.009591648
0.10415963
-0.0076806751
0.1038526
-0.0060355386
0.1036328
-0.0043280814
0.10354059
-0.0028258872
-0.0011841064
0.10353417
0.12173505
-0.037322226
-0.12285643
0.12087787
-0.035205242
0.1197868
-0.032943932
0.11889485
-0.030453739
0.1179854
-0.028285892
0.11711652
-0.025712705
0.1163996
-0.023676937
0.11558372
-0.021226825
0.11492342
-0.019094258
0.11414666
-0.016830821
0.11345748
-0.014772655
0.11276066
-0.012858519
0.11218977
-0.010896134
0.1116818
-0.0090836731
0.1112253
-0.0072241758
0.11084799
-0.0056582284
0.11056129
-0.0040413825
0.11042473
-0.002689331
-0.0011780484
0.11041867
0.12991655
-0.036329754
-0.13090902
0.12902332
-0.034312018
0.12792336
-0.031843972
0.12712793
-0.029658302
0.1260618
-0.027219763
0.12516563
-0.024816536
0.12422635
-0.022737659
0.12337916
-0.020379637
0.12263042
-0.018345511
0.1218549
-0.016055302
0.1212081
-0.014125863
0.12044427
-0.012094688
0.11986413
-0.010315993
0.11928378
-0.0085033217
0.1188708
-0.0068111945
0.11848621
-0.0052736343
0.11823771
-0.0037928835
0.11807704
-0.0025286654
-0.001156201
0.11805519
0.13841273
-0.035088007
-0.13965447
0.13722773
-0.033127026
0.13605833
-0.030674569
0.13510524
-0.02870521
0.13409692
-0.026211448
0.13336075
-0.024080359
0.13234633
-0.021723244
0.13153153
-0.019564837
0.13067835
-0.01749233
0.12995333
-0.015330283
0.12925829
-0.013430819
0.12856831
-0.011404712
0.12800297
-0.0097506553
0.12739552
-0.0078958681
0.12698551
-0.0064011907
0.12660768
-0.004895801
0.12641068
-0.0035958838
0.12625393
-0.0023719114
-0.0011619933
0.12625972
0.14781733
-0.033948027
-0.14895731
0.14650607
-0.031815762
0.14534595
-0.029514455
0.14419451
-0.02755377
0.14313736
-0.025154294
0.14221536
-0.023158357
0.14119649
-0.020704376
0.14039753
-0.018765877
0.13940154
-0.01649634
0.13867554
-0.014604284
0.13787319
-0.012628471
0.13727227
-0.010803791
0.13663483
-0.0091132091
0.13610279
-0.0073638345
0.13568038
-0.0059787807
0.13532082
-0.0045362438
0.13508733
-0.0033623914
0.13494339
-0.0022279678
-0.001135128
0.13491652
0.15807003
-0.032723048
-0.15929501
0.1566226
-0.030368326
0.15547136
-0.028363217
0.15414628
-0.026228696
0.15299326
-0.024001268
0.15184306
-0.022008154
0.15085495
-0.019716269
0.14996619
-0.017877122
0.14902795
-0.015558097
0.14826028
-0.013836616
0.14740866
-0.011776854
0.14677912
-0.01017425
0.14608936
-0.0084234488
0.14560676
-0.0068812351
0.14509868
-0.0054707026
0.14478505
-0.0042226116
0.14452482
-0.0031021606
0.14441573
-0.0021188768
-0.0011127627
0.14439337
0.1686696
-0.031158941
-0.17023371
0.16721989
-0.028918613
0.16591385
-0.02705718
0.16442414
-0.024738992
0.16322006
-0.022797188
0.1618868
-0.020674892
0.16088791
-0.018717376
0.1597743
-0.016763513
0.15888812
-0.014671919
0.15801416
-0.012962661
0.15726985
-0.011032535
0.15661593
-0.0095203367
0.15597941
-0.007786929
0.15551785
-0.0064196694
0.15498894
-0.0049417958
0.15465054
-0.0038842154
0.15433071
-0.0027823237
0.15418195
-0.001970117
-0.001062196
0.15413138
0.1804335
-0.029339828
-0.18225261
0.17890802
-0.027393135
0.17742057
-0.025569731
0.17605709
-0.02337551
0.17482352
-0.02156362
0.17352347
-0.019374839
0.17246715
-0.017661064
0.17127185
-0.015568205
0.17042653
-0.013826599
0.16938982
-0.011925953
0.16862163
-0.010264346
0.16780429
-0.0087029965
0.16723353
-0.0072161711
0.16669051
-0.0058766456
0.16625792
-0.0045092053
0.16591593
-0.0035422249
0.165622
-0.0024883956
0.16546802
-0.0018161407
-0.00096631926
0.16537214
0.19287199
-0.027477295
-0.19473452
0.19117989
-0.025701038
0.18944942
-0.023839261
0.18793726
-0.021863351
0.18642054
-0.020046894
0.18507787
-0.018032176
0.18384235
-0.016425538
0.18270279
-0.014428649
0.18173448
-0.012858285
0.18071576
-0.010907235
0.17992765
-0.0094762332
0.17906836
-0.0078437128
0.17850473
-0.0066525366
0.17788888
-0.0052608033
0.17757024
-0.0041905577
0.17714431
-0.003116299
0.17691574
-0.0022598205
0.17665327
-0.0015536768
-0.0008811597
0.17656811
0.20669754
-0.025493848
-0.20868098
0.20481669
-0.023820188
0.20304368
-0.022066255
0.20145606
-0.020275733
0.1998888
-0.018479633
0.19855093
-0.016694308
0.19717849
-0.015053098
0.19604575
-0.013295903
0.1949277
-0.011740235
0.19398655
-0.0099660915
0.19309654
-0.0085862201
0.19230617
-0.007053344
0.1916495
-0.0059958595
0.19107955
-0.0046908602
0.19069773
-0.0038087384
0.19026164
-0.0026802047
0.19004998
-0.0020481589
0.18970598
-0.0012096798
-0.00073034388
0.18955516
0.22123822
-0.023304711
-0.22342736
0.21914829
-0.021730261
0.2172135
-0.020131456
0.21540426
-0.0184665
0.2137087
-0.016784067
0.21216644
-0.015152048
0.21066003
-0.013546695
0.20937799
-0.012013855
0.20815867
-0.010520917
0.20716373
-0.0089711584
0.20620216
-0.0076246475
0.20539885
-0.006250031
0.20461675
-0.0052137582
0.20407798
-0.0041520883
0.20359333
-0.0033240921
0.20331899
-0.0024058631
0.20309211
-0.0018212834
0.20294539
-0.0010629615
-0.00067585964
0.20289091
0.23685755
-0.021088273
-0.23907399
0.23477871
-0.019651414
0.23284768
-0.01820043
0.23099213
-0.01661095
0.22925974
-0.015051682
0.22762089
-0.013513189
0.22610817
-0.012033981
0.22472115
-0.010626837
0.22346001
-0.0092597756
0.22238135
-0.0078924976
0.22143329
-0.0066765817
0.22060812
-0.0054248671
0.21980168
-0.0044073218
0.21915581
-0.0035062135
0.21854217
-0.0027104493
0.21819729
-0.0020609881
0.21787939
-0.0015033787
0.21775542
-0.00093899841
-0.00056538095
0.21764494
0.25350578
-0.018612064
-0.25598199
0.25120012
-0.017345751
0.2490057
-0.016006015
0.24697154
-0.014576788
0.24510358
-0.01318372
0.24339076
-0.011800371
0.24179533
-0.010438549
0.24032268
-0.0091541909
0.23898822
-0.0079253113
0.23783806
-0.0067423402
0.23689902
-0.005737545
0.23611429
-0.0046401322
0.23543549
-0.0037285213
0.23480787
-0.0028785979
0.23426349
-0.002166064
0.23385866
-0.0016561617
0.23351599
-0.0011607064
0.23336367
-0.0007866781
-0.00049317585
0.23329146
0.27150684
-0.016219968
-0.27389893
0.2692049
-0.015043814
0.26694512
-0.013746235
0.264902
-0.012533667
0.26295865
-0.011240374
0.26117467
-0.010016388
0.25950803
-0.0087719052
0.2579978
-0.0076439618
0.25656544
-0.0064929573
0.25529627
-0.0054731647
0.25418791
-0.004629187
0.25329901
-0.0037512333
0.25261912
-0.0030486305
0.25203346
-0.0022929439
0.25156501
-0.0016976143
0.25117343
-0.0012645774
0.25088525
-0.00087252381
0.25067088
-0.00057230662
-0.00036980045
0.2505475
0.29034342
-0.013617864
-0.29294553
0.28787093
-0.012571322
0.28552178
-0.011397085
0.28335522
-0.010367101
0.28137705
-0.0092622106
0.27962906
-0.0082683951
0.27802647
-0.0071693133
0.27655069
-0.0061681852
0.27522645
-0.0051687125
0.27401188
-0.0042585995
0.27289538
-0.0035126843
0.27193258
-0.0027884377
0.27113981
-0.0022558598
0.27054699
-0.001700124
0.27005594
-0.0012065593
0.26968403
-0.00089266673
0.2693633
-0.00055179871
0.2691894
-0.00039840378
-0.00028047241
0.26910007
0.31123653
-0.010893233
-0.31396116
0.30858801
-0.0099228098
0.30611358
-0.0089226496
0.30372239
-0.007975912
0.30152152
-0.0070613371
0.29951955
-0.0062664308
0.29775858
-0.0054083456
0.2962332
-0.0046428045
0.2949103
-0.0038458079
0.29376078
-0.0031090757
0.29271725
-0.0024691639
0.29179523
-0.0018664132
0.29104279
-0.0015034187
0.29041514
-0.0010724768
0.29000385
-0.00079526362
0.28969445
-0.00058327657
0.28952327
-0.00038061023
0.28942581
-0.00030095197
-0.00019570666
0.28934105
0.33297914
-0.0079117051
-0.33596067
0.33019541
-0.0071390777
0.32764337
-0.0063706121
0.32529121
-0.0056237494
0.32313076
-0.0049008873
0.32113058
-0.0042662557
0.31934611
-0.0036238723
0.31780454
-0.0031012369
0.31645786
-0.0024991286
0.31535688
-0.0020080954
0.314434
-0.001546285
0.31367102
-0.001103435
0.3130314
-0.00086380036
0.31248493
-0.00052600315
0.31207581
-0.00038614711
0.31170065
-0.00020811334
0.31146756
-0.00014751694
0.311315
-0.00014839374
-8.8590686e-05
0.31120788
0.35719512
-0.0042386472
-0.36086818
0.35392325
-0.0038672082
0.3509975
-0.0034448648
0.3483685
-0.0029947437
0.34604772
-0.0025801088
0.34396048
-0.0021790198
0.34216851
-0.0018319043
0.34058214
-0.0015148666
0.33928048
-0.0011974631
0.33820801
-0.00093562748
0.33734141
-0.00067968331
0.33671058
-0.00047261081
0.33618626
-0.00033947529
0.33584965
-0.00018939149
0.33558985
-0.00012635228
0.33537267
9.0702952e-06
0.33528628
-6.1133315e-05
0.33516125
-2.3358e-05
-0.00014660488
0.33521926
0.38438393
-0.38862258
0.38051672
0.37707186
0.37407711
0.37149701
0.36931799
0.36748608
0.36597121
0.36477375
0.36383812
0.36315844
0.36268583
0.36234635
0.36215696
0.36203061
0.36203968
0.36197855
0.36195519
0.36180858
0.060993524
0.0010213007
-0.0012828566
0.0614296
0.0038684706
-0.0043045476
0.062166869
0.0058946065
-0.0066318759
0.063196501
0.0085650645
-0.0095946967
0.064379054
0.010823314
-0.012005867
0.065930924
0.013360584
-0.014912454
0.067574906
0.015538741
-0.017182724
0.069520355
0.01816768
-0.02011313
0.071774301
0.020028637
-0.022282583
0.074080827
0.022723957
-0.025030484
0.076884206
0.024619115
-0.027422494
0.079566173
0.027032099
-0.029714066
0.082831386
0.028850746
-0.032115959
0.085913741
0.030949601
-0.034031956
0.089645052
0.032433379
-0.03616469
0.093359624
0.034384055
-0.038098627
0.097763304
0.03558844
-0.03999212
0.10212911
0.037184389
-0.041550194
0.038193371
0.10716062
-0.043224887
0.065063045
0.00094777736
0.065690319
0.0032411964
0.066428032
0.0051568929
0.067535959
0.007457137
0.068869646
0.009489627
0.070576161
0.011654069
0.072286248
0.013828654
0.074509474
0.015944454
0.076662984
0.017875126
0.079229763
0.020157177
0.081913266
0.021935612
0.084816646
0.024128719
0.087951414
0.025715977
0.091131347
0.027769668
0.094578824
0.028985901
0.098084632
0.030878246
0.1019559
0.03171717
0.10572788
0.033412406
0.033842837
0.11007842
0.069501339
0.00082040554
0.070038392
0.0027041438
0.070821817
0.004373468
0.071917348
0.0063616056
0.073314812
0.0080921621
0.074938968
0.010029913
0.076830292
0.01193733
0.079000874
0.013773872
0.081261785
0.015614215
0.083850117
0.017568845
0.086468166
0.019317562
0.08936258
0.021234304
0.092285991
0.022792566
0.095459441
0.024596218
0.098522029
0.025923312
0.10189486
0.027505417
0.10503437
0.028577655
0.10847909
0.029967689
0.030609728
0.1117122
0.074336882
0.00064317968
0.074963193
0.0020778327
0.075774486
0.0035621746
0.076986719
0.005149373
0.078392255
0.0066866259
0.080022784
0.0083993834
0.082014616
0.0099454976
0.084038332
0.011750156
0.086344777
0.013307769
0.088710226
0.015203395
0.091283454
0.016744334
0.093962144
0.018555614
0.09674466
0.020010049
0.099580537
0.021760342
0.10230291
0.023200937
0.10508447
0.024723855
0.10769864
0.025963491
0.11018144
0.027484885
0.028279058
0.11251211
0.079482457
0.00045845536
0.080101338
0.0014589519
0.080890533
0.0027729795
0.08212222
0.0039176858
0.083478821
0.0053300243
0.085169518
0.0067086862
0.087063708
0.0080513077
0.089066958
0.0097469049
0.091356607
0.011018119
0.093609118
0.012950884
0.0960179
0.014335551
0.098332475
0.016241039
0.10062187
0.017720653
0.1028953
0.01948691
0.10495096
0.021145281
0.10702693
0.022647884
0.10870583
0.024284588
0.11018294
0.026007774
0.027178948
0.11128305
0.084955409
0.00017178491
0.085485684
0.00092867663
0.086329236
0.0019294271
0.08756219
0.0026847322
0.088925792
0.0039664217
0.090706849
0.0049276283
0.092453844
0.0063043123
0.094568906
0.0076318422
0.096539856
0.009047169
0.09876717
0.010723568
0.10084492
0.012257801
0.10290574
0.014180219
0.10476724
0.015859148
0.10644936
0.017804793
0.10777267
0.019821968
0.10885491
0.02156565
0.10915768
0.023981812
0.10932146
0.025843999
0.027997674
0.10850273
0.090853342
-5.3293305e-05
0.091412878
0.00036914132
0.092334018
0.0010082869
0.093491697
0.0015270525
0.094880249
0.0025778695
0.096520015
0.003287862
0.098199957
0.00462437
0.10014099
0.0056908082
0.10183719
0.0073509656
0.10384466
0.0087160983
0.10533171
0.010770755
0.10701
0.012501921
0.10810552
0.014763628
0.10913791
0.016772406
0.10955206
0.019407813
0.10959428
0.021523432
0.10878691
0.02478918
0.10755904
0.027071874
0.030669541
0.10488717
0.096887119
-0.00040254565
0.097410053
-0.00015379326
0.098342828
7.5510972e-05
0.099453989
0.0004158911
0.10088803
0.0011438304
0.10247152
0.0017043689
0.10414159
0.0029542978
0.10587948
0.0039529179
0.10745251
0.0057779373
0.10901125
0.007157351
0.1102101
0.0095719068
0.11131089
0.011401136
0.1117206
0.014353911
0.11186919
0.016623815
0.11105692
0.020220091
0.10984219
0.022738162
0.10758718
0.027044189
0.10467651
0.029982545
0.034973048
0.100373
0.10380655
-0.0006749242
0.10426245
-0.00060969261
0.1052369
-0.00089893316
0.10615196
-0.00049916996
0.10758217
-0.00028637887
0.10886394
0.00042259573
0.11040224
0.0014159966
0.11174233
0.0026128292
0.11302125
0.0044990128
0.11402733
0.0061512673
0.1147048
0.0088944377
0.11504126
0.011064679
0.11484162
0.014553549
0.11407381
0.017391625
0.11248824
0.021805658
0.11016093
0.025065472
0.10669803
0.030507095
0.10259351
0.034087066
0.040294456
0.097272098
0.11069359
-0.00094984578
0.11127645
-0.0011925462
0.11214209
-0.0017645734
0.11317469
-0.001531776
0.11457078
-0.0016824707
0.1156935
-0.00070012438
0.11718019
-7.0693995e-05
0.11806776
0.0017252651
0.11918751
0.003379256
0.11954677
0.005792003
0.11983853
0.0086026808
0.11926773
0.011635481
0.11820262
0.015618659
0.11624429
0.019349954
0.1137389
0.02431105
0.11024122
0.028563148
0.10621679
0.034531525
0.10141599
0.03888787
0.045983645
0.095726796
0.11824177
-0.0011364257
0.11871965
-0.0016704197
0.11945848
-0.0025034077
0.12045706
-0.0025303546
0.12147984
-0.00270525
0.12257093
-0.0017912189
0.12363643
-0.001136193
0.12422808
0.0011336172
0.12487078
0.0027365456
0.1246685
0.005994282
0.1245449
0.0087262838
0.12312931
0.01305107
0.12160353
0.01714444
0.1187976
0.022155883
0.11577438
0.02733427
0.11157221
0.032765321
0.10728721
0.038816523
0.10199724
0.044177835
0.051395669
0.09658522
0.12640992
-0.0012866285
0.12699938
-0.0022598795
0.12772165
-0.0032256779
0.12863972
-0.0034484286
0.12948378
-0.0035493067
0.13047465
-0.0027820878
0.13110893
-0.0017704793
0.13154343
0.00069912193
0.13147225
0.0028077233
0.13075842
0.0067081108
0.12965894
0.0098257598
0.12755741
0.015152598
0.12542338
0.019278467
0.12200065
0.025578616
0.11864065
0.030694267
0.1140617
0.037344277
0.10980749
0.043070729
0.10451589
0.049469437
0.056597133
0.099314424
0.13498075
-0.0013508598
0.13547529
-0.0027544122
0.13598877
-0.003739162
0.1367974
-0.0042570592
0.13741015
-0.0041620609
0.13808281
-0.0034547473
0.13831741
-0.0020050736
0.1385523
0.00046422301
0.13796131
0.0033987189
0.13705247
0.0076169483
0.13532315
0.011555081
0.13308291
0.017392833
0.13021634
0.022145034
0.12648625
0.029308708
0.12289559
0.034284924
0.11833957
0.041900299
0.11453139
0.046878911
0.10958884
0.054411989
0.060388387
0.10579758
0.14449442
-0.001451916
0.14485564
-0.0031156277
0.14539615
-0.0042796735
0.14609943
-0.0049603415
0.14654369
-0.0046063289
0.1469128
-0.0038238522
0.14663407
-0.0017263421
0.14626348
0.0008348038
0.1450769
0.0045853005
0.14386033
0.0088335225
0.14165942
0.01375599
0.13925011
0.019802136
0.13591155
0.025483593
0.1326476
0.03257266
0.12926373
0.037668795
0.12574813
0.045415898
0.12326093
0.049366113
0.12069905
0.05697387
0.05959905
0.12148839
0.15430288
-0.0016234149
0.15455057
-0.0033633241
0.15497818
-0.0047072766
0.15549497
-0.0054771302
0.15587944
-0.0049908043
0.15599432
-0.0039387345
0.15553315
-0.001265171
0.15488699
0.0014809676
0.15345531
0.0060169753
0.15190013
0.010388701
0.14922638
0.016429736
0.14663308
0.022395435
0.14344171
0.028674968
0.14114691
0.034867454
0.13870693
0.040108777
0.13769812
0.046424706
0.13794905
0.049115188
0.14067578
0.054247139
0.052479426
0.1477954
0.1655245
-0.0017757691
0.16561121
-0.0034500422
0.16582888
-0.0049249447
0.16594302
-0.0055912715
0.16595291
-0.0050006881
0.16561908
-0.0036049113
0.16501905
-0.00066514032
0.16402551
0.0024745054
0.1624226
0.0076198823
0.16055161
0.012259698
0.1579932
0.018988137
0.15600644
0.024382201
0.15396083
0.030720577
0.15325898
0.035569304
0.15298258
0.040385172
0.1555427
0.043864589
0.15972855
0.044929336
0.1679712
0.04600449
0.041017242
0.17943338
0.17672715
-0.0019348084
0.17694099
-0.0036638778
0.17722216
-0.0052061225
0.17721805
-0.0055871619
0.17702641
-0.0048090486
0.17647474
-0.0030532435
0.17575671
5.2899261e-05
0.17439749
0.0038337177
0.17269539
0.0093219809
0.17069551
0.014259577
0.16880863
0.020875015
0.16775526
0.025435578
0.1672587
0.031217139
0.16852003
0.034307973
0.17120863
0.037696564
0.17729025
0.037782972
0.18489886
0.037320728
0.19606286
0.034840488
0.029565454
0.20751465
0.18927261
-0.0016522549
0.18932318
-0.0037144481
0.18932632
-0.0052092659
0.18914246
-0.0054032988
0.18879451
-0.0044611005
0.18809161
-0.0023503477
0.18719391
0.00095060061
0.18574388
0.0052837529
0.18437271
0.010693148
0.18287188
0.015760409
0.18227238
0.021474514
0.18256853
0.025139424
0.18421971
0.029565964
0.18792756
0.030600116
0.19365444
0.031969689
0.2018964
0.02954101
0.21071885
0.028498278
0.22120691
0.024352428
0.021706869
0.22906549
0.20277845
-0.0015397964
0.20287187
-0.0038078705
0.20259282
-0.0049302159
0.20228712
-0.0050975932
0.20182107
-0.0039950567
0.20107343
-0.0016027023
0.20001669
0.0020073414
0.1985631
0.0067373437
0.19760033
0.011655918
0.19687452
0.016486215
0.19764163
0.020707399
0.19934546
0.023435599
0.20303671
0.025874708
0.20839636
0.025240476
0.21556251
0.024803533
0.22358712
0.021516405
0.23125073
0.020834662
0.23852953
0.017073636
0.018325924
0.24191047
0.21760734
-0.0015021942
0.2174259
-0.0036264276
0.21709676
-0.004601075
0.21676311
-0.0047639446
0.21611773
-0.0033496804
0.21524533
-0.00073030168
0.21427901
0.00297366
0.21347815
0.0075382059
0.21326357
0.011870496
0.21391011
0.015839677
0.2161174
0.018500112
0.21920137
0.020351625
0.22454871
0.020527367
0.23045599
0.019333196
0.2373754
0.017884129
0.2435093
0.015382502
0.24853964
0.015804325
0.25136819
0.014245079
0.019362769
0.25033135
0.23335461
-0.0015653441
0.23295915
-0.0032309652
0.23269688
-0.0043388081
0.23204307
-0.0041101322
0.23121911
-0.0025257193
0.23046853
2.0277238e-05
0.22962993
0.0038122604
0.22930634
0.0078617997
0.2298257
0.011351134
0.23169523
0.013970149
0.2346288
0.015566539
0.23879838
0.016182049
0.24435152
0.014974222
0.24937546
0.014309261
0.25483961
0.012419974
0.25800949
0.012212622
0.25960856
0.014205257
0.25772237
0.016131275
0.024253279
0.25283186
0.25031551
-0.0013333524
0.25011754
-0.0030329975
0.24986821
-0.0040894781
0.24929921
-0.0035411267
0.24886605
-0.0020925673
0.24811982
0.0007665098
0.24782724
0.0041048463
0.24833218
0.0073568594
0.24992264
0.009760673
0.25262837
0.011264423
0.2560659
0.01212901
0.26060557
0.011642373
0.26487224
0.010707559
0.26887344
0.010308061
0.27162836
0.00966505
0.27106798
0.012773007
0.26919172
0.016081508
0.26410562
0.02121738
0.029460447
0.25889845
0.26885314
-0.0010864261
0.26852974
-0.0027095909
0.26769203
-0.003251771
0.26689986
-0.002748959
0.26628962
-0.0014823279
0.26597214
0.0010839971
0.26631647
0.0037605157
0.26735985
0.0063134825
0.26939258
0.0077279424
0.27218595
0.0084710513
0.27566108
0.0086538857
0.27953313
0.0077703229
0.28243551
0.0078051708
0.28480585
0.0079377229
0.28404256
0.010428344
0.2821478
0.014667769
0.2797484
0.018480902
0.27621719
0.024748586
0.029330575
0.27634707
0.28934218
-0.0010875577
0.28906835
-0.0024357578
0.28863755
-0.0028209696
0.28826057
-0.0023719835
0.28776451
-0.00098626983
0.28786573
0.00098278723
0.2886309
0.0029953422
0.29020307
0.0047413176
0.29243754
0.0054934686
0.29510459
0.0058040051
0.29819399
0.0055644795
0.30059228
0.0053720397
0.30201625
0.0063811977
0.30166096
0.0082930128
0.29987281
0.012216494
0.29925374
0.015286845
0.2985742
0.019160442
0.30109701
0.022225768
0.022210555
0.30821703
0.3110047
-0.00088437564
0.31028137
-0.0017124293
0.30923221
-0.0017718058
0.30837622
-0.0015159893
0.30811763
-0.00072768749
0.30843528
0.00066514492
0.30930298
0.0021276435
0.31102259
0.0030217042
0.31304313
0.0034729299
0.31526943
0.0035777053
0.31741218
0.0034217309
0.31891477
0.0038694536
0.31988702
0.0054089477
0.3202823
0.0078977285
0.32192866
0.010570141
0.32476558
0.01244992
0.32936146
0.014564558
0.33759698
0.013990259
0.013348069
0.34645946
0.33526692
-0.00093203184
0.33488519
-0.0013307015
0.33444497
-0.0013315869
0.33422491
-0.0012959209
0.33436626
-0.00086904097
0.3349883
4.3103102e-05
0.33629075
0.00082519459
0.33785982
0.0014526348
0.33953299
0.0017997634
0.34119609
0.0019146122
0.34225717
0.0023606489
0.34302258
0.0031040445
0.34394907
0.0044824548
0.34625168
0.0055951171
0.34987156
0.0069502678
0.35485619
0.0074652879
0.36186936
0.007551383
0.36971734
0.0061422801
0.0060015227
0.37706389
0.36087655
0.35954585
0.35821426
0.35691834
0.3560493
0.35609241
0.3569176
0.35837024
0.36017
0.36208461
0.36444526
0.36754931
0.37203176
0.37762688
0.38457715
0.39204243
0.39959382
0.4057361
0.41173762
0.10550867
0.046295842
-0.044643891
0.10422586
0.047148441
-0.045865633
0.10321257
0.047932188
-0.046918894
0.1024542
0.048862951
-0.048104576
0.10220462
0.048558557
-0.048308979
0.10193703
0.049049778
-0.048782196
0.10233084
0.049085947
-0.049479753
0.10331567
0.047426272
-0.048411101
0.10424948
0.046991838
-0.047925646
0.10607246
0.046552897
-0.048375882
0.10849604
0.044264841
-0.046688424
0.11089327
0.042113168
-0.044510395
0.11355605
0.041357089
-0.044019871
0.11713188
0.040080528
-0.043656358
0.12113843
0.038238817
-0.042245365
0.12502123
0.036429235
-0.040312037
0.12826897
0.035835478
-0.039083209
0.13070681
0.036644387
-0.039082231
0.037475181
0.13159474
-0.038363112
0.10791082
0.04846344
0.10618275
0.048876507
0.10441271
0.049702234
0.10354165
0.04973401
0.10250514
0.049595061
0.10200586
0.049549067
0.10230024
0.048791563
0.102431
0.047295515
0.10331232
0.046110515
0.10530528
0.044559938
0.10738879
0.042181328
0.10944908
0.040052873
0.1129386
0.037867569
0.11719986
0.035819267
0.12147252
0.033966161
0.12521446
0.032687299
0.12842338
0.032626558
0.13235333
0.032714436
0.033043069
0.13678544
0.10928863
0.050887012
0.10664851
0.051516619
0.10475114
0.051599604
0.10292009
0.051565068
0.10143706
0.051078086
0.10064559
0.050340541
0.099906037
0.049531112
0.09982025
0.047381301
0.10041728
0.045513483
0.1014137
0.043563521
0.10371043
0.039884594
0.10666751
0.037095793
0.11017141
0.034363668
0.11405568
0.031935007
0.11933741
0.02868443
0.12624266
0.025782041
0.13496772
0.023901503
0.14422075
0.023461404
0.025187013
0.15207681
0.10908343
0.054315691
0.10595047
0.05464958
0.10313268
0.054417398
0.10045137
0.054246371
0.098485499
0.05304396
0.096415932
0.052410109
0.095475891
0.050471152
0.094487024
0.048370169
0.094031846
0.045968661
0.095757938
0.041837429
0.097602262
0.038040269
0.099924991
0.034773064
0.10464685
0.029641809
0.11220155
0.024380306
0.12150594
0.019380036
0.13113311
0.016154873
0.14038381
0.0146508
0.14857326
0.01527196
0.018757411
0.15500286
0.10711684
0.058481901
0.10338926
0.058377157
0.099385245
0.058421417
0.096225205
0.057406412
0.092650118
0.056619045
0.090159987
0.05490024
0.087612691
0.053018448
0.085621284
0.050361575
0.085660289
0.045929655
0.085424945
0.042072773
0.085916948
0.037548266
0.091016653
0.029673359
0.09771184
0.022946622
0.1030537
0.01903845
0.10582306
0.016610667
0.10574675
0.016231189
0.10342219
0.016975363
0.1004318
0.018262342
0.021789227
0.097399988
0.10363424
0.063350396
0.098549497
0.063461895
0.09363968
0.063331234
0.088995179
0.062050914
0.084277913
0.061336311
0.080013015
0.059165138
0.075586273
0.05744519
0.073091348
0.0528565
0.069426301
0.049594702
0.066308796
0.045190279
0.067305281
0.03655178
0.069312808
0.027665832
0.066944052
0.025315377
0.059442819
0.026539684
0.048427661
0.027625825
0.03530412
0.02935473
0.020966123
0.03131336
0.0057622191
0.033466245
0.037076346
-0.0095249008
0.098827015
0.069410552
0.092336669
0.069952241
0.086100569
0.069567333
0.079310638
0.068840845
0.072786327
0.067860622
0.065626017
0.066325448
0.05920433
0.063866876
0.051794875
0.060265955
0.043785694
0.057603882
0.039282557
0.049693416
0.03368963
0.042144707
0.024726865
0.036628597
0.012265226
0.037777016
-0.0030429044
0.041847814
-0.020032277
0.044615197
-0.037770622
0.047093075
-0.056180139
0.049722877
-0.075993888
0.053279994
0.057556363
-0.096473906
0.092998907
0.076784642
0.085354825
0.077596323
0.077536545
0.077385613
0.068967277
0.077410112
0.060140979
0.07668692
0.050113949
0.076352478
0.039510747
0.074470077
0.027042072
0.072734631
0.018296566
0.066349387
0.010507413
0.05748257
-0.0034861879
0.056138307
-0.020982174
0.054124584
-0.039539608
0.056334449
-0.057357648
0.059665855
-0.075622802
0.062880351
-0.094184042
0.065654314
-0.1125776
0.068116438
-0.13062381
0.071326206
0.07509393
-0.14816138
0.088602149
0.08545459
0.079873617
0.086324856
0.070639301
0.086619928
0.060945753
0.087103661
0.050590038
0.087042634
0.039372965
0.087569551
0.026502142
0.087340899
0.013250507
0.085986266
0.0043160382
0.075283856
-0.0077350336
0.069533642
-0.02539536
0.073798633
-0.04707109
0.075800314
-0.069817961
0.07908132
-0.090806349
0.080654243
-0.11007351
0.082147509
-0.12779131
0.083372116