/*--------------------------------*- C++ -*----------------------------------*\
  =========                 |
  \\      /  F ield         | OpenFOAM: The Open Source CFD Toolbox
   \\    /   O peration     | Website:  https://openfoam.org
    \\  /    A nd           | Version:  11
     \\/     M anipulation  |
\*---------------------------------------------------------------------------*/
FoamFile
{
    format      ascii;
    class       volVectorField;
    location    "0.034";
    object      U;
}
// * * * * * * * * * * * * * * * * * * * * * * * * * * * * * * * * * * * * * //

dimensions      [0 1 -1 0 0 0 0];

internalField   nonuniform List<vector> 
880
(
(25 -7.193297293223473e-16 0)
(25 -4.892259062637241e-16 0)
(25 1.263764970359488e-15 0)
(24.99999998567701 -5.69295147035424e-09 0)
(25 6.905445463239367e-16 0)
(25 -8.601462876221645e-16 0)
(25.00000000000002 4.665313700821884e-15 0)
(25.00000046071336 -2.72890597141897e-07 0)
(25 0 0)
(25.00000000000001 1.259199037292588e-15 0)
(25 -6.058286178354552e-15 0)
(24.99999949376246 -4.036088261079989e-06 0)
(25 0 0)
(25 -1.002051955233004e-15 0)
(25 -2.492174512131208e-15 0)
(24.99981262703463 -8.358744135029064e-05 0)
(25 -5.336512281184741e-16 0)
(25 -4.431126428282626e-16 0)
(25.00000000000001 1.793217752340863e-15 0)
(25 4.769879204953517e-14 0)
(25 -2.319486367920691e-16 0)
(25 8.476858953293916e-16 0)
(25.00000000000003 6.328035668005827e-15 0)
(25 1.432415926734613e-14 0)
(25.00000000000006 -8.90398256531632e-12 0)
(24.99999999976514 2.019666952352361e-10 0)
(25.00000063149935 1.079934168327013e-06 0)
(24.99999658168444 -1.00034148054226e-05 0)
(24.99631064925578 0.008699543894144538 0)
(24.98257188666158 0.04819984197534423 0)
(24.97799359985745 0.08332740059879057 0)
(24.98135132972346 0.08657752113142438 0)
(24.99999999983353 -1.354047063702692e-10 0)
(24.99999999976464 -1.831886047471417e-10 0)
(24.99999999974181 -2.068507441427165e-10 0)
(24.99999999995821 -6.232991428860013e-11 0)
(24.99999999620762 1.995506941012628e-08 0)
(24.99999999695068 2.637257849774025e-08 0)
(24.99999999691958 2.929077089937081e-08 0)
(24.9999999914092 9.784095024533544e-09 0)
(24.99998974066922 5.826838201999863e-05 0)
(24.99998848289109 6.491054305682904e-05 0)
(24.9999883553926 6.987998027957449e-05 0)
(24.99997596585326 4.792288238881418e-05 0)
(24.97959782501926 0.09220110280668495 0)
(24.97985204661371 0.1006513475482262 0)
(24.98000835464585 0.1040584645365941 0)
(24.96866688165548 0.1090733627048424 0)
(25.00248786685865 0.1295278896710706 0)
(25.02138011256493 0.07048903164663704 0)
(25.010477369789 0.01569933395279522 0)
(25.0011944681002 0.001167088782629004 0)
(24.99999618309221 0.0001794382352594825 0)
(25.00001789399021 0.0001206113381066099 0)
(25.00001397949903 3.556984141037911e-05 0)
(25.00000208022471 3.349668163847087e-06 0)
(24.99999999739956 1.193102223959153e-07 0)
(25.00000000940508 8.5115291878663e-08 0)
(25.00000000801902 2.662897131080902e-08 0)
(25.00000000122689 2.522559438630494e-09 0)
(24.99999999870716 -8.924323566536928e-10 0)
(24.99999999899326 -6.285037927446821e-10 0)
(24.9999999996966 -1.78699778997028e-10 0)
(24.99999999999808 -1.594015627020406e-11 0)
(25.00000000000001 -4.664967457190599e-13 0)
(25.00000000000001 7.319102481867039e-15 0)
(25 -5.132708992389302e-16 0)
(24.99999999999999 -5.172555515654225e-16 0)
(25.00000000003921 5.961804226028836e-11 0)
(25 -9.013832989137253e-13 0)
(25 -3.565495472790708e-13 0)
(25 -3.258850450245137e-14 0)
(25.00000000821737 9.66729331200067e-08 0)
(25.00000000000118 -1.156714974736265e-09 0)
(24.99999999984334 -5.790506688771883e-10 0)
(24.99999999997304 -6.245482358822667e-11 0)
(25.00002646658287 1.351923786362653e-05 0)
(25.00000002118176 -1.0388354765162e-06 0)
(24.99999983730889 -3.034864343674033e-07 0)
(24.99999997945375 -1.764150202456179e-08 0)
(24.99999999980795 -1.470037266542266e-10 0)
(25 -2.69546553690666e-13 0)
(25 1.818606088125344e-14 0)
(25 -5.132254900963808e-16 0)
(24.99999991965972 -1.135169204399211e-07 0)
(24.99999999899322 -2.637447455474642e-09 0)
(24.99999999999706 -3.987985326080795e-11 0)
(25 -3.74629973310977e-15 0)
(25.00002136589578 7.666172036910488e-05 0)
(25.00000014115118 1.481309939954714e-06 0)
(24.99999999995495 1.527452040574492e-09 0)
(24.99999999999993 -1.037544982221149e-11 0)
(25.01086395493798 -0.03970032375280481 0)
(25.00000990038146 -8.687268678867898e-05 0)
(25.0000000035937 -6.979104696349011e-08 0)
(24.99999999998774 -3.468611066405402e-11 0)
(25.00000000000002 -1.792384744175968e-12 0)
(24.99999999497733 6.985483091038071e-10 0)
(24.99997698326374 8.153746034312732e-06 0)
(24.92254934306258 0.04607581485190339 0)
(24.99999999960627 -3.431625973380977e-10 0)
(24.99999997783386 5.83589011983112e-08 0)
(24.99990507456592 0.0001689402733516058 0)
(24.75534330823171 0.3296909106328608 0)
(24.99999999940302 -5.15502262661127e-10 0)
(24.99999997224019 8.561709654707098e-08 0)
(24.99988645110866 0.000235232036548388 0)
(24.74478767485494 0.4224481555967762 0)
(24.99999999925948 -6.49792728639212e-10 0)
(24.99999996609984 1.048417792971832e-07 0)
(24.99987026549796 0.000269602285911128 0)
(24.73418760889924 0.4445813958494398 0)
(24.72068730041796 0.4667474751506268 0)
(24.99985017013069 0.0003107148717667006 0)
(24.99999995797855 1.296735656547797e-07 0)
(24.99999999904824 -8.242023755368292e-10 0)
(24.70575768365541 0.4924621557608855 0)
(24.99982576750592 0.0003622715383919687 0)
(24.99999994753092 1.627881578958112e-07 0)
(24.99999999877824 -1.0607648300916e-09 0)
(24.68713146359102 0.5192167465974646 0)
(24.99979342350303 0.0004223024080135788 0)
(24.99999993244741 2.042969943548589e-07 0)
(24.99999999843092 -1.366921525548592e-09 0)
(24.66929699378982 0.5617874425075716 0)
(24.9997565688959 0.0005210571490437691 0)
(24.99999991535601 2.768803655903246e-07 0)
(24.99999999775876 -1.932035573137876e-09 0)
(24.99999999846648 -1.313864790791007e-09 0)
(24.9999999455282 1.817165412515902e-07 0)
(24.9998139090685 0.0004005028012288453 0)
(24.69716546551561 0.5258012253785983 0)
(24.9999999985488 -1.274849333684659e-09 0)
(24.9999999407755 1.799016913982428e-07 0)
(24.9998177523202 0.0003781464212161133 0)
(24.72478424596925 0.4758875679688028 0)
(25.00000000416845 -3.967405577098569e-10 0)
(24.9999999361428 1.903139151219538e-07 0)
(24.9998215029411 0.0003671855746202709 0)
(24.75499444780986 0.4232596471975903 0)
(24.99999998402806 -4.060306812820489e-09 0)
(24.99999997140584 1.07727850885123e-07 0)
(24.99992247049645 0.0001845585269653715 0)
(24.88799861170508 0.2101036341220154 0)
(24.99999997877991 -4.288579811223252e-08 0)
(24.99996756700687 -4.514565610785304e-05 0)
(24.99681409300501 -0.005083446625795623 0)
(25.1068604786914 -0.06297225310261004 0)
(24.99999998115714 -1.643743958429871e-08 0)
(24.99997384151605 -2.58780986776952e-05 0)
(24.98658483205817 -0.007555404934221796 0)
(24.27623438097284 -0.4707592328014855 0)
(24.99999998408146 -1.275461724816961e-08 0)
(24.99997406436148 -2.069504386050084e-05 0)
(24.98140977997467 -0.006487280652672062 0)
(23.51442821762056 -0.256676449580219 0)
(24.99999998823452 -8.218262077241952e-09 0)
(24.99997432605046 -1.58564319009331e-05 0)
(24.97721461414787 -0.003765645101878988 0)
(23.21009237801465 0.0001286915189399517 0)
(23.69907311126352 -0.04359067840856573 0)
(24.98918740101745 -0.005181257417789393 0)
(24.99998706794494 -1.407961508156318e-05 0)
(24.99999999067692 -1.119624951002668e-08 0)
(23.78625704933197 0.02284817516966075 0)
(24.99021999393522 -0.003892750522710753 0)
(24.99998916636819 -1.073351952657303e-05 0)
(24.9999999913273 -7.751032198506959e-09 0)
(23.95686445258355 -0.03110254517158403 0)
(24.9931282299775 -0.003307970920111578 0)
(24.99999333210377 -7.574945700117105e-06 0)
(24.99999999386534 -4.609815372626805e-09 0)
(23.71048007017741 0.1197899566558988 0)
(24.99028205379156 -0.0033939100578923 0)
(24.99999068189689 -8.713978418205025e-06 0)
(24.99999999442068 -6.755333754673741e-09 0)
(24.57259785171336 0.07053344202870722 0)
(24.99847354180575 -0.0005837393770380984 0)
(24.9999987088783 -1.124811745718367e-06 0)
(24.99999999915374 -1.09943870083004e-09 0)
(24.95373710047995 0.003256627575308655 0)
(24.99993642978556 -4.090160781566568e-05 0)
(24.99999996733186 -3.891545892190785e-08 0)
(24.99999999991001 -1.662273135934568e-11 0)
(24.99921049957457 -0.004433503256226824 0)
(24.99999975369086 -7.843056015207654e-06 0)
(25.00000000054325 -7.178725392039088e-09 0)
(24.99999999999986 -8.793023445021067e-12 0)
(25.00503099250464 -0.01997393564495812 0)
(25.00001383404903 -4.708061877650713e-05 0)
(25.00000001085 -4.936899110517407e-08 0)
(24.99999999969194 -8.785450991807792e-11 0)
(24.89623965242726 -8.801580336143662e-05 0)
(24.99945395071839 -1.391350677441023e-07 0)
(24.99999932992115 7.611787230943758e-12 0)
(25.00000001080047 2.987999876444413e-12 0)
(24.89643990097355 -0.0002794791506450441 0)
(24.99945465959017 7.481571285419846e-08 0)
(24.99999932688857 5.918611884460373e-09 0)
(25.00000001063132 1.247336966575867e-10 0)
(24.8968283661265 -6.392953773949822e-05 0)
(24.99945341806984 3.193600936956593e-06 0)
(24.99999928326161 3.989714174280148e-08 0)
(25.00000000923832 8.981549959067549e-10 0)
(24.89696343161092 0.003234738861000303 0)
(24.99945333489352 1.645569466106228e-05 0)
(24.99999919045432 7.896356384383199e-08 0)
(25.00000000627808 1.379639241435404e-09 0)
(25.00503099253985 0.01997393563307215 0)
(25.00001383407388 4.708062227255085e-05 0)
(25.00000001088208 4.936886608716336e-08 0)
(24.99999999967817 8.775738998959881e-11 0)
(24.9992104996157 0.00443350326060416 0)
(24.99999975371881 7.843056924604983e-06 0)
(25.00000000060813 7.186411717442062e-09 0)
(25 8.686840772892275e-12 0)
(24.95373710049358 -0.003256627552429998 0)
(24.99993642977972 4.090161698067086e-05 0)
(24.99999996733117 3.892047606965682e-08 0)
(24.99999999991775 1.626587349947709e-11 0)
(24.57259785166318 -0.07053344202584494 0)
(24.9984735417405 0.0005837393809233427 0)
(24.99999870887402 1.124811192344074e-06 0)
(24.99999999916836 1.099443723579775e-09 0)
(24.99999999063272 1.118728793522928e-08 0)
(24.99998706787042 1.407962225795481e-05 0)
(24.98918740098457 0.005181257418622965 0)
(23.69907311125171 0.04359067844625766 0)
(24.99999999130127 7.757705514310108e-09 0)
(24.99998916635858 1.073351610104131e-05 0)
(24.99021999390854 0.003892750534809935 0)
(23.78625704931016 -0.02284817521995559 0)
(24.99999999390139 4.617226330673465e-09 0)
(24.9999933320632 7.574939678297233e-06 0)
(24.99312822997672 0.003307970922656403 0)
(23.95686445250565 0.03110254516196783 0)
(24.99999999441482 6.748430628939758e-09 0)
(24.99999068188225 8.713985724024335e-06 0)
(24.99028205373307 0.003393910032910775 0)
(23.71048007020306 -0.1197899566235031 0)
(23.21009237804096 -0.0001286915520947699 0)
(24.97721461418622 0.003765645078300062 0)
(24.99997432607769 1.585641054899457e-05 0)
(24.99999998824579 8.210796312274994e-09 0)
(23.51442821766772 0.256676449592709 0)
(24.98140978001642 0.006487280652473406 0)
(24.9999740644321 2.069504401263722e-05 0)
(24.99999998414777 1.275548591952717e-08 0)
(24.27623438097369 0.4707592328122572 0)
(24.98658483210949 0.007555404941617889 0)
(24.99997384152056 2.587810348179692e-05 0)
(24.99999998121183 1.644840564625216e-08 0)
(25.10686047867594 0.0629722530971934 0)
(24.9968140930265 0.005083446626017932 0)
(24.9999675670295 4.514566654295994e-05 0)
(24.99999997869912 4.289129568892784e-08 0)
(24.99999999847718 1.31336046017009e-09 0)
(24.99999994549484 -1.817183980260066e-07 0)
(24.99981390904429 -0.0004005028058714372 0)
(24.69716546545962 -0.5258012253776632 0)
(24.99999999854201 1.274370313500619e-09 0)
(24.99999994076116 -1.7990062036351e-07 0)
(24.99981775231903 -0.0003781464191789727 0)
(24.72478424597572 -0.4758875679594252 0)
(25.00000000413029 3.952543049926303e-10 0)
(24.99999993614673 -1.903108101252557e-07 0)
(24.99982150297457 -0.0003671855676885203 0)
(24.75499444781661 -0.4232596471968711 0)
(24.99999998396212 4.056871789285434e-09 0)
(24.99999997140774 -1.077222089981912e-07 0)
(24.99992247052156 -0.0001845585240418672 0)
(24.88799861170535 -0.2101036341244285 0)
(24.66929699369236 -0.5617874425157132 0)
(24.99975656893708 -0.0005210571426711911 0)
(24.99999991530493 -2.76883628530547e-07 0)
(24.9999999977658 1.93228042708905e-09 0)
(24.68713146350747 -0.519216746598713 0)
(24.99979342343106 -0.0004223024046218294 0)
(24.99999993243685 -2.042992270501731e-07 0)
(24.9999999984233 1.367104807656934e-09 0)
(24.70575768367626 -0.4924621557622719 0)
(24.99982576743024 -0.000362271544400631 0)
(24.99999994748818 -1.627894669133871e-07 0)
(24.99999999878376 1.060674852666873e-09 0)
(24.72068730037546 -0.4667474751546672 0)
(24.99985017019356 -0.000310714870957952 0)
(24.99999995797627 -1.296745655717821e-07 0)
(24.99999999905545 8.242047069931678e-10 0)
(25 1.859793131960705e-12 0)
(24.99999999494344 -7.002523425606246e-10 0)
(24.99997698327022 -8.153743033150178e-06 0)
(24.92254934314202 -0.04607581484902543 0)
(24.99999999962718 3.428401913085727e-10 0)
(24.99999997786897 -5.835783790779969e-08 0)
(24.99990507453995 -0.00016894027653131 0)
(24.75534330823155 -0.3296909106267124 0)
(24.99999999941156 5.154635208966694e-10 0)
(24.99999997223696 -8.561739054648393e-08 0)
(24.99988645110006 -0.0002352320384284949 0)
(24.74478767481747 -0.4224481555989787 0)
(24.99999999926876 6.49768129729664e-10 0)
(24.99999996609187 -1.04842293275138e-07 0)
(24.99987026552593 -0.0002696022814796046 0)
(24.73418760888799 -0.4445813958513523 0)
(24.99999999998887 3.487264393230951e-11 0)
(24.99999999999861 1.037683314364882e-11 0)
(25 -3.178164371671005e-14 0)
(25 2.974412410357771e-16 0)
(25.00000000364476 6.979412400666891e-08 0)
(24.99999999996035 -1.527932241038897e-09 0)
(24.99999999997045 4.065280825792402e-11 0)
(25 -1.736914782949355e-14 0)
(25.000009900369 8.687268087602e-05 0)
(25.00000014111682 -1.481307408317062e-06 0)
(24.9999999990166 2.635466106994629e-09 0)
(25 2.39135227140987e-13 0)
(25.01086395493456 0.0397003237503064 0)
(25.00002136589376 -7.666171939374484e-05 0)
(24.99999991965796 1.135170910240672e-07 0)
(24.9999999998078 1.467863430376284e-10 0)
(25.00000000000002 -3.467601115964522e-15 0)
(25 2.962906282750243e-14 0)
(24.99999999997033 6.059352946369381e-11 0)
(24.99999997944218 1.764098031971183e-08 0)
(25 9.345428741129388e-16 0)
(25 3.185446562749033e-13 0)
(24.99999999980035 5.811440447727029e-10 0)
(24.99999983730769 3.034877973582273e-07 0)
(25 4.783739725973354e-16 0)
(25 7.283835972392501e-13 0)
(25.00000000002102 1.156368616652768e-09 0)
(25.00000002117724 1.038835626544418e-06 0)
(25 4.354333043645294e-13 0)
(25.00000000003229 -6.015394125314163e-11 0)
(25.00000000818537 -9.667777269584443e-08 0)
(25.00002646659289 -1.351923427621924e-05 0)
(24.99999999873765 8.909567074194402e-10 0)
(24.9999999974442 -1.193115506383317e-07 0)
(24.99999618312862 -0.0001794382404879166 0)
(25.00248786686733 -0.12952788967564 0)
(24.9999999990247 6.275267233243162e-10 0)
(25.00000000939759 -8.510492422797313e-08 0)
(25.00001789399212 -0.000120611330034875 0)
(25.02138011260872 -0.07048903165475598 0)
(24.99999999970149 1.812302270761089e-10 0)
(25.00000000796569 -2.66317295315334e-08 0)
(25.00001397951378 -3.55698391581609e-05 0)
(25.01047736979558 -0.01569933395400099 0)
(24.99999999999822 1.606259754102154e-11 0)
(25.00000000120901 -2.526720103042068e-09 0)
(25.00000208021785 -3.349662171676035e-06 0)
(25.0011944681408 -0.001167088773727791 0)
(24.96866688163616 -0.109073362690783 0)
(24.99997596578084 -4.7922915916214e-05 0)
(24.99999999143197 -9.786589067229362e-09 0)
(24.99999999996746 6.142389065950317e-11 0)
(24.98000835466504 -0.1040584645274956 0)
(24.99998835528905 -6.987998759974295e-05 0)
(24.9999999969273 -2.929030059813788e-08 0)
(24.99999999973519 2.07040868979406e-10 0)
(24.97985204655505 -0.100651347582597 0)
(24.99998848284161 -6.491052423804063e-05 0)
(24.99999999694977 -2.637615082469907e-08 0)
(24.99999999977193 1.835773168213868e-10 0)
(24.97959782503397 -0.09220110279919648 0)
(24.99998974080423 -5.826830307526134e-05 0)
(24.99999999621819 -1.99525940808778e-08 0)
(24.99999999982847 1.351280755922882e-10 0)
(24.98135132969361 -0.08657752113213117 0)
(24.99999658168662 1.00033556663756e-05 0)
(25 -9.608173928653659e-14 0)
(25 -4.348522498808188e-14 0)
(24.97799359987426 -0.08332740059580886 0)
(25.00000063155001 -1.079919791851625e-06 0)
(25 5.786810595746405e-16 0)
(25.00000000000001 1.313903598796928e-15 0)
(24.98257188663177 -0.04819984196763245 0)
(24.99999999978643 -2.010104605651392e-10 0)
(25 3.709941798090211e-16 0)
(25.00000000000001 2.967227202385806e-15 0)
(24.99631064926362 -0.008699543884046241 0)
(25.00000000000001 6.179825602837384e-12 0)
(25 -9.961280647514704e-16 0)
(25.00000000000002 -3.35685669365694e-15 0)
(25 1.363426031658841e-15 0)
(25 1.107125794929431e-15 0)
(25 0 0)
(24.99999998513931 5.792606107521373e-09 0)
(24.99999999999999 -2.843418720158383e-19 0)
(25 1.172698969426126e-15 0)
(25 -1.811756261851014e-16 0)
(25.00000046125382 2.728122046134112e-07 0)
(25 -1.244346790815827e-15 0)
(25 -6.735803697600363e-16 0)
(25 -8.877705839172979e-16 0)
(24.99999949378309 4.036046213892732e-06 0)
(25 -6.429710069244212e-16 0)
(25 -1.106958611969654e-16 0)
(25.00000000000002 3.003931220142695e-14 0)
(24.99981262705293 8.358742251907784e-05 0)
(25.00000052738723 6.86803275559789e-10 0)
(25.00001867598524 -3.788439554259632e-06 0)
(25.00016454967385 5.094354235248315e-05 0)
(24.99835961906612 -0.002269781998890088 0)
(25.00001867609225 3.7884590881945e-06 0)
(25.00010094136503 5.977268242124088e-12 0)
(25.00039348505747 -0.0005940419153533989 0)
(24.9899489914703 -0.02059113126166051 0)
(25.0001645496828 -5.094353114421379e-05 0)
(25.00039348505693 0.0005940419026264324 0)
(24.99708229586538 -1.003878913111157e-11 0)
(24.79401571280369 -0.05613720753172916 0)
(24.99835961904457 0.002269781975228494 0)
(24.98994899145269 0.02059113122950942 0)
(24.79401571281247 0.05613720753088199 0)
(22.70973676871954 -6.517678795786446e-12 0)
(21.24851957635534 2.232877712827564 0)
(22.36123771090323 2.775187777221424 0)
(24.3886982129106 1.438503175113802 0)
(24.85054790043754 0.4140429372127626 0)
(21.7186012737934 4.802705680126863 0)
(22.0715054039874 5.115148615683869 0)
(23.6223205035423 4.005283312099427 0)
(24.26255260203715 2.213834189425589 0)
(22.52346658702049 5.736513426934824 0)
(22.78176818939775 6.024470337661304 0)
(23.82691331061243 5.33290717491646 0)
(24.21235124058342 3.678707524478726 0)
(22.79482018210477 5.936360488064444 0)
(23.07984205702502 6.26684025355904 0)
(24.0221851235225 5.634607946328258 0)
(24.30360937825145 3.988453292993966 0)
(24.28400859264943 4.149588958211484 0)
(24.29081382753434 4.222408436984045 0)
(24.30338923967851 4.243583362170662 0)
(23.98158187867969 4.7112988410715 0)
(23.99197676480865 5.725266000346791 0)
(23.99936923396466 5.76302703016297 0)
(24.0123798570073 5.774994315995785 0)
(24.10480492975673 6.271410992866586 0)
(23.04579516140392 6.320464712742965 0)
(23.07096361852782 6.330639368555829 0)
(23.09088952145224 6.335606523736526 0)
(23.84361040497082 7.455177421452508 0)
(22.76910166773056 5.945085390045532 0)
(22.79638859971847 5.959436574748072 0)
(22.81408446569306 5.965417993069873 0)
(24.97594381691524 7.944522640521585 0)
(25.49133619926631 3.441231904881406 0)
(25.77211971778273 1.310039832307966 0)
(25.21512026619129 0.204985128298199 0)
(25.01686855728341 0.007499662356075208 0)
(26.33904176913253 3.973911020105124 0)
(26.35498884405972 1.185948295561841 0)
(25.3487091635721 0.1152393105052472 0)
(25.02297703571558 -0.001422844149809535 0)
(28.16396560531342 2.648650813724461 0)
(27.19087014676857 -0.1085574680072059 0)
(25.49562240548006 -0.119645864306446 0)
(25.03650876826028 -0.01558858303356781 0)
(22.38192376006785 0.4505901738986682 0)
(23.51394937465331 -0.159766554522135 0)
(24.59590766957693 -0.1042812508035546 0)
(24.95079526525091 -0.01433034219812857 0)
(25.00030276070716 -0.0001795462485241794 0)
(25.00000973594639 -4.509217823142219e-05 0)
(24.99999654784661 -5.389604304432015e-06 0)
(24.99999986958105 -6.35476818554478e-08 0)
(25.00057580233638 -0.0006016347888975373 0)
(25.00006188276484 -0.000119347790073901 0)
(24.99999992345781 -3.280719968191527e-06 0)
(24.99999997819288 5.945530889527769e-09 0)
(25.00164281337419 -0.001295514378188422 0)
(25.00016319313059 -0.0001054177322100073 0)
(25.00000383348043 -3.397408588507659e-06 0)
(24.99999997635 -1.19705501491544e-08 0)
(24.99502012308723 -0.00148001195518401 0)
(24.99960180125601 -0.0001194581376263944 0)
(24.99998865333485 -3.268079487517001e-06 0)
(24.99999994296968 -1.170331758095851e-08 0)
(24.99999999600413 2.088402350204877e-09 0)
(25.00000002121323 -1.149086667937813e-09 0)
(24.99999179287059 -7.950491594080127e-06 0)
(25.27199915608686 -0.8236327595374302 0)
(24.999999999662 2.363788173316812e-09 0)
(25.00000000368541 -5.496026783479191e-10 0)
(24.99999889460776 -2.340548760607055e-06 0)
(25.1039887296169 -0.6282278943050178 0)
(25.00000000019891 7.070538828142109e-10 0)
(25.00000000080269 3.688399586203019e-10 0)
(25.00000000462946 -4.270696217315842e-07 0)
(23.00720739825684 0.6307968192313589 0)
(25.00000000190587 1.053900994061328e-09 0)
(25.0000000008217 4.285503897311247e-10 0)
(24.99999992640854 6.09928485965512e-08 0)
(20.74879188597201 -0.3281540707025705 0)
(20.04242961167475 4.887955689239211 0)
(18.42933017703499 9.31288793736271 0)
(18.84494138381811 10.25684686246925 0)
(18.88817199388181 10.31467043495866 0)
(15.98217036698108 7.816554398754429 0)
(16.86777204875089 11.39013592567328 0)
(17.50421733159904 12.27263530984188 0)
(17.55193598470895 12.31774569543519 0)
(13.11023881706538 7.798762702535686 0)
(15.886944396797 11.59208722704712 0)
(16.70657663921328 12.36263109423891 0)
(16.76085208765033 12.3768343115144 0)
(12.6982712921532 6.181372403763713 0)
(14.99470653268726 10.26035846884154 0)
(15.67995514687184 10.9645142660036 0)
(15.7549638754445 10.96783811994918 0)
(18.88263672227953 10.32494292060126 0)
(18.87123759222688 10.33920094567209 0)
(18.85744837248346 10.35852596968114 0)
(18.86651850446068 10.40239242218714 0)
(17.54998847012277 12.31390013948763 0)
(17.54709754742019 12.31059953400516 0)
(17.54581776408657 12.31070187658319 0)
(17.56803994820375 12.32651824241684 0)
(16.75722398004747 12.36928380201356 0)
(16.75621895834895 12.36433677783205 0)
(16.75812304733743 12.36370614780398 0)
(16.7800481204097 12.37162638205897 0)
(15.75176701732007 10.96131631549107 0)
(15.74866376143904 10.95675463507731 0)
(15.74828068223321 10.95565050474315 0)
(15.74010371539872 10.94273563094131 0)
(19.22922842949171 9.98289670336454 0)
(19.43865952022371 9.550553552558018 0)
(19.81741036348194 8.966647119585328 0)
(21.21887697286081 6.272726049838736 0)
(17.74256290657289 12.25341263538261 0)
(17.830615586684 12.0778742022484 0)
(18.4147095939259 11.70740721212045 0)
(20.77131829338834 10.56706101307154 0)
(16.77850011172898 12.33070636064822 0)
(16.70863084393031 12.23443764355516 0)
(17.39089384219292 12.23282766427457 0)
(22.01437785162788 14.99705772348187 0)
(15.82833618567813 11.03512487028722 0)
(15.87862631729524 11.07737995685298 0)
(17.08410133765148 11.58617938862249 0)
(27.56355124159404 17.64544738032992 0)
(26.1587819443188 1.881951149332882 0)
(20.09966919550236 -4.782109171403038 0)
(7.180952676121681 -2.563667764807827 0)
(4.874563537842147 -0.1346590796369964 0)
(25.77537124828036 4.118017695986784 0)
(16.58949383813088 -5.629976996515703 0)
(1.284290974855808 -2.698978924290891 0)
(-1.616495620284877 -0.1813911103121029 0)
(21.9132242123833 2.369220298792371 0)
(12.0765880955112 -9.654047772899117 0)
(-1.842292466159407 -1.992481288763817 0)
(-3.041011962543294 -0.3810866916521485 0)
(17.26721519246846 -8.634054930885911 0)
(8.730374020337541 -7.029384735591858 0)
(-0.7067049292727137 -1.002980792963184 0)
(-1.149502930335425 -0.2949104064985735 0)
(5.180372928802069 -0.05484672118884661 0)
(5.278189441663498 0.07541196162573956 0)
(5.463269552751674 0.3545493859166478 0)
(4.190904830084813 3.2321210241772 0)
(-1.647217599176423 -0.1107733180605962 0)
(-1.652030533526917 0.1583497881014386 0)
(-1.104069824925 1.488195224894943 0)
(-0.3814208933789827 6.681773851213823 0)
(-3.193112720123453 -0.2316735862107916 0)
(-3.247341005154885 0.197303522847915 0)
(-2.78767339404624 2.22691401168728 0)
(-0.0165005609952966 8.988254249408133 0)
(-0.9881413364799309 -0.1974407207642642 0)
(-1.055561364300586 0.1867583378859457 0)
(-0.8927286154788822 2.330486287264381 0)
(-0.6441717450349694 11.12681857364637 0)
(20.14459124036427 -2.712504158313657 0)
(23.72739638551039 -0.638033402059183 0)
(24.92421484823434 -0.2952903846094768 0)
(25.14209119470671 -0.7907054872804045 0)
(15.41892132972136 -2.629470031796092 0)
(22.19949399803171 -1.376212476973495 0)
(24.65802504410772 -1.024063484119773 0)
(25.52579224159748 -1.296337040247524 0)
(10.6825643415696 0.8277030620224218 0)
(20.15211257496385 -1.768590752953758 0)
(23.99731726880371 -1.889022858062179 0)
(28.70201043345053 -1.32252574679249 0)
(7.489885896819196 7.944320595682128 0)
(15.49360485556895 5.175398355514161 0)
(20.62778052444772 1.284884565125947 0)
(34.57343435605424 -0.2046738978343452 0)
(24.72845469178979 -1.943508043330064 0)
(22.66803444519296 -3.752411625884293 0)
(19.49962377668192 -3.305800576113058 0)
(17.1708593655625 -1.525483339373521 0)
(27.7499967771849 -5.811782847506965 0)
(22.39795786514015 -9.978104379589986 0)
(14.98899791728086 -8.707176383383366 0)
(9.820722492184373 -4.68284480878567 0)
(30.56654129050123 -8.506909234742954 0)
(23.52223389848201 -17.13851217112482 0)
(13.46925426379936 -14.85747017767645 0)
(7.395452394906329 -10.24613007920849 0)
(19.18155805457227 -10.63206523030739 0)
(7.262057543483867 -14.0062970919407 0)
(3.113465341221775 -11.98689318651015 0)
(2.638876630712583 -8.75583427582321 0)
(1.938236064698629 -4.185790209915132 0)
(1.864629704112353 -0.5578899057581249 0)
(1.871921315619798 -0.1496415385341604 0)
(1.881859384128434 -0.03321452265057251 0)
(4.468902924359205 -3.73200910826557 0)
(4.304863116863108 -0.9845894137888382 0)
(4.27493356910902 -0.4727261578258922 0)
(4.266212327649825 -0.1154944274557095 0)
(7.917649983102388 -1.20130622251939 0)
(7.886695152006809 -0.4251760511897701 0)
(7.782043136913635 -0.2673976334379459 0)
(7.724118998811382 -0.07588460292627153 0)
(16.31797806380706 -0.4310666324680376 0)
(16.34052643761486 -0.1349849015879287 0)
(16.2907556762241 -0.09151063537390507 0)
(16.26048692857301 -0.02520817081247587 0)
(1.881859384129272 0.03321452267683202 0)
(4.266212327667433 0.1154944274381445 0)
(7.724118998792863 0.07588460294734549 0)
(16.26048692856578 0.02520817092742376 0)
(1.871921315611354 0.1496415385422257 0)
(4.274933569124808 0.4727261578468158 0)
(7.782043136928321 0.2673976334236197 0)
(16.29075567624996 0.09151063523070356 0)
(1.864629704108576 0.5578899057236323 0)
(4.304863116852625 0.9845894138321674 0)
(7.886695152025384 0.4251760511619836 0)
(16.34052643763499 0.1349849015841112 0)
(1.938236064704418 4.185790209915236 0)
(4.468902924356872 3.732009108271478 0)
(7.917649983111492 1.201306222506186 0)
(16.31797806384044 0.431066632426752 0)
(17.17085936558131 1.525483339391551 0)
(19.49962377669258 3.30580057611687 0)
(22.66803444523904 3.75241162584724 0)
(24.72845469185176 1.943508043347182 0)
(9.820722492204261 4.682844808805783 0)
(14.98899791726262 8.707176383414643 0)
(22.39795786510389 9.978104379536623 0)
(27.74999677722565 5.811782847508256 0)
(7.395452394896195 10.2461300792059 0)
(13.46925426378782 14.85747017765296 0)
(23.5222338984803 17.13851217114291 0)
(30.56654129049689 8.506909234714728 0)
(2.638876630713449 8.75583427581687 0)
(3.113465341219354 11.98689318651544 0)
(7.26205754348186 14.00629709192958 0)
(19.18155805457109 10.63206523032324 0)
(34.57343435604806 0.2046738978312393 0)
(20.62778052442812 -1.284884565094988 0)
(15.49360485559327 -5.175398355500739 0)
(7.489885896813687 -7.944320595676224 0)
(28.70201043346207 1.322525746785652 0)
(23.99731726885339 1.889022858033481 0)
(20.15211257495405 1.768590752971144 0)
(10.68256434156446 -0.8277030620075418 0)
(25.52579224162093 1.296337040232931 0)
(24.6580250441642 1.024063484124003 0)
(22.19949399802698 1.376212476984826 0)
(15.41892132971663 2.629470031825479 0)
(25.14209119472732 0.7907054872678989 0)
(24.92421484826418 0.2952903846064092 0)
(23.72739638551736 0.6380334020786269 0)
(20.14459124034009 2.712504158340809 0)
(4.190904830092387 -3.23212102416449 0)
(5.463269552739856 -0.3545493859133395 0)
(5.278189441662852 -0.07541196164649727 0)
(5.180372928803726 0.05484672118836235 0)
(-0.3814208933662214 -6.681773851197982 0)
(-1.104069824921625 -1.488195224884572 0)
(-1.652030533515044 -0.1583497881016235 0)
(-1.647217599155572 0.1107733180628113 0)
(-0.01650056099604174 -8.98825424940479 0)
(-2.787673394036434 -2.226914011699064 0)
(-3.247341005171712 -0.1973035228467035 0)
(-3.193112720122696 0.2316735862159035 0)
(-0.6441717450356985 -11.12681857367681 0)
(-0.8927286154774126 -2.330486287286179 0)
(-1.055561364319465 -0.1867583378839708 0)
(-0.9881413364872609 0.1974407207787243 0)
(4.874563537863168 0.1346590796221472 0)
(7.180952676057042 2.563667764805061 0)
(20.0996691953761 4.782109171407168 0)
(26.15878194430867 -1.881951149319807 0)
(-1.6164956202322 0.1813911103055031 0)
(1.284290974792172 2.698978924255195 0)
(16.58949383805474 5.629976996505695 0)
(25.77537124832108 -4.118017695994888 0)
(-3.041011962526542 0.3810866916466015 0)
(-1.842292466221033 1.992481288723568 0)
(12.0765880954409 9.654047772877353 0)
(21.91322421241889 -2.369220298807206 0)
(-1.149502930336065 0.2949104064900457 0)
(-0.7067049293262534 1.002980792916792 0)
(8.730374020331293 7.029384735562557 0)
(17.26721519249734 8.634054930866505 0)
(21.21887697288496 -6.272726049813512 0)
(19.81741036348076 -8.96664711957907 0)
(19.43865952022698 -9.550553552547628 0)