/*--------------------------------*- C++ -*----------------------------------*\
  =========                 |
  \\      /  F ield         | OpenFOAM: The Open Source CFD Toolbox
   \\    /   O peration     | Website:  https://openfoam.org
    \\  /    A nd           | Version:  11
     \\/     M anipulation  |
\*---------------------------------------------------------------------------*/
FoamFile
{
    format      ascii;
    class       surfaceScalarField;
    location    "0.031";
    object      phi;
}
// * * * * * * * * * * * * * * * * * * * * * * * * * * * * * * * * * * * * * //

dimensions      [0 3 -1 0 0 0 0];

internalField   nonuniform List<scalar> 
1652
(
2.843686947071611
0.8895636090847481
0
1.954123337988149
0.8895636090834618
2.220446049250313e-16
1.064559728903287
0.8895636090848635
0
0.8895636063699226
9.258469546580272e-10
0.1749961250032432
2.843686947076741
1.779127218162428
1.954123337998014
1.779127218162189
1.064559728910183
1.779127218172692
1.779127150160068
0.1749962019480973
2.843686947090741
2.668690827246526
1.954123338008367
2.668690827244562
1.06455972891429
2.66869082726677
2.668685766778615
0.1749978174412962
2.843686947092868
3.558254436328659
1.954123338013008
3.558254436324421
1.064559728916617
3.558254436363166
3.55826594649811
0.1749636068283776
4.418652025448567
2.872852967045247
5.279049614570545
2.872852967043177
6.139447203693196
2.872852967042502
2.872852967040007
6.999844792818148
4.418652025437509
2.012455377932159
5.279049614550975
2.012455377929712
6.139447203664236
2.012455377929244
2.012455377926213
6.99984479277803
4.418652025481503
1.152057788815283
5.27904961463824
1.152057788808201
6.139444489311142
1.152057815217162
1.152057610381988
6.999864675879794
4.421126354060247
0.2805552826368283
5.294115463557436
0.2234131470694997
6.166601714794621
0.1714263125605601
7.029874226448018
0.1617329010241527
6.941512752863823
0.05833203957910005
6.883180712922171
0.05833203947186394
6.824848672983511
0.05833203942338738
0.05833203979131152
6.766516633057428
6.941512759532662
0.1166640312960053
6.883180720145791
0.1166640248815551
6.824848680012241
0.1166640202431054
0.1166640419539515
6.766516656551191
6.941531332945563
0.1748983225630691
6.883200141226667
0.1748864816692628
6.82486753887592
0.1748809053189721
0.1748837314477449
6.766567434692149
6.975584304062281
0.1227875101022352
6.917731826168652
0.1194825848222213
6.858389266088874
0.1186397179713594
6.810273789118515
0.1012490863217954
6.812261446390779
0.0002580745421580932
-0.1157679644814598
6.783095200359675
0.0001492711819064407
-0.0381263857497216
6.76829006767953
3.550650512618159e-05
-0.005079862953368208
2.614568257230943e-06
6.766550484388265
-0.0001512956990615266
6.766569699739891
2.30294011194232e-07
6.766541999516343
1.459094783884396e-07
6.76652002920997
3.841193196851833e-08
2.980988678125129e-09
6.766516716242281
6.766516664086978
2.355111328178339e-09
6.76651664928077
1.584706921242685e-09
6.766516635244162
4.282304510994095e-10
2.860955916617058e-11
6.766516633095486
6.76651663300655
6.766516633018339
6.766516633043781
6.766516633044874
6.766516633046038
-1.569744334517509e-12
6.766516633047141
-1.08257847131199e-12
6.766516633048259
-1.117328451982758e-12
-1.084243805848928e-12
6.766516633049343
6.76651663304619
-5.502442945726216e-11
6.766516633047123
-5.60440582830779e-13
6.766516633048245
-1.592392884219862e-12
-2.14350759364379e-12
6.766516633049349
6.766516632953848
-1.292131101560123e-07
6.766516632711823
2.03900663020562e-09
6.766516632989839
7.290816839145009e-10
4.58290072558043e-11
6.766516633048861
6.766516333282966
4.076774492767221e-06
6.766516295469868
1.092753715792316e-06
6.766516601900597
6.310827810329656e-08
6.766516632800845
3.765576739311882e-10
3.64930308194289e-13
6.766516633045858
-5.394978908057624e-11
1.376676550535194e-14
6.766516633049372
3.33066907387547e-16
6.766516633049323
6.766516633049342
-3.609690213401962e-09
6.766516755909421
2.556289624422448e-10
-8.838330067817424e-11
6.766516633555573
-6.006306563222097e-14
6.766516633041157
6.766516633049342
2.530910326814517e-06
6.766459852253494
2.582708709120141e-07
3.29890270656108e-09
6.766517042809453
2.989131164810033e-11
6.766516633352437
6.766516633048551
-0.000119808394262233
6.758520671761753
0.03339066309510552
-1.336787880390489e-07
6.766515089871707
-8.669587270304646e-11
6.766516632156129
6.766516633045218
0.1555520676213071
6.610964565426873
0.3111041257920362
6.610964569935586
0.4666123349103746
6.610979986501364
6.634653944049885
0.4980284864986448
0.1555520668210137
6.455412497810551
0.3111040164691157
6.455412505404013
0.4663719851427492
6.455434719358479
6.495455764444715
0.250594135100102
0.1555520664956093
6.299860430191697
0.3111039737157995
6.299860438808156
0.4662972843014803
6.299883855668965
6.338222064299463
0.2161661060548145
0.155552066244092
6.144308362574091
0.3111039438360109
6.144308372395136
0.4662611641807992
6.144333035109557
6.180100655458855
0.2172341254573408
-0.4662193580630908
6.021850253428998
0.2189210386224817
-0.3111041394335969
5.988782262693466
-0.1555521825745596
5.988756189591952
5.988756178300515
-0.4661686265103275
5.862968023782392
0.2202481802674013
-0.3111040908979154
5.833231131055321
-0.1555521821396615
5.833204006832859
5.833203994028984
-0.4661099252997569
5.704778296691031
0.221571606181049
-0.3111040306389382
5.677681725027472
-0.1555521815849241
5.677651825544697
5.677651809764326
-0.4660262826413122
5.543777578063688
0.2216616916434235
-0.3111039362461437
5.522125698859796
-0.1555521806397598
5.52209963954475
5.522099625479997
0.1993010953249849
5.322798527908325
0.3986019225860947
5.322798535493119
0.5974121645143056
5.322814760322366
5.338742218524228
0.3757746797592496
0.1993010954283534
5.123497430340708
0.3986019324917643
5.123497436593117
0.5974554338536378
5.123509893485834
5.134294953578651
0.434000044545882
0.1993010953909565
4.924196328490562
0.3986019318510974
4.924196338025425
0.5974917321235913
4.924206036248257
4.930994756603083
0.4923937130590788
0.1993010963306662
4.724895236777892
0.3986020648004268
4.724895237814558
0.5977173490713584
4.724899381433964
4.727163779843251
0.6603818882669262
-0.3354091753791247
5.060304466740091
-0.6707810714738963
5.060301880152377
-0.9970043687384751
5.058623752549077
4.984544048498885
-1.334957536470194
-0.3354091832971403
5.395713695253642
-0.670774174395411
5.3957073890914
-0.9909667764692369
5.390945336197913
4.832314181576153
-0.6251231349314212
-0.3354091896849917
5.731122924696223
-0.67077089949056
5.731116402113317
-0.9820984613489768
5.724040555197311
4.866268672659569
-0.1237323650147585
-0.3354091997028217
6.066532154398161
-0.6707723107690108
6.066528494137786
-0.9789013151065801
6.062767536067343
5.229302139657147
-0.06697798029555023
0.5132633496987283
5.456601371718571
-0.03191380606885271
0.3499654947522621
6.237847156440831
0.1749960893320031
6.24152519896569
6.241528273692562
0.5146862923961849
5.691279156582321
-0.03216612978270644
0.3499704502778115
6.413793793264713
0.1749960970789228
6.416522403132339
6.416524393817046
0.5166619506328214
5.867490040200889
-0.03342776284299079
0.3499765645856884
6.588817978102034
0.1749961045990249
6.591518568682751
6.591520513693553
0.5143956885281822
6.138430607244278
-0.01179857580284879
0.3499730293360071
6.764721443428345
0.1749961019849546
6.766515397212936
6.76651663311405
-0.002287157528268691
6.696244610284463
0.1659257759175313
-4.984295280952011e-06
6.766461264737107
-5.19762810569091e-09
6.766516606328893
6.766516633079393
-0.0001467208211212156
6.76489488597703
0.03466054531945822
-1.859975238271971e-07
6.766516284897126
-9.731282446523437e-11
6.766516633260039
6.766516633071152
-2.215217896262001e-05
6.767110844788443
0.007932473453061306
-2.826946587930479e-08
6.76651769498399
-1.086819523266058e-11
6.766516634714735
6.76651663306856
-0.0001189695469266949
0.02792417034617123
6.765550033293966
-1.914216751774944e-07
6.766499662089823
-1.694091533721576e-10
6.766516608685846
6.766516633394838
1.106601515147846
-0.8678648598478507
-0.1094835757028715
-4.794387109541276e-12
1.983284241027287
-0.874953448880456
-1.006306149520242e-12
2.858269958174575
-0.8749805884492519
6.687983500341943e-13
-0.8749806000466176
-2.451372438372346e-13
1.106605003827137
-1.735692460204018
-0.1098540381850438
1.983284243481144
-1.749906229274954
2.858269958087916
-1.749961167126453
-1.749961199813548
1.106609598907234
-2.603272219945918
-0.1105083777899998
1.98328420626691
-2.624858048251705
2.858269957140227
-2.62494172352789
-2.624941798778499
1.106629211753272
-0.1112550575427416
-3.472112698561231
1.983284157822016
-3.49981330504527
2.858269955098184
-3.499922290290649
-3.499922397853438
-0.000118969547096448
-6.767110844788743
0.0279241703455595
6.765550033286029
-1.914216065657115e-07
-6.766517694984188
6.766499662088246
-1.695696916215184e-10
-6.766516634716482
6.766516608685972
-6.766516633067372
6.766516633397702
-2.215217913592582e-05
-6.764894885978196
0.007932473452841315
-2.827028589003078e-08
-6.766516284897612
-1.104383251515628e-11
-6.766516633263641
-6.766516633072291
-0.0001467208218816074
-6.696244610288907
0.03466054532002411
-1.859979437135451e-07
-6.766461264737843
-9.73094937961605e-11
-6.766516606327619
-6.766516633079717
-0.002287157528668815
-6.138430607240516
0.1659257759186057
-4.984295109089487e-06
-6.764721443427256
-5.197589914018863e-09
-6.76651539721311
-6.766516633114262
-0.1749960893221726
6.241528273728298
-6.066532154443252
-0.3499654947316425
6.241525199000553
-6.066528494183324
-0.5132633496894651
6.237847156407175
-6.062767536020773
5.456601371676663
-5.229302139620031
-0.03191380606876484
-0.1749960970676062
6.416524393841915
-0.3499704502562159
6.416522403155099
-0.5146862923861451
6.413793793241055
5.69127915655536
-0.03216612978269636
-0.174996104586885
6.591520513706637
-0.3499765645628552
6.591518568694176
-0.5166619506222145
6.588817978090248
5.867490040189382
-0.03342776284271635
-0.1749961019727828
-0.3499730293103115
-0.5143956885150324
-0.01179857580299355
0.9789013151155034
-4.866268672628967
-0.06697798029560101
0.6707723107945029
-5.724040555166988
0.3354091997162391
-5.731116402144731
-5.731122924728546
0.9820984613583239
-4.832314181555096
-0.1237323650136386
0.6707708995137877
-5.390945336179679
0.3354091896967009
-5.395707389114292
-5.395713695273482
0.9909667764817431
-4.984544048491919
-0.6251231349299394
0.6707741744177806
-5.05862375254174
0.3354091833074563
-5.060301880163428
-5.060304466750936
0.9970043687505712
-4.727163779843091
-1.334957536474282
0.6707810714936565
-4.724899381433401
0.3354091753887235
-4.724895237815348
-4.72489523677879
0.199301095331432
5.322798527925346
-5.522099625503578
0.3986019226008927
5.322798535513832
-5.522099639573637
0.5974121645219872
5.322814760303781
-5.522125698832403
5.338742218504173
-5.543777578037718
0.3757746797620135
0.1993010954345139
5.123497430351382
0.3986019325057414
5.12349743660745
0.5974554338610308
5.123509893472251
5.134294953564464
0.4340000445475346
0.1993010953966472
4.924196328495956
0.3986019318637251
4.92419633803294
0.597491732129163
4.924206036241237
4.930994756596752
0.4923937130584876
0.1993010963361237
0.3986020648122192
0.5977173490763275
0.6603818882674724
-0.466026282634792
-5.704778296670469
0.221661691646743
-0.3111039362337152
-5.67768172500582
-0.1555521806341807
-5.677651825566693
-5.677651809782577
-0.4661099252929256
-5.862968023768548
0.2215716061814225
-0.3111040306258703
-5.833231131037238
-0.1555521815791371
-5.833204006849224
-5.833203994041162
-0.4661686265044503
-6.021850253428716
0.2202481802683642
-0.3111040908846184
-5.988782262686515
-0.1555521821336293
-5.988756189599752
-5.988756178306623
-0.4662193580570413
-6.18010065545641
0.218921038623383
-0.3111041394195346
-6.144333035115775
-0.1555521825682344
-6.144308372395437
-6.144308362573805
0.1555520676213658
6.610964565426795
-6.766516633045116
0.3111041257922818
6.610964569935941
-6.766516632156218
0.4666123349111854
6.610979986501151
-6.766515089871926
6.634653944050662
-6.758520671759825
0.4980284864972663
0.1555520668210978
6.455412497810424
0.3111040164693607
6.455412505403174
0.4663719851431222
6.455434719358363
6.495455764443689
0.2505941351016332
0.1555520664955157
6.299860430191593
0.3111039737154242
6.299860438808902
0.4662972843006526
6.29988385566442
6.33822206430006
0.2161661060537716
0.1555520662440326
0.3111039438359306
0.4662611641802656
0.2172341254585493
-6.766516633048581
8.67813598759426e-11
-6.766516633049344
-2.99097413503091e-11
-6.766516633049343
2.797762022055394e-14
-2.220446049250313e-16
-6.766516633049345
-6.766516633351098
1.336788694183966e-07
-6.766516633041633
-3.299004069923228e-09
-6.766516633049323
8.947664831282509e-11
-1.798561299892754e-14
-6.766516633049347
-6.76651704281067
0.0001198083940495143
-6.76651663355451
-2.530909634979039e-06
-6.766516633049371
3.609202103849185e-09
-3.711475571321898e-13
-6.766516633048879
-6.766459852253486
0.03339066309498634
-6.76651675590967
2.582705666553942e-07
-6.766516633045773
2.553548483774648e-10
-6.766516632800744
-5.392619684130295e-11
-1.101452262730618e-12
-6.766516633048242
-2.145617017390578e-12
-6.766516633048263
4.575545498042288e-11
-6.766516632990876
-6.76651660190042
3.766928990955876e-10
-1.10067510661338e-12
-6.766516633047141
-1.623368106606904e-12
-6.766516633047139
7.292402792735686e-10
-6.766516632712129
-6.766516295469864
6.310811279108819e-08
-1.100453062008455e-12
-6.76651663304604
-5.571099137569036e-13
-6.766516633046132
2.038950785987481e-09
-6.766516632954169
-6.766516333282947
1.092753829812221e-06
-1.583289055417936e-12
-6.766516633044879
-5.50776091401417e-11
-6.766516633093411
-1.292126085017387e-07
-6.76651671624268
-6.766550484387713
4.076774427042018e-06
-2.360212358887281e-09
6.766516632991036
-6.766516633037755
-2.303041020113028e-07
6.766516664070788
-6.766516656530208
-0.0002580745475377344
6.766569699755114
-6.766567434712395
6.812261446405699
-6.810273789138754
-0.1157679644812339
-1.58945057116e-09
6.766516633008028
-1.459189193919741e-07
6.766516649274224
-0.0001492711866005747
6.766541999526918
6.783095200369518
-0.03812638575056809
-4.33361901919227e-10
6.766516633038728
-3.842200513304306e-08
6.766516635241221
-3.550651017680817e-05
6.766520029213694
6.768290067684657
-0.005079862953349057
-3.377220725298002e-11
-2.991156100584647e-09
-2.614573057058145e-06
-0.0001512957001004733
-0.1748837314535347
-6.858389266100354
0.1012490863232946
-0.1166640419733088
-6.82486753888448
-0.05833203979544421
-6.824848680006051
-6.824848672967939
-0.1748809053260885
-6.917731826173146
0.1186397179719194
-0.1166640202629428
-6.883200141222631
-0.05833203942769649
-6.883180720155271
-6.883180712910888
-0.1748864816773583
-6.975584304065953
0.119482584822969
-0.1166640249016605
-6.94153133292322
-0.05833203947615451
-6.941512759561876
-6.941512752856873
-0.174898322573638
-7.029874226439699
0.1227875101014371
-0.1166640313168614
-6.999864675830503
-0.0583320395836403
-6.999844792821214
-6.999844792815366
-1.152057610376597
-6.166601714788117
0.1617329010248583
-2.012455377910965
-6.139444489303516
-2.872852967039931
-6.139447203692224
-6.139447203690341
-1.152057815213279
-5.294115463555596
0.1714263125613125
-2.01245537791648
-5.279049614630653
-2.872852967042259
-5.279049614566445
-5.279049614567443
-1.152057788808099
-4.421126354057495
0.223413147069901
-2.012455377921992
-4.418652025479765
-2.872852967044603
-4.418652025443834
-4.418652025446892
-1.152057788815259
-3.558265946490935
0.2805552826370077
-2.012455377927508
-3.558254436363265
-2.872852967046921
-3.558254436324422
-3.55825443632866
2.843686947076677
0.8895636090796828
1.954123337995112
0.8895636090815651
1.064559728908975
0.8895636090861363
0.889563606252316
0.1749961250391505
2.843686947077599
1.7791272181565
1.954123337999196
1.779127218159969
1.064559728911147
1.779127218174184
1.779127150205304
0.1749962019481894
2.843686947089469
2.668690827241873
1.95412333800662
2.668690827242819
1.064559728912863
2.66869082726794
2.668685766780166
0.1749978174405594
2.843686947088214
1.954123338006611
1.064559728911391
0.1749636068266631
0.174996142459639
0.1749961424668374
0.1749965823829869
0.1749960665363885
0.1749953693490311
0.1750002126886269
0.1748813215240766
0.1750170824169762
0.1749960665367502
0.1749965823847076
0.1749971236175633
0.1749971236188207
0.1750116881849288
0.1749763149790347
0.1749027997454766
0.1748643690337281
0.1750002126896018
0.1749953693500407
0.1749763149798547
0.1750116881859391
0.1749490680603983
0.1749490680598462
0.1728045332573034
0.1754993084551899
0.1748813215259678
0.1750170824176798
0.1749027997469073
0.1748643690348947
0.1728045332588627
0.1754993084544151
0.170311082003207
0.1703110820043527
-0.09730144262218293
0.2631221146696892
-0.1786695219396149
0.2432691746432632
-0.2460550259020044
0.2306336718367321
0.2009275646124113
-0.005453238931963589
0.2935932530280572
-0.05708292260304459
0.285739363442961
-0.1334267083943664
0.2848210983307666
0.2428729744478506
0.02335409037771041
0.3042502336588459
-0.006640910830451485
0.2998989638591079
-0.06091160500586368
0.3042604935099664
0.2641242853309779
0.02890182655224516
0.3053981708202866
0.002958003333226045
0.299713259369259
-0.04819996302824792
0.3086477608802435
0.2739804412089357
0.2754524449594594
0.03499218997884779
0.2763337019548074
0.0329694475276805
0.2767139572378511
0.03249800456158741
-0.005528241499470954
0.2793354427425396
0.3090596559740353
-0.004973315051042815
0.3094856477230178
-0.005532297756860816
0.3099801736784258
-0.005760505778640845
-0.06510275101304974
0.3245443394728416
0.2999666301561849
-0.02933820572171331
0.300449163898257
-0.02944606839339486
0.3009106375945113
-0.02943636933449773
-0.09988168634452449
0.3196459893580303
0.3055832209486505
0.3057932633548701
0.3061468022125707
0.2589268776890629
0.2672573844413388
-0.1634858815434476
0.241991753372915
-0.03991636467208942
0.2339883963639565
-0.004144125048859248
-3.152690456681428e-05
0.2333352863309319
0.2778035028444568
-0.1480989117860007
0.2437160422453258
-0.02624306926830394
0.2340487044985576
0.0003822848826273151
0.000232010048425435
0.2333322384520612
0.2697574745106778
-0.07476240409732071
0.2433384446627939
0.005835174028028189
0.2341478946514748
0.004884401964338203
0.0005203506902570765
0.2333419611654407
0.2028096749126135
0.2235073110088927
0.232433532868731
0.2332443504274475
0.2333278449628926
1.091621060556047e-05
0.2333280101869732
1.653654500555213e-06
0.2333281554639588
3.040449664259981e-08
-3.577360074835667e-10
0.2333281597309088
0.233327028504906
2.419407365683579e-05
0.2333281409630618
2.120286876405864e-06
0.2333281596221284
3.614049987055168e-08
-5.599015695523235e-11
0.2333281597794253
0.2333290604754206
4.752206742880682e-05
0.23332822635174
3.947813018934099e-06
0.2333281599790377
8.451866478909054e-08
1.465554344548536e-10
0.2333281597602172
0.2333192442303503
0.2333278470469667
0.2333281583105616
0.2333281597881724
0.2333281598698652
-7.920553102280792e-11
0.2333281599002719
5.349620746386563e-11
0.2333281191207723
1.00470269992492e-07
0.03853004732124066
0.2232766387476546
0.233328159786587
-5.695660609816855e-11
0.2333281597990625
-1.05931374783097e-11
0.233328166343993
1.902994190006169e-08
0.01837289942312981
0.220078159259129
0.2333281597914493
-4.51372828003116e-11
0.2333281597734179
-1.212513422998995e-11
0.2333281615196395
3.523335512234382e-09
-0.01534024768805209
0.2009266438284917
0.2333281597886892
0.2333281597733742
0.2333281599629488
0.1988717362262499
0.2747096609573811
0.2770465476636114
0.3036159537181745
-0.0001026906176335718
0.3066795655794793
-0.0259674522654797
-0.0252063899046886
0.306768613916833
0.3000847088838645
0.1160977435282505
0.3347896824044586
-0.06617435384990078
0.3386963408983309
-0.08446317440298745
-0.083956990396168
0.3387330140155349
0.2677870178202418
0.03458495387691529
0.3098750489269997
-0.08270593865118248
0.3145168643591153
-0.09458241799289413
-0.09449401137926094
0.3145533157983865
0.2609672787900906
0.2926595526141549
0.2978463250159227
0.2979162387520552
0.3068019702334001
-0.0243928777114385
0.3069047476548649
-0.02397940909539886
0.3071181525144135
-0.02373925045522574
-0.02264213476009691
0.3070861007600919
0.3386290838289955
-0.08332969199456663
0.3386069471078722
-0.08283054160145709
0.3386440430974861
-0.08255063956589248
-0.08079330736968371
0.3395272497903519
0.3144660895428821
-0.09415087620155527
0.3144478600660116
-0.09379401435868218
0.3145265686840917
-0.09363088405390019
-0.09217622054632102
0.314881080012864
0.2978537752505043
0.2977938820837719
0.2978120401370984
0.2990382264001764
0.326927211146528
0.02971914596099912
0.3522106242630276
0.06178703117500528
0.3831335039453252
0.1147294437429813
0.3382620144959043
0.4234790459902162
0.3488933712172774
-0.07260569743162804
0.3617941739042385
-0.07031289490858628
0.3893962942330536
-0.03414016811800491
0.09815186089640948
0.5235477781766703
0.3128894168017079
-0.09389608320308362
0.3123374847883793
-0.1018885104507188
0.3274618820429811
-0.0782240643167923
-0.04629482956630948
0.5067216321225558
0.3034330648817753
0.3157002135767004
0.381420054358962
0.5032790219473405
0.2582835615426485
-1.217488598146665
0.05726890506839873
-0.3947683019456124
0.006115308844811802
-0.03798497489121935
-0.01036853815692464
0.0002040680617730641
0.1891886126417228
-0.9288430218436532
0.02299777703002066
-0.1881177682038502
0.0001873837832720073
0.004831908129884564
0.01536986245317254
0.0002205660760385003
0.1007769631164136
-0.4949849060176898
0.008347663556878607
-0.07266816620774613
-0.0009327039715649049
0.01272157169094417
0.01661318274424539
0.0004420761101330177
0.06162482173045794
0.0007312032092267676
-1.62482633019826e-06
0.0006196224078396416
0.00315908990741022
-0.007144477834701179
0.005957341514484611
-0.00762227557508182
0.008279138711574624
-0.01060623949723643
-0.009849233301558243
0.02452135535902336
-0.0002108837412132802
0.01103972528219624
-0.001932904889732193
0.01136686379760486
-0.007235894839201324
0.01101450964465219
-0.003130064723816488
7.72594787317657e-05
-0.000683451516451784
0.01376077386213696
-0.003566728533235839
0.01447944925564839
-0.00932211761359949
0.01489299451043683
0.001838257188325552
-0.009984004538197557
3.648481611005002e-05
-0.00192186875868647
-0.007723402782987569
-0.006420242283979116
0.1791821036723112
0.08129820678017025
0.2281930577486854
0.03920794413974094
0.2339124764221296
0.01716625914626702
0.04291791535380152
0.24046264833963
0.1272656447918281
0.003841241476814139
0.2133520728875683
0.03808207805080788
0.2385820837440249
0.04049756077461347
0.04446858064820219
0.2565234225008284
0.08328005002751755
-0.04396720095737337
0.1947333481999936
0.01001852630050834
0.2489743917826952
0.04503851197124598
0.01928850202906585
0.2926451281870278
0.008480422626132779
0.1024449254754785
0.2109370130641368
0.2519135110631766
0.188377713479663
-0.3596047975882261
0.4336935041247504
0.1222730116223267
-0.2772502166382038
0.3727849870638518
0.04979963385672725
-0.1735578047575397
0.2921245167563865
-0.1034880104482318
0.003796485804775554
0.2409297971925944
0.2196739497723525
-0.2750081178469995
0.1492354533394893
-0.1806969925208963
0.06044698426853982
-0.09854895976928217
-0.04326569479746095
0.007142658274514442
0.2167299420373585
-0.1563184363852035
0.1673365353347293
-0.06098524592454471
0.09687664149498464
-0.04017749143734704
-0.01728284441388063
0.01727391679128052
0.1019243520740464
0.06997540785338995
0.05431473918175286
0.02115480334075404
0.001524245391166409
0.00528350803417618
0.0003724918032941456
0.004402108743806604
0.000230034211294779
0.004349049006297021
0.004338502765356077
-3.363108402876236e-14
0.003843759468754419
0.01681853112906564
0.001983634637274793
0.01632987643404631
0.0009959852232603109
0.01584201199932712
0.01550674659518022
7.173081573164097e-14
0.002756733569302589
0.04966181913905365
0.001808525976004914
0.04935398361446863
0.0009842636765333215
0.04860980481670231
0.04811687679224774
-1.752070710736575e-13
0.001372846075973905
0.0008230441974723529
0.0004111222866791248
-4.482664239802148e-13
0.0043385027653601
-0.0002300342113429991
0.01550674659527477
-0.0009959852232310461
0.04811687679203216
-0.0009842636765843293
-0.0004111222861909458
0.1094835757035068
0.004349049006272398
-0.0003724918032878052
0.0158420119994559
-0.001983634637413169
0.04860980481668684
-0.00180852597584015
-0.0008230441968195973
0.1098540381850893
0.004402108743770428
-0.001524245391088044
0.0163298764340646
-0.003843759468952868
0.04935398361448966
-0.002756733569133009
-0.001372846076001591
0.1105083777902785
0.005283508034209608
-0.02115480334077115
0.01681853112898012
-0.01727391679129943
0.04966181913901833
-0.007142658274438808
-0.003796485804753433
0.1112550575427178
-0.04979963385670023
-0.1034880104483582
0.2409297971926282
-0.1222730116219932
-0.1735578047572894
0.2921245167560692
-0.188377713479546
-0.2772502166382286
0.3727849870639503
-0.3596047975883239
-0.2404626483397608
0.4336935041248144
-0.06044698426887789
-0.04326569479743897
-0.1492354533392911
-0.0985489597694556
-0.2196739497720968
-0.1806969925206853
-0.2750081178468859
-0.2565234225009301
-0.09687664149488204
-0.01728284441386579
-0.1673365353347284
-0.0401774914373338
-0.2167299420371496
-0.0609852459245138
-0.1563184363850317
-0.2926451281868437
-0.05431473918179048
-0.06997540785337548
-0.1019243520740048
-0.2519135110628891
-0.210937013063723
-0.01928850202873966
-0.102444925475788
-0.04503851197057518
-0.008480422626125216
-0.01001852630089836
0.04396720095727318
0.006420242284024921
-0.2489743917826755
-0.04446858064762738
-0.1947333481998884
-0.04049756077388506
-0.0832800500275952
-0.03808207805113351
-0.003841241477169965
0.009984004538219914
-0.2385820837441432
-0.04291791535303852
-0.2133520728877207
-0.01716625914626163
-0.1272656447919821
-0.03920794414029583
-0.0812982067808603
-7.725947867625454e-05
-0.2339124764220382
-0.2281930577487112
-0.1791821036724984
-0.02452135535888884
-0.008279138711602969
-0.009849233301617806
-0.005957341514516426
-0.01060623949719278
-0.003159089907416091
-0.007622275575162325
-0.007144477834809537
-0.0002040680617634433
0.007235894839149892
-0.003130064723793693
0.001932904889721927
0.01101450964459162
0.0002108837412035346
0.01136686379773702
0.01103972528223247
-0.0002205660760397719
0.009322117613624047
0.001838257188439843
0.00356672853327436
0.01489299451034531
0.0006834515164603032
0.01447944925588791
0.01376077386227244
-0.0004420761101407537
0.0077234027830449
0.001921868758711881
-3.648481613431533e-05
-0.0006196224078683929
-0.006115308844730842
-0.01036853815738066
-0.05726890506706095
-0.03798497489042742
-0.258283561541177
-0.3947683019440216
-1.217488598148984
-0.4234790459901568
-0.0001873837832959708
0.01536986245309389
-0.022997777029428
0.00483190813038787
-0.1891886126403767
-0.1881177682030004
-0.9288430218443581
-0.5235477781765373
0.0009327039715700258
0.01661318274427747
-0.00834766355664298
0.01272157169131731
-0.1007769631157645
-0.07266816620728107
-0.4949849060178938
-0.506721632122536
1.624826345425663e-06
-0.000731203209090649
-0.06162482173008695
-0.503279021947408
-0.3831335039455765
0.3382620144979253
-0.3522106242630546
0.114729443743413
-0.3269272111462448
0.06178703117563855
0.02971914596262537
-0.3070861007594174
-0.3893962942333441
0.09815186089730121
-0.3617941739042538
-0.03414016811715714
-0.3488933712175576
-0.07031289490814352
-0.07260569743190515
-0.339527249790639
-0.3274618820431199
-0.046294829566211
-0.3123374847885927
-0.07822406431623619
-0.3128894168018207
-0.1018885104504977
-0.09389608320386744
-0.3148810800129407
-0.381420054359394
-0.315700213577076
-0.3034330648822269
-0.2990382264007705
-0.3071181525140302
-0.0226421347567286
-0.3069047476548387
-0.02373925045415759
-0.3068019702331766
-0.02397940909546881
-0.02439287771071574
-0.3067686139166286
-0.3386440430974376
-0.08079330736789947
-0.338606947107881
-0.08255063956478936
-0.3386290838290723
-0.08283054160082448
-0.0833296919944182
-0.3387330140156691
-0.3145265686842234
-0.09217622054506724
-0.3144478600660319
-0.09363088405280817
-0.3144660895429806
-0.09379401435817558
-0.09415087620162554
-0.3145533157984721
-0.2978120401378007
-0.2977938820840884
-0.2978537752506882
-0.2979162387522172
-0.3066795655794653
-0.02520638990402779
-0.303615953718083
-0.02596745226538721
-0.2747096609579858
-0.0001026906163758001
0.2770465476619566
-0.2232766387476162
-0.3386963408984573
-0.08395699039576332
-0.3347896824044215
-0.08446317440264728
-0.300084708884149
-0.0661743538493722
0.1160977435275133
-0.2200781592591689
-0.3145168643591961
-0.09449401137913427
-0.3098750489270009
-0.09458241799236444
-0.2677870178204075
-0.08270593865051246
0.03458495387673999
-0.2009266438284371
-0.2978463250160737
-0.292659552614229
-0.2609672787900043
-0.1988717362260523
-0.2333281191207432
0.03853004732103399
-0.2333281599002393
1.004701344342607e-07
-0.2333281598698466
5.337447150921548e-11
-7.920025746344095e-11
-0.2333281597309092
-0.2333281663439727
0.01837289942279746
-0.2333281597990285
1.902987761814856e-08
-0.2333281597865762
-1.061806198521253e-11
-5.695771632119317e-11
-0.2333281597794248
-0.2333281615196323
-0.01534024768833653
-0.233328159773415
3.523314140441158e-09
-0.2333281597914302
-1.213340539152341e-11
-4.514622009565983e-11
-0.2333281597601586
-0.2333281599629448
-0.2333281597733698
-0.2333281597886733
-0.2333281597881565
-0.2333281554639417
-3.576532958682321e-10
-0.2333280101869459
3.040442919655106e-08
-0.2333278449628443
1.653654555011652e-06
1.091621071525051e-05
-0.2333352863309024
-0.2333281596220848
-5.594419372201287e-11
-0.2333281409628851
3.614047133781995e-08
-0.2333270285048021
2.120286868467769e-06
2.41940738405777e-05
-0.2333322384519622
-0.2333281599789734
1.465711996218033e-10
-0.2333282263515658
8.451865929348656e-08
-0.2333290604756441
3.947813110971587e-06
4.752206745423093e-05
-0.2333419611652602