/*--------------------------------*- C++ -*----------------------------------*\
  =========                 |
  \\      /  F ield         | OpenFOAM: The Open Source CFD Toolbox
   \\    /   O peration     | Website:  https://openfoam.org
    \\  /    A nd           | Version:  11
     \\/     M anipulation  |
\*---------------------------------------------------------------------------*/
FoamFile
{
    format      ascii;
    class       surfaceScalarField;
    location    "4.175";
    object      phi;
}
// * * * * * * * * * * * * * * * * * * * * * * * * * * * * * * * * * * * * * //

dimensions      [0 3 -1 0 0 0 0];

internalField   nonuniform List<scalar> 
8667
(
15.890039
1.7882168
0.099521744
13.996103
1.6225056
0.27143073
12.099442
1.4425187
0.4541424
10.204124
1.3320504
0.5632674
8.3068838
1.2292682
0.6679721
6.43152
1.1290608
0.746303
4.5472163
1.0541616
0.83014214
2.7386676
0.89261461
0.91593412
0.73932162
1.0470058
0.95234011
15.888343
3.677652
13.993828
3.517021
12.09287
3.343476
10.188316
3.2366051
8.2987874
3.1187963
6.4149783
3.0128699
4.5441527
2.9249872
2.7366171
2.7001502
2.5383841
0.93755461
15.889582
5.5658481
13.988997
5.4176064
12.087346
5.2451261
10.17997
5.143981
8.2880732
5.0106935
6.4032144
4.8977287
4.5300621
4.7981395
2.7255077
4.5047045
4.3465023
0.91738955
15.889748
7.4538782
13.986598
7.3207567
12.082687
7.1490365
10.174337
7.0523313
8.2779171
6.9071134
6.3907664
6.7848794
4.5113887
6.6775172
2.7005518
6.3155415
6.1523876
0.8946665
15.889093
9.3425615
13.986826
9.2230235
12.079061
9.0568015
10.168
8.963392
8.2687934
8.8063202
6.3780955
8.6755774
4.5005976
8.5550151
2.6855659
8.1305732
7.9465723
0.89138114
15.888386
11.231954
13.987248
11.124161
12.077051
10.966998
10.165657
10.874786
8.2629851
10.708992
6.3628773
10.575685
4.4789389
10.438954
2.6568619
9.9526501
9.735616
0.86781824
15.888353
13.121379
13.986834
13.02568
12.076718
12.877114
10.161971
12.789533
8.25666
12.614304
6.355948
12.476397
4.4692092
12.325692
2.6367331
11.785126
11.51777
0.85457909
15.888311
15.010846
13.986773
14.927219
12.076113
14.787773
10.162693
14.702953
8.2519717
14.525025
6.3404806
14.387888
4.4474113
14.218762
2.6031818
13.629356
13.28576
0.83519219
15.888499
16.900125
13.988396
16.827322
12.077362
16.698807
10.161638
16.618677
8.2504846
16.436178
6.3374122
16.300961
4.4381105
16.118063
2.5772147
15.490251
15.052942
0.81003191
18.726903
15.951
20.5529
15.951781
22.378683
15.952002
24.204399
15.952063
26.029712
15.952447
27.854212
15.95328
29.677026
15.954966
31.498276
15.95653
15.95845
33.317607
18.662243
14.11608
20.496769
14.117254
22.330149
14.118622
24.162433
14.11978
25.99342
14.12146
27.823625
14.123076
29.65522
14.12337
31.490287
14.121463
14.119382
33.329354
18.545579
12.269307
20.391928
12.270905
22.238179
12.27237
24.083689
12.27427
25.929399
12.275749
27.771984
12.28049
29.6089
12.286455
31.437605
12.292758
12.30055
33.256437
18.470225
10.417759
20.322751
10.418379
22.173736
10.421385
24.024027
10.42398
25.874102
10.425674
27.72741
10.427182
29.59128
10.422585
31.457446
10.426592
10.426965
33.331031
18.291737
8.562201
20.149461
8.5606544
22.015589
8.5552577
23.882567
8.557002
25.750591
8.5576508
27.613973
8.5637992
29.468647
8.5679108
31.321121
8.5741177
8.5807771
33.167309
18.167099
6.6960626
20.042218
6.6855353
21.928588
6.6688881
23.82684
6.6587495
25.736461
6.6480304
27.658898
6.6413615
29.587398
6.6394111
31.525151
6.636365
6.6378634
33.468065
17.961309
4.8528175
19.824904
4.8219393
21.700032
4.7937604
23.599308
4.7594734
25.503733
4.7436054
27.428763
4.7163313
29.355076
4.7130989
31.29521
4.6962306
4.7107597
33.222314
17.335481
3.0075878
19.257486
2.8999348
21.232734
2.8185116
23.276809
2.7153985
25.358775
2.6616398
27.480561
2.5945449
29.614757
2.5789028
31.770756
2.5402321
2.5512874
33.930228
16.803258
1.2572723
18.782487
0.92070584
21.015214
0.58578486
23.345246
0.38536583
25.694572
0.31231432
28.053864
0.23525291
30.44226
0.19050717
32.820766
0.16172563
35.177318
0.19473558
33.190156
0.12745114
33.063271
0.12688447
32.936651
0.12662042
32.811
0.12565113
32.685835
0.12516456
32.562554
0.12328092
32.440219
0.12233541
32.321439
0.11877959
0.11728612
32.204153
33.209889
0.24691656
33.092218
0.24455478
32.976357
0.24248154
32.863473
0.2385351
32.753041
0.23559638
32.647372
0.22895006
32.544846
0.22486177
32.449041
0.21458423
0.20982752
32.3565
33.137791
0.36556252
33.023287
0.35905932
32.913346
0.35242249
32.806683
0.3451981
32.705558
0.33672114
32.608951
0.32555728
32.518926
0.31488612
32.436062
0.29744897
0.28789286
32.357996
33.234149
0.46244505
33.144334
0.44887388
33.059504
0.4372526
32.981112
0.42359023
32.907231
0.41060207
32.840795
0.39199303
32.777894
0.37778758
32.721984
0.35335856
0.34094721
32.66893
33.085947
0.54380753
33.013357
0.52146362
32.944717
0.50589248
32.886425
0.48188288
32.831544
0.46548262
32.787307
0.43622969
32.745073
0.42002187
32.712329
0.3861024
0.37210992
32.681167
33.431176
0.58069571
33.407556
0.54508427
33.3879
0.52554777
33.376738
0.49304538
33.367036
0.47518448
33.361092
0.44217383
33.354658
0.42645585
33.347336
0.39342452
0.37992602
33.33952
33.224255
0.5787545
33.230391
0.53894817
33.242811
0.51312824
33.254597
0.48125935
33.270598
0.45918295
33.284265
0.42850729
33.304693
0.40602765
33.321013
0.37710399
0.36025253
33.340687
34.102896
0.40608635
34.2609
0.38094425
34.42032
0.35370804
34.570182
0.33139748
34.72404
0.30532561
34.858453
0.29409401
34.981144
0.28333707
35.072917
0.28533048
0.30946905
35.123701
35.406924
0.17648032
35.573419
0.21444876
35.725457
0.20166993
35.863774
0.19308054
35.989926
0.1791738
36.100841
0.18317922
36.142284
0.24189406
36.059225
0.36838916
35.890044
0.47865054
35.754197
0.65878774
-0.52294051
35.462502
0.62165281
-0.3299583
35.037297
0.58725973
-0.16205453
34.594722
0.54627068
-0.10369553
34.206867
0.51418333
-0.12632852
33.875908
0.49663829
-0.16567943
33.598702
0.48802287
-0.2108169
33.369272
0.49018069
-0.26075029
0.4976233
33.158159
-0.28650998
35.258368
0.52411977
35.335968
0.54405293
35.363568
0.55966053
35.338554
0.5712844
35.272745
0.57999247
35.178591
0.59079244
35.067163
0.59945049
34.946715
0.61062902
0.62157284
34.822765
33.477991
0.38681523
33.611227
0.41081717
33.72875
0.44213757
33.83685
0.46318456
33.924892
0.49195056
34.003169
0.51251546
34.060121
0.54249792
34.107252
0.56349897
0.59459954
34.134225
33.446862
0.27947338
33.558995
0.29868411
33.666208
0.33492427
33.775359
0.35403374
33.875229
0.39208067
33.97599
0.41175436
34.066178
0.45230951
34.157103
0.47257455
0.51487351
34.236829
32.780907
0.17973285
32.883422
0.19616929
32.990912
0.22743369
33.100856
0.24408987
33.214398
0.2785394
33.328816
0.29733561
33.445692
0.33543388
33.561881
0.35638544
0.39759263
33.679162
32.742769
0.10589355
32.821157
0.11778135
32.906649
0.14194152
32.994195
0.15654482
33.092818
0.1799159
33.188133
0.20202083
33.298573
0.2249933
33.402806
0.25215236
0.2763755
33.524024
32.413536
0.050353474
32.475252
0.056065574
32.543913
0.073280986
32.618847
0.081610753
32.700439
0.098323559
32.789547
0.11291282
32.885715
0.12882487
32.991028
0.14683945
0.16514482
33.102259
32.393367
0.013486048
32.434316
0.0151168
32.483412
0.024184552
32.538983
0.026039886
32.598445
0.038861937
32.670904
0.040453789
32.744296
0.05543275
32.834175
0.056960956
0.073648747
32.925671
32.217639
32.232756
32.25694
32.28298
32.321842
32.362296
32.417729
32.47469
32.548338
32.624891
-0.076553072
32.720093
-0.095201649
32.817774
-0.097680441
32.940803
-0.12302967
33.065107
-0.12430384
33.214475
-0.14936759
33.37082
-0.15634575
33.550884
-0.18006386
-0.19293038
33.743815
33.035908
-0.18679015
33.145143
-0.2044373
33.276605
-0.22914176
33.407603
-0.25402773
33.560895
-0.27759647
33.716992
-0.305464
33.896811
-0.33616542
34.080295
-0.36354732
-0.3990882
34.286453
33.221403
-0.30593397
33.348082
-0.33111692
33.48813
-0.36918984
33.625563
-0.39146004
33.785156
-0.43718918
33.941812
-0.46212023
34.113647
-0.50800088
34.291273
-0.54117271
-0.583644
34.475828
33.636721
-0.41863103
33.769676
-0.46407224
33.890447
-0.48996071
34.032699
-0.53371189
34.162976
-0.56746698
34.314028
-0.61317186
34.454152
-0.64812522
34.616366
-0.7033859
-0.73748034
34.770202
33.796986
-0.53645458
33.913993
-0.58107987
34.028951
-0.60491863
34.147732
-0.65249322
34.259102
-0.67883646
34.378127
-0.73219686
34.492186
-0.76218446
34.610107
-0.8213065
-0.85661045
34.729237
34.318172
-0.61779823
34.385791
-0.6486987
34.456482
-0.67560936
34.513183
-0.70919409
34.575437
-0.74109128
34.624336
-0.7810953
34.680468
-0.81831649
34.725299
-0.86613755
-0.91139122
34.78008
34.154187
-0.63776068
34.159844
-0.65435528
34.161361
-0.67712657
34.147379
-0.69521213
34.128941
-0.7226529
34.094848
-0.74700268
34.060583
-0.78405155
34.016189
-0.82174374
-0.86938177
33.97418
34.697064
-0.51205981
34.563983
-0.52127386
34.415769
-0.52891307
34.25134
-0.53078271
34.075649
-0.54696181
33.884676
-0.55603001
33.692913
-0.59228859
33.490441
-0.61927206
-0.68000086
33.301061
32.940201
-0.29410208
32.697027
-0.27810014
32.425786
-0.25767186
32.151872
-0.25686886
31.889441
-0.28453086
31.600964
-0.26755285
31.28993
-0.28125442
30.94529
-0.27463258
30.572897
-0.30760743
0.71609959
30.153751
-0.29695355
0.91912059
33.09804
0.96965604
33.923644
0.92469695
34.825039
0.80427732
34.849656
0.62757859
34.946901
0.4281484
34.675259
0.21440783
34.500193
33.958222
0.77293226
29.720516
-0.33969694
0.97234288
32.898629
1.0210074
33.87498
0.96379554
34.882251
0.8380249
34.975427
0.67012628
35.114799
0.46918814
34.876197
0.23271093
34.736671
34.190933
0.80106906
29.26058
-0.34113322
1.0334398
32.666258
1.0909797
33.81744
1.0444314
34.928799
0.91753857
35.10232
0.71948234
35.312856
0.49785361
35.097825
0.25416977
34.980354
34.445103
0.85382785
28.834875
-0.42812291
1.0894814
32.430605
1.1459953
33.760926
1.0870416
34.987753
0.95434289
35.235019
0.76764215
35.499556
0.54914347
35.316324
0.27913895
35.250359
34.724242
0.89174873
28.399567
-0.45644054
1.1629322
32.159421
1.2300527
33.693806
1.178985
35.03882
1.0437872
35.370216
0.82085133
35.722492
0.57304389
35.564132
0.29716847
35.526234
35.021411
0.9593813
28.00131
-0.56112453
1.2239835
31.894819
1.289961
33.627828
1.2251617
35.10362
1.0831935
35.512185
0.87412735
35.931558
0.6351396
35.803119
0.32924146
35.832132
35.350652
1.0185279
27.535102
-0.55232064
1.3139194
31.599427
1.3909094
33.550838
1.3304224
35.164107
1.186408
35.656199
0.9366239
36.181342
0.65930307
36.08044
0.34698726
36.144448
35.697639
1.1107401
27.111903
-0.6875407
1.382894
31.327274
1.4543941
33.479338
1.3787811
35.23972
1.2237572
35.811223
0.98657142
36.418528
0.72452279
36.342489
0.38241589
36.486555
36.080055
1.2103891
26.478796
-0.57728169
1.503683
31.03398
1.5807613
33.40226
1.5038794
35.316602
1.3484132
35.966689
1.0646528
36.702289
0.75447282
36.652669
0.40238457
36.838643
36.48244
-0.066672753
36.549112
-0.062612262
36.834583
-0.0094270723
36.599484
0.10474258
36.588119
0.22853882
35.842893
0.42602711
35.119113
0.64542228
33.182864
0.9624486
30.716953
26.33663
1.104614
-0.074994125
36.624107
-0.072521338
36.83211
-0.066353502
36.593316
0.0047394072
36.517026
0.11450041
35.733132
0.29853911
34.935075
0.48379253
32.997611
0.73293295
30.467813
26.263552
0.8060114
-0.098468134
36.722575
-0.1197545
36.853396
-0.084728909
36.55829
0.008988022
36.423309
0.10671694
35.635403
0.28523038
34.756561
0.45639908
32.826442
0.69643415
30.227778
26.17661
0.78337625
-0.1039645
36.826539
-0.13480605
36.884238
-0.15228125
36.575765
-0.099636146
36.370664
-0.010491206
35.546258
0.15600273
34.590067
0.30723843
32.675207
0.50720459
30.027812
26.144364
0.53945039
-0.12719276
36.953732
-0.16957005
36.926615
-0.15700142
36.563197
-0.084156853
36.297819
-0.0022900848
35.464391
0.16422816
34.423549
0.30678863
32.532646
0.49180102
29.842799
26.080229
0.55593617
-0.13257325
37.086305
-0.1881627
36.982205
-0.22208422
36.597118
-0.1851531
36.260888
-0.10884595
35.388084
0.039551222
34.275152
0.16643678
32.405761
0.32440517
29.684831
26.037495
0.36713929
-0.15599922
37.242304
-0.21744229
37.043648
-0.2231185
36.602794
-0.16006689
36.197837
-0.082128079
35.310145
0.064240726
34.128783
0.18608295
32.283918
0.33902295
29.531891
25.94798
0.42853772
-0.15903474
37.401339
-0.2303467
37.11496
-0.27463134
36.647079
-0.25063351
36.173839
-0.18864039
35.248152
-0.056613363
33.996756
0.05430729
32.172998
0.20127976
29.384919
25.859865
0.28939469
-0.17880366
37.580143
-0.25027419
37.18643
-0.2726527
36.669457
-0.21936915
36.120555
-0.14524896
35.174032
-0.0094951406
33.861002
0.095611991
32.067891
0.24109989
29.239431
25.731419
0.3695461
-0.12563228
25.608076
0.24897484
0.022265089
29.091533
0.12533953
31.964816
0.24521629
33.741125
0.29785514
35.121393
0.31418076
36.10423
0.26131451
36.722324
0.1813614
37.266383
37.761504
-0.18407442
25.459427
0.33272353
-0.038725566
28.946184
0.060173451
31.865917
0.18641643
33.614882
0.24962297
35.058187
0.2927278
36.061125
0.26281419
36.752237
0.19093119
37.338266
37.952435
-0.084661727
25.315495
0.22859385
0.06131984
28.800203
0.16438658
31.76285
0.27692573
33.502343
0.3277068
35.007405
0.34385291
36.044979
0.27681469
36.819276
0.19156155
37.42352
38.143997
-0.15668058
25.157483
0.31469256
-0.01518078
28.658703
0.080459051
31.667211
0.20014876
33.382654
0.2540661
34.953488
0.29061734
36.008428
0.25776347
36.852129
0.19059063
37.490692
38.334588
-0.064900567
25.004431
0.21795226
0.069989516
28.523813
0.17279239
31.564408
0.28127762
33.274168
0.3282473
34.906518
0.33905639
35.997618
0.26912159
36.922064
0.18953969
37.570274
38.524127
-0.15032534
24.8482
0.30655694
-0.023241182
28.396729
0.070040225
31.471126
0.18430862
33.1599
0.23179546
34.859032
0.26767715
35.961737
0.23838045
36.951361
0.17844652
37.630208
38.702574
-0.073030666
24.709017
0.21221335
0.047429992
28.276268
0.14607018
31.372486
0.25385591
33.052114
0.29633533
34.816552
0.30462522
35.953447
0.24264239
37.013344
0.17260299
37.700248
38.875177
-0.17685005
24.590161
0.29570584
-0.065623223
28.165041
0.023268922
31.283594
0.13855228
32.936831
0.1824941
34.77261
0.21707452
35.918866
0.19569109
37.034727
0.15067571
37.745263
39.025853
-0.12327273
24.510125
0.20330864
-0.013906084
28.055675
0.081334875
31.188353
0.19319072
32.824975
0.23097907
34.734822
0.24443049
35.905415
0.19340839
37.085749
0.137544
37.801127
39.163397
0.031825419
39.131571
0.11783569
37.715117
0.2081243
36.995461
0.31272693
35.800812
0.40433201
34.643217
0.52462461
32.704682
0.60701002
31.105968
0.59584267
28.066842
24.64015
0.46581781
0.065201203
39.06637
0.14226247
37.638056
0.20908369
36.928639
0.30151334
35.708383
0.38224927
34.562481
0.50545572
32.581476
0.61126367
31.00016
0.58855838
28.089547
24.88455
0.34415814
0.11434654
38.952023
0.24002534
37.512377
0.35760642
36.811058
0.47578474
35.590204
0.57381733
34.464448
0.70242276
32.452871
0.82881408
30.873768
0.84569842
28.072663
25.236083
0.49416597
0.16004939
38.791974
0.28034269
37.392084
0.37354903
36.717852
0.4805827
35.483171
0.5701528
34.374878
0.70701152
32.316012
0.87627016
30.70451
0.94372399
28.005209
25.69635
0.48345623
0.21344055
38.578533
0.38591781
37.219607
0.53902824
36.564742
0.67626298
35.345936
0.78060024
34.270541
0.91251592
32.184096
1.1040054
30.51302
1.2412503
27.867964
26.421027
0.5165743
0.26452741
38.314006
0.43920544
37.044928
0.57638089
36.427566
0.70507073
35.217246
0.79817263
34.177439
0.92672327
32.055546
1.1558292
30.283914
1.4288487
27.594945
27.018193
0.83168178
0.32685005
37.987156
0.5623217
36.809457
0.76047292
36.229415
0.92080233
35.056917
1.027933
34.070309
1.1340202
31.949458
1.3414021
30.076532
1.7332838
27.203063
27.693869
1.0576082
0.38333166
37.603824
0.62224453
36.570544
0.80593702
36.045722
0.96866856
34.894185
1.07122
33.967757
1.1526487
31.86803
1.3681019
29.861079
1.9565516
26.614613
27.865735
1.784686
0.4471591
37.156665
0.75365115
36.264052
1.0172346
35.782139
1.2409782
34.670442
1.3612606
33.847475
1.4043545
31.824936
1.568466
29.696968
2.2386474
25.944432
27.479872
2.6245095
-1.3680453
38.52471
-2.8284828
37.724489
-4.3512006
37.304857
-5.7838145
36.103055
-7.0332556
35.096916
-8.0908265
32.882507
-8.6795849
30.285726
-9.0301917
26.295039
28.568039
-10.118359
-1.3588509
39.883561
-2.8202739
39.185912
-4.3227235
38.807306
-5.8041194
37.584451
-7.1422371
36.435034
-8.2072753
33.947545
-8.8416331
30.920084
-8.9087186
26.362124
28.067771
-8.40845
-1.3048342
41.188396
-2.7775226
40.658601
-4.3316529
40.361437
-5.8784493
39.131248
-7.2375627
37.794147
-8.2785644
34.988547
-8.8500445
31.491564
-8.3439493
25.856029
22.941389
-3.2175673
-1.2581318
42.446527
-2.7406113
42.14108
-4.2872207
41.908046
-5.8898877
40.733915
-7.3508128
39.255072
-8.3983225
36.036056
-8.765405
31.858646
-7.6737212
24.764345
15.326634
-0.058966877
-1.1975798
43.644107
-2.6948162
43.638317
-4.2856158
43.498846
-5.9427686
42.391067
-7.4263489
40.738652
-8.4938103
37.103518
-8.6540406
32.018877
-6.7400016
22.850306
8.6152344
-0.028601655
-1.1428199
44.786927
-2.6439398
45.139437
-4.2139164
45.068822
-5.9305039
44.107655
-7.5159645
42.324113
-8.6093223
38.196876
-8.3833926
31.792947
-5.2454263
19.71234
2.7811138
0.58869429
-1.0582699
45.845197
-2.5745255
46.655692
-4.1933571
46.687654
-5.9632373
45.877535
-7.5829989
43.943875
-8.610453
39.22433
-7.6269518
30.809446
-2.6313944
14.716783
-0.6014004
0.75111977
-0.99937566
46.844573
-2.4885376
48.144854
-4.0923201
48.291437
-5.9384453
47.72366
-7.630886
45.636315
-8.5838903
40.177334
-6.6753874
28.900943
-1.6203087
9.6617041
-3.0115402
0.78983116
-0.90783058
47.752403
-2.4047492
49.641773
-4.0622357
49.948923
-5.9511789
49.612603
-7.6403662
47.325503
-8.3983358
40.935304
-5.2212235
25.72383
-0.40571399
4.8461946
-4.3964891
0.97923483
-0.19208649
-4.7490318
0.54462923
2.5290609
2.1250472
5.1393122
23.113579
4.6373457
41.43727
3.4621424
48.500706
2.1624644
50.912281
1.1384158
50.972972
0.29798185
50.482207
48.050385
-0.41156674
-4.9170824
0.57961728
2.1707537
-0.45727332
5.0201612
20.264172
4.5860116
41.87142
3.3737988
49.712919
2.0693618
52.216718
1.01788
52.024454
0.2092556
51.290831
48.259641
-0.43120085
-5.045798
0.55991646
2.041763
-2.9302372
4.8783543
17.427581
4.5546411
42.195133
3.2983927
50.969167
1.9424839
53.572627
0.91904132
53.047896
0.16425212
52.04562
48.423893
-0.30424162
-5.2933206
0.55176425
2.1103564
-5.3448352
4.7322063
14.805731
4.4707268
42.456612
3.1966829
52.243211
1.8392683
54.930042
0.78924024
54.097924
0.079951519
52.754909
48.503844
-0.17211648
-5.5294595
0.40825544
2.150994
-7.6679457
4.6070357
12.349689
4.4187778
42.64487
3.100637
53.561352
1.6997799
56.330899
0.68753221
55.110172
0.038603334
53.403838
48.542448
-0.072513229
-5.7382493
0.28130292
2.1479982
-9.8884571
4.4741076
10.02358
4.3130844
42.805893
2.9803925
54.894044
1.5780594
57.733232
0.55681507
56.131416
-0.029300096
53.989953
48.513147
0.038913269
-5.9080804
0.13091789
2.1399757
-11.989519
4.328139
7.8354163
4.2504023
42.88363
2.8675469
56.276899
1.4343755
59.166403
0.4556437
57.110148
-0.066419915
54.512017
48.446728
0.10492434
-6.2302514
0.21724668
2.1391215
-14.023717
4.1773223
5.7972156
4.1149448
42.946008
2.7313426
57.660501
1.3091132
60.588633
0.32987285
58.089389
-0.12545262
54.967342
48.321275
0.13828559
-6.2580731
-0.11046382
2.0320946
-15.917526
3.9942192
3.835091
4.0606421
42.879585
2.6061446
59.114999
1.1615502
62.033227
0.22558243
59.025356
-0.15034946
55.343274
48.170925
2.0390499
-9.0977149
0.80059191
4.9343677
-18.812844
4.5085949
4.2608639
1.8486903
45.539489
-0.9066009
61.87029
-2.5465382
63.673164
-2.9191001
59.397918
-1.9433591
54.367533
46.227566
2.727606
-12.209522
0.38420096
5.0361316
-21.121369
3.8940951
5.4029004
0.8131593
48.620425
-2.3718306
65.05528
-3.8022557
65.103589
-3.5702509
59.165913
-2.0825055
52.879788
44.145061
3.0310094
-15.335094
0.094562501
5.0072144
-23.097574
3.1157566
7.2943582
-0.40553529
52.141717
-3.1269243
67.776669
-4.0426549
66.01932
-3.759239
58.882497
-2.1041014
51.22465
42.04096
3.2584068
-18.380197
-0.21330383
4.9094172
-24.748584
2.5592358
9.6445396
-1.454552
56.155505
-4.3042033
70.62632
-5.0850993
66.800216
-4.2506712
58.048069
-1.987404
48.961383
40.053556
3.3133538
-20.208051
-1.4854994
4.6739319
-26.109163
1.5840553
12.734416
-2.7503248
60.489885
-4.9665498
72.842545
-5.1912715
67.024938
-3.8704441
56.727242
-1.7993448
46.890284
38.254211
3.2233814
-21.193962
-2.2374704
4.5226843
-27.408465
1.0206623
16.236438
-3.5851151
65.095662
-5.8486908
75.106121
-5.9347184
67.110965
-4.395087
55.18761
-2.4317552
44.926952
35.822456
3.0755011
-22.828415
-1.4410484
4.175572
-28.508536
-0.06325603
20.475266
-4.7957285
69.828135
-6.2500135
76.560406
-5.6590482
66.52
-3.8358555
53.364418
-1.9880026
43.079099
33.834453
3.0165292
-25.209975
-0.63496885
4.0649185
-29.556926
-0.50589413
25.046079
-5.4544306
74.776671
-6.8249224
77.930898
-6.315355
66.010433
-4.0895655
51.138628
-1.8488188
40.838352
31.985634
2.917889
-0.74683115
-27.381033
3.4728582
-30.111895
-1.8359772
30.354914
-6.913941
79.854635
-7.2415555
78.258512
-5.7366495
64.505527
-2.9192794
48.321258
-0.65006244
38.569135
31.335572
-0.95950747
12.704671
0.44602502
-12.191188
-1.1584985
55.645513
-55.446522
0.27500738
60.781392
-62.214898
4.3856147
-0.57410473
-3.5365026
6.9936046
-37.481609
34.873619
8.4309477
-49.968108
48.530765
8.8385205
-55.613245
55.205672
8.3267747
-47.077884
47.58963
-4.9854963
5.0172312
-1.004496
13.271925
0.43724241
-1.1622104
55.803228
0.63295142
58.98623
4.852289
-4.7934423
7.5056742
-40.134994
9.082087
-51.544521
9.4673816
-55.99854
8.6968905
-46.307393
-4.9247424
-1.0430719
13.866852
0.44814486
-1.1420282
55.902184
1.0276076
56.816595
5.4022074
-9.168042
8.1071906
-42.839977
9.7700752
-53.207406
10.154671
-56.383136
9.1945162
-45.347238
-4.8858023
-1.0841161
14.50346
0.44750782
-1.0996589
55.917727
1.472967
54.243969
6.0065477
-13.701623
8.7298406
-45.56327
10.441692
-54.919257
10.819837
-56.761281
9.6941378
-44.221539
-4.9662088
-1.132037
15.197017
0.43848087
-1.0492387
55.834929
1.9419095
51.252821
6.6059507
-18.365664
9.3139048
-48.271224
11.009958
-56.61531
11.334523
-57.085847
10.101168
-42.988183
-5.3306047
-1.147024
15.890163
0.45387803
-0.91966783
55.607573
2.4476442
47.885509
7.2423008
-23.16032
9.9350898
-50.964013
11.534593
-58.214813
11.637141
-57.188394
10.338579
-41.689621
-6.1167608
-1.1785796
16.619622
0.44912114
-0.77616573
55.205159
2.9962576
44.113085
7.8892637
-28.053327
10.566111
-53.640861
12.086406
-59.735109
11.899126
-57.001114
10.54187
-40.332365
-7.3655278
-1.234395
17.40992
0.44409644
-0.64680661
54.61757
3.5882145
39.878064
8.4893962
-32.954508
11.179109
-56.330573
12.663869
-61.219868
12.11714
-56.454385
10.700098
-38.915323
-9.0526805
-1.2879702
0.4285947
18.269296
-0.47030888
53.799909
4.2423703
35.165385
9.0825281
-37.794666
11.808745
-59.05679
13.236679
-62.647803
12.395314
-55.61302
10.999045
-37.519054
-11.099403
-4.9070238
-14.94204
-1.9726564
21.821719
-9.2898135
-73.104828
77.487617
-7.157864
-72.671104
70.539156
-1.5975184
-40.821966
35.261621
4.3461579
-10.610047
4.6663701
8.2769497
-4.7329469
0.80215517
7.196218
-22.643464
23.724196
1.5205517
-44.714788
50.390454
-63.571543
65.092095
-3.7788558
-7.0649284
-4.0982557
-8.6562553
-68.227429
-7.5719915
-73.755368
-2.5767813
-45.817176
3.8692791
-17.056107
8.1963192
-9.0599871
8.0991459
-22.546291
3.2765927
-39.892235
-60.29495
-3.4640169
1.1001336
-4.7010453
-8.5434944
-63.147951
-7.9784377
-74.320425
-2.9900431
-50.805571
3.6205773
-23.666727
7.4957693
-12.935179
7.2954475
-22.345969
3.2313009
-35.828088
-57.063649
-2.6005017
8.374329
-4.6736938
-7.9523062
-57.796147
-8.5149132
-73.757818
-4.4352888
-54.885195
2.328658
-30.430674
6.6501873
-17.256708
7.4778471
-23.173629
4.2856866
-32.635928
-52.777963
-2.2696872
15.081849
-4.4378329
-7.6248879
-52.440946
-8.4574052
-72.925301
-5.5611002
-57.7815
-0.049783175
-35.941991
4.6612842
-21.967776
5.7150312
-24.227376
3.874917
-30.795814
-48.903046
-1.3811485
20.228247
-3.7652505
-6.9699061
-46.852188
-8.6213999
-71.273807
-6.3443572
-60.058543
-1.6472244
-40.639124
2.9496873
-26.564687
5.287382
-26.565071
4.2462197
-29.754651
-44.656826
-1.3031831
23.438065
-1.906636
-6.4484964
-41.706876
-8.3287275
-69.393575
-6.7538556
-61.633415
-2.8392603
-44.553719
1.0670575
-30.471005
3.2986351
-28.796648
3.3644624
-29.820479
-41.292364
-0.96811194
24.270702
0.13547435
-5.6224479
-37.05254
-7.9755581
-67.040465
-7.2290125
-62.379961
-4.1265053
-47.656226
-0.28493601
-34.312575
2.3792491
-31.460833
2.9325916
-30.373821
-38.359772
-0.89763867
23.90773
1.2606097
-4.8169223
-33.133257
-7.460452
-64.396935
-7.2967236
-62.543689
-4.7510965
-50.201853
-1.4883517
-37.575319
0.84823401
-33.797419
2.0999033
-31.62549
-36.259869
-0.18218878
31.352544
-31.170355
-0.062214168
33.346973
-33.466948
-0.078343364
35.733307
-35.717177
-0.19239063
39.605027
-39.49098
-0.93894862
46.531247
-45.784689
-2.1774886
53.959924
-52.721384
-3.2485157
57.257513
-56.186486
-2.0410358
44.956379
-46.163859
-6.9807115
4.8544738
0.085201443
-0.26758232
31.620126
-0.099655865
33.179047
-0.069678589
35.703329
-0.11879904
39.654148
-0.79370689
47.206155
-1.976519
55.142736
-3.0240183
58.305013
-1.7355651
43.667925
-9.4343045
0.71802791
-0.31586824
31.935995
-0.14192225
33.005101
-0.05989538
35.621302
-0.032781871
39.627034
-0.68682697
47.8602
-1.8556367
56.311546
-2.8494379
59.298814
-1.4359806
42.254468
-11.729159
0.85887396
-0.42370445
32.359699
-0.21714908
32.798545
-0.079468471
35.483622
0.036332578
39.511233
-0.52644153
48.422974
-1.6499263
57.43503
-2.6080638
60.256952
-1.2623676
40.908771
-13.943961
0.95243336
-0.51812335
32.877822
-0.2973191
32.577741
-0.098894483
35.285197
0.091026503
39.321312
-0.44090108
48.954901
-1.5412163
58.535346
-2.4373402
61.153075
-1.017369
39.4888
-16.150704
1.1893747
-0.65724671
33.535069
-0.40538344
32.325878
-0.14500157
35.024815
0.14911068
39.0272
-0.26737873
49.371391
-1.3237339
59.591701
-2.2030077
62.03235
-0.72224025
38.008032
-18.294738
1.4217927
-0.77585744
34.310927
-0.52650432
32.076525
-0.1879435
34.686254
0.18648364
38.652773
-0.19135214
49.749227
-1.2225893
60.622938
-2.04422
62.853981
-0.46593947
36.42975
-20.322589
1.5619108
-0.91080824
35.221735
-0.66666471
31.832381
-0.2681698
34.28776
0.22622243
38.15838
-0.018803713
49.994253
-0.99639538
61.60053
-1.8202575
63.677844
-0.22067774
34.83017
-22.309396
1.7661273
-1.0381339
-0.83124285
-0.34090224
0.24215876
0.034558036
-0.90860124
-1.6276921
0.069220454
1.6675543
4.3156568
0.97366643
-0.43484931
7.2104627
-49.058665
5.5803078
-54.556331
3.4904051
-50.631481
2.0493914
-44.343675
1.3314319
-38.77302
0.82451579
-35.210261
0.51766935
-33.160101
-30.652686
6.2040271
-4.7678466
-0.46251413
7.8040895
-50.658727
5.7737561
-52.525998
3.5964443
-48.454169
2.1337405
-42.880971
1.3876848
-38.026965
0.83601427
-34.658591
0.46819846
-32.792286
-30.184487
8.3963415
-12.666433
-0.4977549
8.0563049
-50.318691
5.9071133
-50.376806
3.7937268
-46.340783
2.3256961
-41.41294
1.4731768
-37.174445
0.85819985
-34.043614
0.45439272
-32.388479
-29.730095
9.0792894
-21.6308
-0.11492261
8.2410842
-49.480486
6.0310952
-48.166817
3.8879905
-44.197678
2.4153885
-39.940338
1.5452864
-36.304343
0.89772041
-33.396048
0.42112506
-31.911883
-29.30897
9.8265363
-31.396012
-0.061323936
8.3095853
-47.963534
6.0991063
-45.956338
4.0572266
-42.155798
2.5938546
-38.476967
1.6371619
-35.347651
0.93651563
-32.695401
0.42391767
-31.399285
-28.885052
10.293864
-41.157016
-0.53286135
8.5650921
-46.234762
6.1448072
-43.536053
4.1392038
-40.150195
2.6837806
-37.021543
1.7161459
-34.380016
0.99615455
-31.97541
0.41340123
-30.816532
-28.471651
10.723691
-45.720243
-6.1604636
8.6008208
-44.111891
6.1507663
-41.085999
4.2565892
-38.256018
2.8466855
-35.61164
1.8115249
-33.344855
1.0455273
-31.209412
0.42830756
-30.199312
-28.043343
10.996912
-44.780892
-11.936264
8.3747238
-41.489704
6.1220581
-38.833333
4.3171443
-36.451104
2.9287973
-34.223293
1.8938875
-32.309945
1.1079514
-30.423476
0.43401148
-29.525372
-27.609332
10.907144
-42.406757
-13.281278
8.213765
-38.796325
6.1160171
-36.735585
4.4120567
-34.747144
3.0663859
-32.877622
1.9858722
-31.229432
1.1551887
-29.592793
0.45910255
-28.829286
-27.150229
0.66724415
33.945915
-34.613159
1.2233442
34.417281
-34.973381
1.7108302
35.106785
-35.594271
2.1129649
35.989024
-36.391159
2.3893313
36.875658
-37.152025
2.4204235
37.833691
-37.864783
2.1044518
37.803506
-37.487534
1.3276715
35.72635
-34.94957
29.019832
-28.310769
0.61860941
0.72727214
33.218642
1.311256
33.833297
1.8546852
34.563355
2.2851895
35.55852
2.5771416
36.583706
2.6784794
37.732353
2.3613109
38.120674
1.4957611
36.5919
29.883762
0.63183024
0.76602343
32.452619
1.3938335
33.205487
1.9719072
33.985282
2.4657836
35.064644
2.849092
36.200398
3.0402523
37.541193
2.834398
38.326528
1.9666121
37.459686
31.132467
0.71790715
0.81190304
31.640716
1.4737273
32.543663
2.1042613
33.354748
2.6218816
34.547023
3.0299663
35.792313
3.2987827
37.272377
3.1754608
38.44985
2.3134772
38.321669
32.755455
0.69048999
0.84805512
30.792661
1.5386703
31.853048
2.2148023
32.678616
2.7962067
33.965619
3.2911581
35.297362
3.6448626
36.918672
3.707006
38.387707
3.015253
39.013422
34.966559
0.80414828
0.88155615
29.911105
1.6048946
31.129709
2.3211233
31.962387
2.9242391
33.362503
3.4449937
34.776607
3.8906337
36.473032
4.0729465
38.205394
3.5996012
39.486768
37.414115
1.1520458
0.90171638
29.009388
1.6502345
30.381191
2.409427
31.203195
3.0783148
32.693615
3.668403
34.186519
4.1914617
35.949973
4.577161
37.819695
4.3662452
39.697683
39.579893
2.200467
0.92479805
28.08459
1.6933381
29.612651
2.4809694
30.415563
3.1744236
32.000161
3.78902
33.571923
4.3634887
35.375505
4.7741472
37.409036
5.0024003
39.46943
41.426178
3.1561152
0.93436106
1.7177261
2.5404965
3.3112259
4.0055266
4.6338879
5.3073393
5.9804447
4.9998655
-0.57498537
-28.092275
0.3564906
-1.1038023
-34.420753
-1.4351911
-37.156145
-1.5165957
-37.783379
-1.4366124
-37.232008
-1.2205309
-36.607241
-0.89098753
-35.923814
-0.50028201
-35.364087
-35.113441
-0.56358585
-27.890074
0.36138575
-1.0092777
-33.975061
-1.2977821
-36.867641
-1.3921204
-37.68904
-1.2948543
-37.329274
-1.0928411